      -----------------------------------------------------------      
     |                   =====================                   |     
     |                           x T B                           |     
     |                   =====================                   |     
     |                         S. Grimme                         |     
     |          Mulliken Center for Theoretical Chemistry        |     
     |                    University of Bonn                     |     
     |                Version 6.2 RC2 (SAW190805)                |     
      -----------------------------------------------------------      

   This program is distributed in the hope that it will be useful,
   but WITHOUT ANY WARRANTY; without even the implied warranty of
   MERCHANTABILITY or FITNESS FOR A PARTICULAR PURPOSE.
   
   FOR NON-COMMERCIAL, ACADEMIA USE ONLY.
   
   Cite this work as:
   * S. Grimme, C. Bannwarth, P. Shushkov, J. Chem. Theory Comput., 2017,
     13, 1989-2009. DOI: 10.1021/acs.jctc.7b00118
   * C. Bannwarth, S. Ehlert and S. Grimme., J. Chem. Theory Comput., 2019,
     15, 1652-1671. DOI: 10.1021/acs.jctc.8b01176
   * P. Pracht, E. Caldeweyher, S. Ehlert, S. Grimme, ChemRxiv, 2019, preprint.
     DOI: 10.26434/chemrxiv.8326202.v1
   
   for DFT-D4:
   * E. Caldeweyher, C. Bannwarth and S. Grimme, J. Chem. Phys., 2017,
     147, 034112. DOI: 10.1063/1.4993215
   * E. Caldeweyher, S. Ehlert, A. Hansen, H. Neugebauer, S. Spicher,
     C. Bannwarth and S. Grimme, J. Chem. Phys., 2019, 150, 154122.
     DOI: 10.1063/1.5090222
   
   for sTDA-xTB:
   * S. Grimme and C. Bannwarth, J. Chem. Phys., 2016, 145, 054103.
     DOI: 10.1063/1.4959605
   
   in the mass-spec context:
   * V. Asgeirsson, C. Bauer and S. Grimme, Chem. Sci., 2017, 8, 4879.
     DOI: 10.1039/c7sc00601b
   
   for metadynamics refer to:
   * S. Grimme, J. Chem. Theory Comput., 2019, 155, 2847-2862
     DOI: 10.1021/acs.jctc.9b00143
   
   with help from (in alphabetical order)
   C. Bannwarth, F. Bohle, G. Brandenburg, E. Caldeweyher, M. Checinski,
   S. Dohm, S. Ehlert, S. Ehrlich, F. März, H. Neugebauer, J. Pisarek,
   P. Pracht, P. Shushkov, and S. Spicher.
   
 * started run on 2021/06/22 at 03:18:44.249     

           -------------------------------------------------
          |                Calculation Setup                |
           -------------------------------------------------

          program call               : /home/atarzia/software/xtb-190806/bin/xtb /data/atarzia/projects/unsymm/screening/production/free_energy_calculations/fe_4c3_b/input_structure.xyz --gfn 2 --hess --parallel 6 --etemp 300 --gbsa dmso --chrg 4 --uhf 0 -I det_control.in
          coordinate file            : /data/atarzia/projects/unsymm/screening/production/free_energy_calculations/fe_4c3_b/input_structure.xyz
          omp threads                :                     6
          number of atoms            :                   202
          number of electrons        :                   624
          charge                     :                     4
          spin                       :                   0.0
          first test random number   :      0.85486820324501


########################################################################
# WARNING! Please study the warnings concerning your input carefully
#  - XTBHOME is not set, using HOME instead
#  - XTBPATH is not set, using XTBHOME instead
#  - Process number higher than OMP_NUM_THREADS, I hope you know what you are doing.
########################################################################

           ------------------------------------------------- 
          |                 G F N 2 - x T B                 |
          | Geometry, Frequencies, Noncovalent interactions |
          |            JCTC 2019 parametrisation            |
           ------------------------------------------------- 
             k(s)              :                1.8500
             k(p)              :                2.2300
             k(d)              :                2.2300
             k(f)              :                2.0000
             kEN (H0ij)        :               -2.0000
             D4 a1             :                0.5200
             D4 a2             :                5.0000
             D4 s6             :                1.0000
             D4 s8             :                2.7000
             D4 s9             :                5.0000
             alphaj            :                2.0000

  Z AO/shell   Hii/eV     exponent
  1     Wed Apr 25 08:07:45 CEST 2018   EN: 2.200 GM2: 0.406  GM3: 0.0800  RAES: 1.40
     1s    -10.707211    1.230000
  6     Wed Apr 25 08:07:45 CEST 2018   EN: 2.550 GM2: 0.538  GM3: 0.1500  RAES: 3.00
     2s    -13.970922    2.096432
     2p    -10.063292    1.800000
  7     Wed Apr 25 08:07:45 CEST 2018   EN: 3.040 GM2: 0.461  GM3:-0.0640  RAES: 1.90
     2s    -16.686243    2.339881
     2p    -12.523956    2.014332
 46     Wed Apr 25 16:26:58 CEST 2018   EN: 2.200 GM2: 0.273  GM3: 0.0800  RAES: 5.00
     4d    -11.963518    2.353691
     5s     -9.714059    1.828354
     5p     -2.035281    1.333352

 Solvent             : dmso
 Using internal parameter file: .param_gbsa2_dmso
 Gsolv ref. state (COSMO-RS): gsolv [1 M gas/solution]
 temperature (mdtemp)       :    298.150000000000     
 dielectric constant        :    46.6800000000000     
 rho                        :    1.10000000000000     
 mass                       :    78.1300000000000     
 surface tension            :    15.5689454083859     
 probe radius               :   0.949087640000000     
 vdW radii scaling          :    1.00000000000000     
 Gshift (Eh)                :   5.161738145414381E-003
 c1                         :    1.63948621000000     
 soset                      :   1.179665000000000E-002
 HB correction              :  T
           ------------------------------------------------- 
          |        Self-Consistent Charge Iterations        |
           ------------------------------------------------- 

          ...................................................
          :                      SETUP                      :
          :.................................................:
          :  # basis functions                 616          :
          :  # atomic orbitals                 614          :
          :  # shells                          338          :
          :  # electrons                       624          :
          :  max. iterations                   250          :
          :  Hamiltonian                  GFN2-xTB          :
          :  restarted?                      false          :
          :  GBSA solvation                   true          :
          :  PC potential                    false          :
          :  electronic temp.          300.0000000     K    :
          :  accuracy                    1.0000000          :
          :  -> integral cutoff          0.2500000E+02      :
          :  -> integral neglect         0.1000000E-07      :
          :  -> SCF convergence          0.1000000E-05 Eh   :
          :  -> wf. convergence          0.1000000E-03 e    :
          :  Broyden damping             0.4000000          :
          ...................................................

 iter      E             dE          RMSdq      gap      omega  full diag
   1   -340.1733164 -0.340173E+03  0.518E+00    2.05       0.0  T
   2   -340.7075903 -0.534274E+00  0.325E+00    1.15       1.0  T
   3   -340.5255294  0.182061E+00  0.179E+00    1.75       1.0  T
   4   -340.8178808 -0.292351E+00  0.928E-01    1.35       1.0  T
   5   -340.9395705 -0.121690E+00  0.365E-01    1.47       1.0  T
   6   -340.9629856 -0.234151E-01  0.143E-01    1.49       1.0  T
   7   -340.9653662 -0.238062E-02  0.644E-02    1.50       1.0  T
   8   -340.9655355 -0.169259E-03  0.354E-02    1.50       1.0  T
   9   -340.9655867 -0.512783E-04  0.170E-02    1.49       1.0  T
  10   -340.9656107 -0.239309E-04  0.899E-03    1.50       1.0  T
  11   -340.9656151 -0.446412E-05  0.576E-03    1.50       1.2  T
  12   -340.9656184 -0.323077E-05  0.232E-03    1.50       3.0  T
  13   -340.9656185 -0.176875E-06  0.114E-03    1.50       6.2  T
  14   -340.9656186 -0.593563E-07  0.641E-04    1.50      11.0  T
  15   -340.9656186 -0.116568E-07  0.411E-04    1.50      17.1  T

   *** convergence criteria satisfied after 15 iterations ***

         #    Occupation            Energy/Eh            Energy/eV
      -------------------------------------------------------------
         1        2.0000           -0.7259178             -19.7532
       ...           ...                  ...                  ...
       306        2.0000           -0.3875777             -10.5465
       307        2.0000           -0.3871807             -10.5357
       308        2.0000           -0.3871160             -10.5340
       309        2.0000           -0.3739997             -10.1770
       310        2.0000           -0.3726200             -10.1395
       311        2.0000           -0.3724219             -10.1341
       312        2.0000           -0.3719802             -10.1221 (HOMO)
       313                         -0.3169650              -8.6251 (LUMO)
       314                         -0.3157084              -8.5909
       315                         -0.3151255              -8.5750
       316                         -0.3138573              -8.5405
       317                         -0.3027113              -8.2372
       ...                                ...                  ...
       614                          1.5793216              42.9755
      -------------------------------------------------------------
                  HL-Gap            0.0550152 Eh            1.4970 eV
             Fermi-level           -0.3442537 Eh           -9.3676 eV

 SCC (total)                   0 d,  0 h,  0 min,  3.808 sec
 SCC setup                      ...        0 min,  0.141 sec (  3.715%)
 Dispersion                     ...        0 min,  0.060 sec (  1.582%)
 integral evaluation            ...        0 min,  0.582 sec ( 15.298%)
 zeroth order Hamiltonian       ...        0 min,  0.007 sec (  0.182%)
 iterations                     ...        0 min,  2.595 sec ( 68.143%)
 molecular gradient             ...        0 min,  0.406 sec ( 10.661%)
 printout                       ...        0 min,  0.016 sec (  0.417%)

         :::::::::::::::::::::::::::::::::::::::::::::::::::::
         ::                     SUMMARY                     ::
         :::::::::::::::::::::::::::::::::::::::::::::::::::::
         :: total energy            -334.588719110709 Eh    ::
         :: total w/o Gsasa/hb      -334.441317601589 Eh    ::
         :: gradient norm              0.000800532320 Eh/a0 ::
         :: HOMO-LUMO gap              1.497040147690 eV    ::
         ::.................................................::
         :: SCC energy              -341.092307746342 Eh    ::
         :: -> isotropic ES            0.562889121283 Eh    ::
         :: -> anisotropic ES         -0.063382207425 Eh    ::
         :: -> anisotropic XC          0.221199103077 Eh    ::
         :: -> dispersion             -0.322167695639 Eh    ::
         :: -> Gsolv                  -0.620953215288 Eh    ::
         ::    -> Gborn               -0.473551706168 Eh    ::
         ::    -> Gsasa               -0.131850878422 Eh    ::
         ::    -> Ghb                 -0.020712368844 Eh    ::
         ::    -> Gshift               0.005161738145 Eh    ::
         :: repulsion energy           6.492837618545 Eh    ::
         :: add. restraining           0.000000000000 Eh    ::
         :::::::::::::::::::::::::::::::::::::::::::::::::::::

           ------------------------------------------------- 
          |                Numerical Hessian                |
           ------------------------------------------------- 
step length          :   0.00500
SCC accuracy         :   0.30000
Hessian scale factor :   1.00000
frozen atoms in %    :   0.00000    0
RMS gradient         :   0.00080
estimated CPU  time    191.33 min
estimated wall time     47.46 min

writing file <hessian>.

 projected vibrational frequencies (cm-1)
eigval :       -0.00    -0.00    -0.00    -0.00     0.00     0.00
eigval :        5.02     6.37     7.50     8.71    10.98    11.90
eigval :       12.89    16.21    17.90    18.61    20.65    24.95
eigval :       26.35    27.58    29.83    33.15    34.87    36.83
eigval :       37.71    39.71    44.20    48.05    51.39    52.37
eigval :       54.56    55.22    56.15    57.95    60.17    60.74
eigval :       66.11    68.63    75.63    76.79    79.43    84.89
eigval :       86.67    88.29    90.03    93.57    95.70    96.63
eigval :       98.48    99.45   105.23   112.25   114.54   115.50
eigval :      119.09   127.10   127.47   129.25   132.12   133.96
eigval :      135.21   136.54   140.77   146.93   150.70   155.68
eigval :      159.60   161.37   162.56   163.17   164.68   169.13
eigval :      170.69   172.72   175.05   179.14   183.22   184.99
eigval :      191.32   193.81   196.96   203.92   210.74   212.46
eigval :      215.06   218.17   218.35   221.27   226.61   233.19
eigval :      236.49   240.03   244.80   247.44   250.42   250.84
eigval :      252.55   258.85   260.69   262.42   264.95   266.02
eigval :      268.83   272.87   275.09   279.88   302.58   305.40
eigval :      305.94   306.84   307.67   310.44   310.87   312.54
eigval :      338.78   339.21   339.58   342.77   379.96   386.26
eigval :      387.79   388.22   388.35   389.92   391.37   392.01
eigval :      392.15   393.25   393.62   394.14   395.51   397.07
eigval :      397.20   401.25   418.80   419.70   420.67   420.76
eigval :      424.93   425.95   426.16   426.41   433.04   433.14
eigval :      433.27   433.48   433.60   434.17   434.23   435.09
eigval :      442.36   443.09   445.05   446.13   450.99   453.10
eigval :      453.39   454.96   465.56   466.49   467.40   467.59
eigval :      472.49   473.17   473.39   474.38   486.00   487.10
eigval :      487.44   487.83   502.66   508.98   509.30   510.39
eigval :      510.85   512.03   512.50   514.93   515.44   517.19
eigval :      518.32   519.60   523.83   523.97   524.09   524.31
eigval :      537.50   537.69   538.18   539.24   552.30   555.74
eigval :      555.76   557.09   566.13   566.49   566.82   568.09
eigval :      581.68   582.69   583.28   583.76   603.45   604.15
eigval :      604.24   604.50   615.83   615.98   616.03   616.21
eigval :      620.32   622.96   623.81   623.99   625.15   625.45
eigval :      625.62   627.71   664.22   667.39   669.23   670.01
eigval :      670.26   670.83   671.00   671.31   682.64   683.21
eigval :      683.63   684.23   691.75   692.77   692.91   693.75
eigval :      710.59   711.20   711.93   712.41   725.02   725.04
eigval :      725.28   726.10   754.78   755.43   755.68   756.94
eigval :      772.64   776.18   776.88   778.24   778.79   778.86
eigval :      779.13   779.85   800.11   802.64   803.83   805.02
eigval :      816.76   816.94   817.68   818.21   819.03   819.94
eigval :      820.48   820.91   821.20   821.76   822.07   823.29
eigval :      830.31   831.13   831.82   833.01   847.29   848.73
eigval :      849.22   849.51   850.64   852.94   853.86   856.37
eigval :      858.16   858.86   858.94   859.10   860.47   861.23
eigval :      861.38   862.21   862.47   862.69   864.22   864.64
eigval :      871.97   872.75   873.51   874.46   887.93   890.52
eigval :      890.87   891.91   893.99   894.33   894.40   894.77
eigval :      899.05   899.67   901.21   901.39   902.62   903.11
eigval :      903.39   904.02   907.14   907.51   908.21   908.45
eigval :      908.80   909.07   909.96   912.20   928.57   928.77
eigval :      929.31   930.35   933.66   934.60   934.73   934.95
eigval :      950.42   951.61   952.97   953.59   996.33   998.04
eigval :      999.42  1001.01  1015.71  1016.18  1016.27  1017.09
eigval :     1045.01  1045.83  1045.90  1046.82  1076.61  1077.79
eigval :     1081.46  1081.86  1084.70  1085.07  1086.67  1088.56
eigval :     1103.83  1105.94  1106.14  1106.40  1119.10  1120.57
eigval :     1120.80  1122.63  1125.56  1126.35  1126.87  1127.10
eigval :     1143.83  1143.85  1144.16  1144.27  1149.19  1149.71
eigval :     1149.84  1150.67  1156.33  1156.56  1156.84  1156.99
eigval :     1160.66  1161.78  1161.98  1163.54  1167.07  1167.93
eigval :     1168.55  1169.68  1169.73  1170.56  1171.63  1174.00
eigval :     1187.33  1187.71  1188.17  1188.48  1199.71  1200.82
eigval :     1201.60  1201.99  1213.10  1213.70  1214.02  1214.36
eigval :     1219.81  1220.45  1220.64  1221.32  1229.63  1230.39
eigval :     1230.56  1231.68  1232.15  1234.87  1237.62  1238.41
eigval :     1238.72  1239.65  1242.73  1243.08  1279.39  1280.03
eigval :     1280.31  1280.65  1292.66  1293.77  1293.88  1295.73
eigval :     1297.32  1297.77  1298.54  1299.33  1300.05  1300.67
eigval :     1300.94  1301.84  1319.57  1320.56  1320.75  1321.67
eigval :     1336.45  1336.81  1337.23  1338.03  1338.80  1339.24
eigval :     1339.72  1341.78  1358.58  1359.17  1359.93  1361.65
eigval :     1368.44  1369.24  1369.90  1371.10  1372.43  1373.48
eigval :     1374.36  1375.06  1381.08  1381.42  1382.63  1382.71
eigval :     1399.95  1400.71  1401.10  1402.52  1415.90  1416.07
eigval :     1416.27  1417.01  1418.37  1418.54  1419.52  1419.70
eigval :     1431.33  1432.11  1432.21  1433.40  1446.60  1446.75
eigval :     1447.46  1448.25  1467.40  1468.08  1468.31  1469.22
eigval :     1480.94  1482.11  1482.66  1483.34  1486.97  1487.12
eigval :     1487.44  1489.11  1520.98  1521.08  1522.79  1524.44
eigval :     1528.08  1529.14  1529.77  1530.32  1542.47  1542.73
eigval :     1542.95  1544.24  1558.53  1559.45  1560.30  1560.85
eigval :     1561.29  1561.48  1562.42  1562.86  1565.00  1566.34
eigval :     1567.62  1568.70  1569.09  1569.50  1569.97  1570.28
eigval :     1586.80  1587.67  1589.27  1590.09  1604.48  1606.18
eigval :     1606.97  1608.16  2293.88  2295.27  2295.59  2296.94
eigval :     2298.77  2300.33  2300.91  2302.68  2968.16  2984.78
eigval :     2988.58  2990.80  2992.26  2995.19  2997.59  2999.29
eigval :     2999.90  3000.09  3000.23  3008.12  3011.12  3019.67
eigval :     3024.14  3032.59  3082.40  3083.23  3083.48  3083.94
eigval :     3084.69  3085.11  3085.75  3086.74  3091.73  3092.07
eigval :     3092.74  3092.83  3096.51  3097.17  3097.72  3098.44
eigval :     3098.64  3099.07  3099.83  3100.18  3102.94  3103.29
eigval :     3103.71  3103.94  3107.09  3107.86  3108.10  3108.12
eigval :     3108.24  3108.31  3108.44  3108.97  3109.03  3110.05
eigval :     3110.53  3110.82  3111.26  3111.66  3111.88  3111.90
eigval :     3112.63  3112.94  3115.46  3117.16  3118.15  3118.40
eigval :     3118.91  3119.80  3475.13  3475.39  3476.66  3477.45
           -------------------------------------------------
          |                Property Printout                |
           -------------------------------------------------

    * Orbital Energies and Occupations

         #    Occupation            Energy/Eh            Energy/eV
      -------------------------------------------------------------
         1        2.0000           -0.7259205             -19.7533
       ...           ...                  ...                  ...
       300        2.0000           -0.4033218             -10.9749
       301        2.0000           -0.4024826             -10.9521
       302        2.0000           -0.4021390             -10.9428
       303        2.0000           -0.4012981             -10.9199
       304        2.0000           -0.4010849             -10.9141
       305        2.0000           -0.3881688             -10.5626
       306        2.0000           -0.3875796             -10.5466
       307        2.0000           -0.3871812             -10.5357
       308        2.0000           -0.3871165             -10.5340
       309        2.0000           -0.3740016             -10.1771
       310        2.0000           -0.3726208             -10.1395
       311        2.0000           -0.3724226             -10.1341
       312        2.0000           -0.3719822             -10.1221 (HOMO)
       313                         -0.3169656              -8.6251 (LUMO)
       314                         -0.3157088              -8.5909
       315                         -0.3151254              -8.5750
       316                         -0.3138580              -8.5405
       317                         -0.3027123              -8.2372
       318                         -0.3017555              -8.2112
       319                         -0.3012244              -8.1967
       320                         -0.2982445              -8.1156
       321                         -0.2900849              -7.8936
       322                         -0.2897058              -7.8833
       323                         -0.2889243              -7.8620
       ...                                ...                  ...
       614                          1.5793178              42.9754
      -------------------------------------------------------------
                  HL-Gap            0.0550166 Eh            1.4971 eV
             Fermi-level           -0.3442549 Eh           -9.3677 eV

     #   Z        covCN         q      C6AA      α(0)
     1  46 Pd     3.446    -0.071   273.777    34.124
     2  46 Pd     3.491    -0.090   274.616    34.176
     3   6 C      1.985    -0.018    31.539     9.069
     4   6 C      1.980    -0.045    32.275     9.174
     5   6 C      2.966     0.045    26.988     8.521
     6   6 C      2.925    -0.024    28.603     8.771
     7   6 C      2.914    -0.017    28.423     8.742
     8   6 C      2.914    -0.033    28.827     8.804
     9   6 C      2.989     0.028    27.369     8.582
    10   6 C      2.912    -0.034    28.848     8.807
    11   6 C      2.895     0.042    27.048     8.527
    12   7 N      2.660    -0.090    23.006     7.124
    13   6 C      2.901     0.058    26.696     8.472
    14   6 C      2.988    -0.004    28.127     8.700
    15   1 H      0.926     0.065     2.146     2.291
    16   1 H      0.926     0.058     2.224     2.332
    17   1 H      0.926     0.062     2.179     2.309
    18   1 H      0.926     0.086     1.917     2.165
    19   1 H      0.925     0.112     1.678     2.026
    20   1 H      0.925     0.112     1.682     2.028
    21   6 C      2.973     0.022    27.504     8.603
    22   6 C      2.938    -0.034    28.835     8.807
    23   6 C      2.908    -0.051    29.254     8.869
    24   6 C      3.080     0.055    26.676     8.467
    25   7 N      2.754    -0.127    23.764     7.240
    26   6 C      3.078     0.055    26.692     8.470
    27   6 C      2.908    -0.051    29.263     8.870
    28   6 C      2.935    -0.031    28.780     8.798
    29   6 C      2.973     0.019    27.577     8.614
    30   6 C      2.918    -0.028    28.705     8.786
    31   6 C      3.069    -0.025    28.544     8.760
    32   6 C      3.067    -0.022    28.478     8.751
    33   6 C      2.916    -0.033    28.827     8.804
    34   1 H      0.926     0.043     2.408     2.427
    35   1 H      0.926     0.036     2.502     2.473
    36   1 H      0.860     0.198     1.114     1.653
    37   1 H      0.926     0.036     2.509     2.477
    38   1 H      0.926     0.045     2.384     2.414
    39   1 H      0.926     0.071     2.077     2.254
    40   1 H      0.926     0.069     2.098     2.265
    41   6 C      1.986    -0.006    31.223     9.024
    42   6 C      1.980    -0.044    32.233     9.169
    43   6 C      2.964     0.046    26.974     8.519
    44   6 C      2.931    -0.007    28.202     8.709
    45   6 C      2.911    -0.029    28.731     8.789
    46   6 C      2.904     0.048    26.930     8.509
    47   7 N      2.664    -0.093    23.065     7.133
    48   6 C      2.907     0.043    27.036     8.526
    49   1 H      0.926     0.084     1.942     2.179
    50   1 H      0.926     0.092     1.858     2.132
    51   1 H      0.925     0.121     1.604     1.981
    52   1 H      0.925     0.130     1.533     1.937
    53   6 C      1.984    -0.018    31.537     9.069
    54   6 C      1.981    -0.045    32.261     9.173
    55   6 C      2.965     0.046    26.970     8.518
    56   6 C      2.925    -0.023    28.591     8.769
    57   6 C      2.914    -0.016    28.414     8.741
    58   6 C      2.914    -0.033    28.815     8.802
    59   6 C      2.989     0.028    27.373     8.582
    60   6 C      2.912    -0.033    28.831     8.805
    61   6 C      2.895     0.041    27.074     8.531
    62   7 N      2.658    -0.092    23.041     7.129
    63   6 C      2.896     0.058    26.688     8.470
    64   6 C      2.987    -0.004    28.121     8.699
    65   1 H      0.926     0.066     2.135     2.285
    66   1 H      0.926     0.060     2.202     2.321
    67   1 H      0.926     0.064     2.150     2.293
    68   1 H      0.926     0.089     1.884     2.146
    69   1 H      0.925     0.113     1.670     2.021
    70   1 H      0.925     0.116     1.643     2.004
    71   6 C      2.973     0.023    27.498     8.602
    72   6 C      2.935    -0.035    28.869     8.812
    73   6 C      2.908    -0.053    29.311     8.877
    74   6 C      3.077     0.055    26.681     8.469
    75   7 N      2.753    -0.131    23.848     7.253
    76   6 C      3.075     0.060    26.588     8.454
    77   6 C      2.907    -0.052    29.294     8.875
    78   6 C      2.933    -0.031    28.774     8.797
    79   6 C      2.972     0.024    27.462     8.596
    80   6 C      2.919    -0.033    28.811     8.802
    81   6 C      3.069    -0.017    28.352     8.731
    82   6 C      3.067    -0.018    28.390     8.737
    83   6 C      2.917    -0.035    28.866     8.810
    84   1 H      0.926     0.044     2.401     2.423
    85   1 H      0.926     0.036     2.502     2.474
    86   1 H      0.860     0.199     1.109     1.650
    87   1 H      0.926     0.034     2.530     2.487
    88   1 H      0.926     0.044     2.401     2.423
    89   1 H      0.926     0.068     2.106     2.269
    90   1 H      0.926     0.065     2.136     2.286
    91   6 C      1.985    -0.010    31.307     9.036
    92   6 C      1.980    -0.045    32.269     9.174
    93   6 C      2.964     0.049    26.904     8.508
    94   6 C      2.931    -0.009    28.236     8.714
    95   6 C      2.911    -0.029    28.736     8.790
    96   6 C      2.905     0.047    26.939     8.510
    97   7 N      2.666    -0.087    22.942     7.114
    98   6 C      2.910     0.045    26.981     8.517
    99   1 H      0.926     0.082     1.957     2.187
   100   1 H      0.926     0.089     1.887     2.148
   101   1 H      0.925     0.118     1.628     1.995
   102   1 H      0.925     0.129     1.542     1.942
   103   6 C      1.986    -0.018    31.526     9.067
   104   6 C      1.981    -0.045    32.253     9.171
   105   6 C      2.965     0.045    26.989     8.521
   106   6 C      2.926    -0.024    28.612     8.772
   107   6 C      2.914    -0.017    28.428     8.743
   108   6 C      2.914    -0.033    28.819     8.803
   109   6 C      2.989     0.026    27.405     8.587
   110   6 C      2.912    -0.033    28.828     8.804
   111   6 C      2.897     0.041    27.090     8.534
   112   7 N      2.660    -0.093    23.060     7.132
   113   6 C      2.896     0.057    26.719     8.475
   114   6 C      2.987    -0.007    28.177     8.707
   115   1 H      0.926     0.066     2.130     2.282
   116   1 H      0.926     0.060     2.198     2.319
   117   1 H      0.926     0.064     2.156     2.296
   118   1 H      0.926     0.088     1.895     2.153
   119   1 H      0.925     0.116     1.645     2.005
   120   1 H      0.925     0.118     1.626     1.994
   121   6 C      2.972     0.022    27.503     8.602
   122   6 C      2.938    -0.035    28.862     8.811
   123   6 C      2.908    -0.053    29.303     8.876
   124   6 C      3.079     0.055    26.682     8.469
   125   7 N      2.753    -0.131    23.839     7.252
   126   6 C      3.076     0.059    26.593     8.455
   127   6 C      2.907    -0.052    29.290     8.874
   128   6 C      2.934    -0.031    28.775     8.797
   129   6 C      2.972     0.024    27.459     8.595
   130   6 C      2.918    -0.032    28.805     8.801
   131   6 C      3.068    -0.017    28.365     8.733
   132   6 C      3.066    -0.019    28.412     8.741
   133   6 C      2.915    -0.035    28.868     8.811
   134   1 H      0.926     0.044     2.402     2.424
   135   1 H      0.926     0.036     2.498     2.472
   136   1 H      0.860     0.200     1.108     1.649
   137   1 H      0.926     0.034     2.524     2.484
   138   1 H      0.926     0.044     2.398     2.422
   139   1 H      0.926     0.070     2.085     2.258
   140   1 H      0.926     0.068     2.111     2.272
   141   6 C      1.985    -0.009    31.291     9.034
   142   6 C      1.980    -0.045    32.260     9.172
   143   6 C      2.964     0.049    26.904     8.508
   144   6 C      2.931    -0.009    28.234     8.714
   145   6 C      2.911    -0.029    28.735     8.790
   146   6 C      2.905     0.049    26.893     8.503
   147   7 N      2.666    -0.086    22.931     7.112
   148   6 C      2.912     0.045    26.989     8.519
   149   1 H      0.926     0.082     1.955     2.187
   150   1 H      0.926     0.089     1.890     2.150
   151   1 H      0.925     0.117     1.635     2.000
   152   1 H      0.925     0.126     1.569     1.959
   153   6 C      1.985    -0.017    31.508     9.065
   154   6 C      1.980    -0.043    32.221     9.167
   155   6 C      2.966     0.045    26.980     8.520
   156   6 C      2.923    -0.024    28.595     8.769
   157   6 C      2.915    -0.017    28.429     8.743
   158   6 C      2.913    -0.033    28.815     8.802
   159   6 C      2.989     0.027    27.391     8.585
   160   6 C      2.912    -0.033    28.829     8.804
   161   6 C      2.891     0.041    27.075     8.531
   162   7 N      2.657    -0.094    23.093     7.137
   163   6 C      2.904     0.058    26.705     8.473
   164   6 C      2.990    -0.008    28.212     8.713
   165   1 H      0.926     0.070     2.089     2.260
   166   1 H      0.926     0.062     2.179     2.308
   167   1 H      0.926     0.064     2.151     2.293
   168   1 H      0.926     0.088     1.895     2.153
   169   1 H      0.925     0.111     1.687     2.031
   170   1 H      0.925     0.113     1.670     2.021
   171   6 C      2.973     0.020    27.552     8.610
   172   6 C      2.937    -0.035    28.878     8.813
   173   6 C      2.908    -0.050    29.252     8.868
   174   6 C      3.079     0.052    26.740     8.478
   175   7 N      2.755    -0.125    23.713     7.232
   176   6 C      3.076     0.053    26.730     8.477
   177   6 C      2.908    -0.049    29.227     8.865
   178   6 C      2.931    -0.029    28.737     8.791
   179   6 C      2.973     0.021    27.536     8.607
   180   6 C      2.921    -0.029    28.729     8.790
   181   6 C      3.071    -0.024    28.526     8.757
   182   6 C      3.068    -0.023    28.518     8.757
   183   6 C      2.916    -0.032    28.791     8.799
   184   1 H      0.926     0.045     2.382     2.413
   185   1 H      0.926     0.040     2.452     2.449
   186   1 H      0.860     0.197     1.121     1.659
   187   1 H      0.926     0.034     2.524     2.484
   188   1 H      0.926     0.043     2.415     2.430
   189   1 H      0.926     0.072     2.067     2.249
   190   1 H      0.926     0.070     2.084     2.257
   191   6 C      1.986    -0.007    31.251     9.028
   192   6 C      1.981    -0.045    32.268     9.174
   193   6 C      2.965     0.047    26.943     8.514
   194   6 C      2.929    -0.008    28.230     8.713
   195   6 C      2.912    -0.029    28.734     8.790
   196   6 C      2.899     0.048    26.916     8.506
   197   7 N      2.667    -0.085    22.900     7.107
   198   6 C      2.923     0.042    27.055     8.530
   199   1 H      0.926     0.083     1.947     2.182
   200   1 H      0.926     0.088     1.902     2.157
   201   1 H      0.925     0.118     1.627     1.995
   202   1 H      0.925     0.130     1.537     1.939

 Mol. C6AA /au·bohr⁶  :     682375.452373
 Mol. C8AA /au·bohr⁸  :   19000804.037876
 Mol. α(0) /au        :       1351.581369


Wiberg/Mayer (AO) data.
largest (>0.10) Wiberg bond orders for each atom
          total WBO             WBO to atom ...
     1  Pd  3.455        N   47 0.604    N   62 0.603    N  112 0.603    N  162 0.601
     2  Pd  3.499        N  147 0.601    N  197 0.599    N   97 0.599    N   12 0.593
     3  C   3.935        C    4 2.630    C   21 1.122
     4  C   3.945        C    3 2.630    C    5 1.135
     5  C   3.984        C    6 1.450    C   14 1.201    C    4 1.135
     6  C   3.978        C    5 1.450    C    7 1.348    H   15 0.967
     7  C   3.983        C    8 1.522    C    6 1.348    H   16 0.968
     8  C   3.953        C    7 1.522    C    9 1.293    H   17 0.966
     9  C   3.989        C    8 1.293    C   10 1.274    C   14 1.229
    10  C   3.980        C   11 1.554    C    9 1.274    H   18 0.961    C   13 0.105
    11  C   3.970        C   10 1.554    N   12 1.248    H   19 0.919
    12  N   3.534        C   13 1.432    C   11 1.248    Pd   2 0.593
    13  C   3.969        N   12 1.432    C   14 1.320    H   20 0.915    C   10 0.105
    14  C   3.982        C   13 1.320    C    9 1.229    C    5 1.201
    15  H   0.995        C    6 0.967
    16  H   0.995        C    7 0.968
    17  H   0.995        C    8 0.966
    18  H   0.991        C   10 0.961
    19  H   0.986        C   11 0.919
    20  H   0.986        C   13 0.915
    21  C   3.976        C   33 1.392    C   22 1.307    C    3 1.122
    22  C   3.960        C   23 1.494    C   21 1.307    H   34 0.970
    23  C   3.982        C   22 1.494    C   24 1.342    H   35 0.967
    24  C   3.940        C   23 1.342    C   32 1.252    N   25 1.164
    25  N   3.513        C   26 1.181    C   24 1.164    H   36 0.931
    26  C   3.935        C   27 1.333    C   31 1.240    N   25 1.181
    27  C   3.982        C   28 1.503    C   26 1.333    H   37 0.967
    28  C   3.956        C   27 1.503    C   29 1.298    H   38 0.970
    29  C   3.976        C   30 1.371    C   28 1.298    C   41 1.148
    30  C   3.959        C   31 1.395    C   29 1.371    H   39 0.965
    31  C   3.976        C   30 1.395    C   26 1.240    C   32 1.140
    32  C   3.977        C   33 1.381    C   24 1.252    C   31 1.140
    33  C   3.969        C   21 1.392    C   32 1.381    H   40 0.965
    34  H   0.998        C   22 0.970
    35  H   0.997        C   23 0.967
    36  H   0.960        N   25 0.931
    37  H   0.997        C   27 0.967
    38  H   0.998        C   28 0.970
    39  H   0.994        C   30 0.965
    40  H   0.995        C   33 0.965
    41  C   3.944        C   42 2.621    C   29 1.148
    42  C   3.947        C   41 2.621    C   43 1.152
    43  C   3.982        C   48 1.342    C   44 1.326    C   42 1.152
    44  C   3.964        C   45 1.464    C   43 1.326    H   49 0.964
    45  C   3.980        C   44 1.464    C   46 1.415    H   50 0.961
    46  C   3.924        C   45 1.415    N   47 1.340    H   51 0.912
    47  N   3.545        C   48 1.364    C   46 1.340    Pd   1 0.604
    48  C   3.948        N   47 1.364    C   43 1.342    H   52 0.911
    49  H   0.991        C   44 0.964
    50  H   0.990        C   45 0.961
    51  H   0.985        C   46 0.912
    52  H   0.982        C   48 0.911
    53  C   3.936        C   54 2.632    C   71 1.122
    54  C   3.944        C   53 2.632    C   55 1.134
    55  C   3.984        C   56 1.451    C   64 1.202    C   54 1.134
    56  C   3.979        C   55 1.451    C   57 1.348    H   65 0.967
    57  C   3.983        C   58 1.521    C   56 1.348    H   66 0.967
    58  C   3.953        C   57 1.521    C   59 1.294    H   67 0.965
    59  C   3.989        C   58 1.294    C   60 1.273    C   64 1.229
    60  C   3.980        C   61 1.556    C   59 1.273    H   68 0.960    C   63 0.104
    61  C   3.969        C   60 1.556    N   62 1.243    H   69 0.917
    62  N   3.538        C   63 1.431    C   61 1.243    Pd   1 0.603
    63  C   3.968        N   62 1.431    C   64 1.319    H   70 0.915    C   60 0.104
    64  C   3.982        C   63 1.319    C   59 1.229    C   55 1.202
    65  H   0.995        C   56 0.967
    66  H   0.995        C   57 0.967
    67  H   0.995        C   58 0.965
    68  H   0.991        C   60 0.960
    69  H   0.986        C   61 0.917
    70  H   0.985        C   63 0.915
    71  C   3.977        C   83 1.390    C   72 1.311    C   53 1.122
    72  C   3.961        C   73 1.491    C   71 1.311    H   84 0.970
    73  C   3.982        C   72 1.491    C   74 1.344    H   85 0.967
    74  C   3.940        C   73 1.344    C   82 1.251    N   75 1.163
    75  N   3.511        C   76 1.180    C   74 1.163    H   86 0.931
    76  C   3.935        C   77 1.335    C   81 1.240    N   75 1.180
    77  C   3.983        C   78 1.503    C   76 1.335    H   87 0.967
    78  C   3.956        C   77 1.503    C   79 1.300    H   88 0.970
    79  C   3.976        C   80 1.369    C   78 1.300    C   91 1.149
    80  C   3.959        C   81 1.396    C   79 1.369    H   89 0.965
    81  C   3.977        C   80 1.396    C   76 1.240    C   82 1.140
    82  C   3.978        C   83 1.383    C   74 1.251    C   81 1.140
    83  C   3.970        C   71 1.390    C   82 1.383    H   90 0.966
    84  H   0.998        C   72 0.970
    85  H   0.997        C   73 0.967
    86  H   0.959        N   75 0.931
    87  H   0.997        C   77 0.967
    88  H   0.998        C   78 0.970
    89  H   0.995        C   80 0.965
    90  H   0.995        C   83 0.966
    91  C   3.944        C   92 2.622    C   79 1.149
    92  C   3.947        C   91 2.622    C   93 1.152
    93  C   3.982        C   98 1.341    C   94 1.327    C   92 1.152
    94  C   3.963        C   95 1.463    C   93 1.327    H   99 0.965
    95  C   3.980        C   94 1.463    C   96 1.416    H  100 0.962
    96  C   3.925        C   95 1.416    N   97 1.340    H  101 0.912
    97  N   3.545        C   98 1.368    C   96 1.340    Pd   2 0.599
    98  C   3.950        N   97 1.368    C   93 1.341    H  102 0.910
    99  H   0.991        C   94 0.965
   100  H   0.990        C   95 0.962
   101  H   0.985        C   96 0.912
   102  H   0.983        C   98 0.910
   103  C   3.935        C  104 2.629    C  121 1.123
   104  C   3.945        C  103 2.629    C  105 1.137
   105  C   3.983        C  106 1.448    C  114 1.201    C  104 1.137
   106  C   3.977        C  105 1.448    C  107 1.350    H  115 0.967
   107  C   3.983        C  108 1.520    C  106 1.350    H  116 0.967
   108  C   3.952        C  107 1.520    C  109 1.295    H  117 0.965
   109  C   3.989        C  108 1.295    C  110 1.272    C  114 1.229
   110  C   3.979        C  111 1.556    C  109 1.272    H  118 0.960    C  113 0.104
   111  C   3.969        C  110 1.556    N  112 1.243    H  119 0.916
   112  N   3.535        C  113 1.429    C  111 1.243    Pd   1 0.603
   113  C   3.967        N  112 1.429    C  114 1.319    H  120 0.915    C  110 0.104
   114  C   3.981        C  113 1.319    C  109 1.229    C  105 1.201
   115  H   0.995        C  106 0.967
   116  H   0.995        C  107 0.967
   117  H   0.995        C  108 0.965
   118  H   0.991        C  110 0.960
   119  H   0.985        C  111 0.916
   120  H   0.985        C  113 0.915
   121  C   3.976        C  133 1.392    C  122 1.306    C  103 1.123
   122  C   3.960        C  123 1.494    C  121 1.306    H  134 0.970
   123  C   3.982        C  122 1.494    C  124 1.342    H  135 0.966
   124  C   3.939        C  123 1.342    C  132 1.252    N  125 1.165
   125  N   3.512        C  126 1.180    C  124 1.165    H  136 0.931
   126  C   3.934        C  127 1.334    C  131 1.241    N  125 1.180
   127  C   3.983        C  128 1.504    C  126 1.334    H  137 0.967
   128  C   3.956        C  127 1.504    C  129 1.298    H  138 0.970
   129  C   3.976        C  130 1.372    C  128 1.298    C  141 1.148
   130  C   3.959        C  131 1.395    C  129 1.372    H  139 0.965
   131  C   3.976        C  130 1.395    C  126 1.241    C  132 1.139
   132  C   3.977        C  133 1.382    C  124 1.252    C  131 1.139
   133  C   3.969        C  121 1.392    C  132 1.382    H  140 0.965
   134  H   0.998        C  122 0.970
   135  H   0.997        C  123 0.966
   136  H   0.959        N  125 0.931
   137  H   0.997        C  127 0.967
   138  H   0.998        C  128 0.970
   139  H   0.995        C  130 0.965
   140  H   0.995        C  133 0.965
   141  C   3.944        C  142 2.622    C  129 1.148
   142  C   3.947        C  141 2.622    C  143 1.152
   143  C   3.982        C  148 1.343    C  144 1.326    C  142 1.152
   144  C   3.964        C  145 1.465    C  143 1.326    H  149 0.965
   145  C   3.980        C  144 1.465    C  146 1.414    H  150 0.962
   146  C   3.926        C  145 1.414    N  147 1.344    H  151 0.914
   147  N   3.548        C  148 1.365    C  146 1.344    Pd   2 0.601
   148  C   3.950        N  147 1.365    C  143 1.343    H  152 0.911
   149  H   0.991        C  144 0.965
   150  H   0.990        C  145 0.962
   151  H   0.986        C  146 0.914
   152  H   0.984        C  148 0.911
   153  C   3.935        C  154 2.631    C  171 1.121
   154  C   3.944        C  153 2.631    C  155 1.134
   155  C   3.984        C  156 1.455    C  164 1.197    C  154 1.134
   156  C   3.979        C  155 1.455    C  157 1.345    H  165 0.966
   157  C   3.983        C  158 1.523    C  156 1.345    H  166 0.967
   158  C   3.953        C  157 1.523    C  159 1.292    H  167 0.965
   159  C   3.989        C  158 1.292    C  160 1.274    C  164 1.229
   160  C   3.980        C  161 1.553    C  159 1.274    H  168 0.960    C  163 0.105
   161  C   3.969        C  160 1.553    N  162 1.247    H  169 0.923
   162  N   3.535        C  163 1.428    C  161 1.247    Pd   1 0.601
   163  C   3.969        N  162 1.428    C  164 1.322    H  170 0.913    C  160 0.105
   164  C   3.982        C  163 1.322    C  159 1.229    C  155 1.197
   165  H   0.994        C  156 0.966
   166  H   0.995        C  157 0.967
   167  H   0.995        C  158 0.965
   168  H   0.991        C  160 0.960
   169  H   0.986        C  161 0.923
   170  H   0.986        C  163 0.913
   171  C   3.976        C  183 1.393    C  172 1.309    C  153 1.121
   172  C   3.961        C  173 1.493    C  171 1.309    H  184 0.970
   173  C   3.982        C  172 1.493    C  174 1.343    H  185 0.966
   174  C   3.940        C  173 1.343    C  182 1.252    N  175 1.163
   175  N   3.515        C  176 1.181    C  174 1.163    H  186 0.932
   176  C   3.935        C  177 1.334    C  181 1.240    N  175 1.181
   177  C   3.982        C  178 1.502    C  176 1.334    H  187 0.967
   178  C   3.957        C  177 1.502    C  179 1.302    H  188 0.970
   179  C   3.977        C  180 1.368    C  178 1.302    C  191 1.148
   180  C   3.959        C  181 1.395    C  179 1.368    H  189 0.965
   181  C   3.977        C  180 1.395    C  176 1.240    C  182 1.139
   182  C   3.977        C  183 1.381    C  174 1.252    C  181 1.139
   183  C   3.970        C  171 1.393    C  182 1.381    H  190 0.965
   184  H   0.998        C  172 0.970
   185  H   0.996        C  173 0.966
   186  H   0.960        N  175 0.932
   187  H   0.997        C  177 0.967
   188  H   0.998        C  178 0.970
   189  H   0.994        C  180 0.965
   190  H   0.994        C  183 0.965
   191  C   3.944        C  192 2.623    C  179 1.148
   192  C   3.949        C  191 2.623    C  193 1.151
   193  C   3.982        C  198 1.343    C  194 1.327    C  192 1.151
   194  C   3.963        C  195 1.465    C  193 1.327    H  199 0.964
   195  C   3.981        C  194 1.465    C  196 1.413    H  200 0.962
   196  C   3.925        C  195 1.413    N  197 1.346    H  201 0.917
   197  N   3.546        C  198 1.363    C  196 1.346    Pd   2 0.599
   198  C   3.950        N  197 1.363    C  193 1.343    H  202 0.904
   199  H   0.991        C  194 0.964
   200  H   0.991        C  195 0.962
   201  H   0.985        C  196 0.917
   202  H   0.982        C  198 0.904

molecular dipole:
                 x           y           z       tot (Debye)
 q only:       -0.743       1.408      -2.515
   full:       -0.787       1.456      -2.697       8.042
molecular quadrupole (traceless):
                xx          xy          yy          xz          yz          zz
 q only:     -187.800     -96.017     380.910     -48.269       0.656    -193.110
  q+dip:     -183.449    -106.126     369.645     -73.459       1.888    -186.196
   full:     -178.943    -103.307     360.514     -64.434       2.298    -181.571

           -------------------------------------------------
          |               Frequency Printout                |
           -------------------------------------------------
 projected vibrational frequencies (cm-1)
eigval :       -0.00    -0.00    -0.00    -0.00     0.00     0.00
eigval :        5.02     6.37     7.50     8.71    10.98    11.90
eigval :       12.89    16.21    17.90    18.61    20.65    24.95
eigval :       26.35    27.58    29.83    33.15    34.87    36.83
eigval :       37.71    39.71    44.20    48.05    51.39    52.37
eigval :       54.56    55.22    56.15    57.95    60.17    60.74
eigval :       66.11    68.63    75.63    76.79    79.43    84.89
eigval :       86.67    88.29    90.03    93.57    95.70    96.63
eigval :       98.48    99.45   105.23   112.25   114.54   115.50
eigval :      119.09   127.10   127.47   129.25   132.12   133.96
eigval :      135.21   136.54   140.77   146.93   150.70   155.68
eigval :      159.60   161.37   162.56   163.17   164.68   169.13
eigval :      170.69   172.72   175.05   179.14   183.22   184.99
eigval :      191.32   193.81   196.96   203.92   210.74   212.46
eigval :      215.06   218.17   218.35   221.27   226.61   233.19
eigval :      236.49   240.03   244.80   247.44   250.42   250.84
eigval :      252.55   258.85   260.69   262.42   264.95   266.02
eigval :      268.83   272.87   275.09   279.88   302.58   305.40
eigval :      305.94   306.84   307.67   310.44   310.87   312.54
eigval :      338.78   339.21   339.58   342.77   379.96   386.26
eigval :      387.79   388.22   388.35   389.92   391.37   392.01
eigval :      392.15   393.25   393.62   394.14   395.51   397.07
eigval :      397.20   401.25   418.80   419.70   420.67   420.76
eigval :      424.93   425.95   426.16   426.41   433.04   433.14
eigval :      433.27   433.48   433.60   434.17   434.23   435.09
eigval :      442.36   443.09   445.05   446.13   450.99   453.10
eigval :      453.39   454.96   465.56   466.49   467.40   467.59
eigval :      472.49   473.17   473.39   474.38   486.00   487.10
eigval :      487.44   487.83   502.66   508.98   509.30   510.39
eigval :      510.85   512.03   512.50   514.93   515.44   517.19
eigval :      518.32   519.60   523.83   523.97   524.09   524.31
eigval :      537.50   537.69   538.18   539.24   552.30   555.74
eigval :      555.76   557.09   566.13   566.49   566.82   568.09
eigval :      581.68   582.69   583.28   583.76   603.45   604.15
eigval :      604.24   604.50   615.83   615.98   616.03   616.21
eigval :      620.32   622.96   623.81   623.99   625.15   625.45
eigval :      625.62   627.71   664.22   667.39   669.23   670.01
eigval :      670.26   670.83   671.00   671.31   682.64   683.21
eigval :      683.63   684.23   691.75   692.77   692.91   693.75
eigval :      710.59   711.20   711.93   712.41   725.02   725.04
eigval :      725.28   726.10   754.78   755.43   755.68   756.94
eigval :      772.64   776.18   776.88   778.24   778.79   778.86
eigval :      779.13   779.85   800.11   802.64   803.83   805.02
eigval :      816.76   816.94   817.68   818.21   819.03   819.94
eigval :      820.48   820.91   821.20   821.76   822.07   823.29
eigval :      830.31   831.13   831.82   833.01   847.29   848.73
eigval :      849.22   849.51   850.64   852.94   853.86   856.37
eigval :      858.16   858.86   858.94   859.10   860.47   861.23
eigval :      861.38   862.21   862.47   862.69   864.22   864.64
eigval :      871.97   872.75   873.51   874.46   887.93   890.52
eigval :      890.87   891.91   893.99   894.33   894.40   894.77
eigval :      899.05   899.67   901.21   901.39   902.62   903.11
eigval :      903.39   904.02   907.14   907.51   908.21   908.45
eigval :      908.80   909.07   909.96   912.20   928.57   928.77
eigval :      929.31   930.35   933.66   934.60   934.73   934.95
eigval :      950.42   951.61   952.97   953.59   996.33   998.04
eigval :      999.42  1001.01  1015.71  1016.18  1016.27  1017.09
eigval :     1045.01  1045.83  1045.90  1046.82  1076.61  1077.79
eigval :     1081.46  1081.86  1084.70  1085.07  1086.67  1088.56
eigval :     1103.83  1105.94  1106.14  1106.40  1119.10  1120.57
eigval :     1120.80  1122.63  1125.56  1126.35  1126.87  1127.10
eigval :     1143.83  1143.85  1144.16  1144.27  1149.19  1149.71
eigval :     1149.84  1150.67  1156.33  1156.56  1156.84  1156.99
eigval :     1160.66  1161.78  1161.98  1163.54  1167.07  1167.93
eigval :     1168.55  1169.68  1169.73  1170.56  1171.63  1174.00
eigval :     1187.33  1187.71  1188.17  1188.48  1199.71  1200.82
eigval :     1201.60  1201.99  1213.10  1213.70  1214.02  1214.36
eigval :     1219.81  1220.45  1220.64  1221.32  1229.63  1230.39
eigval :     1230.56  1231.68  1232.15  1234.87  1237.62  1238.41
eigval :     1238.72  1239.65  1242.73  1243.08  1279.39  1280.03
eigval :     1280.31  1280.65  1292.66  1293.77  1293.88  1295.73
eigval :     1297.32  1297.77  1298.54  1299.33  1300.05  1300.67
eigval :     1300.94  1301.84  1319.57  1320.56  1320.75  1321.67
eigval :     1336.45  1336.81  1337.23  1338.03  1338.80  1339.24
eigval :     1339.72  1341.78  1358.58  1359.17  1359.93  1361.65
eigval :     1368.44  1369.24  1369.90  1371.10  1372.43  1373.48
eigval :     1374.36  1375.06  1381.08  1381.42  1382.63  1382.71
eigval :     1399.95  1400.71  1401.10  1402.52  1415.90  1416.07
eigval :     1416.27  1417.01  1418.37  1418.54  1419.52  1419.70
eigval :     1431.33  1432.11  1432.21  1433.40  1446.60  1446.75
eigval :     1447.46  1448.25  1467.40  1468.08  1468.31  1469.22
eigval :     1480.94  1482.11  1482.66  1483.34  1486.97  1487.12
eigval :     1487.44  1489.11  1520.98  1521.08  1522.79  1524.44
eigval :     1528.08  1529.14  1529.77  1530.32  1542.47  1542.73
eigval :     1542.95  1544.24  1558.53  1559.45  1560.30  1560.85
eigval :     1561.29  1561.48  1562.42  1562.86  1565.00  1566.34
eigval :     1567.62  1568.70  1569.09  1569.50  1569.97  1570.28
eigval :     1586.80  1587.67  1589.27  1590.09  1604.48  1606.18
eigval :     1606.97  1608.16  2293.88  2295.27  2295.59  2296.94
eigval :     2298.77  2300.33  2300.91  2302.68  2968.16  2984.78
eigval :     2988.58  2990.80  2992.26  2995.19  2997.59  2999.29
eigval :     2999.90  3000.09  3000.23  3008.12  3011.12  3019.67
eigval :     3024.14  3032.59  3082.40  3083.23  3083.48  3083.94
eigval :     3084.69  3085.11  3085.75  3086.74  3091.73  3092.07
eigval :     3092.74  3092.83  3096.51  3097.17  3097.72  3098.44
eigval :     3098.64  3099.07  3099.83  3100.18  3102.94  3103.29
eigval :     3103.71  3103.94  3107.09  3107.86  3108.10  3108.12
eigval :     3108.24  3108.31  3108.44  3108.97  3109.03  3110.05
eigval :     3110.53  3110.82  3111.26  3111.66  3111.88  3111.90
eigval :     3112.63  3112.94  3115.46  3117.16  3118.15  3118.40
eigval :     3118.91  3119.80  3475.13  3475.39  3476.66  3477.45
 reduced masses (amu)
   1: 23.45   2: 16.81   3: 21.56   4: 22.53   5: 19.91   6: 22.42   7: 15.76   8: 12.97
   9: 13.30  10: 16.32  11: 19.67  12: 16.31  13: 16.80  14: 15.35  15: 14.12  16: 17.98
  17: 18.80  18: 13.70  19: 16.20  20: 12.61  21: 14.88  22: 15.47  23: 15.28  24: 12.89
  25: 13.08  26: 18.32  27: 10.95  28: 13.19  29: 12.33  30: 12.57  31: 13.82  32: 13.57
  33: 11.95  34: 13.79  35: 12.57  36: 11.56  37: 12.10  38: 19.52  39: 13.62  40: 12.65
  41: 12.19  42: 14.42  43: 12.15  44: 11.86  45: 11.57  46: 11.79  47: 11.75  48: 12.00
  49: 12.30  50: 13.88  51: 15.40  52: 11.44  53: 17.91  54: 13.83  55: 12.88  56: 11.93
  57: 11.99  58: 11.58  59: 12.51  60: 11.64  61: 13.06  62: 11.48  63: 11.91  64: 13.36
  65: 15.16  66: 13.70  67: 12.68  68: 11.32  69: 15.37  70: 11.66  71: 10.99  72: 10.80
  73: 12.99  74: 11.63  75: 11.73  76: 14.14  77: 15.42  78: 15.67  79: 12.88  80: 15.64
  81: 18.91  82: 20.94  83: 22.07  84: 14.22  85: 13.69  86: 12.69  87: 14.37  88: 18.09
  89: 22.78  90: 14.50  91: 17.21  92: 27.40  93: 26.54  94: 14.60  95: 15.56  96: 13.95
  97: 14.07  98: 24.07  99: 21.90 100: 26.00 101: 20.12 102: 19.63 103: 45.27 104: 32.55
 105: 34.42 106: 42.94 107: 11.34 108: 11.25 109: 11.43 110: 12.15 111: 12.80 112: 14.94
 113: 15.28 114: 13.67 115: 13.25 116: 13.65 117: 15.32 118: 13.53 119: 10.90 120:  9.33
 121:  9.23 122:  9.27 123:  9.53 124: 10.68 125: 10.91 126:  9.68 127:  9.98 128: 10.00
 129: 10.75 130: 10.42 131: 10.75 132: 11.34 133: 11.46 134: 12.97 135: 11.69 136: 11.68
 137: 11.65 138: 11.66 139:  9.66 140:  9.65 141:  9.75 142:  9.59 143: 11.70 144: 11.66
 145: 11.67 146: 11.59 147: 11.74 148: 11.55 149: 11.58 150: 11.61 151: 10.76 152: 11.08
 153: 11.36 154: 10.93 155: 11.55 156: 11.64 157: 11.60 158: 11.76 159: 11.53 160: 11.75
 161: 11.67 162: 11.73 163: 11.11 164: 11.14 165: 11.15 166: 11.25 167: 11.68 168: 11.72
 169: 11.82 170: 11.96 171: 10.95 172:  9.72 173: 10.29 174:  8.28 175: 10.12 176: 11.28
 177: 11.27 178:  8.76 179:  9.13 180:  6.97 181:  6.46 182: 10.41 183: 10.49 184: 10.52
 185: 10.51 186: 10.59 187: 10.36 188: 10.40 189: 10.41 190: 10.39 191: 11.50 192: 11.94
 193: 11.84 194: 11.80 195:  8.11 196:  8.23 197:  8.10 198:  7.95 199: 11.51 200: 11.55
 201: 11.81 202: 11.72 203: 11.06 204: 11.06 205: 11.05 206: 11.06 207: 11.39 208: 11.40
 209: 11.40 210: 11.39 211: 11.94 212: 11.94 213: 11.50 214: 11.51 215: 11.69 216: 12.11
 217: 12.03 218: 12.78 219:  9.46 220:  9.73 221:  9.79 222: 10.90 223: 10.47 224: 11.41
 225: 11.35 226: 11.45 227: 11.38 228: 11.39 229: 11.40 230: 11.38 231: 11.64 232: 11.68
 233: 11.69 234: 11.78 235: 11.79 236: 11.79 237: 11.79 238: 11.78 239: 10.67 240: 10.67
 241: 10.64 242: 10.66 243: 11.34 244: 11.34 245: 11.35 246: 11.36 247:  4.72 248:  4.61
 249:  4.63 250:  4.23 251:  4.04 252:  3.83 253:  3.82 254:  3.81 255: 11.44 256: 11.51
 257: 11.50 258: 11.59 259:  4.62 260:  4.56 261:  4.60 262:  4.58 263:  4.49 264:  4.48
 265:  9.10 266:  6.85 267:  5.29 268: 10.51 269: 10.68 270: 11.23 271:  4.11 272:  4.10
 273:  4.12 274:  4.16 275:  4.58 276: 11.05 277: 11.11 278: 11.38 279: 11.28 280:  4.13
 281:  4.45 282:  4.06 283:  3.53 284:  3.52 285:  3.46 286:  3.47 287:  6.18 288:  3.54
 289:  3.38 290:  6.22 291:  6.79 292:  3.37 293:  3.68 294:  7.54 295:  7.11 296:  7.74
 297:  8.65 298:  8.81 299:  3.75 300:  3.71 301:  3.73 302:  3.68 303:  3.97 304:  3.91
 305:  3.82 306:  3.84 307: 10.16 308: 10.52 309:  7.84 310:  7.87 311:  4.49 312:  5.68
 313:  6.03 314:  5.88 315:  3.40 316:  3.42 317:  3.35 318:  3.35 319:  3.37 320:  3.36
 321:  3.36 322:  3.36 323:  3.78 324:  3.77 325:  3.76 326:  3.76 327:  3.71 328:  3.69
 329:  3.70 330:  3.68 331: 10.55 332: 10.54 333: 10.52 334: 10.52 335: 10.60 336: 10.61
 337: 10.74 338: 10.67 339:  7.62 340:  7.60 341:  7.63 342:  7.63 343:  9.11 344:  9.17
 345:  9.13 346:  9.10 347:  7.30 348:  7.31 349:  7.30 350:  7.33 351:  6.67 352:  6.59
 353:  6.58 354:  6.65 355:  6.15 356:  6.16 357:  6.15 358:  6.15 359:  3.86 360:  3.73
 361:  3.73 362:  3.76 363:  7.59 364:  7.53 365:  7.48 366:  7.37 367:  3.45 368:  3.32
 369:  3.34 370:  3.35 371:  5.11 372:  5.07 373:  5.21 374:  5.20 375:  3.78 376:  3.78
 377:  3.73 378:  3.72 379:  5.05 380:  5.07 381:  5.28 382:  5.54 383:  2.43 384:  2.49
 385:  2.75 386:  3.63 387:  3.25 388:  3.04 389:  2.68 390:  2.35 391:  3.74 392:  3.73
 393:  3.71 394:  3.73 395:  6.23 396:  6.18 397:  6.21 398:  6.18 399:  5.14 400:  5.17
 401:  5.34 402:  5.24 403:  5.02 404:  5.20 405:  5.33 406:  5.50 407:  3.88 408:  4.94
 409:  4.26 410:  4.06 411:  4.48 412:  5.02 413:  5.23 414:  6.12 415:  5.73 416:  5.69
 417:  3.88 418:  4.50 419:  7.16 420:  7.20 421:  7.15 422:  7.18 423:  8.69 424:  8.76
 425:  8.70 426:  8.42 427: 11.60 428: 11.66 429: 11.60 430:  9.71 431: 11.06 432:  9.99
 433:  9.54 434: 10.15 435: 10.38 436: 10.45 437: 10.40 438: 10.41 439: 10.74 440: 10.83
 441: 10.76 442: 10.66 443: 10.43 444: 10.76 445: 11.25 446: 10.67 447: 10.29 448: 10.29
 449: 10.28 450: 10.31 451: 10.14 452: 10.23 453: 10.18 454: 10.09 455:  9.58 456:  9.71
 457:  9.38 458:  9.47 459: 10.63 460: 10.57 461: 10.58 462: 10.74 463: 10.93 464: 10.96
 465: 11.00 466: 10.93 467: 10.69 468: 10.70 469: 10.74 470: 10.69 471: 10.38 472: 10.40
 473: 10.50 474: 10.46 475: 11.11 476: 11.17 477: 11.17 478: 11.18 479: 10.98 480: 10.97
 481: 11.00 482: 10.97 483: 11.00 484: 10.99 485: 10.96 486: 11.01 487: 11.32 488: 11.36
 489: 11.35 490: 11.35 491: 11.43 492: 11.44 493: 11.44 494: 11.47 495: 11.50 496: 11.51
 497: 11.53 498: 11.53 499: 11.77 500: 11.77 501: 11.75 502: 11.75 503: 11.72 504: 11.72
 505: 11.72 506: 11.73 507: 11.57 508: 11.57 509: 11.57 510: 11.55 511: 11.58 512: 11.57
 513: 11.55 514: 11.59 515: 11.62 516: 11.63 517: 11.64 518: 11.54 519: 11.52 520: 11.46
 521: 11.48 522: 11.46 523: 11.72 524: 11.73 525: 11.73 526: 11.74 527: 11.75 528: 11.75
 529: 11.75 530: 11.76 531: 12.01 532: 12.01 533: 12.01 534: 12.01 535: 12.01 536: 12.01
 537: 12.01 538: 12.01 539:  1.85 540:  1.85 541:  1.85 542:  1.85 543:  1.85 544:  1.85
 545:  1.84 546:  1.84 547:  1.84 548:  1.84 549:  1.83 550:  1.85 551:  1.84 552:  1.84
 553:  1.84 554:  1.84 555:  1.79 556:  1.79 557:  1.79 558:  1.80 559:  1.79 560:  1.79
 561:  1.79 562:  1.79 563:  1.78 564:  1.78 565:  1.78 566:  1.78 567:  1.88 568:  1.88
 569:  1.87 570:  1.88 571:  1.88 572:  1.88 573:  1.87 574:  1.88 575:  1.84 576:  1.84
 577:  1.84 578:  1.84 579:  1.81 580:  1.81 581:  1.89 582:  1.84 583:  1.82 584:  1.86
 585:  1.87 586:  1.90 587:  1.90 588:  1.81 589:  1.84 590:  1.84 591:  1.86 592:  1.86
 593:  1.86 594:  1.86 595:  1.84 596:  1.84 597:  1.84 598:  1.84 599:  1.90 600:  1.90
 601:  1.90 602:  1.90 603:  1.87 604:  1.87 605:  1.87 606:  1.87
 IR intensities (amu)
   1:  0.57   2:  0.40   3:  0.51   4:  0.55   5:  0.30   6:  0.31   7:  0.46   8:  0.32
   9:  0.34  10:  0.28  11:  0.27  12:  0.17  13:  0.29  14:  0.31  15:  0.13  16:  0.15
  17:  0.15  18:  0.05  19:  0.13  20:  0.09  21:  0.19  22:  0.07  23:  0.15  24:  0.15
  25:  0.04  26:  0.10  27:  0.09  28:  0.09  29:  0.06  30:  0.20  31:  0.32  32:  0.25
  33:  0.10  34:  0.23  35:  0.23  36:  0.05  37:  0.07  38:  0.09  39:  0.06  40:  0.05
  41:  0.03  42:  0.06  43:  0.07  44:  0.14  45:  0.17  46:  0.08  47:  0.11  48:  0.14
  49:  0.10  50:  0.07  51:  0.17  52:  0.04  53:  0.05  54:  0.11  55:  0.06  56:  0.04
  57:  0.13  58:  0.20  59:  0.09  60:  0.04  61:  0.12  62:  0.14  63:  0.10  64:  0.10
  65:  0.49  66:  0.21  67:  0.12  68:  0.27  69:  0.42  70:  0.23  71:  0.07  72:  0.17
  73:  0.33  74:  0.20  75:  0.23  76:  0.54  77:  0.32  78:  0.32  79:  0.24  80:  0.12
  81:  0.38  82:  0.37  83:  0.51  84:  0.52  85:  0.49  86:  0.36  87:  0.28  88:  0.45
  89:  0.58  90:  0.22  91:  0.16  92:  0.85  93:  0.19  94:  0.35  95:  0.20  96:  0.09
  97:  0.24  98:  0.55  99:  0.62 100:  0.33 101:  0.19 102:  0.37 103:  0.65 104:  0.90
 105:  0.69 106:  1.10 107:  0.19 108:  0.10 109:  0.16 110:  0.22 111:  0.22 112:  0.47
 113:  0.27 114:  0.29 115:  0.08 116:  0.06 117:  0.28 118:  0.18 119:  0.14 120:  0.07
 121:  0.09 122:  0.06 123:  0.10 124:  0.17 125:  0.12 126:  0.08 127:  0.10 128:  0.09
 129:  0.05 130:  0.10 131:  0.05 132:  0.13 133:  0.10 134:  0.20 135:  0.06 136:  0.07
 137:  0.08 138:  0.02 139:  0.06 140:  0.05 141:  0.08 142:  0.04 143:  0.20 144:  0.31
 145:  0.08 146:  0.17 147:  0.23 148:  0.13 149:  0.16 150:  0.21 151:  0.10 152:  0.12
 153:  0.22 154:  0.09 155:  0.06 156:  0.09 157:  0.08 158:  0.08 159:  0.13 160:  0.36
 161:  0.32 162:  0.12 163:  0.10 164:  0.16 165:  0.10 166:  0.12 167:  0.20 168:  0.57
 169:  0.46 170:  0.41 171:  0.05 172:  0.24 173:  0.30 174:  0.38 175:  0.22 176:  0.18
 177:  0.17 178:  0.17 179:  0.16 180:  0.33 181:  0.55 182:  0.33 183:  0.14 184:  0.25
 185:  0.29 186:  0.27 187:  0.25 188:  0.07 189:  0.22 190:  0.19 191:  0.27 192:  0.47
 193:  0.12 194:  0.35 195:  0.05 196:  0.06 197:  0.05 198:  0.07 199:  0.26 200:  0.48
 201:  0.49 202:  0.02 203:  0.10 204:  0.08 205:  0.06 206:  0.08 207:  0.46 208:  0.26
 209:  0.32 210:  0.21 211:  0.18 212:  0.30 213:  0.09 214:  0.16 215:  0.21 216:  0.29
 217:  0.21 218:  0.44 219:  0.19 220:  0.18 221:  0.16 222:  0.12 223:  0.10 224:  0.15
 225:  0.15 226:  0.20 227:  0.24 228:  0.13 229:  0.16 230:  0.15 231:  0.19 232:  0.32
 233:  0.33 234:  0.46 235:  0.02 236:  0.02 237:  0.03 238:  0.04 239:  0.14 240:  0.11
 241:  0.17 242:  0.15 243:  0.16 244:  0.10 245:  0.20 246:  0.18 247:  0.17 248:  0.23
 249:  0.29 250:  0.14 251:  0.14 252:  0.06 253:  0.12 254:  0.10 255:  0.24 256:  0.30
 257:  0.46 258:  0.47 259:  0.35 260:  0.48 261:  0.11 262:  0.35 263:  0.13 264:  0.14
 265:  0.34 266:  0.20 267:  0.15 268:  0.56 269:  0.54 270:  0.52 271:  0.28 272:  0.18
 273:  0.30 274:  0.31 275:  0.07 276:  0.10 277:  0.42 278:  0.20 279:  0.24 280:  0.09
 281:  0.07 282:  0.03 283:  0.08 284:  0.04 285:  0.06 286:  0.08 287:  0.08 288:  0.08
 289:  0.08 290:  0.05 291:  0.09 292:  0.05 293:  0.08 294:  0.08 295:  0.04 296:  0.05
 297:  0.05 298:  0.04 299:  0.05 300:  0.06 301:  0.05 302:  0.02 303:  0.01 304:  0.04
 305:  0.03 306:  0.04 307:  0.05 308:  0.78 309:  0.18 310:  0.19 311:  0.09 312:  0.19
 313:  0.10 314:  0.15 315:  0.02 316:  0.06 317:  0.06 318:  0.02 319:  0.02 320:  0.05
 321:  0.02 322:  0.04 323:  0.03 324:  0.02 325:  0.02 326:  0.02 327:  0.01 328:  0.01
 329:  0.01 330:  0.01 331:  0.08 332:  0.09 333:  0.24 334:  0.29 335:  0.16 336:  0.25
 337:  0.26 338:  0.15 339:  0.07 340:  0.09 341:  0.11 342:  0.13 343:  0.13 344:  0.31
 345:  0.28 346:  0.31 347:  0.54 348:  0.55 349:  0.52 350:  0.50 351:  0.51 352:  0.40
 353:  0.53 354:  0.59 355:  0.47 356:  0.47 357:  0.44 358:  0.48 359:  0.47 360:  0.54
 361:  0.41 362:  0.55 363:  1.06 364:  1.01 365:  1.01 366:  1.13 367:  0.77 368:  0.82
 369:  0.62 370:  0.43 371:  0.44 372:  0.94 373:  0.75 374:  1.07 375:  0.36 376:  0.53
 377:  0.93 378:  0.27 379:  0.18 380:  0.50 381:  0.70 382:  1.17 383:  0.32 384:  0.31
 385:  0.34 386:  0.51 387:  0.49 388:  0.28 389:  0.07 390:  0.24 391:  0.24 392:  0.38
 393:  0.47 394:  0.37 395:  0.60 396:  0.53 397:  0.59 398:  0.56 399:  0.44 400:  0.65
 401:  0.73 402:  0.40 403:  0.53 404:  0.65 405:  0.42 406:  1.95 407:  0.32 408:  0.10
 409:  0.35 410:  0.22 411:  0.11 412:  0.33 413:  0.50 414:  0.59 415:  0.31 416:  0.58
 417:  0.37 418:  0.25 419:  0.56 420:  0.79 421:  0.49 422:  0.16 423:  1.60 424:  1.23
 425:  1.65 426:  1.54 427:  0.17 428:  0.64 429:  0.67 430:  0.48 431:  0.71 432:  0.32
 433:  1.02 434:  0.61 435:  1.70 436:  1.31 437:  2.75 438:  1.98 439:  0.93 440:  0.68
 441:  1.00 442:  0.88 443:  1.30 444:  0.79 445:  0.28 446:  0.56 447:  0.61 448:  0.88
 449:  1.03 450:  1.35 451:  1.27 452:  0.83 453:  0.88 454:  0.41 455:  1.73 456:  1.18
 457:  0.80 458:  1.27 459:  0.81 460:  1.13 461:  1.58 462:  0.83 463:  1.12 464:  1.03
 465:  1.06 466:  1.02 467:  0.20 468:  0.31 469:  0.23 470:  0.22 471:  0.18 472:  0.25
 473:  0.25 474:  0.20 475:  0.69 476:  0.66 477:  0.45 478:  0.26 479:  0.73 480:  0.68
 481:  0.61 482:  0.77 483:  0.53 484:  0.34 485:  0.39 486:  0.41 487:  1.43 488:  1.58
 489:  1.47 490:  1.73 491:  0.38 492:  0.18 493:  0.20 494:  0.23 495:  0.28 496:  0.45
 497:  0.41 498:  0.64 499:  1.43 500:  0.91 501:  0.87 502:  1.20 503:  3.42 504:  3.19
 505:  1.25 506:  2.11 507:  0.57 508:  0.62 509:  0.59 510:  1.03 511:  0.65 512:  0.79
 513:  1.18 514:  0.95 515:  0.38 516:  0.36 517:  0.37 518:  0.61 519:  0.26 520:  0.32
 521:  0.57 522:  0.50 523:  2.02 524:  2.19 525:  1.60 526:  2.56 527:  1.26 528:  1.33
 529:  1.28 530:  1.15 531:  2.55 532:  2.19 533:  1.88 534:  3.20 535:  3.94 536:  5.38
 537:  2.28 538:  3.82 539:  0.02 540:  0.03 541:  0.06 542:  0.10 543:  0.05 544:  0.13
 545:  0.10 546:  0.08 547:  0.14 548:  0.16 549:  0.09 550:  0.11 551:  0.09 552:  0.07
 553:  0.07 554:  0.10 555:  0.26 556:  0.22 557:  0.24 558:  0.25 559:  0.27 560:  0.25
 561:  0.33 562:  0.26 563:  0.15 564:  0.15 565:  0.15 566:  0.14 567:  0.36 568:  0.39
 569:  0.31 570:  0.47 571:  0.44 572:  0.31 573:  0.11 574:  0.67 575:  0.18 576:  0.18
 577:  0.17 578:  0.17 579:  0.09 580:  0.09 581:  0.29 582:  0.11 583:  0.08 584:  0.23
 585:  0.23 586:  0.11 587:  0.41 588:  0.09 589:  0.09 590:  0.08 591:  0.14 592:  0.15
 593:  0.15 594:  0.10 595:  0.04 596:  0.04 597:  0.02 598:  0.07 599:  0.08 600:  0.08
 601:  0.09 602:  0.07 603:  0.61 604:  0.61 605:  0.57 606:  0.64
 Raman intensities (amu)
   1:  0.00   2:  0.00   3:  0.00   4:  0.00   5:  0.00   6:  0.00   7:  0.00   8:  0.00
   9:  0.00  10:  0.00  11:  0.00  12:  0.00  13:  0.00  14:  0.00  15:  0.00  16:  0.00
  17:  0.00  18:  0.00  19:  0.00  20:  0.00  21:  0.00  22:  0.00  23:  0.00  24:  0.00
  25:  0.00  26:  0.00  27:  0.00  28:  0.00  29:  0.00  30:  0.00  31:  0.00  32:  0.00
  33:  0.00  34:  0.00  35:  0.00  36:  0.00  37:  0.00  38:  0.00  39:  0.00  40:  0.00
  41:  0.00  42:  0.00  43:  0.00  44:  0.00  45:  0.00  46:  0.00  47:  0.00  48:  0.00
  49:  0.00  50:  0.00  51:  0.00  52:  0.00  53:  0.00  54:  0.00  55:  0.00  56:  0.00
  57:  0.00  58:  0.00  59:  0.00  60:  0.00  61:  0.00  62:  0.00  63:  0.00  64:  0.00
  65:  0.00  66:  0.00  67:  0.00  68:  0.00  69:  0.00  70:  0.00  71:  0.00  72:  0.00
  73:  0.00  74:  0.00  75:  0.00  76:  0.00  77:  0.00  78:  0.00  79:  0.00  80:  0.00
  81:  0.00  82:  0.00  83:  0.00  84:  0.00  85:  0.00  86:  0.00  87:  0.00  88:  0.00
  89:  0.00  90:  0.00  91:  0.00  92:  0.00  93:  0.00  94:  0.00  95:  0.00  96:  0.00
  97:  0.00  98:  0.00  99:  0.00 100:  0.00 101:  0.00 102:  0.00 103:  0.00 104:  0.00
 105:  0.00 106:  0.00 107:  0.00 108:  0.00 109:  0.00 110:  0.00 111:  0.00 112:  0.00
 113:  0.00 114:  0.00 115:  0.00 116:  0.00 117:  0.00 118:  0.00 119:  0.00 120:  0.00
 121:  0.00 122:  0.00 123:  0.00 124:  0.00 125:  0.00 126:  0.00 127:  0.00 128:  0.00
 129:  0.00 130:  0.00 131:  0.00 132:  0.00 133:  0.00 134:  0.00 135:  0.00 136:  0.00
 137:  0.00 138:  0.00 139:  0.00 140:  0.00 141:  0.00 142:  0.00 143:  0.00 144:  0.00
 145:  0.00 146:  0.00 147:  0.00 148:  0.00 149:  0.00 150:  0.00 151:  0.00 152:  0.00
 153:  0.00 154:  0.00 155:  0.00 156:  0.00 157:  0.00 158:  0.00 159:  0.00 160:  0.00
 161:  0.00 162:  0.00 163:  0.00 164:  0.00 165:  0.00 166:  0.00 167:  0.00 168:  0.00
 169:  0.00 170:  0.00 171:  0.00 172:  0.00 173:  0.00 174:  0.00 175:  0.00 176:  0.00
 177:  0.00 178:  0.00 179:  0.00 180:  0.00 181:  0.00 182:  0.00 183:  0.00 184:  0.00
 185:  0.00 186:  0.00 187:  0.00 188:  0.00 189:  0.00 190:  0.00 191:  0.00 192:  0.00
 193:  0.00 194:  0.00 195:  0.00 196:  0.00 197:  0.00 198:  0.00 199:  0.00 200:  0.00
 201:  0.00 202:  0.00 203:  0.00 204:  0.00 205:  0.00 206:  0.00 207:  0.00 208:  0.00
 209:  0.00 210:  0.00 211:  0.00 212:  0.00 213:  0.00 214:  0.00 215:  0.00 216:  0.00
 217:  0.00 218:  0.00 219:  0.00 220:  0.00 221:  0.00 222:  0.00 223:  0.00 224:  0.00
 225:  0.00 226:  0.00 227:  0.00 228:  0.00 229:  0.00 230:  0.00 231:  0.00 232:  0.00
 233:  0.00 234:  0.00 235:  0.00 236:  0.00 237:  0.00 238:  0.00 239:  0.00 240:  0.00
 241:  0.00 242:  0.00 243:  0.00 244:  0.00 245:  0.00 246:  0.00 247:  0.00 248:  0.00
 249:  0.00 250:  0.00 251:  0.00 252:  0.00 253:  0.00 254:  0.00 255:  0.00 256:  0.00
 257:  0.00 258:  0.00 259:  0.00 260:  0.00 261:  0.00 262:  0.00 263:  0.00 264:  0.00
 265:  0.00 266:  0.00 267:  0.00 268:  0.00 269:  0.00 270:  0.00 271:  0.00 272:  0.00
 273:  0.00 274:  0.00 275:  0.00 276:  0.00 277:  0.00 278:  0.00 279:  0.00 280:  0.00
 281:  0.00 282:  0.00 283:  0.00 284:  0.00 285:  0.00 286:  0.00 287:  0.00 288:  0.00
 289:  0.00 290:  0.00 291:  0.00 292:  0.00 293:  0.00 294:  0.00 295:  0.00 296:  0.00
 297:  0.00 298:  0.00 299:  0.00 300:  0.00 301:  0.00 302:  0.00 303:  0.00 304:  0.00
 305:  0.00 306:  0.00 307:  0.00 308:  0.00 309:  0.00 310:  0.00 311:  0.00 312:  0.00
 313:  0.00 314:  0.00 315:  0.00 316:  0.00 317:  0.00 318:  0.00 319:  0.00 320:  0.00
 321:  0.00 322:  0.00 323:  0.00 324:  0.00 325:  0.00 326:  0.00 327:  0.00 328:  0.00
 329:  0.00 330:  0.00 331:  0.00 332:  0.00 333:  0.00 334:  0.00 335:  0.00 336:  0.00
 337:  0.00 338:  0.00 339:  0.00 340:  0.00 341:  0.00 342:  0.00 343:  0.00 344:  0.00
 345:  0.00 346:  0.00 347:  0.00 348:  0.00 349:  0.00 350:  0.00 351:  0.00 352:  0.00
 353:  0.00 354:  0.00 355:  0.00 356:  0.00 357:  0.00 358:  0.00 359:  0.00 360:  0.00
 361:  0.00 362:  0.00 363:  0.00 364:  0.00 365:  0.00 366:  0.00 367:  0.00 368:  0.00
 369:  0.00 370:  0.00 371:  0.00 372:  0.00 373:  0.00 374:  0.00 375:  0.00 376:  0.00
 377:  0.00 378:  0.00 379:  0.00 380:  0.00 381:  0.00 382:  0.00 383:  0.00 384:  0.00
 385:  0.00 386:  0.00 387:  0.00 388:  0.00 389:  0.00 390:  0.00 391:  0.00 392:  0.00
 393:  0.00 394:  0.00 395:  0.00 396:  0.00 397:  0.00 398:  0.00 399:  0.00 400:  0.00
 401:  0.00 402:  0.00 403:  0.00 404:  0.00 405:  0.00 406:  0.00 407:  0.00 408:  0.00
 409:  0.00 410:  0.00 411:  0.00 412:  0.00 413:  0.00 414:  0.00 415:  0.00 416:  0.00
 417:  0.00 418:  0.00 419:  0.00 420:  0.00 421:  0.00 422:  0.00 423:  0.00 424:  0.00
 425:  0.00 426:  0.00 427:  0.00 428:  0.00 429:  0.00 430:  0.00 431:  0.00 432:  0.00
 433:  0.00 434:  0.00 435:  0.00 436:  0.00 437:  0.00 438:  0.00 439:  0.00 440:  0.00
 441:  0.00 442:  0.00 443:  0.00 444:  0.00 445:  0.00 446:  0.00 447:  0.00 448:  0.00
 449:  0.00 450:  0.00 451:  0.00 452:  0.00 453:  0.00 454:  0.00 455:  0.00 456:  0.00
 457:  0.00 458:  0.00 459:  0.00 460:  0.00 461:  0.00 462:  0.00 463:  0.00 464:  0.00
 465:  0.00 466:  0.00 467:  0.00 468:  0.00 469:  0.00 470:  0.00 471:  0.00 472:  0.00
 473:  0.00 474:  0.00 475:  0.00 476:  0.00 477:  0.00 478:  0.00 479:  0.00 480:  0.00
 481:  0.00 482:  0.00 483:  0.00 484:  0.00 485:  0.00 486:  0.00 487:  0.00 488:  0.00
 489:  0.00 490:  0.00 491:  0.00 492:  0.00 493:  0.00 494:  0.00 495:  0.00 496:  0.00
 497:  0.00 498:  0.00 499:  0.00 500:  0.00 501:  0.00 502:  0.00 503:  0.00 504:  0.00
 505:  0.00 506:  0.00 507:  0.00 508:  0.00 509:  0.00 510:  0.00 511:  0.00 512:  0.00
 513:  0.00 514:  0.00 515:  0.00 516:  0.00 517:  0.00 518:  0.00 519:  0.00 520:  0.00
 521:  0.00 522:  0.00 523:  0.00 524:  0.00 525:  0.00 526:  0.00 527:  0.00 528:  0.00
 529:  0.00 530:  0.00 531:  0.00 532:  0.00 533:  0.00 534:  0.00 535:  0.00 536:  0.00
 537:  0.00 538:  0.00 539:  0.00 540:  0.00 541:  0.00 542:  0.00 543:  0.00 544:  0.00
 545:  0.00 546:  0.00 547:  0.00 548:  0.00 549:  0.00 550:  0.00 551:  0.00 552:  0.00
 553:  0.00 554:  0.00 555:  0.00 556:  0.00 557:  0.00 558:  0.00 559:  0.00 560:  0.00
 561:  0.00 562:  0.00 563:  0.00 564:  0.00 565:  0.00 566:  0.00 567:  0.00 568:  0.00
 569:  0.00 570:  0.00 571:  0.00 572:  0.00 573:  0.00 574:  0.00 575:  0.00 576:  0.00
 577:  0.00 578:  0.00 579:  0.00 580:  0.00 581:  0.00 582:  0.00 583:  0.00 584:  0.00
 585:  0.00 586:  0.00 587:  0.00 588:  0.00 589:  0.00 590:  0.00 591:  0.00 592:  0.00
 593:  0.00 594:  0.00 595:  0.00 596:  0.00 597:  0.00 598:  0.00 599:  0.00 600:  0.00
 601:  0.00 602:  0.00 603:  0.00 604:  0.00 605:  0.00 606:  0.00
 output can be read by thermo (or use thermo option).
 writing <g98.out> molden fake output.
 recommended (thermochemical) frequency scaling factor: 1.0
           -------------------------------------------------
          |             Thermodynamic Functions             |
           -------------------------------------------------
 symmetry recognition skipped because # atoms >         200

          ...................................................
          :                      SETUP                      :
          :.................................................:
          :  # frequencies                         600      :
          :  # imaginary freq.                       0      :
          :  linear?                             false      :
          :  only rotor calc.                    false      :
          :  symmetry                               C1      :
          :  rotational number                       1      :
          :  scaling factor                  1.0000000      :
          :  rotor cutoff                   50.0000000 cm⁻¹ :
          :  imag. cutoff                  -20.0000000 cm⁻¹ :
          :.................................................:

    mode    ω/cm⁻¹     T·S(HO)/kcal·mol⁻¹    T·S(FR)/kcal·mol⁻¹   T·S(vib)
   ------------------------------------------------------------------------
       1      5.02    -2.79627 (  0.01%)    -1.73723 ( 99.99%)    -1.73734
       2      6.37    -2.65567 (  0.03%)    -1.66693 ( 99.97%)    -1.66719
       3      7.50    -2.55888 (  0.05%)    -1.61853 ( 99.95%)    -1.61901
       4      8.71    -2.47059 (  0.09%)    -1.57438 ( 99.91%)    -1.57520
       5     10.98    -2.33308 (  0.23%)    -1.50562 ( 99.77%)    -1.50754
       6     11.90    -2.28521 (  0.32%)    -1.48167 ( 99.68%)    -1.48425
       7     12.89    -2.23807 (  0.44%)    -1.45810 ( 99.56%)    -1.46153
       8     16.21    -2.10248 (  1.09%)    -1.39028 ( 98.91%)    -1.39805
       9     17.90    -2.04381 (  1.61%)    -1.36093 ( 98.39%)    -1.37195
      10     18.61    -2.02053 (  1.88%)    -1.34928 ( 98.12%)    -1.36192
      11     20.65    -1.95898 (  2.83%)    -1.31848 ( 97.17%)    -1.33660
      12     24.95    -1.84700 (  5.84%)    -1.26244 ( 94.16%)    -1.29658
      13     26.35    -1.81481 (  7.16%)    -1.24632 ( 92.84%)    -1.28702
      14     27.58    -1.78776 (  8.47%)    -1.23278 ( 91.53%)    -1.27981
      15     29.83    -1.74138 ( 11.25%)    -1.20955 ( 88.75%)    -1.26936
      16     33.15    -1.67901 ( 16.19%)    -1.17831 ( 83.81%)    -1.25938
      17     34.87    -1.64912 ( 19.13%)    -1.16333 ( 80.87%)    -1.25625
      18     36.83    -1.61681 ( 22.74%)    -1.14713 ( 77.26%)    -1.25393
      19     37.71    -1.60277 ( 24.45%)    -1.14009 ( 75.55%)    -1.25323
      20     39.71    -1.57231 ( 28.46%)    -1.12482 ( 71.54%)    -1.25217
      21     44.20    -1.50907 ( 37.91%)    -1.09309 ( 62.09%)    -1.25079
      22     48.05    -1.45980 ( 46.02%)    -1.06835 ( 53.98%)    -1.24851
      23     51.39    -1.42010 ( 52.75%)    -1.04841 ( 47.25%)    -1.24446
      24     52.37    -1.40903 ( 54.61%)    -1.04284 ( 45.39%)    -1.24283
      25     54.56    -1.38491 ( 58.63%)    -1.03072 ( 41.37%)    -1.23839
      26     55.22    -1.37780 ( 59.80%)    -1.02714 ( 40.20%)    -1.23683
      27     56.15    -1.36791 ( 61.40%)    -1.02217 ( 38.60%)    -1.23446
      28     57.95    -1.34938 ( 64.34%)    -1.01284 ( 35.66%)    -1.22937
      29     60.17    -1.32724 ( 67.71%)    -1.00170 ( 32.29%)    -1.22213
      30     60.74    -1.32170 ( 68.53%)    -0.99891 ( 31.47%)    -1.22012
      31     66.11    -1.27190 ( 75.35%)    -0.97381 ( 24.65%)    -1.19841
      32     68.63    -1.24996 ( 78.02%)    -0.96275 ( 21.98%)    -1.18682
      33     75.63    -1.19296 ( 83.96%)    -0.93396 ( 16.04%)    -1.15142
      34     76.79    -1.18406 ( 84.76%)    -0.92946 ( 15.24%)    -1.14527
      35     79.43    -1.16426 ( 86.43%)    -0.91944 ( 13.57%)    -1.13104
      36     84.89    -1.12537 ( 89.26%)    -0.89974 ( 10.74%)    -1.10113
      37     86.67    -1.11327 ( 90.03%)    -0.89360 (  9.97%)    -1.09136
      38     88.29    -1.10247 ( 90.67%)    -0.88812 (  9.33%)    -1.08247
      39     90.03    -1.09103 ( 91.31%)    -0.88231 (  8.69%)    -1.07290
      40     93.57    -1.06859 ( 92.46%)    -0.87091 (  7.54%)    -1.05368
      41     95.70    -1.05546 ( 93.07%)    -0.86423 (  6.93%)    -1.04220
      42     96.63    -1.04985 ( 93.31%)    -0.86137 (  6.69%)    -1.03724
      43     98.48    -1.03881 ( 93.77%)    -0.85575 (  6.23%)    -1.02740
      44     99.45    -1.03310 ( 93.99%)    -0.85284 (  6.01%)    -1.02227
      45    105.23    -1.00028 ( 95.15%)    -0.83610 (  4.85%)    -0.99232
      46    112.25    -0.96294 ( 96.21%)    -0.81699 (  3.79%)    -0.95741
      47    114.54    -0.95124 ( 96.50%)    -0.81099 (  3.50%)    -0.94633
      48    115.50    -0.94643 ( 96.61%)    -0.80852 (  3.39%)    -0.94175
      49    119.09    -0.92878 ( 96.99%)    -0.79946 (  3.01%)    -0.92488
      50    127.10    -0.89131 ( 97.66%)    -0.78017 (  2.34%)    -0.88871
      51    127.47    -0.88962 ( 97.69%)    -0.77930 (  2.31%)    -0.88707
      52    129.25    -0.88169 ( 97.81%)    -0.77521 (  2.19%)    -0.87936
      53    132.12    -0.86910 ( 97.99%)    -0.76870 (  2.01%)    -0.86708
      54    133.96    -0.86116 ( 98.10%)    -0.76459 (  1.90%)    -0.85932
      55    135.21    -0.85585 ( 98.16%)    -0.76184 (  1.84%)    -0.85412
      56    136.54    -0.85025 ( 98.23%)    -0.75894 (  1.77%)    -0.84864
      57    140.77    -0.83283 ( 98.43%)    -0.74990 (  1.57%)    -0.83153
      58    146.93    -0.80847 ( 98.68%)    -0.73723 (  1.32%)    -0.80753
      59    150.70    -0.79407 ( 98.80%)    -0.72971 (  1.20%)    -0.79330
      60    155.68    -0.77568 ( 98.95%)    -0.72009 (  1.05%)    -0.77510
      61    159.60    -0.76164 ( 99.05%)    -0.71272 (  0.95%)    -0.76118
      62    161.37    -0.75541 ( 99.09%)    -0.70945 (  0.91%)    -0.75499
      63    162.56    -0.75126 ( 99.11%)    -0.70727 (  0.89%)    -0.75087
      64    163.17    -0.74917 ( 99.13%)    -0.70617 (  0.87%)    -0.74880
      65    164.68    -0.74398 ( 99.16%)    -0.70343 (  0.84%)    -0.74364
      66    169.13    -0.72902 ( 99.24%)    -0.69554 (  0.76%)    -0.72877
      67    170.69    -0.72388 ( 99.27%)    -0.69282 (  0.73%)    -0.72365
      68    172.72    -0.71725 ( 99.30%)    -0.68931 (  0.70%)    -0.71706
      69    175.05    -0.70976 ( 99.34%)    -0.68535 (  0.66%)    -0.70960
      70    179.14    -0.69688 ( 99.40%)    -0.67850 (  0.60%)    -0.69677
      71    183.22    -0.68435 ( 99.45%)    -0.67183 (  0.55%)    -0.68428
      72    184.99    -0.67903 ( 99.47%)    -0.66899 (  0.53%)    -0.67898
      73    191.32    -0.66041 ( 99.54%)    -0.65902 (  0.46%)    -0.66040
      74    193.81    -0.65327 ( 99.56%)    -0.65519 (  0.44%)    -0.65328
      75    196.96    -0.64440 ( 99.59%)    -0.65041 (  0.41%)    -0.64443
      76    203.92    -0.62535 ( 99.64%)    -0.64012 (  0.36%)    -0.62540
      77    210.74    -0.60740 ( 99.68%)    -0.63037 (  0.32%)    -0.60747
      78    212.46    -0.60300 ( 99.69%)    -0.62797 (  0.31%)    -0.60307
      79    215.06    -0.59639 ( 99.71%)    -0.62437 (  0.29%)    -0.59647
      80    218.17    -0.58861 ( 99.72%)    -0.62011 (  0.28%)    -0.58870
      81    218.35    -0.58816 ( 99.73%)    -0.61986 (  0.27%)    -0.58825
      82    221.27    -0.58100 ( 99.74%)    -0.61593 (  0.26%)    -0.58109
      83    226.61    -0.56816 ( 99.76%)    -0.60886 (  0.24%)    -0.56826
      84    233.19    -0.55285 ( 99.79%)    -0.60039 (  0.21%)    -0.55295
      85    236.49    -0.54535 ( 99.80%)    -0.59622 (  0.20%)    -0.54545
      86    240.03    -0.53746 ( 99.81%)    -0.59182 (  0.19%)    -0.53756
      87    244.80    -0.52704 ( 99.83%)    -0.58599 (  0.17%)    -0.52715
      88    247.44    -0.52138 ( 99.83%)    -0.58281 (  0.17%)    -0.52148
      89    250.42    -0.51509 ( 99.84%)    -0.57927 (  0.16%)    -0.51519
      90    250.84    -0.51421 ( 99.84%)    -0.57877 (  0.16%)    -0.51431
      91    252.55    -0.51064 ( 99.85%)    -0.57676 (  0.15%)    -0.51074
      92    258.85    -0.49777 ( 99.86%)    -0.56946 (  0.14%)    -0.49787
      93    260.69    -0.49407 ( 99.86%)    -0.56736 (  0.14%)    -0.49417
      94    262.42    -0.49064 ( 99.87%)    -0.56540 (  0.13%)    -0.49074
      95    264.95    -0.48567 ( 99.87%)    -0.56256 (  0.13%)    -0.48576
      96    266.02    -0.48358 ( 99.88%)    -0.56137 (  0.12%)    -0.48368
      97    268.83    -0.47815 ( 99.88%)    -0.55826 (  0.12%)    -0.47825
      98    272.87    -0.47046 ( 99.89%)    -0.55383 (  0.11%)    -0.47055
      99    275.09    -0.46631 ( 99.89%)    -0.55144 (  0.11%)    -0.46640
     100    279.88    -0.45749 ( 99.90%)    -0.54633 (  0.10%)    -0.45758
   ------------------------------------------------------------------------

   temp. (K)  partition function   enthalpy   heat capacity  entropy
                                   cal/mol     cal/K/mol   cal/K/mol   J/K/mol
 298.15  VIB  0.552E+55            68124.870    439.538    429.189
         ROT  0.135E+10              888.752      2.981     44.755
         INT  0.743E+64            69013.622    442.519    473.944
         TR   0.795E+29             1481.254      4.968     48.458
         TOT                       70494.8764   447.4873   522.4019  2185.7297

       T/K    H(0)-H(T)+PV         H(T)/Eh          T*S/Eh         G(T)/Eh
   ------------------------------------------------------------------------
    298.15    0.112341E+00    0.158991E+01    0.248210E+00    0.134170E+01
   ------------------------------------------------------------------------

         :::::::::::::::::::::::::::::::::::::::::::::::::::::
         ::                  THERMODYNAMIC                  ::
         :::::::::::::::::::::::::::::::::::::::::::::::::::::
         :: total free energy        -333.247023383243 Eh   ::
         ::.................................................::
         :: total energy             -334.588719293815 Eh   ::
         :: zero point energy           1.477565192051 Eh   ::
         :: G(RRHO) w/o ZPVE           -0.135869281479 Eh   ::
         :: G(RRHO) contrib.            1.341695910571 Eh   ::
         :::::::::::::::::::::::::::::::::::::::::::::::::::::

           -------------------------------------------------
          | TOTAL ENERGY             -334.588719293815 Eh   |
          | TOTAL ENTHALPY           -332.998813365504 Eh   |
          | TOTAL FREE ENERGY        -333.247023383243 Eh   |
          | GRADIENT NORM               0.000798062975 Eh/α |
          | HOMO-LUMO GAP               1.497077586135 eV   |
           -------------------------------------------------

------------------------------------------------------------------------
 * finished run on 2021/06/22 at 03:41:16.061     
------------------------------------------------------------------------
 total:
 * wall-time:     0 d,  0 h, 22 min, 31.812 sec
 *  cpu-time:     0 d,  1 h, 36 min, 48.728 sec
 * ratio c/w:     4.297 speedup
 SCF:
 * wall-time:     0 d,  0 h,  0 min,  3.819 sec
 *  cpu-time:     0 d,  0 h,  0 min, 12.340 sec
 * ratio c/w:     3.231 speedup
 numerical hessian:
 * wall-time:     0 d,  0 h, 22 min, 25.632 sec
 *  cpu-time:     0 d,  1 h, 36 min, 33.799 sec
 * ratio c/w:     4.306 speedup

