 Entering Gaussian System
 *********************************************
 Gaussian 98:
 frequency output generated by the xtb code
 *********************************************
                         Standard orientation:
 --------------------------------------------------------------------
  Center     Atomic     Atomic              Coordinates (Angstroms)
  Number     Number      Type              X           Y           Z
 --------------------------------------------------------------------
    1         46             0        0.292835    6.450099    0.340488
    2         46             0        0.093284   -3.195300    0.220905
    3          6             0        5.053804    0.710874    0.129881
    4          6             0        4.578199   -0.390923    0.271785
    5          6             0        4.012493   -1.673620    0.415689
    6          6             0        4.802688   -2.806824    0.652588
    7          6             0        4.188082   -4.040321    0.775892
    8          6             0        2.809381   -4.127414    0.656797
    9          7             0        2.061086   -3.046110    0.425198
   10          6             0        2.630391   -1.846313    0.309094
   11          1             0        5.873788   -2.708829    0.737784
   12          1             0        4.770078   -4.928523    0.961492
   13          1             0        2.284476   -5.074011    0.752701
   14          1             0        1.966995   -1.003110    0.117895
   15          6             0        5.568010    2.007571   -0.085023
   16          6             0        6.829909    2.178863   -0.659028
   17          6             0        7.292815    3.456460   -0.913931
   18          6             0        6.517122    4.561365   -0.606231
   19          6             0        5.259023    4.404372   -0.019526
   20          6             0        4.792417    3.119675    0.242978
   21          1             0        7.431504    1.318460   -0.907828
   22          1             0        8.264314    3.595054   -1.363235
   23          1             0        6.884926    5.546062   -0.848534
   24          1             0        3.844218    2.964481    0.732381
   25          6             0        4.434530    5.584777    0.283775
   26          6             0        5.002738    6.803175    0.670871
   27          6             0        4.189144    7.901680    0.892972
   28          6             0        2.819043    7.766987    0.745977
   29          7             0        2.271336    6.597889    0.406681
   30          6             0        3.045630    5.537984    0.173780
   31          1             0        6.069539    6.885770    0.807167
   32          1             0        4.612750    8.850278    1.180668
   33          1             0        2.139648    8.602290    0.900178
   34          1             0        2.532924    4.628987   -0.132617
   35          6             0        0.454031    2.487307    5.187694
   36          6             0        0.352636    3.616906    4.770692
   37          6             0        0.246141    4.919806    4.244491
   38          6             0        0.064749    6.043008    5.062989
   39          6             0       -0.033646    7.291808    4.475487
   40          6             0        0.050250    7.403405    3.095687
   41          7             0        0.230041    6.331803    2.320588
   42          6             0        0.326537    5.119003    2.864690
   43          1             0        0.000552    5.925911    6.133590
   44          1             0       -0.176039    8.173510    5.079186
   45          1             0       -0.029147    8.362505    2.592286
   46          1             0        0.478530    4.281501    2.183491
   47          6             0        0.618326    1.162107    5.644596
   48          6             0        1.200629    0.915706    6.890194
   49          6             0        1.403923   -0.389195    7.299196
   50          6             0        1.034215   -1.447094    6.486199
   51          6             0        0.437612   -1.214493    5.244301
   52          6             0        0.230117    0.098007    4.830199
   53          1             0        1.495835    1.740005    7.520692
   54          1             0        1.860426   -0.585995    8.257095
   55          1             0        1.235811   -2.455395    6.812000
   56          1             0       -0.261785    0.312308    3.894800
   57          6             0        0.069303   -2.351293    4.385404
   58          6             0       -0.368501   -3.565789    4.924408
   59          6             0       -0.639210   -4.632990    4.084610
   60          6             0       -0.484014   -4.472093    2.718709
   61          7             0       -0.099710   -3.303696    2.197806
   62          6             0        0.173599   -2.271696    2.997303
   63          1             0       -0.504498   -3.669187    5.989408
   64          1             0       -0.966714   -5.578687    4.485113
   65          1             0       -0.672221   -5.285293    2.021212
   66          1             0        0.508002   -1.361898    2.505401
   67          6             0       -4.690585    2.588326    0.553512
   68          6             0       -4.235879    3.704423    0.464408
   69          6             0       -3.663473    4.989320    0.387704
   70          6             0       -4.441366    6.154724    0.365405
   71          6             0       -3.807060    7.383520    0.310100
   72          6             0       -2.421560    7.433913    0.283595
   73          7             0       -1.684766    6.319909    0.304495
   74          6             0       -2.273972    5.126613    0.351299
   75          1             0       -5.517767    6.086230    0.392009
   76          1             0       -4.379556    8.296723    0.291001
   77          1             0       -1.880655    8.376310    0.243292
   78          1             0       -1.624576    4.253209    0.367598
   79          6             0       -5.191791    1.277328    0.697816
   80          6             0       -6.461090    1.064336    1.241121
   81          6             0       -6.917196   -0.228761    1.418225
   82          6             0       -6.128703   -1.308566    1.058424
   83          6             0       -4.862304   -1.108674    0.503519
   84          6             0       -4.398998    0.191124    0.325215
   85          1             0       -7.074485    1.905240    1.525221
   86          1             0       -7.894096   -0.399255    1.844128
   87          1             0       -6.492608   -2.308664    1.234427
   88          1             0       -3.440898    0.378518   -0.132689
   89          6             0       -4.033111   -2.266779    0.132518
   90          6             0       -4.602419   -3.434977   -0.385678
   91          6             0       -3.795226   -4.519981   -0.682779
   92          6             0       -2.430825   -4.421588   -0.471284
   93          7             0       -1.881517   -3.300590    0.001812
   94          6             0       -2.649511   -2.251086    0.301013
   95          1             0       -5.664820   -3.486071   -0.565174
   96          1             0       -4.218732   -5.429880   -1.076176
   97          1             0       -1.757130   -5.247592   -0.684885
   98          1             0       -2.134505   -1.383788    0.709510
   99          6             0       -0.100302    2.732892   -4.618304
  100          6             0        0.035106    3.857992   -4.198307
  101          6             0        0.157414    5.140793   -3.628810
  102          6             0        0.172018    6.313291   -4.396612
  103          6             0        0.264926    7.534392   -3.752214
  104          6             0        0.331731    7.572594   -2.366714
  105          7             0        0.318628    6.453695   -1.640512
  106          6             0        0.241220    5.265995   -2.240610
  107          1             0        0.109614    6.256090   -5.472211
  108          1             0        0.279829    8.452791   -4.316516
  109          1             0        0.398838    8.508495   -1.820416
  110          1             0        0.237617    4.382496   -1.600508
  111          6             0       -0.304110    1.419693   -5.092201
  112          6             0       -0.888416    1.208594   -6.343499
  113          6             0       -1.126124   -0.083106   -6.774896
  114          6             0       -0.783527   -1.163506   -5.979895
  115          6             0       -0.187522   -0.965907   -4.731798
  116          6             0        0.048587    0.332292   -4.291301
  117          1             0       -1.156614    2.050994   -6.962100
  118          1             0       -1.584428   -0.251605   -7.737394
  119          1             0       -1.003933   -2.162006   -6.323693
  120          1             0        0.537491    0.513791   -3.347303
  121          6             0        0.171175   -2.129308   -3.904397
  122          6             0        0.656167   -3.305011   -4.486297
  123          6             0        0.940964   -4.400411   -3.688696
  124          6             0        0.747869   -4.303508   -2.322195
  125          7             0        0.308477   -3.173505   -1.759796
  126          6             0        0.023780   -2.114205   -2.518096
  127          1             0        0.819363   -3.354114   -5.551397
  128          1             0        1.309058   -5.316414   -4.121595
  129          1             0        0.949767   -5.140408   -1.655794
  130          1             0       -0.354313   -1.240802   -1.993997
 --------------------------------------------------------------------
     1 basis functions        1 primitive gaussians
     1 alpha electrons        1 beta electrons
 
 Harmonic frequencies (cm**-1), IR intensities (KM/Mole),
 Raman scattering activities (A**4/amu), Raman depolarization ratios,
 reduced masses (AMU), force constants (mDyne/A) and normal coordinates:
                      1                      2                      3
                        a                      a                      a 
 Frequencies --    10.0698                11.3918                12.1713
 Red. masses --    12.6641                12.6734                17.1681
 Frc consts  --     0.0000                 0.0000                 0.0000
 IR Inten    --     0.2554                 0.2527                 0.5047
 Raman Activ --     0.0000                 0.0000                 0.0000
 Depolar     --     0.0000                 0.0000                 0.0000
 Atom AN      X      Y      Z        X      Y      Z        X      Y      Z
   1  46     0.01  -0.01   0.10    -0.04   0.00  -0.06    -0.14   0.00   0.04
   2  46     0.02   0.01   0.07    -0.02  -0.00  -0.10    -0.20   0.01   0.01
   3   6    -0.00  -0.00  -0.10    -0.01  -0.00  -0.05    -0.06  -0.01   0.01
   4   6     0.01  -0.00  -0.05    -0.01  -0.00  -0.05    -0.06  -0.01   0.01
   5   6     0.01   0.00  -0.00    -0.01  -0.01  -0.06    -0.06  -0.01   0.02
   6   6     0.01   0.01   0.02    -0.00  -0.01  -0.08    -0.07  -0.01   0.03
   7   6     0.01   0.01   0.06     0.00  -0.01  -0.09    -0.07  -0.00   0.04
   8   6     0.01   0.01   0.08     0.00  -0.01  -0.07    -0.07  -0.00   0.03
   9   7     0.01   0.01   0.06    -0.00  -0.01  -0.05    -0.07  -0.00   0.01
  10   6     0.01   0.00   0.02    -0.01  -0.01  -0.05    -0.06  -0.01   0.00
  11   1     0.00   0.00   0.00    -0.00  -0.00  -0.03    -0.02  -0.00   0.01
  12   1     0.00   0.01   0.02     0.00  -0.00  -0.03    -0.02  -0.00   0.01
  13   1     0.00   0.00   0.03     0.00  -0.00  -0.02    -0.02  -0.00   0.01
  14   1     0.00   0.00   0.00    -0.00  -0.00  -0.01    -0.02  -0.00  -0.00
  15   6    -0.02  -0.01  -0.15    -0.01   0.00  -0.04    -0.06  -0.01   0.00
  16   6    -0.05  -0.01  -0.24    -0.01   0.01  -0.03    -0.06  -0.01  -0.01
  17   6    -0.07  -0.02  -0.29    -0.01   0.01  -0.02    -0.06  -0.02  -0.01
  18   6    -0.05  -0.01  -0.26    -0.01   0.01  -0.01    -0.06  -0.01  -0.01
  19   6    -0.02  -0.01  -0.17    -0.01  -0.00  -0.01    -0.05  -0.01  -0.00
  20   6     0.00  -0.00  -0.12    -0.01  -0.00  -0.02    -0.05  -0.01   0.00
  21   1    -0.02  -0.00  -0.08    -0.00   0.00  -0.01    -0.02  -0.00  -0.00
  22   1    -0.03  -0.01  -0.10    -0.00   0.00  -0.01    -0.02  -0.01  -0.01
  23   1    -0.02  -0.00  -0.09    -0.00   0.00  -0.00    -0.02  -0.00  -0.00
  24   1     0.01   0.00  -0.02    -0.00  -0.00  -0.01    -0.02  -0.00   0.00
  25   6     0.00  -0.00  -0.14    -0.01  -0.00  -0.00    -0.05  -0.01  -0.00
  26   6     0.02   0.00  -0.19    -0.01  -0.01   0.01    -0.05  -0.01  -0.01
  27   6     0.03   0.00  -0.16    -0.01  -0.01   0.02    -0.04  -0.00  -0.01
  28   6     0.02  -0.00  -0.08    -0.01  -0.01   0.02    -0.04  -0.00  -0.00
  29   7     0.01  -0.01  -0.03    -0.01  -0.00   0.00    -0.05  -0.00   0.01
  30   6    -0.01  -0.01  -0.06    -0.01  -0.00  -0.00    -0.05  -0.01   0.01
  31   1     0.01   0.00  -0.07    -0.00  -0.00   0.01    -0.01  -0.00  -0.00
  32   1     0.01   0.00  -0.06    -0.00  -0.00   0.01    -0.01  -0.00  -0.00
  33   1     0.01  -0.00  -0.01    -0.00  -0.00   0.01    -0.01  -0.00  -0.00
  34   1    -0.01  -0.00  -0.00    -0.00   0.00  -0.00    -0.02  -0.00   0.00
  35   6    -0.04  -0.01   0.04    -0.10  -0.00  -0.02     0.15   0.01   0.00
  36   6    -0.00  -0.01   0.03    -0.09  -0.00  -0.02     0.11   0.01   0.01
  37   6     0.03  -0.00   0.03    -0.09  -0.00  -0.02     0.07   0.01   0.02
  38   6     0.07   0.00   0.04    -0.11  -0.00  -0.02     0.09   0.00   0.02
  39   6     0.10   0.00   0.04    -0.10  -0.00  -0.03     0.05   0.00   0.02
  40   6     0.09   0.00   0.04    -0.07  -0.00  -0.02    -0.01   0.00   0.02
  41   7     0.06  -0.00   0.04    -0.04   0.00  -0.02    -0.03   0.00   0.02
  42   6     0.03  -0.00   0.03    -0.05   0.00  -0.02     0.01   0.00   0.01
  43   1     0.02   0.00   0.01    -0.04  -0.00  -0.01     0.04   0.00   0.01
  44   1     0.04   0.00   0.01    -0.04  -0.00  -0.01     0.02   0.00   0.01
  45   1     0.03   0.00   0.01    -0.02  -0.00  -0.01    -0.01  -0.00   0.01
  46   1    -0.00  -0.00   0.01    -0.01   0.00  -0.00    -0.01   0.00   0.00
  47   6    -0.08  -0.01   0.04    -0.10  -0.00  -0.02     0.18   0.00  -0.02
  48   6    -0.13  -0.02   0.07    -0.13   0.00  -0.00     0.28  -0.01  -0.06
  49   6    -0.17  -0.02   0.07    -0.12   0.01   0.00     0.30  -0.01  -0.09
  50   6    -0.16  -0.02   0.06    -0.09   0.00  -0.01     0.24  -0.00  -0.07
  51   6    -0.11  -0.01   0.04    -0.07  -0.00  -0.02     0.14   0.01  -0.02
  52   6    -0.07  -0.00   0.03    -0.07  -0.00  -0.03     0.12   0.01   0.00
  53   1    -0.04  -0.01   0.02    -0.04   0.00   0.00     0.09  -0.00  -0.02
  54   1    -0.06  -0.01   0.03    -0.04   0.00   0.00     0.11  -0.00  -0.04
  55   1    -0.06  -0.01   0.02    -0.03   0.00  -0.00     0.07  -0.00  -0.03
  56   1    -0.01   0.00   0.00    -0.01  -0.00  -0.01     0.01   0.00   0.01
  57   6    -0.10  -0.00   0.02    -0.04  -0.01  -0.03     0.08   0.01  -0.00
  58   6    -0.14   0.01   0.01    -0.04  -0.01  -0.04     0.10   0.02   0.02
  59   6    -0.13   0.01   0.00    -0.01  -0.01  -0.04     0.03   0.02   0.03
  60   6    -0.08   0.01   0.01     0.01  -0.01  -0.04    -0.04   0.03   0.02
  61   7    -0.04   0.00   0.02     0.01  -0.01  -0.04    -0.06   0.02   0.01
  62   6    -0.05  -0.00   0.03    -0.02  -0.00  -0.03    -0.00   0.02  -0.01
  63   1    -0.05   0.00   0.00    -0.02  -0.00  -0.01     0.05   0.00   0.01
  64   1    -0.05   0.00  -0.00    -0.00  -0.01  -0.01     0.01   0.01   0.01
  65   1    -0.02   0.00  -0.00     0.01  -0.00  -0.01    -0.03   0.01   0.01
  66   1    -0.00  -0.00   0.01    -0.00  -0.00  -0.01    -0.01   0.01  -0.01
  67   6     0.00  -0.00   0.03     0.00   0.01   0.15    -0.06   0.01  -0.01
  68   6     0.00  -0.00   0.06    -0.01   0.01   0.10    -0.05   0.01   0.00
  69   6     0.00  -0.00   0.08    -0.01   0.01   0.05    -0.05   0.01   0.01
  70   6     0.00   0.00   0.13    -0.01   0.01   0.05    -0.05   0.01   0.01
  71   6     0.00   0.00   0.15    -0.01   0.00   0.01    -0.05   0.01   0.02
  72   6     0.00   0.00   0.13    -0.01   0.00  -0.03    -0.05   0.01   0.02
  73   7     0.00   0.00   0.09    -0.01   0.00  -0.03    -0.05   0.01   0.02
  74   6     0.00   0.00   0.06    -0.01   0.01   0.01    -0.05   0.01   0.01
  75   1     0.00   0.00   0.04    -0.00   0.00   0.02    -0.01   0.00   0.00
  76   1     0.00   0.00   0.05    -0.00   0.00   0.00    -0.01   0.00   0.01
  77   1     0.00   0.00   0.04    -0.00   0.00  -0.02    -0.01   0.00   0.01
  78   1     0.00  -0.00   0.01    -0.00   0.00   0.00    -0.02   0.00   0.00
  79   6    -0.00  -0.01  -0.01     0.02   0.01   0.20    -0.06   0.01  -0.02
  80   6    -0.01  -0.02  -0.04     0.06   0.00   0.30    -0.07   0.01  -0.03
  81   6    -0.02  -0.02  -0.07     0.08   0.00   0.34    -0.07   0.01  -0.04
  82   6    -0.01  -0.01  -0.08     0.06   0.00   0.28    -0.07   0.01  -0.03
  83   6     0.00  -0.00  -0.05     0.02   0.01   0.19    -0.07   0.01  -0.02
  84   6     0.01   0.00  -0.01    -0.00   0.01   0.15    -0.06   0.01  -0.01
  85   1    -0.01  -0.01  -0.01     0.02   0.00   0.10    -0.02   0.00  -0.01
  86   1    -0.01  -0.01  -0.03     0.03  -0.00   0.12    -0.02   0.00  -0.01
  87   1    -0.00  -0.00  -0.03     0.02   0.00   0.09    -0.02   0.00  -0.01
  88   1     0.00   0.00   0.00    -0.01   0.00   0.02    -0.02   0.00  -0.00
  89   6     0.01   0.00  -0.05    -0.00   0.01   0.13    -0.07   0.01  -0.01
  90   6     0.02   0.01  -0.08    -0.03   0.01   0.17    -0.06   0.01  -0.02
  91   6     0.03   0.02  -0.08    -0.05   0.01   0.11    -0.06   0.01  -0.02
  92   6     0.02   0.01  -0.05    -0.04   0.02   0.03    -0.06   0.01  -0.01
  93   7     0.01   0.01  -0.02    -0.01   0.01  -0.00    -0.07   0.01  -0.00
  94   6     0.01   0.00  -0.02     0.01   0.01   0.05    -0.07   0.01  -0.01
  95   1     0.01   0.00  -0.03    -0.01   0.00   0.07    -0.02   0.00  -0.01
  96   1     0.01   0.01  -0.03    -0.02   0.00   0.04    -0.02   0.00  -0.01
  97   1     0.01   0.00  -0.01    -0.01   0.01  -0.01    -0.02   0.00  -0.00
  98   1    -0.00  -0.00   0.00     0.01   0.00   0.00    -0.02   0.00  -0.00
  99   6     0.02   0.00   0.02     0.12   0.00  -0.04     0.12  -0.01  -0.00
 100   6    -0.01   0.00   0.03     0.11   0.00  -0.03     0.08  -0.01   0.01
 101   6    -0.03   0.01   0.03     0.09   0.00  -0.02     0.04  -0.01   0.01
 102   6    -0.06   0.01   0.03     0.13  -0.00  -0.02     0.06  -0.01   0.01
 103   6    -0.08   0.01   0.04     0.12  -0.00  -0.02     0.02  -0.01   0.01
 104   6    -0.07   0.00   0.04     0.06   0.00  -0.02    -0.03  -0.00   0.01
 105   7    -0.05   0.00   0.04     0.02   0.00  -0.02    -0.05  -0.00   0.02
 106   6    -0.03   0.00   0.03     0.03   0.00  -0.02    -0.01  -0.01   0.01
 107   1    -0.02   0.00   0.01     0.05  -0.00  -0.01     0.03  -0.00   0.00
 108   1    -0.03   0.00   0.01     0.04  -0.00  -0.01     0.01  -0.00   0.00
 109   1    -0.02   0.00   0.01     0.01   0.00  -0.00    -0.02  -0.00   0.00
 110   1    -0.00   0.00   0.01    -0.00   0.00  -0.01    -0.01  -0.00   0.00
 111   6     0.06  -0.00   0.02     0.13   0.00  -0.05     0.16  -0.01  -0.02
 112   6     0.10  -0.01  -0.00     0.18   0.01  -0.07     0.25  -0.01  -0.06
 113   6     0.14  -0.02  -0.01     0.18   0.02  -0.08     0.28  -0.01  -0.08
 114   6     0.13  -0.01  -0.00     0.14   0.01  -0.07     0.22  -0.01  -0.06
 115   6     0.10   0.00   0.02     0.10   0.00  -0.05     0.14  -0.01  -0.02
 116   6     0.06   0.00   0.02     0.09  -0.00  -0.04     0.11  -0.01  -0.00
 117   1     0.03  -0.00  -0.00     0.06   0.00  -0.02     0.08  -0.00  -0.02
 118   1     0.05  -0.01  -0.01     0.06   0.01  -0.03     0.10  -0.00  -0.03
 119   1     0.05  -0.00  -0.00     0.04   0.00  -0.02     0.07  -0.00  -0.02
 120   1     0.01   0.00   0.01     0.02  -0.00  -0.01     0.01  -0.00   0.01
 121   6     0.10   0.01   0.02     0.06  -0.00  -0.04     0.08  -0.02  -0.00
 122   6     0.13   0.01   0.04     0.05  -0.01  -0.03     0.10  -0.02   0.02
 123   6     0.12   0.02   0.04     0.01  -0.02  -0.02     0.05  -0.02   0.04
 124   6     0.08   0.01   0.04    -0.02  -0.02  -0.02    -0.03  -0.02   0.03
 125   7     0.06   0.01   0.03    -0.02  -0.01  -0.04    -0.05  -0.02   0.01
 126   6     0.06   0.00   0.02     0.02  -0.00  -0.04     0.01  -0.02  -0.01
 127   1     0.05   0.01   0.01     0.02  -0.00  -0.01     0.05  -0.01   0.01
 128   1     0.04   0.01   0.02     0.00  -0.01  -0.00     0.02  -0.01   0.02
 129   1     0.02   0.00   0.01    -0.02  -0.01  -0.01    -0.02  -0.01   0.01
 130   1     0.01  -0.00   0.00     0.01   0.00  -0.01    -0.00  -0.00  -0.01
                      4                      5                      6
                        a                      a                      a 
 Frequencies --    13.9280                25.0988                27.8004
 Red. masses --    14.7146                12.4984                12.4328
 Frc consts  --     0.0000                 0.0000                 0.0000
 IR Inten    --     0.3745                 0.0520                 0.1117
 Raman Activ --     0.0000                 0.0000                 0.0000
 Depolar     --     0.0000                 0.0000                 0.0000
 Atom AN      X      Y      Z        X      Y      Z        X      Y      Z
   1  46     0.00  -0.00  -0.15    -0.05  -0.04   0.04    -0.10  -0.03  -0.07
   2  46    -0.00   0.01  -0.12     0.06   0.04  -0.07     0.01   0.02   0.01
   3   6     0.00   0.00   0.16     0.02  -0.04   0.08    -0.01   0.05   0.03
   4   6    -0.00   0.00   0.14     0.03  -0.04   0.14    -0.02   0.05   0.04
   5   6    -0.01   0.00   0.12     0.02  -0.03   0.18    -0.01   0.05   0.04
   6   6    -0.02   0.01   0.18    -0.01  -0.02   0.33    -0.01   0.06   0.05
   7   6    -0.02   0.01   0.15    -0.03  -0.01   0.34     0.00   0.05   0.04
   8   6    -0.02   0.00   0.06    -0.02  -0.01   0.20     0.01   0.04   0.02
   9   7    -0.01  -0.00   0.01     0.01  -0.02   0.07     0.00   0.04   0.01
  10   6    -0.00  -0.00   0.04     0.03  -0.03   0.06    -0.01   0.04   0.02
  11   1    -0.01   0.00   0.07    -0.01  -0.01   0.13    -0.00   0.02   0.02
  12   1    -0.01   0.00   0.05    -0.02  -0.00   0.13     0.00   0.02   0.02
  13   1    -0.01   0.00   0.01    -0.01  -0.00   0.05     0.00   0.01   0.00
  14   1     0.00  -0.00  -0.00     0.02  -0.01  -0.02    -0.00   0.01   0.00
  15   6     0.02  -0.00   0.16    -0.01  -0.04   0.00    -0.01   0.05   0.02
  16   6     0.05  -0.02   0.24    -0.05  -0.05  -0.08    -0.01   0.05   0.02
  17   6     0.07  -0.03   0.23    -0.08  -0.05  -0.16    -0.01   0.04   0.01
  18   6     0.05  -0.02   0.15    -0.07  -0.05  -0.15    -0.02   0.05  -0.01
  19   6     0.02  -0.00   0.08    -0.03  -0.04  -0.06    -0.02   0.05  -0.01
  20   6     0.00   0.01   0.09    -0.00  -0.04   0.01    -0.01   0.05   0.01
  21   1     0.02  -0.01   0.09    -0.02  -0.01  -0.03    -0.00   0.01   0.01
  22   1     0.03  -0.01   0.08    -0.03  -0.02  -0.07    -0.00   0.01   0.00
  23   1     0.02  -0.01   0.04    -0.03  -0.02  -0.06    -0.01   0.01  -0.01
  24   1    -0.01   0.01   0.01     0.01  -0.01   0.02    -0.00   0.02   0.00
  25   6     0.01   0.01   0.01    -0.02  -0.04  -0.04    -0.03   0.05  -0.03
  26   6    -0.01   0.02  -0.01    -0.00  -0.04  -0.08    -0.04   0.06  -0.06
  27   6    -0.02   0.03  -0.08     0.00  -0.04  -0.05    -0.05   0.06  -0.07
  28   6    -0.01   0.03  -0.12    -0.00  -0.04   0.01    -0.05   0.04  -0.06
  29   7     0.00   0.01  -0.10    -0.02  -0.05   0.04    -0.04   0.03  -0.03
  30   6     0.01   0.01  -0.04    -0.02  -0.05   0.01    -0.03   0.03  -0.02
  31   1    -0.00   0.01   0.01     0.00  -0.01  -0.04    -0.01   0.02  -0.02
  32   1    -0.01   0.01  -0.03     0.00  -0.01  -0.02    -0.02   0.02  -0.03
  33   1    -0.00   0.01  -0.05     0.00  -0.01   0.01    -0.02   0.01  -0.02
  34   1     0.01  -0.00  -0.01    -0.01  -0.01   0.01    -0.01   0.01  -0.00
  35   6     0.05  -0.00  -0.05     0.02  -0.03   0.00     0.04   0.00  -0.01
  36   6     0.08  -0.00  -0.05    -0.01  -0.03   0.01     0.05   0.00  -0.01
  37   6     0.10   0.00  -0.05    -0.04  -0.03   0.01     0.05   0.00  -0.02
  38   6     0.16   0.01  -0.04    -0.09  -0.04   0.01     0.11   0.01  -0.01
  39   6     0.17   0.01  -0.04    -0.11  -0.04   0.01     0.10   0.01  -0.02
  40   6     0.12   0.01  -0.04    -0.09  -0.03   0.01     0.04  -0.00  -0.02
  41   7     0.07   0.00  -0.05    -0.06  -0.03   0.01    -0.02  -0.01  -0.02
  42   6     0.05  -0.00  -0.05    -0.03  -0.03   0.01    -0.01  -0.01  -0.02
  43   1     0.06   0.00  -0.01    -0.03  -0.01   0.00     0.05   0.00  -0.00
  44   1     0.06   0.00  -0.01    -0.04  -0.01   0.00     0.04   0.00  -0.00
  45   1     0.04   0.00  -0.01    -0.03  -0.01   0.00     0.01  -0.00  -0.01
  46   1     0.00  -0.00  -0.02    -0.00  -0.01   0.00    -0.02  -0.00  -0.01
  47   6     0.02  -0.01  -0.04     0.04  -0.03  -0.01     0.02   0.00  -0.00
  48   6     0.00  -0.02  -0.04     0.09  -0.04  -0.04     0.01  -0.00   0.00
  49   6    -0.03  -0.02  -0.03     0.11  -0.05  -0.06    -0.02  -0.00   0.01
  50   6    -0.05  -0.01  -0.03     0.08  -0.04  -0.05    -0.03   0.00   0.01
  51   6    -0.04  -0.00  -0.04     0.03  -0.03  -0.03    -0.01   0.00   0.00
  52   6     0.00   0.00  -0.04     0.02  -0.03  -0.01     0.01   0.01  -0.00
  53   1     0.01  -0.01  -0.01     0.03  -0.01  -0.01     0.00  -0.00   0.00
  54   1    -0.01  -0.01  -0.01     0.04  -0.02  -0.02    -0.01  -0.00   0.00
  55   1    -0.02  -0.01  -0.01     0.03  -0.01  -0.02    -0.01  -0.00   0.00
  56   1     0.00   0.00  -0.01    -0.01  -0.01   0.00     0.01   0.00  -0.00
  57   6    -0.05   0.00  -0.04     0.00  -0.02  -0.03    -0.02   0.01   0.00
  58   6    -0.08   0.01  -0.04    -0.00  -0.02  -0.03    -0.04   0.01   0.00
  59   6    -0.09   0.02  -0.05    -0.04  -0.01  -0.03    -0.04   0.01   0.00
  60   6    -0.07   0.01  -0.05    -0.05   0.00  -0.04    -0.02   0.01   0.00
  61   7    -0.04   0.01  -0.04    -0.04  -0.00  -0.03    -0.01   0.00   0.00
  62   6    -0.03   0.00  -0.04    -0.02  -0.01  -0.03    -0.00   0.00   0.00
  63   1    -0.03   0.01  -0.01     0.00  -0.01  -0.01    -0.01   0.00   0.00
  64   1    -0.03   0.01  -0.01    -0.01  -0.00  -0.01    -0.02   0.01  -0.00
  65   1    -0.02   0.00  -0.01    -0.02   0.00  -0.01    -0.01   0.00   0.00
  66   1    -0.00  -0.00  -0.01    -0.00  -0.00  -0.01     0.00  -0.00   0.00
  67   6     0.01  -0.01   0.11    -0.01   0.02   0.02    -0.02  -0.06   0.08
  68   6     0.00  -0.00   0.11    -0.03   0.03  -0.02    -0.01  -0.06   0.11
  69   6     0.00  -0.00   0.11    -0.03   0.02  -0.06    -0.02  -0.05   0.12
  70   6     0.00  -0.00   0.19    -0.02   0.02  -0.15    -0.03  -0.06   0.21
  71   6     0.00  -0.00   0.18    -0.01   0.02  -0.18    -0.04  -0.05   0.20
  72   6     0.00  -0.00   0.09    -0.01   0.01  -0.12    -0.04  -0.04   0.09
  73   7     0.00  -0.01   0.02    -0.02   0.01  -0.04    -0.03  -0.04   0.01
  74   6     0.00  -0.01   0.03    -0.02   0.02  -0.01    -0.02  -0.05   0.02
  75   1     0.00  -0.00   0.07    -0.01   0.01  -0.06    -0.01  -0.02   0.09
  76   1     0.00  -0.00   0.07    -0.00   0.01  -0.07    -0.01  -0.02   0.08
  77   1    -0.00  -0.00   0.02    -0.00   0.00  -0.04    -0.01  -0.01   0.02
  78   1     0.00  -0.00  -0.01    -0.01   0.00   0.02    -0.01  -0.01  -0.01
  79   6     0.01  -0.01   0.10     0.01   0.02   0.05    -0.02  -0.06   0.04
  80   6     0.03  -0.02   0.13     0.04   0.00   0.12    -0.04  -0.08  -0.01
  81   6     0.03  -0.03   0.11     0.07  -0.00   0.15    -0.05  -0.08  -0.06
  82   6     0.02  -0.02   0.06     0.06   0.01   0.10    -0.04  -0.07  -0.08
  83   6     0.01  -0.00   0.03     0.03   0.02   0.04    -0.02  -0.05  -0.03
  84   6     0.00   0.00   0.05     0.00   0.03   0.01    -0.02  -0.05   0.02
  85   1     0.01  -0.01   0.05     0.01  -0.00   0.04    -0.01  -0.03   0.00
  86   1     0.01  -0.01   0.04     0.03  -0.00   0.06    -0.02  -0.03  -0.03
  87   1     0.01  -0.01   0.01     0.02   0.00   0.03    -0.01  -0.02  -0.03
  88   1    -0.00   0.00   0.01    -0.01   0.01  -0.01    -0.00  -0.01   0.02
  89   6     0.00   0.01  -0.01     0.02   0.03  -0.01    -0.01  -0.04  -0.04
  90   6    -0.00   0.02  -0.03     0.02   0.04  -0.02     0.02  -0.03  -0.08
  91   6    -0.01   0.03  -0.07     0.01   0.05  -0.07     0.03  -0.02  -0.08
  92   6    -0.00   0.03  -0.09     0.02   0.05  -0.09     0.02  -0.02  -0.04
  93   7     0.00   0.01  -0.07     0.03   0.05  -0.08     0.01  -0.03  -0.01
  94   6     0.00   0.01  -0.03     0.03   0.04  -0.04    -0.01  -0.04  -0.01
  95   1    -0.00   0.01  -0.00     0.00   0.01   0.00     0.01  -0.01  -0.03
  96   1    -0.00   0.01  -0.03     0.00   0.02  -0.02     0.01  -0.01  -0.03
  97   1    -0.00   0.01  -0.03     0.00   0.02  -0.04     0.01  -0.00  -0.01
  98   1     0.00  -0.00  -0.01     0.01   0.01  -0.01    -0.01  -0.01   0.01
  99   6    -0.07  -0.01  -0.05    -0.05   0.04  -0.01     0.12   0.00  -0.03
 100   6    -0.09  -0.01  -0.04    -0.02   0.04  -0.01     0.18  -0.00  -0.04
 101   6    -0.11  -0.01  -0.04     0.02   0.03  -0.00     0.20  -0.01  -0.04
 102   6    -0.18  -0.00  -0.04     0.09   0.04   0.01     0.39  -0.01  -0.04
 103   6    -0.19  -0.00  -0.05     0.13   0.03   0.02     0.38  -0.01  -0.04
 104   6    -0.13  -0.00  -0.05     0.09   0.01   0.02     0.19  -0.01  -0.03
 105   7    -0.07  -0.00  -0.05     0.03   0.01   0.01     0.02  -0.01  -0.03
 106   6    -0.05  -0.00  -0.05    -0.01   0.01   0.00     0.03  -0.00  -0.03
 107   1    -0.07  -0.00  -0.01     0.03   0.01   0.00     0.16  -0.00  -0.02
 108   1    -0.07  -0.00  -0.01     0.05   0.01   0.01     0.15  -0.01  -0.01
 109   1    -0.04   0.00  -0.02     0.03   0.00   0.01     0.05  -0.00  -0.01
 110   1     0.00  -0.00  -0.01    -0.02   0.00  -0.00    -0.03  -0.00  -0.01
 111   6    -0.04  -0.01  -0.05    -0.07   0.04   0.00     0.04   0.01  -0.01
 112   6    -0.02  -0.03  -0.05    -0.12   0.03   0.03    -0.04   0.02   0.02
 113   6     0.02  -0.04  -0.05    -0.13   0.03   0.04    -0.14   0.03   0.05
 114   6     0.04  -0.03  -0.05    -0.08   0.03   0.03    -0.15   0.02   0.04
 115   6     0.02  -0.01  -0.04    -0.03   0.04   0.00    -0.07   0.00   0.01
 116   6    -0.02  -0.01  -0.04    -0.03   0.04  -0.01     0.02  -0.00  -0.02
 117   1    -0.01  -0.01  -0.02    -0.04   0.01   0.01    -0.01   0.01   0.01
 118   1     0.01  -0.01  -0.02    -0.05   0.01   0.02    -0.06   0.01   0.02
 119   1     0.02  -0.01  -0.01    -0.02   0.01   0.01    -0.06   0.01   0.02
 120   1    -0.01   0.00  -0.01     0.00   0.01  -0.01     0.02  -0.01  -0.01
 121   6     0.04  -0.00  -0.04     0.02   0.05  -0.01    -0.08  -0.00   0.00
 122   6     0.07   0.01  -0.03     0.05   0.07  -0.02    -0.14  -0.02  -0.01
 123   6     0.09   0.02  -0.02     0.10   0.08  -0.03    -0.13  -0.02  -0.01
 124   6     0.07   0.01  -0.03     0.11   0.06  -0.03    -0.06  -0.00  -0.01
 125   7     0.04   0.01  -0.04     0.08   0.05  -0.02    -0.01   0.01   0.00
 126   6     0.02  -0.00  -0.04     0.03   0.04  -0.01    -0.02   0.01   0.01
 127   1     0.03   0.00  -0.01     0.01   0.02  -0.01    -0.06  -0.01  -0.01
 128   1     0.03   0.01  -0.01     0.04   0.03  -0.01    -0.05  -0.01  -0.01
 129   1     0.02   0.01  -0.01     0.04   0.02  -0.01    -0.01   0.00  -0.00
 130   1    -0.00  -0.00  -0.01     0.00   0.01  -0.00     0.01   0.01   0.01
                      7                      8                      9
                        a                      a                      a 
 Frequencies --    28.3252                30.7857                31.1829
 Red. masses --    11.6077                17.9204                33.6143
 Frc consts  --     0.0000                 0.0000                 0.0000
 IR Inten    --     0.0977                 0.0256                 0.0337
 Raman Activ --     0.0000                 0.0000                 0.0000
 Depolar     --     0.0000                 0.0000                 0.0000
 Atom AN      X      Y      Z        X      Y      Z        X      Y      Z
   1  46    -0.07  -0.02   0.02     0.07   0.13  -0.13    -0.04  -0.32  -0.10
   2  46    -0.01   0.01   0.02    -0.08  -0.13   0.10     0.01   0.33   0.09
   3   6    -0.01   0.05   0.01    -0.05   0.02   0.08     0.12  -0.03  -0.02
   4   6    -0.02   0.05   0.00    -0.06   0.02   0.09     0.10  -0.02  -0.02
   5   6    -0.01   0.04  -0.01    -0.05   0.01   0.08     0.06  -0.00  -0.02
   6   6    -0.00   0.05  -0.03    -0.04   0.03   0.10     0.02  -0.03  -0.04
   7   6     0.01   0.04  -0.03    -0.02   0.01   0.07    -0.02  -0.01  -0.03
   8   6     0.01   0.03  -0.02    -0.01  -0.01   0.02    -0.02   0.04   0.00
   9   7    -0.00   0.03  -0.00    -0.03  -0.02   0.02     0.01   0.08   0.02
  10   6    -0.01   0.03   0.00    -0.04  -0.01   0.05     0.05   0.05   0.01
  11   1    -0.00   0.02  -0.01    -0.01   0.01   0.04     0.01  -0.02  -0.02
  12   1     0.00   0.01  -0.01    -0.00   0.01   0.02    -0.01  -0.01  -0.01
  13   1     0.00   0.01  -0.01     0.00  -0.01  -0.00    -0.02   0.02   0.00
  14   1    -0.01   0.01   0.01    -0.02  -0.00   0.01     0.02   0.02   0.01
  15   6    -0.01   0.05   0.01    -0.04   0.01   0.05     0.12  -0.03  -0.01
  16   6    -0.01   0.05   0.02    -0.04  -0.03   0.04     0.13   0.00   0.03
  17   6    -0.01   0.05   0.02    -0.02  -0.05  -0.01     0.10   0.02   0.04
  18   6    -0.01   0.05   0.01    -0.01  -0.03  -0.04     0.07  -0.00   0.02
  19   6    -0.01   0.05   0.01    -0.00   0.01  -0.03     0.05  -0.03  -0.02
  20   6    -0.01   0.05   0.01    -0.02   0.03   0.02     0.08  -0.05  -0.03
  21   1    -0.00   0.01   0.01    -0.02  -0.01   0.02     0.05   0.01   0.01
  22   1    -0.00   0.01   0.01    -0.01  -0.02  -0.01     0.03   0.01   0.02
  23   1    -0.00   0.01   0.00     0.00  -0.01  -0.02     0.01   0.00   0.01
  24   1    -0.00   0.01   0.00    -0.01   0.02   0.01     0.02  -0.02  -0.02
  25   6    -0.02   0.05  -0.00     0.01   0.03  -0.06     0.02  -0.06  -0.03
  26   6    -0.03   0.06  -0.02     0.03   0.04  -0.12    -0.02  -0.05  -0.01
  27   6    -0.04   0.05  -0.04     0.04   0.06  -0.14    -0.05  -0.07  -0.01
  28   6    -0.04   0.04  -0.03     0.03   0.06  -0.10    -0.04  -0.10  -0.02
  29   7    -0.03   0.03  -0.00     0.02   0.06  -0.06    -0.01  -0.12  -0.04
  30   6    -0.02   0.03   0.01     0.01   0.04  -0.04     0.02  -0.09  -0.04
  31   1    -0.01   0.02  -0.01     0.01   0.01  -0.04    -0.01  -0.01  -0.00
  32   1    -0.01   0.02  -0.02     0.01   0.02  -0.05    -0.02  -0.02  -0.00
  33   1    -0.01   0.01  -0.01     0.01   0.02  -0.03    -0.02  -0.03  -0.01
  34   1    -0.00   0.01   0.01     0.00   0.01  -0.00     0.01  -0.03  -0.01
  35   6     0.13  -0.06   0.01    -0.09  -0.09  -0.07    -0.00  -0.04   0.10
  36   6     0.17  -0.06  -0.01    -0.09  -0.10  -0.10    -0.01  -0.06   0.04
  37   6     0.19  -0.05   0.00    -0.07  -0.09  -0.09    -0.02  -0.08  -0.00
  38   6     0.32  -0.05   0.02    -0.10  -0.11  -0.06    -0.03  -0.06  -0.03
  39   6     0.29  -0.04   0.04    -0.06  -0.09  -0.03    -0.04  -0.08  -0.06
  40   6     0.14  -0.04   0.03     0.01  -0.06  -0.02    -0.03  -0.11  -0.06
  41   7     0.03  -0.05   0.01     0.03  -0.04  -0.05    -0.02  -0.14  -0.04
  42   6     0.05  -0.05  -0.01    -0.01  -0.05  -0.08    -0.02  -0.12  -0.01
  43   1     0.13  -0.01   0.01    -0.04  -0.04  -0.02    -0.01  -0.01  -0.01
  44   1     0.11  -0.01   0.02    -0.02  -0.03  -0.00    -0.01  -0.02  -0.02
  45   1     0.03  -0.01   0.01     0.01  -0.01  -0.00    -0.01  -0.04  -0.02
  46   1    -0.02  -0.02  -0.01     0.00  -0.01  -0.03    -0.00  -0.04   0.00
  47   6     0.05  -0.06   0.02    -0.06  -0.08  -0.04     0.00  -0.04   0.11
  48   6    -0.02  -0.08   0.05    -0.04  -0.03  -0.04    -0.02  -0.04   0.12
  49   6    -0.11  -0.09   0.07     0.00  -0.01  -0.02    -0.02  -0.04   0.11
  50   6    -0.13  -0.08   0.06     0.03  -0.05   0.01     0.01  -0.04   0.10
  51   6    -0.05  -0.05   0.03     0.01  -0.09   0.01     0.03  -0.04   0.09
  52   6     0.03  -0.05   0.01    -0.04  -0.11  -0.01     0.02  -0.03   0.10
  53   1    -0.00  -0.03   0.02    -0.02  -0.00  -0.02    -0.01  -0.01   0.04
  54   1    -0.05  -0.03   0.03     0.01   0.01  -0.00    -0.01  -0.01   0.03
  55   1    -0.06  -0.02   0.02     0.02  -0.01   0.01     0.01  -0.01   0.03
  56   1     0.03  -0.01  -0.00    -0.02  -0.04  -0.00     0.01  -0.01   0.03
  57   6    -0.06  -0.04   0.02     0.05  -0.12   0.03     0.05  -0.02   0.06
  58   6    -0.13  -0.03  -0.00     0.16  -0.15   0.04     0.08  -0.05   0.03
  59   6    -0.12  -0.02  -0.02     0.19  -0.16   0.04     0.08  -0.02  -0.01
  60   6    -0.06  -0.02  -0.01     0.12  -0.14   0.03     0.05   0.03  -0.00
  61   7    -0.01  -0.03   0.01     0.02  -0.12   0.03     0.03   0.06   0.03
  62   6    -0.01  -0.04   0.02    -0.01  -0.10   0.03     0.03   0.03   0.06
  63   1    -0.05  -0.01  -0.00     0.06  -0.05   0.01     0.03  -0.03   0.01
  64   1    -0.05  -0.00  -0.01     0.08  -0.05   0.01     0.03  -0.01  -0.01
  65   1    -0.01  -0.00  -0.01     0.04  -0.04   0.01     0.01   0.02  -0.01
  66   1     0.01  -0.01   0.01    -0.02  -0.02   0.01     0.00   0.01   0.02
  67   6    -0.03  -0.03  -0.11     0.05  -0.01  -0.05    -0.12   0.03   0.02
  68   6    -0.02  -0.04  -0.15     0.05  -0.01  -0.03    -0.10   0.02   0.02
  69   6    -0.02  -0.04  -0.17     0.04  -0.01  -0.01    -0.06   0.00   0.01
  70   6    -0.03  -0.05  -0.30     0.03  -0.01   0.08    -0.02   0.03   0.04
  71   6    -0.03  -0.04  -0.28     0.01  -0.00   0.11     0.02   0.01   0.04
  72   6    -0.03  -0.04  -0.13     0.01   0.01   0.05     0.02  -0.04  -0.00
  73   7    -0.02  -0.03  -0.02     0.03   0.02  -0.03    -0.02  -0.07  -0.03
  74   6    -0.02  -0.03  -0.04     0.04   0.01  -0.06    -0.05  -0.05  -0.02
  75   1    -0.01  -0.02  -0.12     0.01  -0.01   0.03    -0.01   0.02   0.02
  76   1    -0.01  -0.01  -0.11     0.00  -0.00   0.05     0.02   0.01   0.02
  77   1    -0.01  -0.01  -0.03     0.00   0.01   0.02     0.02  -0.02  -0.00
  78   1    -0.00  -0.01   0.02     0.01   0.01  -0.04    -0.02  -0.02  -0.01
  79   6    -0.02  -0.03  -0.04     0.03  -0.00  -0.04    -0.12   0.03   0.01
  80   6     0.00  -0.01   0.01     0.01   0.03  -0.07    -0.13   0.00  -0.03
  81   6     0.02  -0.01   0.09    -0.01   0.04  -0.06    -0.11  -0.01  -0.05
  82   6     0.01  -0.02   0.11    -0.02   0.02  -0.02    -0.07   0.01  -0.02
  83   6    -0.01  -0.04   0.06    -0.01  -0.01   0.00    -0.06   0.03   0.02
  84   6    -0.02  -0.04  -0.02     0.02  -0.02  -0.01    -0.08   0.04   0.03
  85   1     0.00  -0.00  -0.00     0.01   0.01  -0.03    -0.05  -0.00  -0.02
  86   1     0.01   0.00   0.04    -0.01   0.02  -0.02    -0.03  -0.01  -0.02
  87   1     0.01  -0.00   0.05    -0.01   0.01  -0.00    -0.02   0.00  -0.01
  88   1    -0.01  -0.02  -0.02     0.01  -0.01   0.00    -0.02   0.02   0.02
  89   6    -0.01  -0.05   0.08    -0.02  -0.03   0.04    -0.03   0.06   0.03
  90   6    -0.02  -0.07   0.14    -0.03  -0.05   0.08     0.01   0.04   0.02
  91   6    -0.01  -0.07   0.14    -0.04  -0.06   0.11     0.04   0.07   0.02
  92   6    -0.00  -0.04   0.08    -0.03  -0.07   0.10     0.03   0.10   0.03
  93   7    -0.00  -0.02   0.03    -0.03  -0.06   0.07     0.00   0.12   0.04
  94   6    -0.01  -0.02   0.02    -0.02  -0.04   0.04    -0.03   0.09   0.04
  95   1    -0.01  -0.03   0.06    -0.01  -0.01   0.02     0.00   0.01   0.00
  96   1    -0.00  -0.03   0.05    -0.01  -0.02   0.04     0.02   0.02   0.00
  97   1     0.00  -0.01   0.02    -0.01  -0.02   0.03     0.02   0.03   0.01
  98   1    -0.00  -0.00  -0.01    -0.00  -0.01   0.01    -0.01   0.03   0.02
  99   6     0.02   0.05  -0.00     0.06   0.09   0.01    -0.02   0.05  -0.13
 100   6     0.02   0.05  -0.01     0.05   0.11  -0.04    -0.02   0.04  -0.12
 101   6     0.01   0.05  -0.01     0.02   0.12  -0.05    -0.02   0.03  -0.08
 102   6     0.03   0.05   0.00    -0.03   0.12  -0.04    -0.00   0.05  -0.04
 103   6     0.02   0.05   0.02    -0.07   0.12  -0.03     0.00   0.03   0.01
 104   6    -0.01   0.04   0.02    -0.04   0.12  -0.03     0.00  -0.02   0.01
 105   7    -0.03   0.03   0.01     0.01   0.12  -0.05    -0.01  -0.05  -0.03
 106   6    -0.01   0.04  -0.00     0.04   0.11  -0.05    -0.02  -0.03  -0.07
 107   1     0.01   0.02   0.00    -0.01   0.04  -0.01    -0.00   0.03  -0.01
 108   1     0.01   0.02   0.01    -0.03   0.04  -0.01     0.00   0.01   0.01
 109   1    -0.00   0.01   0.01    -0.02   0.03  -0.01     0.00  -0.01   0.01
 110   1    -0.01   0.01  -0.00     0.02   0.03  -0.02    -0.01  -0.01  -0.03
 111   6     0.02   0.05   0.00     0.05   0.09   0.03    -0.01   0.04  -0.11
 112   6     0.03   0.04  -0.00     0.07   0.08   0.02     0.01   0.00  -0.11
 113   6     0.02   0.04   0.00     0.05   0.09   0.03     0.03  -0.01  -0.08
 114   6     0.01   0.05   0.01     0.02   0.09   0.05     0.02   0.01  -0.04
 115   6     0.01   0.05   0.01     0.01   0.09   0.05    -0.00   0.05  -0.04
 116   6     0.01   0.05   0.01     0.03   0.09   0.05    -0.02   0.06  -0.07
 117   1     0.01   0.01  -0.00     0.03   0.02   0.00     0.01  -0.00  -0.04
 118   1     0.01   0.01  -0.00     0.02   0.02   0.01     0.01  -0.01  -0.02
 119   1     0.00   0.01   0.00     0.00   0.03   0.02     0.01   0.00  -0.00
 120   1     0.00   0.01   0.00     0.00   0.03   0.02    -0.01   0.03  -0.02
 121   6    -0.00   0.04   0.01    -0.01   0.08   0.05    -0.00   0.08  -0.00
 122   6    -0.00   0.04   0.01    -0.01   0.09   0.03     0.01   0.07   0.03
 123   6    -0.01   0.04   0.00    -0.03   0.07   0.01     0.02   0.09   0.05
 124   6    -0.02   0.03   0.00    -0.06   0.04   0.01     0.01   0.12   0.05
 125   7    -0.01   0.04   0.01    -0.06   0.04   0.03    -0.00   0.14   0.03
 126   6    -0.01   0.04   0.01    -0.03   0.05   0.05    -0.01   0.11  -0.00
 127   1     0.00   0.01   0.00     0.00   0.03   0.01     0.01   0.01   0.01
 128   1    -0.00   0.01  -0.00    -0.01   0.02   0.00     0.01   0.02   0.02
 129   1    -0.01   0.01  -0.00    -0.02   0.01  -0.00     0.00   0.04   0.02
 130   1    -0.00   0.01   0.00    -0.01   0.01   0.02    -0.01   0.03  -0.01
                     10                     11                     12
                        a                      a                      a 
 Frequencies --    32.3089                34.7785                40.8899
 Red. masses --    23.6058                17.8076                11.7818
 Frc consts  --     0.0000                 0.0000                 0.0000
 IR Inten    --     0.0588                 0.0178                 0.0650
 Raman Activ --     0.0000                 0.0000                 0.0000
 Depolar     --     0.0000                 0.0000                 0.0000
 Atom AN      X      Y      Z        X      Y      Z        X      Y      Z
   1  46     0.24  -0.11   0.09     0.06   0.04  -0.17     0.02   0.02   0.01
   2  46    -0.16   0.12  -0.08    -0.08  -0.06   0.16    -0.03  -0.02   0.06
   3   6     0.01   0.09  -0.01    -0.03   0.01  -0.14    -0.03   0.11  -0.02
   4   6    -0.05   0.12   0.01    -0.04   0.01  -0.13    -0.08   0.13  -0.03
   5   6    -0.07   0.13   0.03    -0.03   0.01  -0.09    -0.05   0.12  -0.02
   6   6    -0.07   0.14   0.11    -0.01   0.01  -0.15    -0.01   0.14  -0.03
   7   6    -0.07   0.14   0.12    -0.00   0.02  -0.08     0.04   0.12  -0.01
   8   6    -0.07   0.13   0.06    -0.01   0.02   0.03     0.04   0.07   0.01
   9   7    -0.07   0.13  -0.01    -0.03   0.01   0.08    -0.01   0.05   0.02
  10   6    -0.06   0.12  -0.03    -0.04   0.01   0.01    -0.05   0.07   0.01
  11   1    -0.02   0.04   0.04    -0.00   0.00  -0.07    -0.00   0.05  -0.01
  12   1    -0.02   0.04   0.05     0.00   0.01  -0.03     0.02   0.04  -0.01
  13   1    -0.02   0.04   0.02    -0.00   0.01   0.03     0.02   0.02   0.01
  14   1    -0.02   0.03  -0.02    -0.02   0.00   0.02    -0.02   0.01   0.01
  15   6     0.05   0.07  -0.02    -0.02   0.01  -0.10    -0.00   0.10  -0.01
  16   6     0.04   0.05  -0.03    -0.01   0.03  -0.06     0.01   0.09   0.01
  17   6     0.06   0.05  -0.04     0.02   0.03   0.02     0.03   0.08   0.03
  18   6     0.08   0.06  -0.03     0.03   0.03   0.06     0.04   0.09   0.02
  19   6     0.09   0.08  -0.02     0.01   0.01   0.01     0.03   0.11  -0.01
  20   6     0.07   0.09  -0.01    -0.02   0.01  -0.07     0.01   0.11  -0.02
  21   1     0.01   0.01  -0.01    -0.00   0.01  -0.02     0.00   0.02   0.00
  22   1     0.02   0.01  -0.01     0.01   0.01   0.01     0.01   0.02   0.01
  23   1     0.03   0.02  -0.01     0.01   0.01   0.04     0.02   0.03   0.01
  24   1     0.02   0.03   0.00    -0.01  -0.00  -0.03     0.00   0.03  -0.01
  25   6     0.09   0.08  -0.02     0.01   0.01   0.05     0.02   0.10  -0.02
  26   6     0.08   0.10  -0.05     0.01  -0.04   0.18    -0.00   0.12  -0.05
  27   6     0.07   0.08  -0.04     0.01  -0.04   0.22    -0.03   0.11  -0.05
  28   6     0.06   0.06   0.00     0.02  -0.00   0.12    -0.03   0.07  -0.03
  29   7     0.08   0.05   0.02     0.02   0.03  -0.01    -0.00   0.05  -0.01
  30   6     0.09   0.06   0.01     0.02   0.04  -0.04     0.02   0.07  -0.01
  31   1     0.02   0.03  -0.03     0.00  -0.02   0.07    -0.00   0.04  -0.02
  32   1     0.02   0.03  -0.02     0.00  -0.02   0.09    -0.01   0.03  -0.02
  33   1     0.02   0.01   0.01     0.01  -0.00   0.04    -0.01   0.01  -0.01
  34   1     0.03   0.02   0.01     0.01   0.02  -0.04     0.01   0.02  -0.00
  35   6    -0.02   0.02   0.05     0.10  -0.03  -0.05     0.03  -0.11  -0.02
  36   6    -0.04   0.03   0.06     0.07  -0.04  -0.07     0.02  -0.13  -0.06
  37   6    -0.04   0.02   0.05     0.02  -0.04  -0.07     0.01  -0.12  -0.04
  38   6    -0.14   0.02   0.02    -0.06  -0.06  -0.07    -0.04  -0.15  -0.01
  39   6    -0.14   0.01   0.00    -0.12  -0.06  -0.06    -0.06  -0.13   0.04
  40   6    -0.03   0.00   0.01    -0.09  -0.04  -0.06    -0.03  -0.08   0.05
  41   7     0.06  -0.00   0.03    -0.01  -0.03  -0.07     0.01  -0.05   0.01
  42   6     0.06   0.01   0.05     0.05  -0.03  -0.07     0.03  -0.06  -0.03
  43   1    -0.06   0.01   0.01    -0.02  -0.02  -0.02    -0.02  -0.06  -0.00
  44   1    -0.06   0.00  -0.01    -0.05  -0.02  -0.02    -0.03  -0.05   0.02
  45   1    -0.01  -0.00  -0.00    -0.04  -0.01  -0.02    -0.01  -0.02   0.02
  46   1     0.04   0.00   0.02     0.03  -0.00  -0.02     0.02  -0.01  -0.02
  47   6    -0.01   0.02   0.03     0.09  -0.02  -0.03     0.02  -0.10   0.01
  48   6     0.03   0.00   0.01     0.12  -0.02  -0.05     0.01  -0.09   0.02
  49   6     0.05  -0.00  -0.02     0.08  -0.02  -0.03    -0.01  -0.09   0.04
  50   6     0.04   0.01  -0.03     0.01  -0.03   0.00    -0.01  -0.10   0.05
  51   6    -0.00   0.03  -0.01    -0.01  -0.02   0.02     0.00  -0.11   0.04
  52   6    -0.02   0.03   0.02     0.03  -0.02  -0.00     0.01  -0.11   0.03
  53   1     0.01  -0.00   0.00     0.05  -0.01  -0.02     0.00  -0.02   0.00
  54   1     0.02  -0.01  -0.01     0.03  -0.01  -0.01    -0.01  -0.02   0.01
  55   1     0.02   0.00  -0.02    -0.01  -0.01   0.01    -0.01  -0.03   0.02
  56   1    -0.01   0.01   0.01     0.00  -0.01   0.00     0.00  -0.03   0.01
  57   6    -0.02   0.04  -0.02    -0.08  -0.02   0.04     0.01  -0.10   0.03
  58   6    -0.00   0.03  -0.02    -0.16   0.02   0.05     0.04  -0.13   0.01
  59   6    -0.01   0.03  -0.02    -0.21   0.03   0.06     0.04  -0.11  -0.02
  60   6    -0.03   0.05  -0.03    -0.17  -0.01   0.06     0.00  -0.07  -0.01
  61   7    -0.06   0.06  -0.02    -0.09  -0.04   0.05    -0.01  -0.05   0.01
  62   6    -0.05   0.05  -0.02    -0.04  -0.04   0.04    -0.01  -0.07   0.04
  63   1     0.01   0.01  -0.01    -0.05   0.01   0.01     0.02  -0.05   0.00
  64   1     0.00   0.01  -0.01    -0.08   0.02   0.02     0.02  -0.03  -0.01
  65   1    -0.01   0.01  -0.01    -0.06  -0.00   0.02    -0.00  -0.01  -0.01
  66   1    -0.02   0.02  -0.01     0.01  -0.02   0.01    -0.01  -0.02   0.02
  67   6     0.01  -0.10   0.02     0.03  -0.04   0.08    -0.01   0.09   0.05
  68   6     0.08  -0.13   0.02     0.05  -0.05   0.07    -0.05   0.11   0.03
  69   6     0.09  -0.13   0.00     0.04  -0.05   0.03    -0.03   0.10   0.01
  70   6     0.09  -0.14  -0.05     0.03  -0.06   0.05     0.01   0.12  -0.06
  71   6     0.08  -0.14  -0.06     0.01  -0.05   0.00     0.04   0.10  -0.09
  72   6     0.08  -0.13  -0.03     0.01  -0.04  -0.06     0.05   0.06  -0.06
  73   7     0.09  -0.13   0.02     0.02  -0.03  -0.07     0.01   0.04   0.00
  74   6     0.09  -0.13   0.04     0.04  -0.03  -0.03    -0.02   0.06   0.03
  75   1     0.02  -0.04  -0.02     0.01  -0.02   0.03     0.00   0.04  -0.03
  76   1     0.02  -0.04  -0.03    -0.00  -0.02   0.00     0.02   0.03  -0.04
  77   1     0.02  -0.04  -0.01    -0.00  -0.01  -0.03     0.02   0.01  -0.02
  78   1     0.03  -0.03   0.02     0.02  -0.01  -0.01    -0.01   0.01   0.02
  79   6    -0.02  -0.09   0.02     0.02  -0.04   0.07     0.01   0.09   0.05
  80   6    -0.02  -0.06   0.02     0.02  -0.04   0.06     0.02   0.07   0.06
  81   6    -0.05  -0.06   0.02     0.00  -0.04   0.02     0.03   0.06   0.04
  82   6    -0.07  -0.07   0.01    -0.01  -0.04  -0.01     0.03   0.07  -0.00
  83   6    -0.07  -0.09   0.01    -0.01  -0.04   0.00     0.03   0.10  -0.01
  84   6    -0.05  -0.10   0.01     0.01  -0.04   0.04     0.02   0.10   0.03
  85   1    -0.00  -0.02   0.01     0.01  -0.01   0.03     0.01   0.02   0.02
  86   1    -0.01  -0.01   0.00    -0.00  -0.01   0.00     0.01   0.01   0.01
  87   1    -0.03  -0.02   0.00    -0.01  -0.01  -0.01     0.01   0.02  -0.01
  88   1    -0.01  -0.03   0.00     0.00  -0.01   0.01     0.01   0.03   0.01
  89   6    -0.07  -0.09   0.01    -0.01  -0.03  -0.02     0.02   0.10  -0.05
  90   6    -0.06  -0.11   0.04    -0.01  -0.01  -0.09    -0.00   0.16  -0.15
  91   6    -0.04  -0.10   0.04    -0.00   0.00  -0.12    -0.03   0.14  -0.18
  92   6    -0.04  -0.07  -0.00    -0.01  -0.01  -0.08    -0.04   0.08  -0.10
  93   7    -0.05  -0.05  -0.02    -0.02  -0.04  -0.01    -0.02   0.03  -0.01
  94   6    -0.07  -0.07  -0.01    -0.02  -0.05   0.02     0.01   0.04   0.01
  95   1    -0.02  -0.04   0.02    -0.00   0.00  -0.03     0.00   0.06  -0.06
  96   1    -0.01  -0.03   0.02     0.00   0.01  -0.05    -0.01   0.05  -0.08
  97   1    -0.01  -0.01  -0.00    -0.00  -0.00  -0.03    -0.02   0.02  -0.03
  98   1    -0.02  -0.02  -0.01    -0.01  -0.02   0.02     0.01   0.00   0.02
  99   6    -0.02  -0.01  -0.03    -0.05   0.05  -0.00    -0.02  -0.10   0.03
 100   6    -0.02  -0.03   0.01    -0.04   0.07  -0.05    -0.02  -0.11   0.07
 101   6    -0.01  -0.03   0.02    -0.01   0.07  -0.06    -0.01  -0.10   0.04
 102   6    -0.07  -0.02   0.04    -0.01   0.07  -0.06     0.01  -0.12   0.00
 103   6    -0.06  -0.03   0.05     0.02   0.07  -0.05     0.02  -0.10  -0.04
 104   6     0.01  -0.05   0.04     0.04   0.06  -0.05     0.02  -0.06  -0.04
 105   7     0.07  -0.06   0.03     0.04   0.07  -0.06     0.00  -0.03  -0.00
 106   6     0.06  -0.05   0.02     0.01   0.07  -0.06    -0.01  -0.05   0.04
 107   1    -0.04  -0.00   0.01    -0.01   0.02  -0.02     0.00  -0.05   0.00
 108   1    -0.03  -0.01   0.02     0.01   0.02  -0.01     0.01  -0.04  -0.02
 109   1     0.01  -0.02   0.01     0.02   0.02  -0.01     0.01  -0.01  -0.02
 110   1     0.03  -0.02   0.00     0.00   0.02  -0.02    -0.01  -0.01   0.02
 111   6    -0.01  -0.01  -0.04    -0.04   0.04   0.04    -0.01  -0.09   0.02
 112   6     0.02  -0.00  -0.06    -0.07   0.00   0.05    -0.00  -0.09   0.01
 113   6     0.04  -0.00  -0.07    -0.05  -0.01   0.08     0.01  -0.08  -0.00
 114   6     0.02  -0.01  -0.07     0.00   0.01   0.09     0.01  -0.09  -0.01
 115   6    -0.02  -0.01  -0.05     0.02   0.05   0.08    -0.00  -0.10  -0.01
 116   6    -0.04  -0.01  -0.04    -0.01   0.06   0.05    -0.01  -0.10   0.01
 117   1     0.01  -0.00  -0.02    -0.03  -0.00   0.01    -0.00  -0.02   0.00
 118   1     0.02  -0.00  -0.03    -0.02  -0.01   0.03     0.01  -0.02  -0.00
 119   1     0.01  -0.00  -0.02     0.01  -0.00   0.03     0.01  -0.03  -0.01
 120   1    -0.02  -0.00  -0.01     0.00   0.02   0.01    -0.00  -0.03   0.00
 121   6    -0.04  -0.01  -0.04     0.07   0.06   0.08    -0.01  -0.09   0.00
 122   6    -0.02  -0.01  -0.02     0.15   0.10   0.07    -0.03  -0.11   0.03
 123   6    -0.02   0.00  -0.01     0.18   0.10   0.06    -0.03  -0.09   0.05
 124   6    -0.03   0.01  -0.01     0.11   0.06   0.06    -0.01  -0.05   0.05
 125   7    -0.06   0.02  -0.03     0.04   0.03   0.07     0.00  -0.04   0.03
 126   6    -0.06   0.00  -0.04     0.02   0.03   0.07    -0.00  -0.05   0.00
 127   1    -0.00  -0.01  -0.01     0.06   0.04   0.02    -0.01  -0.04   0.01
 128   1    -0.00  -0.00   0.00     0.07   0.04   0.02    -0.01  -0.03   0.02
 129   1    -0.01   0.01   0.00     0.03   0.02   0.01    -0.00  -0.01   0.02
 130   1    -0.02   0.00  -0.02    -0.01   0.00   0.02     0.00  -0.01  -0.00
                     13                     14                     15
                        a                      a                      a 
 Frequencies --    43.4446                45.3058                48.8161
 Red. masses --    11.8923                12.4907                11.4975
 Frc consts  --     0.0000                 0.0000                 0.0000
 IR Inten    --     0.1344                 0.1189                 0.0157
 Raman Activ --     0.0000                 0.0000                 0.0000
 Depolar     --     0.0000                 0.0000                 0.0000
 Atom AN      X      Y      Z        X      Y      Z        X      Y      Z
   1  46    -0.01  -0.02   0.09     0.01   0.02   0.01     0.02   0.02  -0.06
   2  46    -0.03  -0.02   0.05    -0.13  -0.03  -0.03    -0.01   0.00   0.06
   3   6    -0.00  -0.02   0.12    -0.05   0.00  -0.04    -0.01  -0.03   0.01
   4   6     0.01  -0.03   0.06    -0.05   0.01  -0.04     0.01  -0.03   0.03
   5   6     0.01  -0.04  -0.02    -0.05   0.01  -0.03     0.01  -0.03   0.04
   6   6     0.01  -0.08  -0.22    -0.05   0.01  -0.02    -0.01  -0.03   0.06
   7   6     0.01  -0.08  -0.29    -0.04   0.01  -0.01    -0.02  -0.03   0.05
   8   6    -0.00  -0.05  -0.16    -0.04   0.01   0.00    -0.02  -0.02   0.02
   9   7    -0.01  -0.02   0.01    -0.05   0.00  -0.01    -0.01  -0.01   0.01
  10   6    -0.01  -0.02   0.08    -0.05   0.00  -0.02     0.01  -0.01   0.02
  11   1     0.01  -0.03  -0.09    -0.01   0.00  -0.01    -0.00  -0.01   0.02
  12   1     0.01  -0.03  -0.13    -0.01   0.00   0.00    -0.01  -0.01   0.02
  13   1    -0.00  -0.02  -0.06    -0.01   0.00   0.01    -0.01  -0.00   0.00
  14   1    -0.00   0.00   0.06    -0.02  -0.00  -0.01     0.00  -0.00   0.00
  15   6     0.02  -0.03   0.12    -0.03  -0.00  -0.02    -0.03  -0.02  -0.01
  16   6     0.05  -0.06   0.18    -0.02  -0.00  -0.00    -0.05  -0.02  -0.07
  17   6     0.05  -0.08   0.12    -0.01  -0.00   0.02    -0.06  -0.02  -0.08
  18   6     0.03  -0.06   0.01    -0.00  -0.00   0.03    -0.05  -0.02  -0.03
  19   6     0.01  -0.02  -0.02    -0.01   0.00   0.01    -0.02  -0.03   0.02
  20   6     0.01  -0.01   0.04    -0.03   0.00  -0.02    -0.01  -0.03   0.03
  21   1     0.02  -0.02   0.07    -0.01  -0.00  -0.00    -0.02  -0.00  -0.03
  22   1     0.02  -0.03   0.05    -0.00  -0.00   0.01    -0.02  -0.00  -0.04
  23   1     0.01  -0.02  -0.01     0.00  -0.00   0.02    -0.02  -0.00  -0.01
  24   1    -0.00   0.00   0.00    -0.01   0.00  -0.01     0.00  -0.01   0.02
  25   6     0.01  -0.00  -0.11    -0.00   0.00   0.02    -0.01  -0.03   0.05
  26   6     0.01   0.06  -0.29     0.00  -0.01   0.05     0.00  -0.05   0.11
  27   6     0.02   0.07  -0.36     0.01  -0.00   0.05     0.02  -0.04   0.12
  28   6     0.01   0.03  -0.23     0.01   0.01   0.02     0.02  -0.01   0.07
  29   7     0.00  -0.01  -0.06     0.00   0.02  -0.00     0.01   0.01   0.02
  30   6    -0.00  -0.03  -0.00    -0.00   0.02  -0.00    -0.01   0.00   0.01
  31   1     0.01   0.03  -0.11    -0.00  -0.01   0.02     0.00  -0.02   0.04
  32   1     0.01   0.03  -0.15     0.00  -0.00   0.02     0.01  -0.02   0.05
  33   1     0.00   0.01  -0.07     0.00   0.00   0.00     0.01  -0.00   0.02
  34   1    -0.01  -0.02   0.04    -0.00   0.01  -0.01    -0.00   0.00  -0.01
  35   6    -0.03   0.03   0.03    -0.13   0.02  -0.01     0.00   0.03   0.00
  36   6    -0.04   0.03   0.05    -0.07   0.03   0.01     0.03   0.03   0.00
  37   6    -0.04   0.03   0.05     0.01   0.04   0.01     0.05   0.03  -0.01
  38   6    -0.10   0.03   0.03     0.15   0.06   0.02     0.09   0.04  -0.01
  39   6    -0.09   0.03   0.01     0.22   0.07   0.02     0.09   0.03  -0.03
  40   6    -0.02   0.01   0.01     0.15   0.05   0.01     0.04   0.02  -0.03
  41   7     0.02   0.01   0.03     0.03   0.04   0.01     0.01   0.01  -0.02
  42   6     0.02   0.02   0.05    -0.04   0.03   0.01     0.02   0.01  -0.01
  43   1    -0.05   0.01   0.01     0.06   0.02   0.01     0.04   0.02  -0.00
  44   1    -0.04   0.01  -0.00     0.10   0.02   0.01     0.03   0.01  -0.01
  45   1    -0.00   0.00  -0.00     0.06   0.02   0.00     0.01   0.00  -0.01
  46   1     0.02   0.00   0.02    -0.04   0.00   0.00    -0.00   0.00  -0.00
  47   6    -0.00   0.02   0.02    -0.12   0.02  -0.01    -0.02   0.03   0.02
  48   6     0.04   0.02  -0.01    -0.13   0.05   0.00    -0.10   0.05   0.06
  49   6     0.07   0.01  -0.02    -0.06   0.06   0.00    -0.10   0.05   0.08
  50   6     0.05   0.02  -0.02     0.01   0.05  -0.01    -0.03   0.04   0.06
  51   6     0.00   0.02   0.00    -0.00   0.01  -0.01     0.03   0.02   0.03
  52   6    -0.02   0.03   0.02    -0.07   0.00  -0.00     0.04   0.02   0.01
  53   1     0.02   0.00  -0.00    -0.05   0.02   0.00    -0.04   0.02   0.02
  54   1     0.03   0.00  -0.01    -0.02   0.02   0.00    -0.04   0.02   0.03
  55   1     0.02   0.00  -0.01     0.02   0.02  -0.00    -0.01   0.02   0.02
  56   1    -0.02   0.01   0.01    -0.02  -0.01  -0.00     0.02   0.00  -0.01
  57   6    -0.02   0.02   0.01     0.06  -0.01  -0.01     0.07   0.01   0.03
  58   6    -0.03   0.03   0.02     0.24  -0.07   0.01     0.13  -0.01   0.03
  59   6    -0.05   0.03   0.03     0.29  -0.09   0.01     0.15  -0.02   0.04
  60   6    -0.04   0.02   0.03     0.16  -0.05   0.00     0.10  -0.01   0.03
  61   7    -0.03   0.01   0.02     0.00  -0.00  -0.01     0.04   0.00   0.03
  62   6    -0.02   0.01   0.01    -0.04   0.01  -0.01     0.03   0.01   0.02
  63   1    -0.01   0.01   0.01     0.09  -0.03   0.00     0.05  -0.01   0.01
  64   1    -0.02   0.01   0.01     0.12  -0.04   0.01     0.06  -0.01   0.01
  65   1    -0.02   0.00   0.01     0.05  -0.02  -0.00     0.03  -0.00   0.01
  66   1    -0.00   0.00   0.00    -0.05   0.01  -0.01    -0.00   0.01   0.00
  67   6    -0.00  -0.03   0.08    -0.01  -0.01   0.05     0.01  -0.04   0.17
  68   6     0.01  -0.03   0.06     0.00  -0.02   0.04     0.04  -0.06   0.11
  69   6     0.01  -0.03   0.01     0.00  -0.02   0.02     0.03  -0.06   0.02
  70   6    -0.01  -0.04  -0.13     0.00  -0.02  -0.04     0.01  -0.07  -0.10
  71   6    -0.02  -0.04  -0.18    -0.00  -0.02  -0.07    -0.01  -0.07  -0.20
  72   6    -0.02  -0.03  -0.08     0.00  -0.02  -0.04    -0.01  -0.04  -0.16
  73   7    -0.00  -0.02   0.05     0.00  -0.02   0.01     0.01  -0.03  -0.05
  74   6     0.01  -0.02   0.09     0.00  -0.01   0.04     0.03  -0.04   0.04
  75   1    -0.00  -0.02  -0.06     0.00  -0.01  -0.02     0.00  -0.03  -0.04
  76   1    -0.01  -0.01  -0.08    -0.00  -0.01  -0.03    -0.01  -0.02  -0.09
  77   1    -0.01  -0.01  -0.03    -0.00  -0.00  -0.02    -0.01  -0.01  -0.06
  78   1     0.00  -0.00   0.06     0.00  -0.00   0.02     0.01  -0.01   0.03
  79   6    -0.00  -0.03   0.07    -0.02  -0.01   0.04     0.01  -0.04   0.14
  80   6     0.00  -0.04   0.07    -0.03  -0.01   0.02     0.01  -0.07   0.13
  81   6    -0.00  -0.05   0.03    -0.04  -0.01  -0.00    -0.00  -0.08   0.03
  82   6    -0.01  -0.04  -0.01    -0.05  -0.01  -0.01    -0.01  -0.07  -0.05
  83   6    -0.01  -0.02  -0.00    -0.04  -0.01   0.01    -0.00  -0.03  -0.02
  84   6    -0.00  -0.02   0.04    -0.02  -0.01   0.03     0.01  -0.02   0.09
  85   1     0.00  -0.01   0.03    -0.01  -0.00   0.01     0.00  -0.03   0.05
  86   1    -0.00  -0.02   0.01    -0.01  -0.00  -0.01    -0.00  -0.03   0.00
  87   1    -0.00  -0.01  -0.02    -0.02  -0.00  -0.01    -0.01  -0.02  -0.04
  88   1    -0.00  -0.00   0.01    -0.00  -0.00   0.01     0.01  -0.00   0.03
  89   6    -0.01  -0.01  -0.04    -0.04  -0.01  -0.00     0.00  -0.00  -0.08
  90   6     0.01   0.02  -0.12    -0.04   0.00  -0.04     0.03   0.06  -0.26
  91   6     0.01   0.04  -0.15    -0.04   0.01  -0.05     0.04   0.08  -0.30
  92   6     0.01   0.02  -0.09    -0.04  -0.00  -0.04     0.02   0.04  -0.16
  93   7    -0.01  -0.01  -0.02    -0.05  -0.02  -0.00    -0.00  -0.02  -0.00
  94   6    -0.01  -0.02   0.01    -0.04  -0.02   0.01    -0.01  -0.04   0.03
  95   1     0.00   0.01  -0.05    -0.01   0.00  -0.01     0.01   0.03  -0.10
  96   1     0.01   0.02  -0.06    -0.01   0.00  -0.02     0.02   0.04  -0.13
  97   1     0.00   0.01  -0.03    -0.01  -0.00  -0.01     0.01   0.01  -0.05
  98   1    -0.01  -0.01   0.02    -0.01  -0.01   0.01    -0.01  -0.02   0.05
  99   6     0.00   0.03   0.03    -0.17  -0.00   0.00     0.09   0.03  -0.01
 100   6     0.00   0.04   0.01    -0.13  -0.01   0.01     0.05   0.04  -0.03
 101   6     0.01   0.04   0.02    -0.05  -0.02   0.01    -0.00   0.05  -0.02
 102   6     0.04   0.04   0.03     0.11  -0.03  -0.00    -0.11   0.05  -0.01
 103   6     0.04   0.04   0.05     0.21  -0.03  -0.01    -0.16   0.05  -0.00
 104   6     0.01   0.02   0.05     0.16  -0.03  -0.01    -0.09   0.04  -0.01
 105   7    -0.03   0.01   0.04     0.01  -0.02   0.00     0.00   0.04  -0.02
 106   6    -0.03   0.02   0.02    -0.09  -0.02   0.01     0.04   0.04  -0.03
 107   1     0.02   0.02   0.01     0.04  -0.01  -0.00    -0.04   0.02  -0.00
 108   1     0.02   0.01   0.02     0.10  -0.01  -0.00    -0.07   0.02   0.00
 109   1     0.00   0.00   0.02     0.07  -0.01  -0.00    -0.03   0.01   0.00
 110   1    -0.02   0.00   0.00    -0.06  -0.00   0.00     0.03   0.01  -0.01
 111   6     0.00   0.03   0.04    -0.14  -0.01   0.01     0.09   0.03  -0.01
 112   6    -0.02   0.03   0.05    -0.11  -0.05  -0.00     0.12   0.05  -0.03
 113   6    -0.02   0.02   0.06    -0.01  -0.06  -0.01     0.07   0.06  -0.03
 114   6     0.00   0.03   0.05     0.06  -0.04  -0.02    -0.01   0.05  -0.01
 115   6     0.02   0.04   0.04     0.01  -0.00   0.00    -0.02   0.03   0.01
 116   6     0.02   0.04   0.04    -0.10   0.01   0.01     0.02   0.02   0.00
 117   1    -0.01   0.01   0.02    -0.04  -0.02  -0.00     0.05   0.02  -0.01
 118   1    -0.01   0.01   0.02     0.01  -0.03  -0.01     0.03   0.02  -0.01
 119   1     0.00   0.01   0.02     0.04  -0.02  -0.01    -0.02   0.02  -0.00
 120   1     0.01   0.01   0.01    -0.04   0.01   0.01     0.00   0.00   0.00
 121   6     0.04   0.03   0.03     0.07   0.02   0.01    -0.08   0.01   0.01
 122   6     0.05   0.05   0.02     0.25   0.09   0.02    -0.18  -0.03  -0.00
 123   6     0.05   0.04   0.01     0.29   0.10   0.02    -0.21  -0.04  -0.01
 124   6     0.02   0.01   0.01     0.15   0.04   0.00    -0.13  -0.01   0.00
 125   7     0.02   0.00   0.02    -0.01  -0.01  -0.01    -0.05   0.02   0.01
 126   6     0.02   0.02   0.03    -0.05  -0.02  -0.01    -0.02   0.03   0.02
 127   1     0.02   0.02   0.01     0.10   0.04   0.01    -0.07  -0.01  -0.00
 128   1     0.02   0.01  -0.00     0.12   0.04   0.01    -0.08  -0.02  -0.01
 129   1     0.00   0.00  -0.00     0.05   0.01   0.00    -0.04  -0.00   0.00
 130   1     0.01   0.00   0.01    -0.05  -0.02  -0.01     0.01   0.01   0.01
                     16                     17                     18
                        a                      a                      a 
 Frequencies --    52.7534                58.0965                61.9600
 Red. masses --    13.5652                12.5761                13.8503
 Frc consts  --     0.0000                 0.0000                 0.0000
 IR Inten    --     0.0734                 0.1132                 0.1459
 Raman Activ --     0.0000                 0.0000                 0.0000
 Depolar     --     0.0000                 0.0000                 0.0000
 Atom AN      X      Y      Z        X      Y      Z        X      Y      Z
   1  46    -0.01   0.13   0.02    -0.10   0.02   0.06     0.00  -0.00  -0.02
   2  46     0.07  -0.09  -0.04    -0.03  -0.06   0.02    -0.09  -0.01  -0.15
   3   6    -0.02  -0.02   0.00     0.05  -0.03  -0.25    -0.06  -0.00  -0.03
   4   6     0.01  -0.03   0.01     0.01  -0.01  -0.22    -0.05  -0.01  -0.04
   5   6     0.02  -0.03   0.01    -0.01   0.01  -0.11    -0.05  -0.01  -0.03
   6   6     0.01  -0.02   0.10    -0.02   0.03   0.07    -0.05   0.00   0.03
   7   6     0.02  -0.02   0.10    -0.03   0.05   0.22    -0.04   0.00   0.04
   8   6     0.03  -0.04   0.00    -0.03   0.05   0.18    -0.04  -0.01  -0.00
   9   7     0.03  -0.06  -0.08    -0.02   0.02   0.02    -0.04  -0.02  -0.06
  10   6     0.03  -0.05  -0.08    -0.01   0.00  -0.12    -0.04  -0.02  -0.07
  11   1     0.00   0.00   0.05    -0.01   0.01   0.03    -0.01   0.00   0.02
  12   1     0.00  -0.00   0.05    -0.01   0.02   0.11    -0.01   0.00   0.02
  13   1     0.01  -0.01  -0.00    -0.01   0.02   0.08    -0.01  -0.00   0.00
  14   1     0.01  -0.02  -0.05     0.00  -0.01  -0.07    -0.01  -0.01  -0.03
  15   6    -0.02  -0.02   0.00     0.07  -0.03  -0.17    -0.04  -0.01  -0.02
  16   6     0.01  -0.03   0.06     0.19   0.01   0.11    -0.02  -0.02   0.02
  17   6     0.02  -0.03   0.06     0.22   0.02   0.25     0.00  -0.03   0.05
  18   6     0.00  -0.03   0.01     0.15   0.00   0.14     0.01  -0.02   0.03
  19   6    -0.02  -0.02  -0.04     0.03  -0.03  -0.12    -0.01  -0.00  -0.01
  20   6    -0.04  -0.01  -0.05    -0.01  -0.05  -0.28    -0.04   0.00  -0.03
  21   1     0.01  -0.01   0.03     0.07   0.01   0.06    -0.01  -0.01   0.01
  22   1     0.01  -0.01   0.03     0.09   0.02   0.13     0.00  -0.01   0.02
  23   1     0.01  -0.01   0.00     0.06   0.00   0.07     0.01  -0.01   0.01
  24   1    -0.02  -0.00  -0.03    -0.03  -0.03  -0.14    -0.02   0.00  -0.02
  25   6    -0.01  -0.01  -0.06    -0.00  -0.05  -0.13    -0.00   0.01  -0.02
  26   6    -0.00  -0.02  -0.03    -0.02  -0.06  -0.06     0.00   0.01  -0.03
  27   6     0.01  -0.01  -0.01    -0.02  -0.07  -0.02     0.01   0.01  -0.03
  28   6     0.01   0.01  -0.02    -0.02  -0.07  -0.03     0.00   0.01  -0.02
  29   7    -0.00   0.03  -0.05    -0.01  -0.06  -0.09    -0.00   0.02  -0.02
  30   6    -0.01   0.02  -0.07    -0.00  -0.04  -0.15    -0.00   0.01  -0.02
  31   1    -0.00  -0.01  -0.00    -0.01  -0.02  -0.01     0.00   0.00  -0.01
  32   1     0.01  -0.01   0.00    -0.01  -0.02   0.01     0.00   0.00  -0.01
  33   1     0.01   0.00   0.00    -0.01  -0.02   0.00     0.00   0.00  -0.00
  34   1    -0.01   0.01  -0.03    -0.00  -0.01  -0.06    -0.00   0.00  -0.00
  35   6     0.16  -0.00  -0.04    -0.06   0.01   0.02     0.15   0.02   0.06
  36   6     0.15  -0.00  -0.04    -0.05   0.02   0.03     0.14   0.01   0.02
  37   6     0.08   0.00  -0.02    -0.02   0.02   0.03     0.08  -0.01   0.00
  38   6    -0.09  -0.03  -0.01    -0.02   0.02   0.02    -0.04  -0.01  -0.01
  39   6    -0.19  -0.03   0.01     0.02   0.02   0.02    -0.13  -0.03  -0.02
  40   6    -0.12   0.00   0.02     0.04   0.02   0.02    -0.10  -0.03  -0.02
  41   7     0.04   0.04   0.01     0.04   0.01   0.02     0.01  -0.02  -0.01
  42   6     0.14   0.04  -0.01     0.01   0.01   0.03     0.10  -0.01   0.00
  43   1    -0.04  -0.02  -0.00    -0.01   0.01   0.01    -0.02  -0.00  -0.00
  44   1    -0.09  -0.02   0.01     0.01   0.01   0.00    -0.06  -0.01  -0.01
  45   1    -0.06   0.00   0.01     0.02   0.00   0.00    -0.05  -0.01  -0.01
  46   1     0.08   0.02  -0.01     0.00   0.00   0.01     0.05  -0.00   0.00
  47   6     0.11  -0.00  -0.02    -0.04   0.01   0.01     0.09   0.02   0.07
  48   6    -0.04  -0.01   0.04    -0.02   0.01  -0.01    -0.11  -0.00   0.16
  49   6    -0.15  -0.01   0.09     0.02   0.02  -0.02    -0.19  -0.01   0.17
  50   6    -0.11  -0.01   0.06     0.03   0.01  -0.02    -0.08   0.00   0.10
  51   6     0.04  -0.00  -0.01     0.00   0.01  -0.00     0.09   0.02   0.02
  52   6     0.15   0.00  -0.05    -0.04   0.01   0.01     0.19   0.03   0.00
  53   1    -0.02  -0.00   0.02    -0.01   0.00  -0.00    -0.06  -0.00   0.06
  54   1    -0.08  -0.00   0.04     0.01   0.01  -0.01    -0.10  -0.01   0.07
  55   1    -0.06  -0.00   0.03     0.02   0.00  -0.01    -0.04   0.00   0.04
  56   1     0.08   0.00  -0.03    -0.02  -0.00   0.00     0.10   0.02  -0.02
  57   6     0.05  -0.00  -0.01     0.00   0.00   0.00     0.12   0.04  -0.02
  58   6    -0.05   0.03  -0.01     0.03  -0.00   0.01     0.14   0.02  -0.03
  59   6    -0.06   0.03  -0.01     0.03  -0.01   0.02     0.12   0.04  -0.04
  60   6     0.01  -0.00  -0.00     0.00  -0.01   0.02     0.04   0.07  -0.05
  61   7     0.11  -0.03  -0.00    -0.02  -0.01   0.01     0.01   0.10  -0.04
  62   6     0.12  -0.03  -0.01    -0.02  -0.00   0.00     0.06   0.07  -0.02
  63   1    -0.04   0.02  -0.01     0.01   0.00   0.00     0.05  -0.00  -0.01
  64   1    -0.04   0.02  -0.00     0.01  -0.00   0.01     0.04   0.01  -0.01
  65   1     0.00  -0.00   0.00    -0.00  -0.00   0.01    -0.00   0.03  -0.02
  66   1     0.06  -0.02  -0.00    -0.01  -0.00  -0.00     0.01   0.02  -0.01
  67   6     0.03   0.00   0.13     0.04  -0.01  -0.05    -0.05   0.01  -0.02
  68   6     0.03   0.00   0.15    -0.00   0.01  -0.04    -0.01  -0.01  -0.02
  69   6     0.02   0.01   0.11    -0.02   0.02  -0.02    -0.00  -0.01  -0.01
  70   6    -0.01  -0.01  -0.02    -0.04   0.01  -0.07     0.00  -0.01   0.01
  71   6    -0.03  -0.00  -0.11    -0.06   0.02  -0.03     0.01  -0.01   0.02
  72   6    -0.03   0.02  -0.08    -0.06   0.04   0.05     0.01  -0.02   0.02
  73   7    -0.01   0.04   0.06    -0.04   0.06   0.09     0.00  -0.02  -0.00
  74   6     0.01   0.03   0.15    -0.02   0.04   0.06    -0.00  -0.02  -0.02
  75   1    -0.00  -0.01  -0.02    -0.01  -0.00  -0.04     0.00  -0.00   0.00
  76   1    -0.01  -0.00  -0.06    -0.02   0.00  -0.02     0.00  -0.00   0.01
  77   1    -0.01   0.01  -0.04    -0.02   0.01   0.02     0.00  -0.00   0.01
  78   1     0.01   0.01   0.08    -0.00   0.01   0.03    -0.00  -0.01  -0.01
  79   6     0.01   0.00   0.07     0.05  -0.01  -0.03    -0.05   0.01  -0.01
  80   6    -0.07   0.01  -0.11     0.08  -0.01   0.05    -0.05   0.02   0.00
  81   6    -0.11   0.01  -0.20     0.09  -0.01   0.07    -0.04   0.02   0.02
  82   6    -0.08   0.01  -0.12     0.06  -0.01   0.03    -0.04   0.01   0.03
  83   6    -0.00  -0.00   0.04     0.03  -0.01  -0.04    -0.05   0.01   0.01
  84   6     0.04  -0.00   0.14     0.03  -0.02  -0.08    -0.06   0.01  -0.01
  85   1    -0.03   0.00  -0.05     0.03  -0.00   0.02    -0.01   0.00  -0.00
  86   1    -0.05   0.00  -0.10     0.03  -0.00   0.04    -0.01   0.01   0.01
  87   1    -0.03   0.00  -0.05     0.02  -0.00   0.01    -0.01   0.00   0.01
  88   1     0.03   0.00   0.08     0.00  -0.01  -0.04    -0.02   0.00  -0.01
  89   6     0.01  -0.01   0.08     0.01  -0.02  -0.06    -0.05   0.01   0.01
  90   6     0.01  -0.00   0.07     0.00  -0.01  -0.06    -0.06   0.00   0.03
  91   6     0.01  -0.01   0.08    -0.01  -0.03  -0.04    -0.06   0.01   0.01
  92   6     0.01  -0.01   0.08    -0.01  -0.05  -0.02    -0.05   0.02  -0.03
  93   7     0.01  -0.01   0.09    -0.00  -0.06  -0.02    -0.05   0.03  -0.05
  94   6     0.01  -0.01   0.09     0.01  -0.04  -0.04    -0.05   0.02  -0.03
  95   1     0.01  -0.00   0.01     0.00   0.00  -0.02    -0.02  -0.00   0.02
  96   1     0.00  -0.00   0.02    -0.00  -0.01  -0.01    -0.02   0.00   0.01
  97   1     0.00  -0.00   0.02    -0.01  -0.02   0.00    -0.01   0.01  -0.01
  98   1     0.00  -0.01   0.03     0.00  -0.01  -0.01    -0.01   0.01  -0.01
  99   6    -0.13   0.01   0.02     0.05   0.02   0.04     0.16  -0.02   0.05
 100   6    -0.13   0.01   0.03     0.03   0.03   0.01     0.16  -0.01   0.01
 101   6    -0.08   0.01   0.02     0.00   0.04   0.01     0.10   0.01   0.00
 102   6     0.06  -0.01   0.00     0.05   0.04   0.02    -0.00   0.00  -0.00
 103   6     0.14  -0.00  -0.02     0.01   0.04   0.03    -0.11   0.01  -0.01
 104   6     0.09   0.01  -0.01    -0.06   0.03   0.03    -0.10   0.02  -0.01
 105   7    -0.05   0.03   0.00    -0.11   0.03   0.03    -0.00   0.03  -0.01
 106   6    -0.13   0.02   0.02    -0.08   0.03   0.02     0.09   0.02  -0.00
 107   1     0.03  -0.01  -0.00     0.03   0.01   0.00    -0.00  -0.00  -0.00
 108   1     0.07  -0.00  -0.01     0.01   0.01   0.01    -0.05   0.00  -0.00
 109   1     0.04   0.00  -0.01    -0.02   0.01   0.01    -0.05   0.01  -0.00
 110   1    -0.07   0.01   0.01    -0.04   0.01   0.00     0.05   0.01   0.00
 111   6    -0.08   0.01  -0.01     0.05   0.02   0.04     0.09  -0.02   0.07
 112   6     0.06   0.02  -0.07     0.05   0.04   0.03    -0.12   0.00   0.17
 113   6     0.14   0.01  -0.11     0.02   0.05   0.03    -0.21   0.01   0.19
 114   6     0.09   0.01  -0.10    -0.01   0.04   0.03    -0.09  -0.00   0.12
 115   6    -0.04   0.01  -0.03    -0.01   0.02   0.03     0.10  -0.02   0.03
 116   6    -0.13   0.01   0.01     0.02   0.01   0.04     0.20  -0.03   0.01
 117   1     0.03   0.00  -0.03     0.02   0.01   0.01    -0.06   0.00   0.07
 118   1     0.07   0.00  -0.05     0.01   0.02   0.01    -0.11   0.01   0.08
 119   1     0.04   0.00  -0.04    -0.01   0.01   0.01    -0.04   0.00   0.04
 120   1    -0.07   0.00   0.02     0.00  -0.00   0.01     0.10  -0.02  -0.02
 121   6    -0.05   0.01  -0.03    -0.03   0.00   0.02     0.13  -0.03  -0.01
 122   6    -0.00   0.03  -0.03    -0.07  -0.01   0.01     0.16  -0.01  -0.03
 123   6     0.01   0.02  -0.03    -0.07  -0.02  -0.00     0.14  -0.03  -0.04
 124   6    -0.02   0.00  -0.04    -0.04  -0.02   0.00     0.06  -0.07  -0.05
 125   7    -0.07  -0.01  -0.04    -0.02  -0.02   0.01     0.02  -0.10  -0.04
 126   6    -0.09  -0.02  -0.03    -0.01  -0.01   0.02     0.06  -0.07  -0.02
 127   1     0.01   0.01  -0.01    -0.03  -0.00   0.00     0.06   0.01  -0.01
 128   1     0.01   0.01  -0.01    -0.03  -0.01  -0.00     0.05  -0.00  -0.01
 129   1    -0.00   0.00  -0.01    -0.01  -0.01  -0.00     0.00  -0.03  -0.02
 130   1    -0.04  -0.01  -0.01     0.00  -0.00   0.01     0.01  -0.02  -0.01
                     19                     20                     21
                        a                      a                      a 
 Frequencies --    63.6141                72.0426                77.2463
 Red. masses --    11.5793                19.1728                14.4870
 Frc consts  --     0.0000                 0.0000                 0.0000
 IR Inten    --     0.0687                 0.0534                 0.3194
 Raman Activ --     0.0000                 0.0000                 0.0000
 Depolar     --     0.0000                 0.0000                 0.0000
 Atom AN      X      Y      Z        X      Y      Z        X      Y      Z
   1  46    -0.01   0.01  -0.01    -0.02   0.16   0.00    -0.02   0.00  -0.12
   2  46    -0.09   0.00   0.03    -0.03   0.25   0.01    -0.01   0.02  -0.13
   3   6    -0.01  -0.00   0.07     0.05  -0.02   0.09     0.08   0.00   0.04
   4   6    -0.01  -0.00   0.06     0.06  -0.02   0.13     0.03   0.03   0.04
   5   6    -0.02   0.00   0.03     0.03  -0.00   0.10     0.01   0.03   0.02
   6   6    -0.04  -0.02  -0.03    -0.00  -0.05  -0.05    -0.01   0.02   0.03
   7   6    -0.05  -0.02  -0.07    -0.04  -0.04  -0.12    -0.03   0.02  -0.01
   8   6    -0.05   0.01  -0.05    -0.05   0.02  -0.04    -0.02   0.04  -0.05
   9   7    -0.04   0.03   0.00    -0.03   0.08   0.10    -0.01   0.05  -0.06
  10   6    -0.03   0.02   0.04     0.01   0.06   0.17     0.01   0.05  -0.02
  11   1    -0.01  -0.01  -0.01     0.00  -0.03  -0.03    -0.00   0.00   0.02
  12   1    -0.02  -0.01  -0.03    -0.02  -0.02  -0.07    -0.01   0.00  -0.00
  13   1    -0.02   0.00  -0.02    -0.02   0.01  -0.03    -0.01   0.01  -0.03
  14   1    -0.01   0.01   0.02     0.01   0.03   0.08     0.00   0.02  -0.01
  15   6    -0.01  -0.01   0.05     0.03  -0.02   0.03     0.07   0.01   0.03
  16   6    -0.02  -0.02   0.02     0.03  -0.02   0.03     0.05   0.02  -0.01
  17   6    -0.03  -0.02  -0.03     0.00  -0.02  -0.04     0.02   0.03  -0.04
  18   6    -0.03  -0.02  -0.04    -0.02  -0.02  -0.08     0.00   0.02  -0.05
  19   6    -0.01  -0.01  -0.00    -0.02  -0.03  -0.08     0.02  -0.00  -0.01
  20   6    -0.00  -0.00   0.04    -0.00  -0.02  -0.04     0.06  -0.00   0.03
  21   1    -0.01  -0.01   0.01     0.02  -0.00   0.02     0.02   0.01  -0.00
  22   1    -0.01  -0.01  -0.02    -0.00  -0.01  -0.01     0.00   0.01  -0.02
  23   1    -0.01  -0.01  -0.02    -0.01  -0.01  -0.03    -0.01   0.01  -0.02
  24   1     0.00   0.00   0.02    -0.00  -0.00  -0.02     0.02  -0.00   0.02
  25   6    -0.01  -0.00  -0.01    -0.02  -0.03  -0.07     0.01  -0.01  -0.00
  26   6    -0.00   0.00  -0.03     0.00  -0.08   0.08    -0.01  -0.01   0.00
  27   6    -0.00  -0.00  -0.02     0.02  -0.08   0.15    -0.02  -0.02   0.01
  28   6    -0.01  -0.01   0.00     0.03  -0.03   0.06    -0.02  -0.04   0.01
  29   7    -0.01  -0.01   0.01     0.01   0.02  -0.10    -0.01  -0.04   0.01
  30   6    -0.01  -0.01   0.01    -0.01   0.02  -0.16     0.01  -0.03  -0.00
  31   1    -0.00   0.00  -0.01    -0.00  -0.04   0.04    -0.00  -0.00  -0.00
  32   1    -0.00   0.00  -0.01     0.01  -0.04   0.08    -0.01  -0.01   0.01
  33   1    -0.00  -0.00   0.00     0.01  -0.01   0.03    -0.01  -0.01   0.00
  34   1    -0.00  -0.00   0.00    -0.00   0.02  -0.08     0.00  -0.01  -0.00
  35   6     0.12   0.02   0.05     0.06  -0.02  -0.05    -0.09  -0.00   0.19
  36   6     0.09   0.00   0.01     0.11  -0.02  -0.06    -0.11  -0.05   0.06
  37   6     0.04  -0.01   0.00     0.10  -0.01  -0.03    -0.07  -0.07  -0.00
  38   6    -0.04  -0.01  -0.00    -0.03  -0.04  -0.01     0.04  -0.03  -0.03
  39   6    -0.10  -0.02  -0.01    -0.09  -0.03   0.02     0.10  -0.04  -0.07
  40   6    -0.09  -0.02  -0.01    -0.02   0.01   0.03     0.05  -0.10  -0.08
  41   7    -0.03  -0.01  -0.00     0.11   0.06   0.01    -0.05  -0.15  -0.05
  42   6     0.03  -0.01   0.00     0.17   0.04  -0.02    -0.11  -0.13  -0.01
  43   1    -0.01  -0.00  -0.00    -0.03  -0.02  -0.01     0.02   0.00  -0.01
  44   1    -0.05  -0.01  -0.00    -0.05  -0.02   0.01     0.05  -0.00  -0.03
  45   1    -0.04  -0.01  -0.00    -0.02   0.01   0.02     0.03  -0.03  -0.03
  46   1     0.02  -0.00   0.00     0.08   0.02  -0.01    -0.06  -0.04   0.00
  47   6     0.09   0.02   0.07     0.00  -0.02  -0.03    -0.05  -0.00   0.17
  48   6    -0.05   0.02   0.13     0.04  -0.02  -0.05     0.01  -0.05   0.13
  49   6    -0.11   0.01   0.15    -0.01  -0.02  -0.03     0.09  -0.07   0.04
  50   6    -0.04   0.02   0.11    -0.07  -0.02  -0.00     0.10  -0.04   0.00
  51   6     0.08   0.02   0.05    -0.11  -0.02   0.01     0.03   0.01   0.04
  52   6     0.15   0.03   0.03    -0.09  -0.01   0.01    -0.04   0.02   0.13
  53   1    -0.03   0.00   0.05     0.03  -0.01  -0.02     0.00  -0.02   0.05
  54   1    -0.06   0.00   0.06     0.01  -0.01  -0.01     0.04  -0.03   0.00
  55   1    -0.03   0.00   0.04    -0.03  -0.01   0.00     0.05  -0.01  -0.02
  56   1     0.07   0.01  -0.00    -0.04  -0.00   0.01    -0.02   0.01   0.04
  57   6     0.08   0.03   0.04    -0.10  -0.02   0.01     0.01   0.05  -0.00
[...]
  14   1    -0.00   0.00  -0.00     0.00  -0.00   0.00     0.00  -0.00   0.00
  15   6     0.00   0.00  -0.00     0.00   0.00  -0.00    -0.00  -0.00   0.00
  16   6    -0.00   0.00   0.00     0.00  -0.00  -0.00     0.00   0.00  -0.00
  17   6    -0.00  -0.00   0.00     0.00   0.00  -0.00    -0.00  -0.00   0.00
  18   6     0.00   0.00  -0.00     0.00   0.00  -0.00    -0.00  -0.00   0.00
  19   6     0.00  -0.00  -0.00     0.00   0.00  -0.00    -0.00  -0.00   0.00
  20   6     0.00   0.00  -0.00     0.00   0.00  -0.00    -0.00  -0.00   0.00
  21   1     0.00  -0.00  -0.00    -0.00   0.00   0.00     0.00  -0.00  -0.00
  22   1     0.00   0.00  -0.00    -0.00  -0.00   0.00     0.00   0.00   0.00
  23   1    -0.00  -0.00   0.00    -0.00  -0.00   0.00     0.00   0.00  -0.00
  24   1    -0.00  -0.00   0.00    -0.00  -0.00   0.00     0.00   0.00  -0.00
  25   6     0.00  -0.00  -0.00     0.00  -0.00  -0.00    -0.00   0.00   0.00
  26   6     0.01   0.00   0.00     0.02   0.00   0.00    -0.02  -0.00  -0.00
  27   6     0.01   0.02   0.01     0.01   0.03   0.01    -0.01  -0.03  -0.01
  28   6    -0.00   0.00   0.00    -0.00   0.00   0.00     0.00  -0.00  -0.00
  29   7    -0.00  -0.00  -0.00    -0.00  -0.00  -0.00     0.00   0.00   0.00
  30   6     0.00   0.00   0.00    -0.00  -0.00  -0.00     0.00   0.00   0.00
  31   1    -0.03  -0.00  -0.00    -0.06  -0.00  -0.01     0.06   0.00   0.01
  32   1    -0.03  -0.06  -0.02    -0.04  -0.09  -0.03     0.05   0.11   0.03
  33   1     0.00  -0.00  -0.00     0.00  -0.00  -0.00    -0.00   0.00   0.00
  34   1    -0.00  -0.00  -0.00     0.00  -0.00   0.00     0.00   0.00   0.00
  35   6    -0.00   0.00  -0.00    -0.00  -0.00  -0.00     0.00  -0.00   0.00
  36   6    -0.00   0.00   0.00     0.00  -0.00   0.00    -0.00   0.00  -0.00
  37   6     0.00  -0.00  -0.00    -0.00   0.00   0.00    -0.00   0.00   0.00
  38   6    -0.00  -0.00   0.02     0.00   0.00  -0.00     0.01   0.01  -0.12
  39   6    -0.00   0.03   0.02     0.00  -0.00  -0.00     0.03  -0.19  -0.13
  40   6    -0.00   0.00  -0.00     0.00  -0.00   0.00     0.00  -0.01   0.01
  41   7     0.00  -0.00  -0.00    -0.00   0.00   0.00    -0.00   0.00   0.00
  42   6    -0.00   0.00   0.00    -0.00   0.00   0.00    -0.00   0.00   0.00
  43   1     0.00   0.01  -0.05    -0.00  -0.00   0.01    -0.02  -0.04   0.38
  44   1     0.01  -0.09  -0.06    -0.00   0.01   0.01    -0.10   0.63   0.43
  45   1     0.00  -0.00   0.00    -0.00   0.00  -0.00    -0.00   0.03  -0.01
  46   1     0.00  -0.00  -0.00     0.00  -0.00  -0.00    -0.00   0.00   0.00
  47   6     0.00  -0.00   0.00    -0.00   0.00  -0.00    -0.00   0.00   0.00
  48   6    -0.00  -0.00  -0.00    -0.00  -0.00  -0.00    -0.00  -0.00  -0.00
  49   6     0.00  -0.00   0.00    -0.00   0.00  -0.00    -0.00   0.00  -0.00
  50   6     0.00  -0.01   0.00    -0.00   0.00  -0.00     0.00  -0.00   0.00
  51   6     0.00  -0.00   0.00    -0.00   0.00  -0.00     0.00   0.00   0.00
  52   6     0.00  -0.00   0.00    -0.00   0.00  -0.00     0.00  -0.00   0.00
  53   1     0.00   0.00   0.00     0.00   0.00   0.00     0.00   0.00   0.00
  54   1    -0.00   0.00  -0.00     0.00  -0.00   0.00     0.00  -0.00   0.00
  55   1    -0.00   0.02  -0.01     0.00  -0.02   0.01    -0.00   0.00  -0.00
  56   1    -0.01   0.00  -0.02     0.01  -0.00   0.01    -0.00   0.00  -0.00
  57   6     0.00   0.00   0.00    -0.00  -0.00  -0.00     0.00   0.00   0.00
  58   6    -0.01  -0.01   0.10     0.01   0.01  -0.08    -0.00  -0.00   0.01
  59   6    -0.06  -0.17   0.07     0.04   0.13  -0.05    -0.01  -0.02   0.01
  60   6    -0.00  -0.01  -0.01     0.00   0.01   0.01    -0.00  -0.00  -0.00
  61   7     0.00   0.00  -0.00    -0.00  -0.00   0.00     0.00   0.00  -0.00
  62   6     0.00   0.00  -0.00    -0.00  -0.00   0.00     0.00   0.00  -0.00
  63   1     0.04   0.03  -0.34    -0.03  -0.02   0.25     0.00   0.00  -0.03
  64   1     0.20   0.58  -0.25    -0.15  -0.44   0.19     0.02   0.06  -0.02
  65   1     0.00   0.02   0.01    -0.00  -0.01  -0.01     0.00   0.00   0.00
  66   1     0.00   0.00  -0.00    -0.00  -0.00   0.00     0.00   0.00  -0.00
  67   6    -0.00  -0.00   0.00    -0.00  -0.00   0.00     0.00   0.00  -0.00
  68   6     0.00   0.00  -0.00     0.00   0.00  -0.00    -0.00  -0.00   0.00
  69   6    -0.00   0.00  -0.00    -0.00   0.00  -0.00     0.00  -0.00   0.00
  70   6     0.01   0.00  -0.00     0.02   0.00  -0.00    -0.04  -0.00   0.00
  71   6     0.01  -0.02   0.00     0.02  -0.04   0.00    -0.05   0.08  -0.00
  72   6    -0.00  -0.00   0.00    -0.00  -0.00   0.00     0.00   0.00  -0.00
  73   7    -0.00   0.00  -0.00    -0.00   0.00  -0.00     0.00  -0.00  -0.00
  74   6    -0.00   0.00  -0.00    -0.00   0.00  -0.00     0.00  -0.00  -0.00
  75   1    -0.04  -0.00   0.00    -0.07  -0.00   0.00     0.15   0.01  -0.00
  76   1    -0.04   0.07  -0.00    -0.08   0.13  -0.00     0.16  -0.26   0.01
  77   1     0.00   0.00  -0.00     0.00   0.00  -0.00    -0.00  -0.01   0.00
  78   1     0.00  -0.00   0.00     0.00  -0.00   0.00    -0.00  -0.00   0.00
  79   6    -0.00  -0.00   0.00     0.00   0.00  -0.00    -0.00  -0.00   0.00
  80   6     0.00  -0.00  -0.00     0.00  -0.00  -0.00    -0.00   0.00   0.00
  81   6     0.00   0.00  -0.00     0.00   0.00  -0.00    -0.00  -0.00   0.00
  82   6    -0.00  -0.00   0.00     0.00   0.00  -0.00    -0.00  -0.00   0.00
  83   6    -0.00  -0.00   0.00     0.00   0.00   0.00    -0.00  -0.00  -0.00
  84   6    -0.00  -0.00   0.00     0.00   0.00  -0.00     0.00   0.00  -0.00
  85   1    -0.00   0.00   0.00    -0.00   0.00   0.00     0.00  -0.00  -0.00
  86   1    -0.00  -0.00   0.00    -0.00  -0.00   0.00     0.00   0.00  -0.00
  87   1     0.00   0.00  -0.00    -0.00  -0.01   0.00     0.00   0.00  -0.00
  88   1     0.00   0.00  -0.00    -0.00  -0.00   0.00    -0.00  -0.00   0.00
  89   6    -0.00   0.00   0.00     0.00  -0.00  -0.00    -0.00   0.00   0.00
  90   6    -0.02  -0.00  -0.00     0.02   0.00   0.00    -0.00  -0.00  -0.00
  91   6    -0.01  -0.03  -0.01     0.01   0.03   0.01    -0.00  -0.01  -0.00
  92   6     0.00  -0.00  -0.00    -0.00   0.00   0.00     0.00  -0.00  -0.00
  93   7     0.00   0.00   0.00    -0.00  -0.00  -0.00     0.00   0.00   0.00
  94   6     0.00  -0.00  -0.00    -0.00  -0.00  -0.00     0.00   0.00   0.00
  95   1     0.05   0.00   0.01    -0.06  -0.00  -0.01     0.02   0.00   0.00
  96   1     0.04   0.09   0.04    -0.05  -0.10  -0.04     0.01   0.03   0.01
  97   1    -0.00   0.00   0.00     0.00  -0.00  -0.00    -0.00   0.00   0.00
  98   1     0.00   0.00   0.00     0.00  -0.00  -0.00    -0.00  -0.00  -0.00
  99   6     0.00   0.00   0.00     0.00   0.00   0.00     0.00   0.00   0.00
 100   6    -0.00  -0.00  -0.00    -0.00  -0.00  -0.00    -0.00  -0.00  -0.00
 101   6    -0.00  -0.00   0.00    -0.00  -0.00   0.00    -0.00  -0.00   0.00
 102   6    -0.00  -0.00  -0.08    -0.01  -0.01  -0.10    -0.00  -0.00  -0.02
 103   6     0.00   0.13  -0.08     0.00   0.16  -0.10     0.00   0.03  -0.02
 104   6     0.00   0.01   0.01     0.00   0.01   0.01     0.00   0.00   0.00
 105   7     0.00  -0.00   0.00     0.00  -0.00   0.00    -0.00  -0.00   0.00
 106   6     0.00   0.00   0.00     0.00  -0.00   0.00    -0.00  -0.00   0.00
 107   1     0.01   0.01   0.25     0.02   0.02   0.32     0.00   0.00   0.07
 108   1    -0.01  -0.44   0.27    -0.01  -0.56   0.34    -0.00  -0.12   0.07
 109   1    -0.00  -0.02  -0.01    -0.00  -0.02  -0.01    -0.00  -0.00  -0.00
 110   1    -0.00  -0.00   0.00    -0.00  -0.00   0.00     0.00   0.00  -0.00
 111   6    -0.00  -0.00  -0.00    -0.00  -0.00  -0.00     0.00   0.00   0.00
 112   6    -0.00   0.00  -0.00    -0.00   0.00  -0.00    -0.00   0.00  -0.00
 113   6     0.00   0.00   0.00    -0.00  -0.00  -0.00    -0.00  -0.00  -0.00
 114   6     0.00   0.00   0.00    -0.00  -0.00  -0.00    -0.00  -0.00  -0.00
 115   6    -0.00  -0.00  -0.00     0.00  -0.00  -0.00     0.00  -0.00   0.00
 116   6    -0.00  -0.00  -0.00     0.00   0.00   0.00     0.00   0.00   0.00
 117   1     0.00  -0.00   0.00     0.00  -0.00   0.00     0.00  -0.00   0.00
 118   1    -0.00  -0.00  -0.00     0.00   0.00   0.00     0.00   0.00   0.00
 119   1    -0.00  -0.00  -0.00     0.00   0.00   0.00     0.00   0.00   0.00
 120   1     0.00   0.00   0.00    -0.00  -0.00  -0.00    -0.00  -0.00  -0.00
 121   6    -0.00   0.00  -0.00    -0.00   0.00  -0.00     0.00  -0.00   0.00
 122   6     0.00  -0.00  -0.00     0.00  -0.00  -0.01    -0.00   0.00   0.01
 123   6     0.00  -0.00  -0.00     0.01  -0.01  -0.01    -0.01   0.01   0.01
 124   6     0.00  -0.00   0.00     0.00  -0.00   0.00    -0.00   0.00  -0.00
 125   7     0.00  -0.00  -0.00    -0.00   0.00   0.00     0.00  -0.00  -0.00
 126   6     0.00  -0.00  -0.00    -0.00   0.00   0.00     0.00   0.00  -0.00
 127   1    -0.00   0.00   0.00    -0.00   0.00   0.02     0.00  -0.00  -0.03
 128   1    -0.00   0.01   0.00    -0.02   0.04   0.02     0.02  -0.05  -0.02
 129   1    -0.00   0.00  -0.00    -0.00   0.00  -0.00     0.00  -0.00   0.00
 130   1    -0.00   0.00   0.00     0.00  -0.00  -0.00     0.00  -0.00  -0.00
                    382                    383                    384
                        a                      a                      a 
 Frequencies --  3119.4977              3119.5062              3119.5954
 Red. masses --     1.8949                 1.8961                 1.8958
 Frc consts  --     0.0000                 0.0000                 0.0000
 IR Inten    --     0.0118                 0.0142                 0.0114
 Raman Activ --     0.0000                 0.0000                 0.0000
 Depolar     --     0.0000                 0.0000                 0.0000
 Atom AN      X      Y      Z        X      Y      Z        X      Y      Z
   1  46    -0.00   0.00   0.00     0.00  -0.00   0.00     0.00  -0.00  -0.00
   2  46     0.00  -0.00   0.00    -0.00   0.00   0.00     0.00  -0.00  -0.00
   3   6    -0.00  -0.00   0.00    -0.00  -0.00   0.00    -0.00  -0.00   0.00
   4   6     0.00   0.00  -0.00     0.00   0.00  -0.00     0.00   0.00  -0.00
   5   6    -0.00   0.00  -0.00    -0.00   0.00  -0.00    -0.00   0.00  -0.00
   6   6     0.06   0.01   0.00     0.07   0.01   0.01     0.08   0.01   0.01
   7   6     0.06  -0.10   0.02     0.08  -0.12   0.03     0.09  -0.14   0.03
   8   6    -0.00  -0.01   0.00    -0.01  -0.01   0.00    -0.01  -0.01   0.00
   9   7    -0.00   0.00  -0.00    -0.00   0.00  -0.00    -0.00   0.00  -0.00
  10   6    -0.00   0.00  -0.00    -0.00   0.00  -0.00    -0.00  -0.00  -0.00
  11   1    -0.18  -0.02  -0.01    -0.24  -0.02  -0.02    -0.27  -0.02  -0.02
  12   1    -0.21   0.33  -0.07    -0.27   0.41  -0.09    -0.31   0.47  -0.10
  13   1     0.01   0.01  -0.00     0.01   0.02  -0.00     0.01   0.02  -0.00
  14   1    -0.00   0.00  -0.00    -0.00   0.00  -0.00    -0.00   0.00  -0.00
  15   6     0.00   0.00  -0.00    -0.00   0.00  -0.00     0.00   0.00  -0.00
  16   6    -0.00   0.00   0.00     0.00  -0.00  -0.00     0.00  -0.00  -0.00
  17   6    -0.00  -0.00   0.00     0.00   0.00  -0.00     0.00   0.00  -0.00
  18   6    -0.00  -0.00   0.00     0.00   0.00  -0.00    -0.00  -0.00   0.00
  19   6     0.00  -0.00  -0.00    -0.00   0.00   0.00    -0.00   0.00   0.00
  20   6     0.00   0.00  -0.00    -0.00  -0.00   0.00    -0.00  -0.00   0.00
  21   1     0.00  -0.00  -0.00    -0.00   0.00   0.00    -0.00   0.00   0.00
  22   1     0.00   0.00  -0.00    -0.00  -0.00   0.00    -0.00   0.00   0.00
  23   1     0.00   0.00  -0.00    -0.00  -0.00   0.00     0.00   0.00  -0.00
  24   1    -0.00  -0.00   0.00     0.00   0.00  -0.00     0.00   0.00  -0.00
  25   6     0.00  -0.00  -0.00    -0.00   0.00   0.00    -0.00   0.00   0.00
  26   6     0.01   0.00   0.00    -0.00  -0.00  -0.00    -0.01  -0.00  -0.00
  27   6     0.00   0.01   0.00    -0.00  -0.01  -0.00    -0.01  -0.01  -0.00
  28   6    -0.00   0.00   0.00     0.00  -0.00  -0.00     0.00  -0.00  -0.00
  29   7    -0.00  -0.00  -0.00     0.00   0.00   0.00     0.00   0.00   0.00
  30   6     0.00   0.00   0.00    -0.00  -0.00  -0.00     0.00  -0.00  -0.00
  31   1    -0.02  -0.00  -0.00     0.01   0.00   0.00     0.03   0.00   0.00
  32   1    -0.01  -0.03  -0.01     0.01   0.02   0.01     0.02   0.04   0.01
  33   1     0.00  -0.00  -0.00    -0.00   0.00   0.00    -0.00   0.00   0.00
  34   1    -0.00  -0.00  -0.00     0.00   0.00   0.00     0.00   0.00   0.00
  35   6    -0.00   0.00  -0.00     0.00  -0.00   0.00     0.00  -0.00   0.00
  36   6     0.00  -0.00   0.00    -0.00   0.00  -0.00    -0.00   0.00  -0.00
  37   6     0.00  -0.00  -0.00    -0.00   0.00   0.00    -0.00   0.00   0.00
  38   6    -0.00  -0.01   0.04     0.00   0.00  -0.01     0.00   0.00  -0.02
  39   6    -0.01   0.07   0.05     0.00  -0.02  -0.01     0.01  -0.03  -0.02
  40   6    -0.00   0.00  -0.00     0.00  -0.00   0.00     0.00  -0.00   0.00
  41   7     0.00  -0.00  -0.00    -0.00   0.00   0.00    -0.00   0.00   0.00
  42   6    -0.00   0.00  -0.00     0.00  -0.00   0.00    -0.00  -0.00   0.00
  43   1     0.01   0.01  -0.14    -0.00  -0.00   0.04    -0.00  -0.01   0.07
  44   1     0.04  -0.23  -0.16    -0.01   0.06   0.04    -0.02   0.11   0.08
  45   1     0.00  -0.01   0.01    -0.00   0.00  -0.00    -0.00   0.00  -0.00
  46   1     0.00  -0.00  -0.00    -0.00   0.00   0.00    -0.00   0.00   0.00
  47   6     0.00  -0.00   0.00    -0.00   0.00  -0.00     0.00   0.00   0.00
  48   6    -0.00  -0.00  -0.00     0.00   0.00   0.00    -0.00  -0.00  -0.00
  49   6    -0.00   0.00  -0.00     0.00  -0.00   0.00    -0.00   0.00  -0.00
  50   6    -0.00   0.00  -0.00     0.00  -0.00   0.00     0.00  -0.00   0.00
  51   6     0.00  -0.00   0.00    -0.00  -0.00  -0.00     0.00   0.00   0.00
  52   6     0.00  -0.00   0.00     0.00  -0.00   0.00     0.00  -0.00   0.00
  53   1     0.00   0.00   0.00    -0.00  -0.00  -0.00     0.00   0.00   0.00
  54   1     0.00  -0.00   0.00    -0.00   0.00  -0.00     0.00  -0.00   0.00
  55   1     0.00  -0.00   0.00    -0.00   0.00  -0.00    -0.00   0.00  -0.00
  56   1    -0.00   0.00  -0.00    -0.00   0.00  -0.00    -0.00   0.00  -0.00
  57   6    -0.00  -0.00  -0.00     0.00   0.00   0.00     0.00   0.00   0.00
  58   6     0.00   0.00  -0.00    -0.00  -0.00   0.01    -0.00  -0.00   0.01
  59   6     0.00   0.00  -0.00    -0.00  -0.01   0.01    -0.01  -0.02   0.01
  60   6     0.00   0.00   0.00    -0.00  -0.00  -0.00    -0.00  -0.00  -0.00
  61   7    -0.00  -0.00  -0.00     0.00   0.00  -0.00     0.00   0.00  -0.00
  62   6    -0.00  -0.00   0.00     0.00   0.00  -0.00    -0.00  -0.00   0.00
  63   1    -0.00  -0.00   0.01     0.00   0.00  -0.03     0.01   0.00  -0.04
  64   1    -0.00  -0.01   0.01     0.02   0.05  -0.02     0.03   0.07  -0.03
  65   1    -0.00  -0.00  -0.00     0.00   0.00   0.00     0.00   0.00   0.00
  66   1    -0.00   0.00  -0.00    -0.00  -0.00   0.00     0.00   0.00  -0.00
  67   6     0.00   0.00  -0.00    -0.00  -0.00   0.00    -0.00  -0.00   0.00
  68   6    -0.00  -0.00   0.00     0.00   0.00  -0.00     0.00   0.00  -0.00
  69   6     0.00  -0.00   0.00    -0.00   0.00  -0.00    -0.00   0.00  -0.00
  70   6    -0.10  -0.01   0.00     0.04   0.00  -0.00     0.03   0.00  -0.00
  71   6    -0.11   0.18  -0.00     0.04  -0.07   0.00     0.03  -0.05   0.00
  72   6     0.01   0.01  -0.00    -0.00  -0.00   0.00    -0.00  -0.00   0.00
  73   7     0.00  -0.00   0.00    -0.00   0.00  -0.00    -0.00   0.00  -0.00
  74   6     0.00   0.00   0.00    -0.00  -0.00  -0.00    -0.00   0.00  -0.00
  75   1     0.33   0.02  -0.01    -0.13  -0.01   0.00    -0.10  -0.01   0.00
  76   1     0.38  -0.60   0.01    -0.15   0.24  -0.00    -0.12   0.18  -0.00
  77   1    -0.01  -0.02   0.00     0.00   0.01  -0.00     0.00   0.01  -0.00
  78   1     0.00  -0.00   0.00    -0.00   0.00  -0.00    -0.00   0.00  -0.00
  79   6    -0.00  -0.00   0.00     0.00   0.00  -0.00    -0.00  -0.00   0.00
  80   6    -0.00   0.00   0.00     0.00  -0.00  -0.00     0.00  -0.00  -0.00
  81   6     0.00   0.00  -0.00     0.00   0.00  -0.00     0.00   0.00  -0.00
  82   6     0.00   0.00  -0.00     0.00   0.00  -0.00     0.00   0.00  -0.00
  83   6    -0.00  -0.00   0.00     0.00   0.00  -0.00    -0.00   0.00   0.00
  84   6     0.00   0.00  -0.00     0.00   0.00  -0.00    -0.00  -0.00   0.00
  85   1     0.00  -0.00  -0.00    -0.00   0.00   0.00    -0.00   0.00   0.00
  86   1    -0.00  -0.00   0.00    -0.00  -0.00   0.00    -0.00  -0.00   0.00
  87   1    -0.00  -0.00   0.00    -0.00  -0.00   0.00    -0.00  -0.00   0.00
  88   1    -0.00  -0.00   0.00    -0.00  -0.00   0.00     0.00   0.00  -0.00
  89   6     0.00  -0.00  -0.00     0.00  -0.00  -0.00    -0.00   0.00   0.00
  90   6     0.01   0.00   0.00     0.01   0.00   0.00    -0.01  -0.00  -0.00
  91   6     0.00   0.01   0.00     0.00   0.01   0.00    -0.01  -0.02  -0.01
  92   6    -0.00   0.00   0.00    -0.00   0.00   0.00     0.00  -0.00  -0.00
  93   7    -0.00  -0.00  -0.00    -0.00  -0.00  -0.00     0.00   0.00   0.00
  94   6    -0.00  -0.00  -0.00    -0.00  -0.00  -0.00    -0.00  -0.00  -0.00
  95   1    -0.02  -0.00  -0.00    -0.02  -0.00  -0.00     0.03   0.00   0.01
  96   1    -0.02  -0.03  -0.02    -0.01  -0.03  -0.01     0.03   0.05   0.02
  97   1     0.00  -0.00  -0.00     0.00  -0.00   0.00    -0.00   0.00   0.00
  98   1     0.00   0.00   0.00     0.00   0.00   0.00     0.00   0.00   0.00
  99   6     0.00   0.00   0.00    -0.00  -0.00   0.00    -0.00  -0.00  -0.00
 100   6    -0.00  -0.00  -0.00    -0.00  -0.00   0.00     0.00   0.00   0.00
 101   6    -0.00  -0.00   0.00     0.00   0.00  -0.00     0.00   0.00  -0.00
 102   6    -0.00  -0.00  -0.01     0.00   0.00   0.01     0.00   0.00   0.01
 103   6     0.00   0.03  -0.02    -0.00  -0.01   0.01    -0.00  -0.02   0.01
 104   6     0.00   0.00   0.00    -0.00  -0.00  -0.00    -0.00  -0.00  -0.00
 105   7    -0.00  -0.00   0.00     0.00   0.00  -0.00     0.00   0.00  -0.00
 106   6    -0.00   0.00  -0.00     0.00  -0.00   0.00    -0.00  -0.00  -0.00
 107   1     0.00   0.00   0.05    -0.00  -0.00  -0.02    -0.00  -0.00  -0.04
 108   1    -0.00  -0.09   0.05     0.00   0.04  -0.02     0.00   0.07  -0.04
 109   1    -0.00  -0.00  -0.00     0.00   0.00   0.00     0.00   0.00   0.00
 110   1     0.00  -0.00   0.00    -0.00   0.00  -0.00     0.00   0.00  -0.00
 111   6    -0.00  -0.00  -0.00     0.00   0.00   0.00    -0.00  -0.00  -0.00
 112   6     0.00  -0.00   0.00    -0.00  -0.00   0.00     0.00  -0.00   0.00
 113   6     0.00   0.00   0.00     0.00   0.00   0.00     0.00   0.00   0.00
 114   6     0.00   0.00   0.00     0.00   0.00   0.00    -0.00  -0.00  -0.00
 115   6    -0.00   0.00  -0.00     0.00   0.00   0.00    -0.00  -0.00  -0.00
 116   6    -0.00  -0.00  -0.00     0.00   0.00   0.00    -0.00  -0.00  -0.00
 117   1    -0.00   0.00  -0.00    -0.00   0.00  -0.00    -0.00   0.00  -0.00
 118   1    -0.00  -0.00  -0.00    -0.00  -0.00  -0.00    -0.00   0.00  -0.00
 119   1    -0.00  -0.00  -0.00    -0.00  -0.01  -0.01     0.00   0.01   0.00
 120   1     0.00   0.00   0.00    -0.01  -0.00  -0.01     0.01   0.00   0.01
 121   6     0.00  -0.00   0.00     0.00  -0.00   0.00    -0.00   0.00  -0.00
 122   6    -0.00   0.00   0.01    -0.01   0.00   0.09     0.01  -0.00  -0.09
 123   6    -0.00   0.01   0.00    -0.06   0.16   0.08     0.06  -0.14  -0.07
 124   6    -0.00   0.00  -0.00    -0.00   0.01  -0.01     0.00  -0.01   0.01
 125   7     0.00  -0.00  -0.00     0.00  -0.00  -0.00    -0.00   0.00   0.00
 126   6     0.00  -0.00  -0.00     0.00   0.00  -0.00    -0.00  -0.00   0.00
 127   1     0.00  -0.00  -0.02     0.05  -0.01  -0.31    -0.04   0.01   0.28
 128   1     0.01  -0.03  -0.01     0.22  -0.54  -0.25    -0.19   0.48   0.23
 129   1     0.00  -0.00   0.00     0.00  -0.01   0.01    -0.00   0.01  -0.01
 130   1    -0.00   0.00   0.00     0.00  -0.00  -0.00    -0.00   0.00   0.00
