 Entering Gaussian System, Link 0=g16
 Input=m6_l1_opt_FINAL.com
 Output=m6_l1_opt_FINAL.log
 Initial command:
 /apps/gaussian/g16-c01-avx/g16/l1.exe "/rds/general/user/vposligu/home/work/Pd2L4_cages/New_Cages/opt/PBE0-def2svp-solvent/SP-more_LoT/m6_l1/HSE/opt/Gau-442968.inp" -scrdir="/rds/general/user/vposligu/home/work/Pd2L4_cages/New_Cages/opt/PBE0-def2svp-solvent/SP-more_LoT/m6_l1/HSE/opt/"
 Entering Link 1 = /apps/gaussian/g16-c01-avx/g16/l1.exe PID=    442969.
  
 Copyright (c) 1988-2019, Gaussian, Inc.  All Rights Reserved.
  
 This is part of the Gaussian(R) 16 program.  It is based on
 the Gaussian(R) 09 system (copyright 2009, Gaussian, Inc.),
 the Gaussian(R) 03 system (copyright 2003, Gaussian, Inc.),
 the Gaussian(R) 98 system (copyright 1998, Gaussian, Inc.),
 the Gaussian(R) 94 system (copyright 1995, Gaussian, Inc.),
 the Gaussian 92(TM) system (copyright 1992, Gaussian, Inc.),
 the Gaussian 90(TM) system (copyright 1990, Gaussian, Inc.),
 the Gaussian 88(TM) system (copyright 1988, Gaussian, Inc.),
 the Gaussian 86(TM) system (copyright 1986, Carnegie Mellon
 University), and the Gaussian 82(TM) system (copyright 1983,
 Carnegie Mellon University). Gaussian is a federally registered
 trademark of Gaussian, Inc.
  
 This software contains proprietary and confidential information,
 including trade secrets, belonging to Gaussian, Inc.
  
 This software is provided under written license and may be
 used, copied, transmitted, or stored only in accord with that
 written license.
  
 The following legend is applicable only to US Government
 contracts under FAR:
  
                    RESTRICTED RIGHTS LEGEND
  
 Use, reproduction and disclosure by the US Government is
 subject to restrictions as set forth in subparagraphs (a)
 and (c) of the Commercial Computer Software - Restricted
 Rights clause in FAR 52.227-19.
  
 Gaussian, Inc.
 340 Quinnipiac St., Bldg. 40, Wallingford CT 06492
  
  
 ---------------------------------------------------------------
 Warning -- This program may not be used in any manner that
 competes with the business of Gaussian, Inc. or will provide
 assistance to any competitor of Gaussian, Inc.  The licensee
 of this program is prohibited from giving any competitor of
 Gaussian, Inc. access to this program.  By using this program,
 the user acknowledges that Gaussian, Inc. is engaged in the
 business of creating and licensing software in the field of
 computational chemistry and represents and warrants to the
 licensee that it is not a competitor of Gaussian, Inc. and that
 it will not use this program in any manner prohibited above.
 ---------------------------------------------------------------
  

 Cite this work as:
 Gaussian 16, Revision C.01,
 M. J. Frisch, G. W. Trucks, H. B. Schlegel, G. E. Scuseria, 
 M. A. Robb, J. R. Cheeseman, G. Scalmani, V. Barone, 
 G. A. Petersson, H. Nakatsuji, X. Li, M. Caricato, A. V. Marenich, 
 J. Bloino, B. G. Janesko, R. Gomperts, B. Mennucci, H. P. Hratchian, 
 J. V. Ortiz, A. F. Izmaylov, J. L. Sonnenberg, D. Williams-Young, 
 F. Ding, F. Lipparini, F. Egidi, J. Goings, B. Peng, A. Petrone, 
 T. Henderson, D. Ranasinghe, V. G. Zakrzewski, J. Gao, N. Rega, 
 G. Zheng, W. Liang, M. Hada, M. Ehara, K. Toyota, R. Fukuda, 
 J. Hasegawa, M. Ishida, T. Nakajima, Y. Honda, O. Kitao, H. Nakai, 
 T. Vreven, K. Throssell, J. A. Montgomery, Jr., J. E. Peralta, 
 F. Ogliaro, M. J. Bearpark, J. J. Heyd, E. N. Brothers, K. N. Kudin, 
 V. N. Staroverov, T. A. Keith, R. Kobayashi, J. Normand, 
 K. Raghavachari, A. P. Rendell, J. C. Burant, S. S. Iyengar, 
 J. Tomasi, M. Cossi, J. M. Millam, M. Klene, C. Adamo, R. Cammi, 
 J. W. Ochterski, R. L. Martin, K. Morokuma, O. Farkas, 
 J. B. Foresman, and D. J. Fox, Gaussian, Inc., Wallingford CT, 2019.
 
 ******************************************
 Gaussian 16:  ES64L-G16RevC.01  3-Jul-2019
                15-Aug-2023 
 ******************************************
 %nprocshared=48
 Will use up to   48 processors via shared memory.
 %mem=120GB
 %chk=m6_l1_opt_FINAL.chk
 -----------------------------------------
 # SP HSEH1PBE/def2svp scrf=(solvent=dmso)
 -----------------------------------------
 1/38=1,172=1/1;
 2/12=2,17=6,18=5,40=1/2;
 3/5=43,7=101,11=2,25=1,30=1,70=2201,72=21,74=-51/1,2,3;
 4//1;
 5/5=2,38=5,53=21/2;
 6/7=2,8=2,9=2,10=2,28=1/1;
 99/5=1,9=1/99;
 -----
 m6_l1
 -----
 Symbolic Z-matrix:
 Charge = 12 Multiplicity = 1
 Pd                   -7.89095  -2.76569   6.75892 
 Pd                   -7.25496   4.21422  -6.73252 
 Pd                    7.89099   2.7695   -6.77043 
 Pd                    7.26243  -4.20058   6.72342 
 Pd                   -0.91675  -9.50669  -4.94406 
 Pd                    0.92108   9.50262   4.94358 
 C                    -8.90224  -0.89917   4.70849 
 N                    -9.25361  -1.93112   5.49497 
 C                    -10.50868  -2.40566   5.41993 
 C                    -11.44888  -1.86766   4.55768 
 C                    -11.10567  -0.79473   3.71894 
 C                    -12.07148  -0.20111   2.77568 
 C                    -13.45483  -0.21968   3.06689 
 C                    -14.3981   0.33157   2.20718 
 C                    -13.91948   0.89858   1.03399 
 O                    -14.68015   1.47893   0.069 
 C                    -13.82742   1.89992  -0.9018 
 C                    -14.19464   2.54614  -2.07414 
 C                    -13.16913   2.89102  -2.94708 
 C                    -11.81321   2.61122  -2.66082 
 C                    -10.75786   2.99951  -3.61503 
 C                    -9.45826   3.31625  -3.1857 
 C                    -8.48803   3.6698   -4.1064 
 N                    -8.73906   3.72078  -5.42593 
 C                    -9.97522   3.42555  -5.86262 
 C                    -10.99575   3.06923  -4.9975 
 C                    -11.4757   1.96126  -1.4648 
 C                    -12.4905   1.59917  -0.58126 
 C                    -12.55167   0.93402   0.70476 
 C                    -11.62067   0.38433   1.58365 
 C                    -9.78874  -0.31593   3.82081 
 H                    -7.87975  -0.52729   4.80137 
 H                    -10.76268  -3.24847   6.06579 
 H                    -12.4423  -2.31592   4.53104 
 H                    -13.80091  -0.65391   4.00663 
 H                    -15.4625   0.32512   2.44438 
 H                    -15.23728   2.77669  -2.29546 
 H                    -13.42682   3.4186   -3.86727 
 H                    -9.19302   3.31592  -2.12822 
 H                    -7.47805   3.92723  -3.78133 
 H                    -10.1471   3.46854  -6.94001 
 H                    -11.96918   2.82026  -5.42064 
 H                    -10.43702   1.71441  -1.23744 
 H                    -10.55916   0.38668   1.32923 
 H                    -9.44473   0.53201   3.2282 
 C                    -5.36985  -4.10448   7.50907 
 N                    -6.50954  -3.59408   8.00686 
 C                    -6.70934  -3.62785   9.33539 
 C                    -5.77875  -4.16895   10.20607 
 C                    -4.57629  -4.7016    9.71328 
 C                    -3.5537   -5.27663   10.60698 
 C                    -3.93373  -5.87954   11.82803 
 C                    -3.00338  -6.43753   12.69736 
 C                    -1.67053  -6.36802   12.31592 
 O                    -0.61822  -6.84802   13.02935 
 C                     0.50098  -6.57482   12.30857 
 C                     1.79921  -6.8953    12.68099 
 C                     2.81241  -6.52105   11.80583 
 C                     2.54514  -5.85434   10.58812 
 C                     3.65262  -5.47873   9.68954 
 C                     3.47468  -5.39297   8.29855 
 C                     4.53156  -5.03169   7.48202 
 N                     5.75039  -4.74957   7.97398 
 C                     5.94769  -4.82621   9.30112 
 C                     4.93683  -5.18495   10.17635 
 C                     1.22127  -5.55049   10.23886 
 C                     0.19256  -5.90944   11.10747 
 C                    -1.25012  -5.77275   11.112 
 C                    -2.19852  -5.22736   10.24913 
 C                    -4.39493  -4.65646   8.32078 
 H                    -5.24193  -4.07476   6.42499 
 H                    -7.64084  -3.19954   9.7107 
 H                    -5.99414  -4.14351   11.27446 
 H                    -4.99113  -5.9388    12.09232 
 H                    -3.30511  -6.9131    13.63118 
 H                     2.01192  -7.42055   13.6127 
 H                     3.84135  -6.77875   12.06328 
 H                     2.51857  -5.63153   7.83221 
 H                     4.4045   -4.97238   6.39899 
 H                     6.94566  -4.584     9.6715 
 H                     5.1595   -5.20514   11.24339 
 H                     0.99608  -5.01487   9.31472 
 H                    -1.88239  -4.74483   9.32246 
 H                    -3.50483  -5.07385   7.84957 
 C                    -7.78319  -4.64767   4.48612 
 N                    -8.08382  -4.54933   5.7926 
 C                    -8.49088  -5.64925   6.44898 
 C                    -8.6057   -6.879     5.82362 
 C                    -8.28843  -7.01156   4.46199 
 C                    -8.38205  -8.30697   3.76335 
 C                    -9.32792  -9.27221   4.17863 
 C                    -9.44893  -10.50592   3.54947 
 C                    -8.58601  -10.7557   2.49127 
 O                    -8.5439   -11.9      1.75947 
 C                    -7.56218  -11.73731   0.83407 
 C                    -7.19153  -12.67259  -0.1224 
 C                    -6.1651   -12.31101  -0.98745 
 C                    -5.51661  -11.05775  -0.90084 
 C                    -4.43297  -10.71599  -1.84085 
 C                    -3.39252  -9.84407  -1.47904 
 C                    -2.39743  -9.53243  -2.38838 
 N                    -2.38469  -10.0367  -3.63438 
 C                    -3.36533  -10.87834  -4.00356 
 C                    -4.38925  -11.2377  -3.144 
 C                    -5.91167  -10.13747   0.08087 
 C                    -6.94495  -10.47801   0.95145 
 C                    -7.62863  -9.82381   2.04907 
 C                    -7.52915  -8.58853   2.68628 
 C                    -7.87096  -5.84546   3.79905 
 H                    -7.46892  -3.73435   3.9768 
 H                    -8.72214  -5.5398    7.51039 
 H                    -8.91885  -7.73586   6.4205 
 H                    -10.0071  -9.04052   5.00119 
 H                    -10.18892  -11.24119   3.86734 
 H                    -7.67916  -13.6459  -0.18706 
 H                    -5.83922  -13.03463  -1.73696 
 H                    -3.33172  -9.4168   -0.47783 
 H                    -1.57944  -8.86348  -2.11343 
 H                    -3.33144  -11.26731  -5.02317 
 H                    -5.16574  -11.90669  -3.51552 
 H                    -5.43987  -9.15538   0.14785 
 H                    -6.77599  -7.86579   2.36676 
 H                    -7.63319  -5.8506    2.73506 
 C                    -6.48625  -0.36383   7.74743 
 N                    -7.682    -0.97691   7.71254 
 C                    -8.73324  -0.3814    8.30111 
 C                    -8.62406   0.84291   8.93815 
 C                    -7.38841   1.50894   8.98136 
 C                    -7.23219   2.82036   9.63761 
 C                    -8.05497   3.17059   10.73264 
 C                    -7.93849   4.39408   11.38235 
 C                    -6.97646   5.2701    10.89865 
 O                    -6.71599   6.50907   11.39258 
 C                    -5.71279   7.0289    10.63754 
 C                    -5.14323   8.28363   10.80521 
 C                    -4.12923   8.63454   9.92133 
 C                    -3.68483   7.76068   8.90267 
 C                    -2.60326   8.17458   7.98953 
 C                    -1.73654   7.23704   7.40322 
 C                    -0.73509   7.65576   6.54542 
 N                    -0.55317   8.95166   6.23763 
 C                    -1.36735   9.86904   6.78687 
 C                    -2.38651   9.52184   7.6572 
 C                    -4.27798   6.49739   8.76396 
 C                    -5.30188   6.13077   9.63499 
 C                    -6.14094   4.96211   9.80887 
 C                    -6.26624   3.72666   9.17679 
 C                    -6.30561   0.86216   8.36263 
 H                    -5.64859  -0.87837   7.27233 
 H                    -9.6927   -0.89988   8.25066 
 H                    -9.52193   1.28105   9.37447 
 H                    -8.78886   2.45342   11.1049 
 H                    -8.56752   4.65216   12.23497 
 H                    -5.47231   8.95807   11.59644 
 H                    -3.64907   9.60723   10.04304 
 H                    -1.81503   6.17306   7.62727 
 H                    -0.05028   6.93527   6.09337 
 H                    -1.20062   10.91257   6.5123 
 H                    -3.02435   10.3144   8.04896 
 H                    -3.96579   5.81815   7.96854 
 H                    -5.63818   3.48419   8.31755 
 H                    -5.30421   1.29304   8.37405 
 C                    -4.63195   3.96544  -8.06415 
 N                    -5.7565    4.70083  -8.02428 
 C                    -5.86228   5.76871  -8.83332 
 C                    -4.84906   6.13643  -9.70217 
 C                    -3.66004   5.391    -9.7573 
 C                    -2.55226   5.75716  -10.65941 
 C                    -2.81932   6.4147   -11.88216 
 C                    -1.80651   6.77697  -12.76269 
 C                    -0.50741   6.47027  -12.38194 
 O                     0.61254   6.74782  -13.09976 
 C                     1.66625   6.28883  -12.37476 
 C                     2.99995   6.36652  -12.75153 
 C                     3.93176   5.82808  -11.87161 
 C                     3.55213   5.23591  -10.64522 
 C                     4.57626   4.67636  -9.74352 
 C                     4.39384   4.64473  -8.35095 
 C                     5.37002   4.10359  -7.5334 
 N                     6.51111   3.59071  -8.02512 
 C                     6.71227   3.61303  -9.35368 
 C                     5.7812    4.14353  -10.23015 
 C                     2.19612   5.17901  -10.29171 
 C                     1.24621   5.70489  -11.16512 
 C                    -0.19842   5.8204   -11.17248 
 C                    -1.22832   5.45715  -10.30692 
 C                    -3.57826   4.27744  -8.90475 
 H                    -4.58164   3.09633  -7.40517 
 H                    -6.78432   6.35035  -8.77398 
 H                    -4.99058   7.02761  -10.31396 
 H                    -3.85231   6.62466  -12.16553 
 H                    -2.02101   7.27301  -13.70986 
 H                     3.30101   6.83286  -13.69021 
 H                     4.98969   5.89357  -12.13235 
 H                     3.5016    5.06334  -7.8849 
 H                     5.24183   4.08387  -6.44942 
 H                     7.645     3.18329  -9.72422 
 H                     5.99775   4.10872  -11.29806 
 H                     1.88084   4.70412  -9.36076 
 H                    -0.99945   4.97254  -9.35595 
 H                    -2.70448   3.62548  -8.90385 
 C                     8.90786   0.91007  -4.71396 
 N                     9.25433   1.94258  -5.50193 
 C                     10.50574   2.42644  -5.42443 
 C                     11.44707   1.89727  -4.55802 
 C                     11.10878   0.82427  -3.71751 
 C                     12.07643   0.24207  -2.76908 
 C                     13.45954   0.26266  -3.06112 
 C                     14.40507  -0.27503  -2.19537 
 C                     13.92875  -0.83037  -1.0157 
 O                     14.69222  -1.39494  -0.04355 
 C                     13.84181  -1.80534   0.93368 
 C                     14.21172  -2.4405    2.11122 
 C                     13.18699  -2.78939   2.98341 
 C                     11.83084  -2.508     2.69983 
 C                     10.7768  -2.89599   3.6555 
 C                     9.57874  -2.17067   3.76458 
 C                     8.60454  -2.56714   4.66334 
 N                     8.75651  -3.64336   5.45434 
 C                     9.89606  -4.35133   5.3738 
 C                     10.91409  -4.00991   4.49982 
 C                     11.49149  -1.86012   1.5032 
 C                     12.50387  -1.51046   0.61187 
 C                     12.56117  -0.86752  -0.68562 
 C                     11.62775  -0.33181  -1.57072 
 C                     9.79582   0.33557  -3.82184 
 H                     7.8883    0.53077  -4.809 
 H                     10.75491   3.26984  -6.07132 
 H                     12.43733   2.35228  -4.52887 
 H                     13.80333   0.6879   -4.00583 
 H                     15.46948  -0.26675  -2.43248 
 H                     15.25679  -2.64967   2.34212 
 H                     13.4504  -3.27123   3.92675 
 H                     9.40026  -1.27489   3.16935 
 H                     7.67421  -2.00406   4.76079 
 H                     9.98901  -5.22318   6.02446 
 H                     11.80208  -4.6415    4.4678 
 H                     10.44826  -1.65613   1.25502 
 H                     10.56619  -0.33485  -1.31633 
 H                     9.45655  -0.51322  -3.22762 
 C                     6.49102   0.3603   -7.7459 
 N                     7.68515   0.97696  -7.71748 
 C                     8.73575   0.38309  -8.30903 
 C                     8.62708  -0.84241  -8.94369 
 C                     7.39294  -1.51173  -8.98117 
 C                     7.23778  -2.82403  -9.63589 
 C                     8.063    -3.17565  -10.72867 
 C                     7.94956  -4.40076  -11.37572 
 C                     6.98748  -5.27677  -10.89217 
 O                     6.73066  -6.51759  -11.38308 
 C                     5.72602  -7.03681  -10.62955 
 C                     5.16039  -8.29363  -10.79449 
 C                     4.14421  -8.64375  -9.91288 
 C                     3.69329  -7.76658  -8.90003 
 C                     2.60873  -8.1799   -7.99032 
 C                     1.72813  -7.24465  -7.42193 
 C                     0.7249   -7.66385  -6.56638 
 N                     0.55377  -8.95775  -6.24432 
 C                     1.38065  -9.87315  -6.77795 
 C                     2.40274  -9.52541  -7.64458 
 C                     4.28266  -6.5013   -8.76363 
 C                     5.30979  -6.13599  -9.63156 
 C                     6.14821  -4.96684  -9.80578 
 C                     6.2712   -3.73009  -9.17579 
 C                     6.31115  -0.86717  -8.35833 
 H                     5.65412   0.87308  -7.2675 
 H                     9.69417   0.90435  -8.2644 
 H                     9.52429  -1.27848  -9.38326 
 H                     8.79698  -2.45861  -11.10094 
 H                     8.58102  -4.66021  -12.22612 
 H                     5.49415  -8.97025  -11.58189 
 H                     3.66699  -9.61822  -10.03214 
 H                     1.79731  -6.18275  -7.65849 
 H                     0.02966  -6.94535  -6.12798 
 H                     1.22196  -10.91519  -6.49322 
 H                     3.05211  -10.31522  -8.02265 
 H                     3.96509  -5.81984  -7.97217 
 H                     5.64092  -3.4866   -8.31849 
 H                     5.31114  -1.30121  -8.36469 
 C                     7.76722   4.65311  -4.50059 
 N                     8.07612   4.55454  -5.80528 
 C                     8.48883   5.654    -6.45888 
 C                     8.60388   6.88288  -5.83162 
 C                     8.28077   7.01514  -4.47129 
 C                     8.37951   8.30807  -3.76878 
 C                     9.33146   9.26954  -4.17895 
 C                     9.46116   10.49859  -3.54242 
 C                     8.60096   10.74762  -2.48184 
 O                     8.56884   11.88656  -1.74131 
 C                     7.58712   11.7245  -0.81574 
 C                     7.22621   12.65467   0.14936 
 C                     6.19795   12.29463   1.0129 
 C                     5.53737   11.04849   0.91571 
 C                     4.45063   10.70928   1.85317 
 C                     3.39841   9.85583   1.48206 
 C                     2.40036   9.54652   2.38886 
 N                     2.39498   10.03582   3.64089 
 C                     3.38732   10.85941   4.01932 
 C                     4.41512   11.21533   3.16272 
 C                     5.92304   10.13317  -0.07437 
 C                     6.95887   10.47162  -0.94275 
 C                     7.63673   9.82002  -2.0455 
 C                     7.52825   8.58955  -2.69036 
 C                     7.85466   5.84998  -3.81215 
 H                     7.44719   3.74069  -3.99307 
 H                     8.72559   5.54473  -7.51915 
 H                     8.92288   7.73922  -6.42606 
 H                     10.0093   9.03805  -5.00263 
 H                     10.20646   11.2304  -3.85584 
 H                     7.72271   13.62291   0.22189 
 H                     5.87988   13.0145   1.76931 
 H                     3.3309    9.44202   0.47574 
 H                     1.57353   8.892     2.10662 
 H                     3.35957   11.23596   5.04372 
 H                     5.20146   11.86866   3.54132 
 H                     5.44255   9.15587  -0.14898 
 H                     6.77059   7.87001  -2.37437 
 H                     7.61021   5.85473  -2.74966 
 C                    -7.237     1.26826  -6.92996 
 N                    -7.44511   2.39565  -7.63194 
 C                    -7.77001   2.29895  -8.9325 
 C                    -7.89563   1.07682  -9.57081 
 C                    -7.67661  -0.11603  -8.86253 
 C                    -7.78866  -1.43779  -9.50712 
 C                    -8.6706   -1.62608  -10.59592 
 C                    -8.8094   -2.85538  -11.23008 
 C                    -8.02983  -3.89859  -10.7497 
 O                    -8.01799  -5.16643  -11.2388 
 C                    -7.12209  -5.86546  -10.4936 
 C                    -6.8015   -7.20532  -10.66371 
 C                    -5.85022  -7.73642  -9.80024 
 C                    -5.23916  -6.96176  -8.78768 
 C                    -4.23751  -7.56827  -7.89124 
 C                    -4.05427  -7.10979  -6.57597 
 C                    -3.1001   -7.69307  -5.76148 
 N                    -2.31992  -8.70293  -6.18462 
 C                    -2.47757  -9.16257  -7.43772 
 C                    -3.41495  -8.62854  -8.30534 
 C                    -5.58941  -5.61188  -8.63949 
 C                    -6.53429  -5.0589   -9.50136 
 C                    -7.13745  -3.75224  -9.67141 
 C                    -7.01924  -2.51442  -9.04259 
 C                    -7.34112   0.01408  -7.5046 
 H                    -6.9863    1.37766  -5.87279 
 H                    -7.92617   3.23157  -9.47853 
 H                    -8.14021   1.071    -10.6332 
 H                    -9.28687  -0.79312  -10.93915 
 H                    -9.50144  -2.99661  -12.06095 
 H                    -7.27819  -7.81221  -11.43422 
 H                    -5.594    -8.79299  -9.89759 
 H                    -4.6686   -6.30967  -6.16247 
 H                    -2.95755  -7.34765  -4.73533 
 H                    -1.82517  -9.97836  -7.7553 
 H                    -3.47411  -9.03339  -9.31584 
 H                    -5.11091  -4.99105  -7.87982 
 H                    -6.31521  -2.38342  -8.21872 
 H                    -7.18307  -0.85964  -6.87211 
 C                    -5.88625   6.3582   -5.23348 
 N                    -7.05071   6.02256  -5.81531 
 C                    -8.07675   6.8888   -5.75934 
 C                    -7.97325   8.11155  -5.11828 
 C                    -6.77155   8.48228  -4.493 
 C                    -6.62613   9.76676  -3.78313 
 C                    -7.3798    10.89281  -4.18663 
 C                    -7.27527   12.12076  -3.54338 
 C                    -6.39654   12.19244  -2.47119 
 O                    -6.16293   13.29587  -1.7132 
 C                    -5.24725   12.93958  -0.77438 
 C                    -4.726     13.77601   0.20311 
 C                    -3.78905   13.22147   1.06749 
 C                    -3.38549   11.86988   0.9714 
 C                    -2.38764   11.3247   1.91065 
 C                    -2.38393   9.96819   2.27599 
 C                    -1.42806   9.48568   3.15224 
 N                    -0.47851   10.27686   3.68094 
 C                    -0.46307   11.57987   3.35191 
 C                    -1.39043   12.13053   2.48386 
 C                    -3.93605   11.05007  -0.02448 
 C                    -4.87018   11.59014  -0.90614 
 C                    -5.63017   11.09512  -2.03636 
 C                    -5.74232   9.87489  -2.69959 
 C                    -5.7138    7.56116  -4.57228 
 H                    -5.06636   5.64069  -5.30671 
 H                    -9.01173   6.58624  -6.23524 
 H                    -8.85193   8.75612  -5.0891 
 H                    -8.04828   10.81291  -5.04582 
 H                    -7.85122   12.98816  -3.86766 
 H                    -5.04134   14.81627   0.29078 
 H                    -3.37757   13.85057   1.85893 
 H                    -3.1396    9.27684   1.9025 
 H                    -1.42368   8.43468   3.44829 
 H                     0.32273   12.19616   3.79324 
 H                    -1.3064    13.1902   2.24182 
 H                    -3.61901   10.01098  -0.13101 
 H                    -5.17027   9.0107   -2.35695 
 H                    -4.7364    7.77911  -4.14134 
 C                     6.79309  -6.02544   4.45277 
 N                     7.11046  -5.98895   5.75842 
 C                     7.30538  -7.14763   6.41085 
 C                     7.1871   -8.37522   5.78167 
 C                     6.84889  -8.44182   4.4201 
 C                     6.70104  -9.72889   3.71539 
 C                     7.44663  -10.85652   4.12934 
 C                     7.34001  -12.08727   3.49181 
 C                     6.45364  -12.16509   2.42635 
 O                     6.20435  -13.27653   1.68523 
 C                     5.27861  -12.92683   0.75379 
 C                     4.7408   -13.77224  -0.20689 
 C                     3.79627  -13.22314  -1.06655 
 C                     3.40288  -11.86779  -0.9831 
 C                     2.40033  -11.3268  -1.91967 
 C                     2.41118  -9.97724  -2.30965 
 C                     1.45236  -9.49768  -3.18418 
 N                     0.4858   -10.28496  -3.6873 
 C                     0.45506  -11.58103  -3.33279 
 C                     1.38506  -12.12889  -2.46572 
 C                     3.96968  -11.03896  -0.00399 
 C                     4.91032  -11.57388   0.87384 
 C                     5.69063  -11.06794   1.9852 
 C                     5.81838  -9.83999   2.63118 
 C                     6.65473  -7.21601   3.76194 
 H                     6.65334  -5.06778   3.94755 
 H                     7.55543  -7.08682   7.47196 
 H                     7.33575  -9.27726   6.37552 
 H                     8.1511   -10.76097   4.95762 
 H                     7.9277   -12.94943   3.80888 
 H                     5.04938  -14.81526  -0.28556 
 H                     3.37104  -13.8595  -1.84483 
 H                     3.18084  -9.29004  -1.95766 
 H                     1.45907  -8.45263  -3.50033 
 H                    -0.34572  -12.19378  -3.75137 
 H                     1.28868  -13.18226  -2.20189 
 H                     3.66033  -9.99654   0.09257 
 H                     5.21555  -8.98779   2.31202 
 H                     6.41845  -7.17296   2.69857 
 C                     6.34881  -1.56544   7.69496 
 N                     7.39926  -2.40394   7.67515 
 C                     8.53977  -2.02896   8.27947 
 C                     8.66672  -0.80706   8.91792 
 C                     7.58741   0.09115   8.94622 
 C                     7.68658   1.40825   9.60235 
 C                     8.55368   1.59095   10.704 
 C                     8.67787   2.81499   11.35115 
 C                     7.91255   3.86328   10.85904 
 O                     7.90104   5.13085   11.34865 
 C                     7.02748   5.838     10.58473 
 C                     6.71279   7.17974   10.75091 
 C                     5.78368   7.71923   9.86869 
 C                     5.18858   6.95058   8.84223 
 C                     4.20586   7.56428   7.92982 
 C                     4.04827   7.11508   6.60814 
 C                     3.10755   7.70216   5.78072 
 N                     2.3167    8.70625   6.19724 
 C                     2.45155   9.15844   7.45566 
 C                     3.37496   8.62105   8.33609 
 C                     5.53296   5.5988    8.69785 
 C                     6.45558   5.03746   9.57839 
 C                     7.04008   3.72432   9.76358 
 C                     6.92289   2.48703   9.13339 
 C                     6.40669  -0.32787   8.31076 
 H                     5.43235  -1.90253   7.20635 
 H                     9.37807  -2.72749   8.24082 
 H                     9.62755  -0.55614   9.36784 
 H                     9.12828   0.74367   11.08273 
 H                     9.34013   2.94571   12.20763 
 H                     7.17681   7.7815    11.53311 
 H                     5.53185   8.77717   9.96301 
 H                     4.67214   6.31936   6.20037 
 H                     2.98431   7.36515   4.74951 
 H                     1.79131   9.97022   7.76701 
 H                     3.41586   9.0191    9.35021 
 H                     5.06543   4.98302   7.92726 
 H                     6.26686   2.37247   8.26848 
 H                     5.5109    0.29347   8.30866 
 
 Stoichiometry    C264H168N24O12Pd6(12+)
 Framework group  C1[X(C264H168N24O12Pd6)]
 Deg. of freedom  1416
 Full point group                 C1      NOp   1
 Largest Abelian subgroup         C1      NOp   1
 Largest concise Abelian subgroup C1      NOp   1
                         Standard orientation:                         
 ---------------------------------------------------------------------
 Center     Atomic      Atomic             Coordinates (Angstroms)
 Number     Number       Type             X           Y           Z
 ---------------------------------------------------------------------
      1         46           0       -7.890934    2.765743   -6.758916
      2         46           0       -7.254985   -4.214174    6.732515
      3         46           0        7.890971   -2.769552    6.770433
      4         46           0        7.262458    4.200529   -6.723417
      5         46           0       -0.916686    9.506697    4.944060
      6         46           0        0.921018   -9.502630   -4.943575
      7          6           0       -8.902235    0.899223   -4.708487
      8          7           0       -9.253600    1.931179   -5.494968
      9          6           0      -10.508660    2.405726   -5.419931
     10          6           0      -11.448872    1.867731   -4.557679
     11          6           0      -11.105663    0.794805   -3.718942
     12          6           0      -12.071478    0.201187   -2.775675
     13          6           0      -13.454832    0.219767   -3.066891
     14          6           0      -14.398098   -0.331474   -2.207182
     15          6           0      -13.919483   -0.898485   -1.033993
     16          8           0      -14.680160   -1.478832   -0.068995
     17          6           0      -13.827427   -1.899827    0.901800
     18          6           0      -14.194657   -2.546050    2.074144
     19          6           0      -13.169151   -2.890936    2.947081
     20          6           0      -11.813232   -2.611140    2.660818
     21          6           0      -10.757884   -2.999440    3.615032
     22          6           0       -9.458284   -3.316183    3.185702
     23          6           0       -8.488050   -3.669744    4.106401
     24          7           0       -8.739086   -3.720726    5.425932
     25          6           0       -9.975245   -3.425481    5.862620
     26          6           0      -10.995768   -3.069163    4.997504
     27          6           0      -11.475709   -1.961181    1.464801
     28          6           0      -12.490506   -1.599087    0.581263
     29          6           0      -12.551674   -0.933940   -0.704763
     30          6           0      -11.620674   -0.384258   -1.583647
     31          6           0       -9.788742    0.315989   -3.820814
     32          1           0       -7.879751    0.527337   -4.801371
     33          1           0      -10.762659    3.248538   -6.065790
     34          1           0      -12.442282    2.315998   -4.531041
     35          1           0      -13.800911    0.653999   -4.006630
     36          1           0      -15.462502   -0.325021   -2.444377
     37          1           0      -15.237302   -2.776592    2.295455
     38          1           0      -13.426840   -3.418507    3.867274
     39          1           0       -9.193040   -3.315859    2.128220
     40          1           0       -7.478079   -3.927182    3.781327
     41          1           0      -10.147128   -3.468478    6.940005
     42          1           0      -11.969197   -2.820181    5.420641
     43          1           0      -10.437030   -1.714340    1.237435
     44          1           0      -10.559164   -0.386613   -1.329227
     45          1           0       -9.444730   -0.531946   -3.228205
     46          6           0       -5.369824    4.104514   -7.509071
     47          7           0       -6.509520    3.594122   -8.006863
     48          6           0       -6.709311    3.627892   -9.335387
     49          6           0       -5.778723    4.168988  -10.206068
     50          6           0       -4.576263    4.701633   -9.713277
     51          6           0       -3.553662    5.276658  -10.606983
     52          6           0       -3.933688    5.879570  -11.828029
     53          6           0       -3.003336    6.437547  -12.697362
     54          6           0       -1.670489    6.368035  -12.315915
     55          8           0       -0.618177    6.848020  -13.029352
     56          6           0        0.501024    6.574819  -12.308574
     57          6           0        1.799253    6.895290  -12.680994
     58          6           0        2.812449    6.521028  -11.805833
     59          6           0        2.545178    5.854319  -10.588122
     60          6           0        3.652656    5.478709   -9.689535
     61          6           0        3.474719    5.392952   -8.298548
     62          6           0        4.531594    5.031659   -7.482019
     63          7           0        5.750420    4.749532   -7.973980
     64          6           0        5.947720    4.826174   -9.301122
     65          6           0        4.936866    5.184921  -10.176354
     66          6           0        1.221309    5.550481  -10.238860
     67          6           0        0.192601    5.909434  -11.107474
     68          6           0       -1.250086    5.772757  -11.111997
     69          6           0       -2.198486    5.227374  -10.249130
     70          6           0       -4.394896    4.656484   -8.320779
     71          1           0       -5.241907    4.074792   -6.424994
     72          1           0       -7.640821    3.199588   -9.710701
     73          1           0       -5.994109    4.143552  -11.274458
     74          1           0       -4.991094    5.938831  -12.092323
     75          1           0       -3.305067    6.913126  -13.631182
     76          1           0        2.011972    7.420536  -13.612699
     77          1           0        3.841396    6.778728  -12.063284
     78          1           0        2.518609    5.631517   -7.832213
     79          1           0        4.404535    4.972349   -6.398992
     80          1           0        6.945686    4.583954   -9.671499
     81          1           0        5.159532    5.205103  -11.243395
     82          1           0        0.996116    5.014867   -9.314723
     83          1           0       -1.882362    4.744838   -9.322458
     84          1           0       -3.504797    5.073870   -7.849570
     85          6           0       -7.783155    4.647723   -4.486121
     86          7           0       -8.083790    4.549385   -5.792601
     87          6           0       -8.490844    5.649305   -6.448976
     88          6           0       -8.605650    6.879053   -5.823619
     89          6           0       -8.288379    7.011610   -4.461992
     90          6           0       -8.381995    8.307028   -3.763348
     91          6           0       -9.327863    9.272271   -4.178630
     92          6           0       -9.448862   10.505985   -3.549466
     93          6           0       -8.585943   10.755759   -2.491269
     94          8           0       -8.543824   11.900053   -1.759472
     95          6           0       -7.562104   11.737357   -0.834066
     96          6           0       -7.191449   12.672641    0.122395
     97          6           0       -6.165024   12.311055    0.987452
     98          6           0       -5.516533   11.057785    0.900842
     99          6           0       -4.432896   10.716020    1.840848
    100          6           0       -3.392455    9.844087    1.479042
    101          6           0       -2.397363    9.532450    2.388383
    102          7           0       -2.384621   10.036715    3.634378
    103          6           0       -3.365262   10.878362    4.003564
    104          6           0       -4.389178   11.237727    3.144004
    105          6           0       -5.911607   10.137504   -0.080871
    106          6           0       -6.944880   10.478058   -0.951452
    107          6           0       -7.628563    9.823857   -2.049071
    108          6           0       -7.529089    8.588577   -2.686275
    109          6           0       -7.870923    5.845506   -3.799045
    110          1           0       -7.468900    3.734403   -3.976795
    111          1           0       -8.722108    5.539857   -7.510393
    112          1           0       -8.918800    7.735913   -6.420503
    113          1           0      -10.007041    9.040589   -5.001186
    114          1           0      -10.188843   11.241257   -3.867341
    115          1           0       -7.679069   13.645947    0.187063
    116          1           0       -5.839137   13.034673    1.736962
    117          1           0       -3.331656    9.416826    0.477833
    118          1           0       -1.579383    8.863492    2.113426
    119          1           0       -3.331369   11.267330    5.023167
    120          1           0       -5.165661   11.906726    3.515521
    121          1           0       -5.439810    9.155413   -0.147853
    122          1           0       -6.775938    7.865837   -2.366758
    123          1           0       -7.633152    5.850652   -2.735063
    124          6           0       -6.486253    0.363872   -7.747430
    125          7           0       -7.681993    0.976962   -7.712539
    126          6           0       -8.733234    0.381455   -8.301109
    127          6           0       -8.624068   -0.842850   -8.938153
    128          6           0       -7.388424   -1.508893   -8.981362
    129          6           0       -7.232213   -2.820310   -9.637614
    130          6           0       -8.054987   -3.170537  -10.732639
    131          6           0       -7.938519   -4.394028  -11.382350
    132          6           0       -6.976489   -5.270058  -10.898655
    133          8           0       -6.716036   -6.509026  -11.392577
    134          6           0       -5.712840   -7.028866  -10.637538
    135          6           0       -5.143288   -8.283592  -10.805206
    136          6           0       -4.129289   -8.634516   -9.921329
    137          6           0       -3.684877   -7.760659   -8.902669
    138          6           0       -2.603317   -8.174558   -7.989530
    139          6           0       -1.736585   -7.237031   -7.403220
    140          6           0       -0.735138   -7.655757   -6.545423
    141          7           0       -0.553232   -8.951655   -6.237632
    142          6           0       -1.367413   -9.869027   -6.786870
    143          6           0       -2.386574   -9.521826   -7.657197
    144          6           0       -4.278021   -6.497366   -8.763957
    145          6           0       -5.301917   -6.130733   -9.634994
    146          6           0       -6.140975   -4.962067   -9.808866
    147          6           0       -6.266268   -3.726614   -9.176786
    148          6           0       -6.305620   -0.862123   -8.362630
    149          1           0       -5.648580    0.878406   -7.272328
    150          1           0       -9.692696    0.899945   -8.250660
    151          1           0       -9.521936   -1.280990   -9.374470
    152          1           0       -8.788879   -2.453363  -11.104899
    153          1           0       -8.567545   -4.652099  -12.234971
    154          1           0       -5.472367   -8.958031  -11.596441
    155          1           0       -3.649130   -9.607210  -10.043044
    156          1           0       -1.815068   -6.173051   -7.627273
    157          1           0       -0.050326   -6.935272   -6.093366
    158          1           0       -1.200691  -10.912565   -6.512297
    159          1           0       -3.024422  -10.314383   -8.048960
    160          1           0       -3.965823   -5.818122   -7.968535
    161          1           0       -5.638203   -3.484153   -8.317551
    162          1           0       -5.304218   -1.293009   -8.374045
    163          6           0       -4.631980   -3.965407    8.064147
    164          7           0       -5.756530   -4.700789    8.024284
    165          6           0       -5.862322   -5.768672    8.833324
    166          6           0       -4.849095   -6.136399    9.702167
    167          6           0       -3.660076   -5.390971    9.757301
    168          6           0       -2.552296   -5.757142   10.659409
    169          6           0       -2.819363   -6.414681   11.882155
    170          6           0       -1.806555   -6.776962   12.762688
    171          6           0       -0.507450   -6.470271   12.381935
    172          8           0        0.612494   -6.747819   13.099761
    173          6           0        1.666210   -6.288838   12.374756
    174          6           0        2.999907   -6.366537   12.751530
    175          6           0        3.931725   -5.828107   11.871605
    176          6           0        3.552096   -5.235930   10.645218
    177          6           0        4.576225   -4.676386    9.743519
    178          6           0        4.393814   -4.644755    8.350946
    179          6           0        5.369993   -4.103627    7.533396
    180          7           0        6.511086   -3.590755    8.025124
    181          6           0        6.712243   -3.613076    9.353680
    182          6           0        5.781169   -4.143564   10.230148
    183          6           0        2.196083   -5.179021   10.291706
    184          6           0        1.246177   -5.704898   11.165124
    185          6           0       -0.198459   -5.820395   11.172476
    186          6           0       -1.228354   -5.457143   10.306925
    187          6           0       -3.578290   -4.277418    8.904745
    188          1           0       -4.581663   -3.096303    7.405166
    189          1           0       -6.784360   -6.350310    8.773977
    190          1           0       -4.990621   -7.027578   10.313965
    191          1           0       -3.852357   -6.624630   12.165534
    192          1           0       -2.021059   -7.272999   13.709861
    193          1           0        3.300964   -6.832887   13.690207
    194          1           0        4.989655   -5.893605   12.132349
    195          1           0        3.501563   -5.063359    7.884900
    196          1           0        5.241800   -4.083901    6.449420
    197          1           0        7.644975   -3.183341    9.724218
    198          1           0        5.997724   -4.108757   11.298065
    199          1           0        1.880808   -4.704134    9.360757
    200          1           0       -0.999481   -4.972529    9.355946
    201          1           0       -2.704503   -3.625466    8.903846
    202          6           0        8.907858   -0.910126    4.713962
    203          7           0        9.254317   -1.942640    5.501931
    204          6           0       10.505726   -2.426507    5.424432
    205          6           0       11.447056   -1.897345    4.558018
    206          6           0       11.108778   -0.824346    3.717512
    207          6           0       12.076431   -0.242147    2.769080
    208          6           0       13.459538   -0.262751    3.061117
    209          6           0       14.405072    0.274939    2.195372
    210          6           0       13.928750    0.830275    1.015701
    211          8           0       14.692225    1.394843    0.043546
    212          6           0       13.841822    1.805246   -0.933678
    213          6           0       14.211740    2.440405   -2.111223
    214          6           0       13.187009    2.789303   -2.983413
    215          6           0       11.830860    2.507926   -2.699833
    216          6           0       10.776818    2.895920   -3.655499
    217          6           0        9.578754    2.170609   -3.764579
    218          6           0        8.604552    2.567082   -4.663335
    219          7           0        8.756531    3.643306   -5.454335
    220          6           0        9.896090    4.351260   -5.373800
    221          6           0       10.914114    4.009843   -4.499823
    222          6           0       11.491505    1.860043   -1.503197
    223          6           0       12.503877    1.510381   -0.611866
    224          6           0       12.561173    0.867434    0.685624
    225          6           0       11.627755    0.331734    1.570720
    226          6           0        9.795814   -0.335630    3.821836
    227          1           0        7.888294   -0.530819    4.808998
    228          1           0       10.754885   -3.269906    6.071320
    229          1           0       12.437311   -2.352361    4.528869
    230          1           0       13.803327   -0.687992    4.005828
    231          1           0       15.469484    0.266652    2.432483
    232          1           0       15.256810    2.649568   -2.342120
    233          1           0       13.450423    3.271147   -3.926749
    234          1           0        9.400267    1.274825   -3.169355
    235          1           0        7.674221    2.004008   -4.760787
    236          1           0        9.989041    5.223116   -6.024461
    237          1           0       11.802108    4.641418   -4.467798
    238          1           0       10.448269    1.656058   -1.255023
    239          1           0       10.566195    0.334776    1.316330
    240          1           0        9.456556    0.513158    3.227618
    241          6           0        6.491019   -0.360340    7.745899
    242          7           0        7.685139   -0.977008    7.717477
    243          6           0        8.735748   -0.383149    8.309026
    244          6           0        8.627082    0.842356    8.943690
    245          6           0        7.392949    1.511680    8.981170
    246          6           0        7.237802    2.823982    9.635894
    247          6           0        8.063023    3.175601   10.728667
    248          6           0        7.949592    4.400710   11.375723
    249          6           0        6.987510    5.276722   10.892170
    250          8           0        6.730702    6.517546   11.383078
    251          6           0        5.726070    7.036772   10.629545
    252          6           0        5.160447    8.293591   10.794494
    253          6           0        4.144266    8.643723    9.912877
    254          6           0        3.693342    7.766558    8.900028
    255          6           0        2.608783    8.179887    7.990324
    256          6           0        1.728172    7.244636    7.421932
    257          6           0        0.724948    7.663849    6.566381
    258          7           0        0.553826    8.957747    6.244322
    259          6           0        1.380713    9.873137    6.777952
    260          6           0        2.402802    9.525390    7.644581
    261          6           0        4.282704    6.501274    8.763627
    262          6           0        5.309834    6.135954    9.631559
    263          6           0        6.148244    4.966803    9.805783
    264          6           0        6.271224    3.730044    9.175789
    265          6           0        6.311156    0.867127    8.358332
    266          1           0        5.654113   -0.873116    7.267504
    267          1           0        9.694163   -0.904412    8.264395
    268          1           0        9.524300    1.278421    9.383261
    269          1           0        8.796999    2.458551   11.100945
    270          1           0        8.581052    4.660152   12.226125
    271          1           0        5.494211    8.970214   11.581892
    272          1           0        3.667055    9.618193   10.032144
    273          1           0        1.797354    6.182736    7.658493
    274          1           0        0.029701    6.945346    6.127984
    275          1           0        1.222026   10.915183    6.493215
    276          1           0        3.052173   10.315196    8.022649
    277          1           0        3.965132    5.819815    7.972167
    278          1           0        5.640943    3.486559    8.318491
    279          1           0        5.311150    1.301175    8.364689
    280          6           0        7.767188   -4.653157    4.500586
    281          7           0        8.076090   -4.554589    5.805278
    282          6           0        8.488789   -5.654060    6.458879
    283          6           0        8.603835   -6.882938    5.831622
    284          6           0        8.280721   -7.015191    4.471293
    285          6           0        8.379454   -8.308121    3.768781
    286          6           0        9.331396   -9.269605    4.178947
    287          6           0        9.461095  -10.498657    3.542420
    288          6           0        8.600887  -10.747673    2.481839
    289          8           0        8.568758  -11.886618    1.741310
    290          6           0        7.587040  -11.724554    0.815735
    291          6           0        7.226122  -12.654713   -0.149360
    292          6           0        6.197867  -12.294670   -1.012895
    293          6           0        5.537294  -11.048522   -0.915708
    294          6           0        4.450556  -10.709307   -1.853169
    295          6           0        3.398342   -9.855848   -1.482062
    296          6           0        2.400298   -9.546538   -2.388861
    297          7           0        2.394914  -10.035834   -3.640885
    298          6           0        3.387252  -10.859433   -4.019319
    299          6           0        4.415052  -11.215356   -3.162723
    300          6           0        5.922974  -10.133207    0.074373
    301          6           0        6.958800  -10.471667    0.942753
    302          6           0        7.636668   -9.820067    2.045497
    303          6           0        7.528193   -8.589596    2.690358
    304          6           0        7.854618   -5.850034    3.812147
    305          1           0        7.447163   -3.740739    3.993065
    306          1           0        8.725553   -5.544786    7.519152
    307          1           0        8.922827   -7.739274    6.426058
    308          1           0       10.009244   -9.038117    5.002627
    309          1           0       10.206382  -11.230472    3.855842
    310          1           0        7.722626  -13.622963   -0.221888
    311          1           0        5.879798  -13.014539   -1.769311
    312          1           0        3.330834   -9.442039   -0.475742
    313          1           0        1.573470   -8.892011   -2.106620
    314          1           0        3.359492  -11.235981   -5.043720
    315          1           0        5.201382  -11.868689   -3.541318
    316          1           0        5.442490   -9.155902    0.148982
    317          1           0        6.770534   -7.870054    2.374367
    318          1           0        7.610171   -5.854781    2.749662
    319          6           0       -7.237013   -1.268210    6.929960
    320          7           0       -7.445123   -2.395605    7.631944
    321          6           0       -7.770022   -2.298899    8.932501
    322          6           0       -7.895636   -1.076767    9.570807
    323          6           0       -7.676613    0.116079    8.862531
    324          6           0       -7.788650    1.437843    9.507116
    325          6           0       -8.670588    1.626137   10.595924
    326          6           0       -8.809378    2.855437   11.230077
    327          6           0       -8.029801    3.898641   10.749700
    328          8           0       -8.017952    5.166481   11.238803
    329          6           0       -7.122047    5.865501   10.493599
    330          6           0       -6.801453    7.205360   10.663707
    331          6           0       -5.850172    7.736461    9.800236
    332          6           0       -5.239112    6.961791    8.787676
    333          6           0       -4.237459    7.568295    7.891241
    334          6           0       -4.054228    7.109816    6.575965
    335          6           0       -3.100047    7.693090    5.761478
    336          7           0       -2.319866    8.702949    6.184620
    337          6           0       -2.477508    9.162583    7.437722
    338          6           0       -3.414894    8.628558    8.305339
    339          6           0       -5.589371    5.611914    8.639485
    340          6           0       -6.534257    5.058940    9.501355
    341          6           0       -7.137422    3.752287    9.671409
    342          6           0       -7.019223    2.514461    9.042586
    343          6           0       -7.341117   -0.014027    7.504596
    344          1           0       -6.986313   -1.377611    5.872791
    345          1           0       -7.926195   -3.231517    9.478529
    346          1           0       -8.140213   -1.070946   10.633197
    347          1           0       -9.286866    0.793178   10.939154
    348          1           0       -9.501420    2.996668   12.060953
    349          1           0       -7.278137    7.812257   11.434221
    350          1           0       -5.593942    8.793024    9.897592
    351          1           0       -4.668563    6.309698    6.162466
    352          1           0       -2.957500    7.347670    4.735326
    353          1           0       -1.825107    9.978375    7.755296
    354          1           0       -3.474055    9.033413    9.315840
    355          1           0       -5.110873    4.991086    7.879821
    356          1           0       -6.315191    2.383459    8.218723
    357          1           0       -7.183062    0.859686    6.872114
    358          6           0       -5.886287   -6.358166    5.233476
    359          7           0       -7.050750   -6.022516    5.815313
    360          6           0       -8.076792   -6.888745    5.759343
    361          6           0       -7.973301   -8.111494    5.118277
    362          6           0       -6.771607   -8.482234    4.492998
    363          6           0       -6.626197   -9.766715    3.783125
    364          6           0       -7.379866  -10.892766    4.186634
    365          6           0       -7.275352  -12.120717    3.543384
    366          6           0       -6.396621  -12.192399    2.471186
    367          8           0       -6.163014  -13.295831    1.713195
    368          6           0       -5.247337  -12.939543    0.774375
    369          6           0       -4.726085  -13.775975   -0.203111
    370          6           0       -3.789131  -13.221445   -1.067492
    371          6           0       -3.385569  -11.869862   -0.971396
    372          6           0       -2.387714  -11.324683   -1.910650
    373          6           0       -2.383997   -9.968171   -2.275988
    374          6           0       -1.428124   -9.485674   -3.152243
    375          7           0       -0.478573  -10.276860   -3.680937
    376          6           0       -0.463147  -11.579871   -3.351910
    377          6           0       -1.390513  -12.130523   -2.483863
    378          6           0       -3.936120  -11.050042    0.024476
    379          6           0       -4.870256  -11.590112    0.906135
    380          6           0       -5.630240  -11.095086    2.036364
    381          6           0       -5.742388   -9.874855    2.699586
    382          6           0       -5.713848   -7.561124    4.572281
    383          1           0       -5.066397   -5.640659    5.306712
    384          1           0       -9.011768   -6.586181    6.235235
    385          1           0       -8.851985   -8.756060    5.089099
    386          1           0       -8.048347  -10.812854    5.045822
    387          1           0       -7.851305  -12.988106    3.867655
    388          1           0       -5.041439  -14.816239   -0.290782
    389          1           0       -3.377661  -13.850550   -1.858926
    390          1           0       -3.139660   -9.276817   -1.902500
    391          1           0       -1.423732   -8.434669   -3.448288
    392          1           0        0.322647  -12.196164   -3.793241
    393          1           0       -1.306485  -13.190191   -2.241817
    394          1           0       -3.619077  -10.010957    0.131014
    395          1           0       -5.170333   -9.010669    2.356947
    396          1           0       -4.736454   -7.779075    4.141341
    397          6           0        6.793129    6.025397   -4.452770
    398          7           0        7.110503    5.988905   -5.758423
    399          6           0        7.305424    7.147578   -6.410851
    400          6           0        7.187157    8.375171   -5.781670
    401          6           0        6.848948    8.441774   -4.420098
    402          6           0        6.701106    9.728845   -3.715391
    403          6           0        7.446701   10.856470   -4.129335
    404          6           0        7.340084   12.087223   -3.491805
    405          6           0        6.453724   12.165050   -2.426352
    406          8           0        6.204441   13.276487   -1.685225
    407          6           0        5.278695   12.926796   -0.753785
    408          6           0        4.740895   13.772214    0.206885
    409          6           0        3.796360   13.223114    1.066549
    410          6           0        3.402961   11.867766    0.983103
    411          6           0        2.400404   11.326782    1.919671
    412          6           0        2.411240    9.977223    2.309648
    413          6           0        1.452426    9.497670    3.184179
    414          7           0        0.485870   10.284954    3.687303
    415          6           0        0.455133   11.581026    3.332791
    416          6           0        1.385136   12.128876    2.465717
    417          6           0        3.969756   11.038931    0.003989
    418          6           0        4.910391   11.573843   -0.873844
    419          6           0        5.690698   11.067903   -1.985201
    420          6           0        5.818444    9.839951   -2.631182
    421          6           0        6.654774    7.215969   -3.761937
    422          1           0        6.653374    5.067739   -3.947546
    423          1           0        7.555471    7.086771   -7.471958
    424          1           0        7.335816    9.277208   -6.375521
    425          1           0        8.151166   10.760917   -4.957620
    426          1           0        7.927781   12.949382   -3.808877
    427          1           0        5.049475   14.815228    0.285564
    428          1           0        3.371135   13.859476    1.844831
    429          1           0        3.180901    9.290020    1.957664
    430          1           0        1.459127    8.452621    3.500328
    431          1           0       -0.345640   12.193778    3.751365
    432          1           0        1.288763   13.182257    2.201889
    433          1           0        3.660394    9.996520   -0.092565
    434          1           0        5.215610    8.987754   -2.312017
    435          1           0        6.418497    7.172922   -2.698570
    436          6           0        6.348815    1.565402   -7.694964
    437          7           0        7.399277    2.403892   -7.675152
    438          6           0        8.539787    2.028908   -8.279470
    439          6           0        8.666721    0.807001   -8.917923
    440          6           0        7.587408   -0.091200   -8.946224
    441          6           0        7.686570   -1.408302   -9.602348
    442          6           0        8.553669   -1.591003  -10.704003
    443          6           0        8.677849   -2.815049  -11.351149
    444          6           0        7.912528   -3.863334  -10.859037
    445          8           0        7.901009   -5.130902  -11.348646
    446          6           0        7.027442   -5.838041  -10.584725
    447          6           0        6.712742   -7.179783  -10.750914
    448          6           0        5.783630   -7.719267   -9.868686
    449          6           0        5.188537   -6.950612   -8.842230
    450          6           0        4.205812   -7.564304   -7.929819
    451          6           0        4.048226   -7.115111   -6.608137
    452          6           0        3.107499   -7.702176   -5.780722
    453          7           0        2.316646   -8.706261   -6.197240
    454          6           0        2.451494   -9.158460   -7.455662
    455          6           0        3.374902   -8.621071   -8.336091
    456          6           0        5.532928   -5.598837   -8.697846
    457          6           0        6.455547   -5.037506   -9.578390
    458          6           0        7.040052   -3.724367   -9.763575
    459          6           0        6.922876   -2.487078   -9.133394
    460          6           0        6.406687    0.327832   -8.310756
    461          1           0        5.432365    1.902490   -7.206351
    462          1           0        9.378089    2.727433   -8.240816
    463          1           0        9.627558    0.556072   -9.367844
    464          1           0        9.128273   -0.743732  -11.082729
    465          1           0        9.340114   -2.945768  -12.207629
    466          1           0        7.176757   -7.781549  -11.533105
    467          1           0        5.531793   -8.777201   -9.963012
    468          1           0        4.672095   -6.319388   -6.200368
    469          1           0        2.984265   -7.365167   -4.749505
    470          1           0        1.791246   -9.970229   -7.767010
    471          1           0        3.415798   -9.019117   -9.350211
    472          1           0        5.065396   -4.983054   -7.927257
    473          1           0        6.266847   -2.372506   -8.268478
    474          1           0        5.510897   -0.293507   -8.308657
 ---------------------------------------------------------------------
 Rotational constants (GHZ):           0.0011306           0.0011299           0.0011283
 Standard basis: def2SVP (5D, 7F)
 There are  5556 symmetry adapted cartesian basis functions of A   symmetry.
 There are  5226 symmetry adapted basis functions of A   symmetry.
  5226 basis functions,  9066 primitive gaussians,  5556 cartesian basis functions
  1056 alpha electrons     1056 beta electrons
       nuclear repulsion energy     95990.9131825888 Hartrees.
 NAtoms=  474 NActive=  474 NUniq=  474 SFac= 1.00D+00 NAtFMM=   60 NAOKFM=T Big=T
 Integral buffers will be    131072 words long.
 Raffenetti 2 integral format.
 Two-electron integral symmetry is turned on.
 ------------------------------------------------------------------------------
 Polarizable Continuum Model (PCM)
 =================================
 Model                : PCM.
 Atomic radii         : UFF (Universal Force Field).
 Polarization charges : Total charges.
 Charge compensation  : None.
 Solution method      : On-the-fly selection.
 Cavity type          : Scaled VdW (van der Waals Surface) (Alpha=1.100).
 Cavity algorithm     : GePol (No added spheres)
                        Default sphere list used, NSphG=  474.
                        Lebedev-Laikov grids with approx.  5.0 points / Ang**2.
                        Smoothing algorithm: York/Karplus (Gamma=1.0000).
                        Polarization charges: spherical gaussians, with
                                              point-specific exponents (IZeta= 3).
                        Self-potential: point-specific (ISelfS= 7).
                        Self-field    : sphere-specific E.n sum rule (ISelfD= 2).
 Solvent              : DiMethylSulfoxide, Eps=  46.826000 Eps(inf)=   2.007889
 ------------------------------------------------------------------------------
 One-electron integrals computed using PRISM.
   1 Symmetry operations used in ECPInt.
 ECPInt:  NShTT= 2809635 NPrTT=10376229 LenC2=  503911 LenP2D= 1014490.
 LDataN:  DoStor=T MaxTD1= 7 Len=  274
 Number of processors reduced to  26 by ecpmxn.
 NBasis=  5226 RedAO= T EigKep=  2.23D-04  NBF=  5226
 NBsUse=  5226 1.00D-06 EigRej= -1.00D+00 NBFU=  5226
 Defaulting to unpruned grid for atomic number  46.
 ExpMin= 3.70D-02 ExpMax= 2.27D+03 ExpMxC= 3.41D+02 IAcc=3 IRadAn=         5 AccDes= 0.00D+00
 Harris functional with IExCor= 1009 and IRadAn=       5 diagonalized for initial guess.
 HarFok:  IExCor= 1009 AccDes= 0.00D+00 IRadAn=         5 IDoV= 1 UseB2=F ITyADJ=14
 ICtDFT=  3500011 ScaDFX=  1.000000  1.000000  1.000000  1.000000
 Defaulting to unpruned grid for atomic number  46.
 FoFCou: FMM=F IPFlag=           0 FMFlag=      100000 FMFlg1=        2001
         NFxFlg=           0 DoJE=T BraDBF=F KetDBF=T FulRan=T
         wScrn=  0.000000 ICntrl=       500 IOpCl=  0 I1Cent=   200000004 NGrid=           0
         NMat0=    1 NMatS0=      1 NMatT0=    0 NMatD0=    1 NMtDS0=    0 NMtDT0=    0
 Petite list used in FoFCou.
 Requested convergence on RMS density matrix=1.00D-08 within 128 cycles.
 Requested convergence on MAX density matrix=1.00D-06.
 Requested convergence on             energy=1.00D-06.
 No special actions if energy rises.
 Defaulting to unpruned grid for atomic number  46.
 Defaulting to unpruned grid for atomic number  46.
 Defaulting to unpruned grid for atomic number  46.
 Defaulting to unpruned grid for atomic number  46.
 Defaulting to unpruned grid for atomic number  46.
 Defaulting to unpruned grid for atomic number  46.
 Defaulting to unpruned grid for atomic number  46.
 Defaulting to unpruned grid for atomic number  46.
 Defaulting to unpruned grid for atomic number  46.
 Defaulting to unpruned grid for atomic number  46.
 Defaulting to unpruned grid for atomic number  46.
 Defaulting to unpruned grid for atomic number  46.
 Defaulting to unpruned grid for atomic number  46.
 Defaulting to unpruned grid for atomic number  46.
 Defaulting to unpruned grid for atomic number  46.
 Defaulting to unpruned grid for atomic number  46.
 Defaulting to unpruned grid for atomic number  46.
 Defaulting to unpruned grid for atomic number  46.
 Defaulting to unpruned grid for atomic number  46.
 Defaulting to unpruned grid for atomic number  46.
 Defaulting to unpruned grid for atomic number  46.
 Defaulting to unpruned grid for atomic number  46.
 Defaulting to unpruned grid for atomic number  46.
 Defaulting to unpruned grid for atomic number  46.
 Defaulting to unpruned grid for atomic number  46.
 Defaulting to unpruned grid for atomic number  46.
 Defaulting to unpruned grid for atomic number  46.
 Defaulting to unpruned grid for atomic number  46.
 Defaulting to unpruned grid for atomic number  46.
 Defaulting to unpruned grid for atomic number  46.
 Defaulting to unpruned grid for atomic number  46.
 Defaulting to unpruned grid for atomic number  46.
 Defaulting to unpruned grid for atomic number  46.
 Defaulting to unpruned grid for atomic number  46.
 Defaulting to unpruned grid for atomic number  46.
 Defaulting to unpruned grid for atomic number  46.
 Defaulting to unpruned grid for atomic number  46.
 Defaulting to unpruned grid for atomic number  46.
 Defaulting to unpruned grid for atomic number  46.
 Defaulting to unpruned grid for atomic number  46.
 Defaulting to unpruned grid for atomic number  46.
 Defaulting to unpruned grid for atomic number  46.
 Defaulting to unpruned grid for atomic number  46.
 Defaulting to unpruned grid for atomic number  46.
 Defaulting to unpruned grid for atomic number  46.
 Defaulting to unpruned grid for atomic number  46.
 Defaulting to unpruned grid for atomic number  46.
 Defaulting to unpruned grid for atomic number  46.
 Inv3:  Mode=1 IEnd=  3177140547.
 Iteration    1 A*A^-1 deviation from unit magnitude is 2.49D-14 for  32540.
 Iteration    1 A*A^-1 deviation from orthogonality  is 1.23D-14 for  32520   6137.
 Iteration    1 A^-1*A deviation from unit magnitude is 2.60D-14 for  32540.
 Iteration    1 A^-1*A deviation from orthogonality  is 9.55D-14 for  15831  15756.
 EnCoef did   100 forward-backward iterations
 EnCoef did     3 forward-backward iterations
 EnCoef did     4 forward-backward iterations
 Error on total polarization charges =  0.04960
 SCF Done:  E(RHSEH1PBE) =  -13122.3720877     A.U. after   19 cycles
            NFock= 19  Conv=0.18D-08     -V/T= 2.0483
 Hyperfine terms turned off by default for NAtoms > 100.

 **********************************************************************

            Population analysis using the SCF Density.

 **********************************************************************

 Orbital symmetries:
       Occupied  (A) (A) (A) (A) (A) (A) (A) (A) (A) (A) (A) (A)
                 (A) (A) (A) (A) (A) (A) (A) (A) (A) (A) (A) (A)
                 (A) (A) (A) (A) (A) (A) (A) (A) (A) (A) (A) (A)
                 (A) (A) (A) (A) (A) (A) (A) (A) (A) (A) (A) (A)
                 (A) (A) (A) (A) (A) (A) (A) (A) (A) (A) (A) (A)
                 (A) (A) (A) (A) (A) (A) (A) (A) (A) (A) (A) (A)
                 (A) (A) (A) (A) (A) (A) (A) (A) (A) (A) (A) (A)
                 (A) (A) (A) (A) (A) (A) (A) (A) (A) (A) (A) (A)
                 (A) (A) (A) (A) (A) (A) (A) (A) (A) (A) (A) (A)
                 (A) (A) (A) (A) (A) (A) (A) (A) (A) (A) (A) (A)
                 (A) (A) (A) (A) (A) (A) (A) (A) (A) (A) (A) (A)
                 (A) (A) (A) (A) (A) (A) (A) (A) (A) (A) (A) (A)
                 (A) (A) (A) (A) (A) (A) (A) (A) (A) (A) (A) (A)
                 (A) (A) (A) (A) (A) (A) (A) (A) (A) (A) (A) (A)
                 (A) (A) (A) (A) (A) (A) (A) (A) (A) (A) (A) (A)
                 (A) (A) (A) (A) (A) (A) (A) (A) (A) (A) (A) (A)
                 (A) (A) (A) (A) (A) (A) (A) (A) (A) (A) (A) (A)
                 (A) (A) (A) (A) (A) (A) (A) (A) (A) (A) (A) (A)
                 (A) (A) (A) (A) (A) (A) (A) (A) (A) (A) (A) (A)
                 (A) (A) (A) (A) (A) (A) (A) (A) (A) (A) (A) (A)
                 (A) (A) (A) (A) (A) (A) (A) (A) (A) (A) (A) (A)
                 (A) (A) (A) (A) (A) (A) (A) (A) (A) (A) (A) (A)
                 (A) (A) (A) (A) (A) (A) (A) (A) (A) (A) (A) (A)
                 (A) (A) (A) (A) (A) (A) (A) (A) (A) (A) (A) (A)
                 (A) (A) (A) (A) (A) (A) (A) (A) (A) (A) (A) (A)
                 (A) (A) (A) (A) (A) (A) (A) (A) (A) (A) (A) (A)
                 (A) (A) (A) (A) (A) (A) (A) (A) (A) (A) (A) (A)
                 (A) (A) (A) (A) (A) (A) (A) (A) (A) (A) (A) (A)
                 (A) (A) (A) (A) (A) (A) (A) (A) (A) (A) (A) (A)
                 (A) (A) (A) (A) (A) (A) (A) (A) (A) (A) (A) (A)
                 (A) (A) (A) (A) (A) (A) (A) (A) (A) (A) (A) (A)
                 (A) (A) (A) (A) (A) (A) (A) (A) (A) (A) (A) (A)
                 (A) (A) (A) (A) (A) (A) (A) (A) (A) (A) (A) (A)
                 (A) (A) (A) (A) (A) (A) (A) (A) (A) (A) (A) (A)
                 (A) (A) (A) (A) (A) (A) (A) (A) (A) (A) (A) (A)
                 (A) (A) (A) (A) (A) (A) (A) (A) (A) (A) (A) (A)
                 (A) (A) (A) (A) (A) (A) (A) (A) (A) (A) (A) (A)
                 (A) (A) (A) (A) (A) (A) (A) (A) (A) (A) (A) (A)
                 (A) (A) (A) (A) (A) (A) (A) (A) (A) (A) (A) (A)
                 (A) (A) (A) (A) (A) (A) (A) (A) (A) (A) (A) (A)
                 (A) (A) (A) (A) (A) (A) (A) (A) (A) (A) (A) (A)
                 (A) (A) (A) (A) (A) (A) (A) (A) (A) (A) (A) (A)
                 (A) (A) (A) (A) (A) (A) (A) (A) (A) (A) (A) (A)
                 (A) (A) (A) (A) (A) (A) (A) (A) (A) (A) (A) (A)
                 (A) (A) (A) (A) (A) (A) (A) (A) (A) (A) (A) (A)
                 (A) (A) (A) (A) (A) (A) (A) (A) (A) (A) (A) (A)
                 (A) (A) (A) (A) (A) (A) (A) (A) (A) (A) (A) (A)
                 (A) (A) (A) (A) (A) (A) (A) (A) (A) (A) (A) (A)
                 (A) (A) (A) (A) (A) (A) (A) (A) (A) (A) (A) (A)
                 (A) (A) (A) (A) (A) (A) (A) (A) (A) (A) (A) (A)
                 (A) (A) (A) (A) (A) (A) (A) (A) (A) (A) (A) (A)
                 (A) (A) (A) (A) (A) (A) (A) (A) (A) (A) (A) (A)
                 (A) (A) (A) (A) (A) (A) (A) (A) (A) (A) (A) (A)
                 (A) (A) (A) (A) (A) (A) (A) (A) (A) (A) (A) (A)
                 (A) (A) (A) (A) (A) (A) (A) (A) (A) (A) (A) (A)
                 (A) (A) (A) (A) (A) (A) (A) (A) (A) (A) (A) (A)
                 (A) (A) (A) (A) (A) (A) (A) (A) (A) (A) (A) (A)
                 (A) (A) (A) (A) (A) (A) (A) (A) (A) (A) (A) (A)
                 (A) (A) (A) (A) (A) (A) (A) (A) (A) (A) (A) (A)
                 (A) (A) (A) (A) (A) (A) (A) (A) (A) (A) (A) (A)
                 (A) (A) (A) (A) (A) (A) (A) (A) (A) (A) (A) (A)
                 (A) (A) (A) (A) (A) (A) (A) (A) (A) (A) (A) (A)
                 (A) (A) (A) (A) (A) (A) (A) (A) (A) (A) (A) (A)
                 (A) (A) (A) (A) (A) (A) (A) (A) (A) (A) (A) (A)
                 (A) (A) (A) (A) (A) (A) (A) (A) (A) (A) (A) (A)
                 (A) (A) (A) (A) (A) (A) (A) (A) (A) (A) (A) (A)
                 (A) (A) (A) (A) (A) (A) (A) (A) (A) (A) (A) (A)
                 (A) (A) (A) (A) (A) (A) (A) (A) (A) (A) (A) (A)
                 (A) (A) (A) (A) (A) (A) (A) (A) (A) (A) (A) (A)
                 (A) (A) (A) (A) (A) (A) (A) (A) (A) (A) (A) (A)
                 (A) (A) (A) (A) (A) (A) (A) (A) (A) (A) (A) (A)
                 (A) (A) (A) (A) (A) (A) (A) (A) (A) (A) (A) (A)
                 (A) (A) (A) (A) (A) (A) (A) (A) (A) (A) (A) (A)
                 (A) (A) (A) (A) (A) (A) (A) (A) (A) (A) (A) (A)
                 (A) (A) (A) (A) (A) (A) (A) (A) (A) (A) (A) (A)
                 (A) (A) (A) (A) (A) (A) (A) (A) (A) (A) (A) (A)
                 (A) (A) (A) (A) (A) (A) (A) (A) (A) (A) (A) (A)
                 (A) (A) (A) (A) (A) (A) (A) (A) (A) (A) (A) (A)
                 (A) (A) (A) (A) (A) (A) (A) (A) (A) (A) (A) (A)
                 (A) (A) (A) (A) (A) (A) (A) (A) (A) (A) (A) (A)
                 (A) (A) (A) (A) (A) (A) (A) (A) (A) (A) (A) (A)
                 (A) (A) (A) (A) (A) (A) (A) (A) (A) (A) (A) (A)
                 (A) (A) (A) (A) (A) (A) (A) (A) (A) (A) (A) (A)
                 (A) (A) (A) (A) (A) (A) (A) (A) (A) (A) (A) (A)
                 (A) (A) (A) (A) (A) (A) (A) (A) (A) (A) (A) (A)
                 (A) (A) (A) (A) (A) (A) (A) (A) (A) (A) (A) (A)
                 (A) (A) (A) (A) (A) (A) (A) (A) (A) (A) (A) (A)
                 (A) (A) (A) (A) (A) (A) (A) (A) (A) (A) (A) (A)
       Virtual   (A) (A) (A) (A) (A) (A) (A) (A) (A) (A) (A) (A)
                 (A) (A) (A) (A) (A) (A) (A) (A) (A) (A) (A) (A)
                 (A) (A) (A) (A) (A) (A) (A) (A) (A) (A) (A) (A)
                 (A) (A) (A) (A) (A) (A) (A) (A) (A) (A) (A) (A)
                 (A) (A) (A) (A) (A) (A) (A) (A) (A) (A) (A) (A)
                 (A) (A) (A) (A) (A) (A) (A) (A) (A) (A) (A) (A)
                 (A) (A) (A) (A) (A) (A) (A) (A) (A) (A) (A) (A)
                 (A) (A) (A) (A) (A) (A) (A) (A) (A) (A) (A) (A)
                 (A) (A) (A) (A) (A) (A) (A) (A) (A) (A) (A) (A)
                 (A) (A) (A) (A) (A) (A) (A) (A) (A) (A) (A) (A)
                 (A) (A) (A) (A) (A) (A) (A) (A) (A) (A) (A) (A)
                 (A) (A) (A) (A) (A) (A) (A) (A) (A) (A) (A) (A)
                 (A) (A) (A) (A) (A) (A) (A) (A) (A) (A) (A) (A)
                 (A) (A) (A) (A) (A) (A) (A) (A) (A) (A) (A) (A)
                 (A) (A) (A) (A) (A) (A) (A) (A) (A) (A) (A) (A)
                 (A) (A) (A) (A) (A) (A) (A) (A) (A) (A) (A) (A)
                 (A) (A) (A) (A) (A) (A) (A) (A) (A) (A) (A) (A)
                 (A) (A) (A) (A) (A) (A) (A) (A) (A) (A) (A) (A)
                 (A) (A) (A) (A) (A) (A) (A) (A) (A) (A) (A) (A)
                 (A) (A) (A) (A) (A) (A) (A) (A) (A) (A) (A) (A)
                 (A) (A) (A) (A) (A) (A) (A) (A) (A) (A) (A) (A)
                 (A) (A) (A) (A) (A) (A) (A) (A) (A) (A) (A) (A)
                 (A) (A) (A) (A) (A) (A) (A) (A) (A) (A) (A) (A)
                 (A) (A) (A) (A) (A) (A) (A) (A) (A) (A) (A) (A)
                 (A) (A) (A) (A) (A) (A) (A) (A) (A) (A) (A) (A)
                 (A) (A) (A) (A) (A) (A) (A) (A) (A) (A) (A) (A)
                 (A) (A) (A) (A) (A) (A) (A) (A) (A) (A) (A) (A)
                 (A) (A) (A) (A) (A) (A) (A) (A) (A) (A) (A) (A)
                 (A) (A) (A) (A) (A) (A) (A) (A) (A) (A) (A) (A)
                 (A) (A) (A) (A) (A) (A) (A) (A) (A) (A) (A) (A)
                 (A) (A) (A) (A) (A) (A) (A) (A) (A) (A) (A) (A)
                 (A) (A) (A) (A) (A) (A) (A) (A) (A) (A) (A) (A)
                 (A) (A) (A) (A) (A) (A) (A) (A) (A) (A) (A) (A)
                 (A) (A) (A) (A) (A) (A) (A) (A) (A) (A) (A) (A)
                 (A) (A) (A) (A) (A) (A) (A) (A) (A) (A) (A) (A)
                 (A) (A) (A) (A) (A) (A) (A) (A) (A) (A) (A) (A)
                 (A) (A) (A) (A) (A) (A) (A) (A) (A) (A) (A) (A)
                 (A) (A) (A) (A) (A) (A) (A) (A) (A) (A) (A) (A)
                 (A) (A) (A) (A) (A) (A) (A) (A) (A) (A) (A) (A)
                 (A) (A) (A) (A) (A) (A) (A) (A) (A) (A) (A) (A)
                 (A) (A) (A) (A) (A) (A) (A) (A) (A) (A) (A) (A)
                 (A) (A) (A) (A) (A) (A) (A) (A) (A) (A) (A) (A)
                 (A) (A) (A) (A) (A) (A) (A) (A) (A) (A) (A) (A)
                 (A) (A) (A) (A) (A) (A) (A) (A) (A) (A) (A) (A)
                 (A) (A) (A) (A) (A) (A) (A) (A) (A) (A) (A) (A)
                 (A) (A) (A) (A) (A) (A) (A) (A) (A) (A) (A) (A)
                 (A) (A) (A) (A) (A) (A) (A) (A) (A) (A) (A) (A)
                 (A) (A) (A) (A) (A) (A) (A) (A) (A) (A) (A) (A)
                 (A) (A) (A) (A) (A) (A) (A) (A) (A) (A) (A) (A)
                 (A) (A) (A) (A) (A) (A) (A) (A) (A) (A) (A) (A)
                 (A) (A) (A) (A) (A) (A) (A) (A) (A) (A) (A) (A)
                 (A) (A) (A) (A) (A) (A) (A) (A) (A) (A) (A) (A)
                 (A) (A) (A) (A) (A) (A) (A) (A) (A) (A) (A) (A)
                 (A) (A) (A) (A) (A) (A) (A) (A) (A) (A) (A) (A)
                 (A) (A) (A) (A) (A) (A) (A) (A) (A) (A) (A) (A)
                 (A) (A) (A) (A) (A) (A) (A) (A) (A) (A) (A) (A)
                 (A) (A) (A) (A) (A) (A) (A) (A) (A) (A) (A) (A)
                 (A) (A) (A) (A) (A) (A) (A) (A) (A) (A) (A) (A)
                 (A) (A) (A) (A) (A) (A) (A) (A) (A) (A) (A) (A)
                 (A) (A) (A) (A) (A) (A) (A) (A) (A) (A) (A) (A)
                 (A) (A) (A) (A) (A) (A) (A) (A) (A) (A) (A) (A)
                 (A) (A) (A) (A) (A) (A) (A) (A) (A) (A) (A) (A)
                 (A) (A) (A) (A) (A) (A) (A) (A) (A) (A) (A) (A)
[...]
   341  C    0.026366
   342  C   -0.022709
   343  C    0.005346
   358  C    0.249384
   359  N   -0.317451
   360  C    0.253025
   361  C    0.010384
   362  C    0.077025
   363  C    0.039059
   364  C    0.011295
   365  C   -0.022962
   366  C    0.202200
   367  O   -0.252305
   368  C    0.202101
   369  C   -0.022958
   370  C    0.011462
   371  C    0.038793
   372  C    0.077129
   373  C    0.005255
   374  C    0.249121
   375  N   -0.317475
   376  C    0.253155
   377  C    0.010581
   378  C   -0.022628
   379  C    0.026340
   380  C    0.026204
   381  C   -0.022863
   382  C    0.005200
   397  C    0.249221
   398  N   -0.317133
   399  C    0.252543
   400  C    0.010388
   401  C    0.076774
   402  C    0.038772
   403  C    0.011477
   404  C   -0.023171
   405  C    0.202139
   406  O   -0.252371
   407  C    0.202053
   408  C   -0.023146
   409  C    0.012014
   410  C    0.037848
   411  C    0.076477
   412  C    0.005852
   413  C    0.249573
   414  N   -0.317712
   415  C    0.252847
   416  C    0.010970
   417  C   -0.022319
   418  C    0.026344
   419  C    0.026293
   420  C   -0.022599
   421  C    0.005718
   436  C    0.249467
   437  N   -0.317320
   438  C    0.253230
   439  C    0.010276
   440  C    0.076825
   441  C    0.038768
   442  C    0.011447
   443  C   -0.023087
   444  C    0.202031
   445  O   -0.252287
   446  C    0.202033
   447  C   -0.023143
   448  C    0.012049
   449  C    0.037766
   450  C    0.076538
   451  C    0.005803
   452  C    0.249169
   453  N   -0.317724
   454  C    0.253291
   455  C    0.010977
   456  C   -0.022281
   457  C    0.026347
   458  C    0.026306
   459  C   -0.022626
   460  C    0.005168
 Electronic spatial extent (au):  <R**2>=        1155974.3809
 Charge=             12.0000 electrons
 Dipole moment (field-independent basis, Debye):
    X=             -0.0375    Y=             -0.0404    Z=              0.0542  Tot=              0.0773
 Quadrupole moment (field-independent basis, Debye-Ang):
   XX=            989.6065   YY=            987.0976   ZZ=            979.8158
   XY=             -0.4005   XZ=             -0.1348   YZ=              0.1162
 Traceless Quadrupole moment (field-independent basis, Debye-Ang):
   XX=              4.0999   YY=              1.5910   ZZ=             -5.6909
   XY=             -0.4005   XZ=             -0.1348   YZ=              0.1162
 Octapole moment (field-independent basis, Debye-Ang**2):
  XXX=             -5.3972  YYY=             20.8673  ZZZ=              5.8560  XYY=            -11.0604
  XXY=             -6.7948  XXZ=             17.8515  XZZ=              8.9489  YZZ=            -23.1527
  YYZ=             -8.4912  XYZ=              2.4843
 Hexadecapole moment (field-independent basis, Debye-Ang**3):
 XXXX=        -287533.4996 YYYY=        -257802.3840 ZZZZ=        -316643.1158 XXXY=           3874.8602
 XXXZ=          11703.1178 YYYX=          -6571.6419 YYYZ=          56707.0437 ZZZX=           1968.2628
 ZZZY=         -15547.2145 XXYY=        -107089.2865 XXZZ=         -47868.0743 YYZZ=         -77555.9842
 XXYZ=         -41164.3224 YYXZ=         -13709.5141 ZZXY=           2626.9087
 N-N= 9.599091318259D+04 E-N=-2.211796900577D+05  KE= 1.251729450570D+04
 Unable to Open any file for archive entry.
 1\1\GINC-CX3-14-13\SP\RHSEH1PBE\def2SVP\C264H168N24O12Pd6(12+)\VPOSLIG
 U\15-Aug-2023\0\\# SP HSEH1PBE/def2svp scrf=(solvent=dmso)\\m6_l1\\12,
 1\Pd,0,-7.890952,-2.765691,6.758916\Pd,0,-7.254957,4.214221,-6.732515\
 Pd,0,7.890989,2.7695,-6.770433\Pd,0,7.262431,-4.200577,6.723417\Pd,0,-
 0.916748,-9.506691,-4.94406\Pd,0,0.92108,9.502624,4.943575\C,0,-8.9022
 41,-0.899165,4.708487\N,0,-9.253613,-1.931119,5.494968\C,0,-10.508676,
 -2.405657,5.419931\C,0,-11.448884,-1.867656,4.557679\C,0,-11.105668,-0
 .794732,3.718942\C,0,-12.071479,-0.201108,2.775675\C,0,-13.454833,-0.2
 19679,3.066891\C,0,-14.398096,0.331568,2.207182\C,0,-13.919477,0.89857
 6,1.033993\O,0,-14.68015,1.478928,0.068995\C,0,-13.827415,1.899917,-0.
 9018\C,0,-14.19464,2.546143,-2.074144\C,0,-13.169132,2.891022,-2.94708
 1\C,0,-11.813215,2.611217,-2.660818\C,0,-10.757864,2.99951,-3.615032\C
 ,0,-9.458262,3.316245,-3.185702\C,0,-8.488026,3.669799,-4.106401\N,0,-
 8.739062,3.720783,-5.425932\C,0,-9.975223,3.425546,-5.86262\C,0,-10.99
 5748,3.069235,-4.997504\C,0,-11.475696,1.961256,-1.464801\C,0,-12.4904
 96,1.599169,-0.581263\C,0,-12.551668,0.934022,0.704763\C,0,-11.620672,
 0.384334,1.583647\C,0,-9.788744,-0.315925,3.820814\H,0,-7.879754,-0.52
 7286,4.801371\H,0,-10.76268,-3.248468,6.06579\H,0,-12.442297,-2.315917
 ,4.531041\H,0,-13.800915,-0.653909,4.00663\H,0,-15.4625,0.325122,2.444
 377\H,0,-15.237284,2.776692,-2.295455\H,0,-13.426818,3.418595,-3.86727
 4\H,0,-9.193018,3.315919,-2.12822\H,0,-7.478053,3.927231,-3.781327\H,0
 ,-10.147105,3.468544,-6.940005\H,0,-11.969179,2.820259,-5.420641\H,0,-
 10.437019,1.714408,-1.237435\H,0,-10.559161,0.386682,1.329227\H,0,-9.4
 44727,0.532008,3.228205\C,0,-5.369851,-4.104479,7.509071\N,0,-6.509544
 ,-3.59408,8.006863\C,0,-6.709335,-3.627848,9.335387\C,0,-5.77875,-4.16
 895,10.206068\C,0,-4.576294,-4.701603,9.713277\C,0,-3.553697,-5.276635
 ,10.606983\C,0,-3.933726,-5.879544,11.828029\C,0,-3.003378,-6.437527,1
 2.697362\C,0,-1.670531,-6.368024,12.315915\O,0,-0.618222,-6.848016,13.
 029352\C,0,0.500981,-6.574822,12.308574\C,0,1.799208,-6.895302,12.6809
 94\C,0,2.812406,-6.521046,11.805833\C,0,2.54514,-5.854336,10.588122\C,
 0,3.65262,-5.478733,9.689535\C,0,3.474684,-5.392975,8.298548\C,0,4.531
 561,-5.031689,7.482019\N,0,5.750389,-4.74957,7.97398\C,0,5.947688,-4.8
 26213,9.301122\C,0,4.936832,-5.184953,10.176354\C,0,1.221273,-5.550489
 ,10.23886\C,0,0.192562,-5.909435,11.107474\C,0,-1.250124,-5.772749,11.
 111997\C,0,-2.19852,-5.22736,10.24913\C,0,-4.394926,-4.656455,8.320779
 \H,0,-5.241934,-4.074758,6.424994\H,0,-7.640842,-3.199538,9.710701\H,0
 ,-5.994136,-4.143513,11.274458\H,0,-4.991133,-5.938798,12.092323\H,0,-
 3.305112,-6.913104,13.631182\H,0,2.011923,-7.420549,13.612699\H,0,3.84
 1352,-6.778753,12.063284\H,0,2.518572,-5.631534,7.832213\H,0,4.404502,
 -4.972378,6.398992\H,0,6.945656,-4.583999,9.671499\H,0,5.159498,-5.205
 137,11.243395\H,0,0.996083,-5.014874,9.314723\H,0,-1.882393,-4.744826,
 9.322458\H,0,-3.50483,-5.073847,7.84957\C,0,-7.783185,-4.647672,4.4861
 21\N,0,-8.08382,-4.549332,5.792601\C,0,-8.490881,-5.64925,6.448976\C,0
 ,-8.605695,-6.878997,5.823619\C,0,-8.288425,-7.011556,4.461992\C,0,-8.
 382049,-8.306973,3.763348\C,0,-9.327924,-9.27221,4.17863\C,0,-9.448931
 ,-10.505923,3.549466\C,0,-8.586013,-10.755703,2.491269\O,0,-8.543902,-
 11.899997,1.759472\C,0,-7.562181,-11.737308,0.834066\C,0,-7.191532,-12
 .672594,-0.122395\C,0,-6.165104,-12.311015,-0.987452\C,0,-5.516605,-11
 .057749,-0.900842\C,0,-4.432966,-10.715991,-1.840848\C,0,-3.392519,-9.
 844065,-1.479042\C,0,-2.397425,-9.532434,-2.388383\N,0,-2.384687,-10.0
 36699,-3.634378\C,0,-3.365333,-10.87834,-4.003564\C,0,-4.389251,-11.23
 7698,-3.144004\C,0,-5.911673,-10.137465,0.080871\C,0,-6.944948,-10.478
 013,0.951452\C,0,-7.628627,-9.823807,2.049071\C,0,-7.529145,-8.588528,
 2.686275\C,0,-7.870961,-5.845455,3.799045\H,0,-7.468924,-3.734354,3.97
 6795\H,0,-8.722144,-5.5398,7.510393\H,0,-8.918851,-7.735855,6.420503\H
 ,0,-10.0071,-9.040524,5.001186\H,0,-10.188916,-11.24119,3.867341\H,0,-
 7.679158,-13.645897,-0.187063\H,0,-5.839222,-13.034635,-1.736962\H,0,-
 3.331718,-9.416804,-0.477833\H,0,-1.579441,-8.863482,-2.113426\H,0,-3.
 331443,-11.267308,-5.023167\H,0,-5.165739,-11.906692,-3.515521\H,0,-5.
 43987,-9.155378,0.147853\H,0,-6.775989,-7.865793,2.366758\H,0,-7.63319
 ,-5.850602,2.735063\C,0,-6.486255,-0.36383,7.74743\N,0,-7.681999,-0.97
 6912,7.712539\C,0,-8.733237,-0.381398,8.301109\C,0,-8.624063,0.842906,
 8.938153\C,0,-7.388414,1.508941,8.981362\C,0,-7.232195,2.820357,9.6376
 14\C,0,-8.054966,3.17059,10.732639\C,0,-7.93849,4.39408,11.38235\C,0,-
 6.976455,5.270104,10.898655\O,0,-6.715993,6.50907,11.392577\C,0,-5.712
 794,7.028903,10.637538\C,0,-5.143234,8.283626,10.805206\C,0,-4.129233,
 8.634543,9.921329\C,0,-3.684826,7.760683,8.902669\C,0,-2.603264,8.1745
 75,7.98953\C,0,-1.736538,7.237042,7.40322\C,0,-0.735088,7.655762,6.545
 423\N,0,-0.553174,8.951659,6.237632\C,0,-1.367349,9.869036,6.78687\C,0
 ,-2.386512,9.521842,7.657197\C,0,-4.277979,6.497394,8.763957\C,0,-5.30
 1877,6.130768,9.634994\C,0,-6.140943,4.962107,9.808866\C,0,-6.266244,3
 .726655,9.176786\C,0,-6.305614,0.862164,8.36263\H,0,-5.648586,-0.87836
 9,7.272328\H,0,-9.692702,-0.899882,8.25066\H,0,-9.521928,1.281052,9.37
 447\H,0,-8.788863,2.45342,11.104899\H,0,-8.567515,4.652155,12.234971\H
 ,0,-5.472308,8.958067,11.596441\H,0,-3.649067,9.607234,10.043044\H,0,-
 1.815028,6.173063,7.627273\H,0,-0.050281,6.935272,6.093366\H,0,-1.2006
 2,10.912573,6.512297\H,0,-3.024355,10.314403,8.04896\H,0,-3.965785,5.8
 18148,7.968535\H,0,-5.63818,3.48419,8.317551\H,0,-5.30421,1.293044,8.3
 74045\C,0,-4.631954,3.965437,-8.064147\N,0,-5.756499,4.700827,-8.02428
 4\C,0,-5.862284,5.76871,-8.833324\C,0,-4.849055,6.136431,-9.702167\C,0
 ,-3.660041,5.390995,-9.757301\C,0,-2.552258,5.757159,-10.659409\C,0,-2
 .819321,6.414699,-11.882155\C,0,-1.806511,6.776974,-12.762688\C,0,-0.5
 07408,6.470274,-12.381935\O,0,0.612538,6.747815,-13.099761\C,0,1.66625
 1,6.288827,-12.374756\C,0,2.999949,6.366517,-12.75153\C,0,3.931763,5.8
 28081,-11.871605\C,0,3.55213,5.235907,-10.645218\C,0,4.576256,4.676356
 ,-9.743519\C,0,4.393844,4.644726,-8.350946\C,0,5.37002,4.103592,-7.533
 396\N,0,6.511109,3.590712,-8.025124\C,0,6.712267,3.613032,-9.35368\C,0
 ,5.781196,4.143526,-10.230148\C,0,2.196117,5.179007,-10.291706\C,0,1.2
 46214,5.70489,-11.165124\C,0,-0.198421,5.820396,-11.172476\C,0,-1.2283
 18,5.457151,-10.306925\C,0,-3.578262,4.277441,-8.904745\H,0,-4.581643,
 3.096333,-7.405166\H,0,-6.784319,6.350354,-8.773977\H,0,-4.990575,7.02
 7611,-10.313965\H,0,-3.852314,6.624655,-12.165534\H,0,-2.021011,7.2730
 12,-13.709861\H,0,3.301009,6.832865,-13.690207\H,0,4.989693,5.893572,-
 12.132349\H,0,3.501596,5.063336,-7.8849\H,0,5.241827,4.083867,-6.44942
 \H,0,7.644996,3.183291,-9.724218\H,0,5.997751,4.108718,-11.298065\H,0,
 1.880839,4.704122,-9.360757\H,0,-0.999449,4.972535,-9.355946\H,0,-2.70
 4479,3.625484,-8.903846\C,0,8.907864,0.910068,-4.713962\N,0,9.25433,1.
 942579,-5.501931\C,0,10.505742,2.426438,-5.424432\C,0,11.447068,1.8972
 7,-4.558018\C,0,11.108783,0.824273,-3.717512\C,0,12.076433,0.242068,-2
 .76908\C,0,13.45954,0.262663,-3.061117\C,0,14.40507,-0.275033,-2.19537
 2\C,0,13.928745,-0.830366,-1.015701\O,0,14.692216,-1.394939,-0.043546\
 C,0,13.84181,-1.805337,0.933678\C,0,14.211724,-2.440498,2.111223\C,0,1
 3.186991,-2.789389,2.983413\C,0,11.830844,-2.508003,2.699833\C,0,10.77
 6799,-2.89599,3.655499\C,0,9.57874,-2.170672,3.764579\C,0,8.604535,-2.
 567138,4.663335\N,0,8.756507,-3.643363,5.454335\C,0,9.896062,-4.351325
 ,5.3738\C,0,10.914088,-4.009914,4.499823\C,0,11.491493,-1.860118,1.503
 197\C,0,12.503867,-1.510463,0.611866\C,0,12.561167,-0.867516,-0.685624
 \C,0,11.627753,-0.33181,-1.57072\C,0,9.795816,0.335566,-3.821836\H,0,7
 .888297,0.530767,-4.808998\H,0,10.754906,3.269836,-6.07132\H,0,12.4373
 26,2.35228,-4.528869\H,0,13.803331,0.687902,-4.005828\H,0,15.469482,-0
 .266753,-2.432483\H,0,15.256793,-2.649668,2.34212\H,0,13.450402,-3.271
 235,3.926749\H,0,9.400259,-1.274886,3.169355\H,0,7.674208,-2.004058,4.
 760787\H,0,9.989007,-5.223181,6.024461\H,0,11.802078,-4.641495,4.46779
 8\H,0,10.448258,-1.656126,1.255023\H,0,10.566193,-0.334845,-1.31633\H,
 0,9.456553,-0.51322,-3.227618\C,0,6.491021,0.360298,-7.745899\N,0,7.68
 5145,0.976958,-7.717477\C,0,8.73575,0.383092,-8.309026\C,0,8.627076,-0
 .842412,-8.94369\C,0,7.392939,-1.511728,-8.98117\C,0,7.237784,-2.82402
 9,-9.635894\C,0,8.063002,-3.175654,-10.728667\C,0,7.949563,-4.400762,-
 11.375723\C,0,6.987475,-5.276768,-10.89217\O,0,6.730659,-6.51759,-11.3
 83078\C,0,5.726024,-7.036809,-10.629545\C,0,5.160393,-8.293625,-10.794
 494\C,0,4.144209,-8.64375,-9.912877\C,0,3.693291,-7.766582,-8.900028\C
 ,0,2.60873,-8.179904,-7.990324\C,0,1.728125,-7.244647,-7.421932\C,0,0.
 724898,-7.663854,-6.566381\N,0,0.553767,-8.957751,-6.244322\C,0,1.3806
 48,-9.873146,-6.777952\C,0,2.40274,-9.525406,-7.644581\C,0,4.282661,-6
 .501302,-8.763627\C,0,5.309794,-6.135989,-9.631559\C,0,6.148212,-4.966
 843,-9.805783\C,0,6.2712,-3.730085,-9.175789\C,0,6.31115,-0.867168,-8.
 358332\H,0,5.654119,0.873079,-7.267504\H,0,9.694169,0.904349,-8.264395
 \H,0,9.524292,-1.278483,-9.383261\H,0,8.796983,-2.458609,-11.100945\H,
 0,8.581022,-4.660208,-12.226125\H,0,5.494152,-8.97025,-11.581892\H,0,3
 .666992,-9.618217,-10.032144\H,0,1.797314,-6.182748,-7.658493\H,0,0.02
 9656,-6.945346,-6.127984\H,0,1.221955,-10.915191,-6.493215\H,0,3.05210
 6,-10.315216,-8.022649\H,0,3.965094,-5.819841,-7.972167\H,0,5.64092,-3
 .486596,-8.318491\H,0,5.311141,-1.30121,-8.364689\C,0,7.767218,4.65310
 6,-4.500586\N,0,8.07612,4.554536,-5.805278\C,0,8.488826,5.654004,-6.45
 8879\C,0,8.60388,6.882882,-5.831622\C,0,8.280767,7.015137,-4.471293\C,
 0,8.379508,8.308066,-3.768781\C,0,9.331457,9.269544,-4.178947\C,0,9.46
 1164,10.498595,-3.54242\C,0,8.600957,10.747617,-2.481839\O,0,8.568836,
 11.886562,-1.74131\C,0,7.587117,11.724504,-0.815735\C,0,7.226205,12.65
 4666,0.14936\C,0,6.197947,12.294629,1.012895\C,0,5.537366,11.048486,0.
 915708\C,0,4.450626,10.709278,1.853169\C,0,3.398406,9.855826,1.482062\
 C,0,2.40036,9.546522,2.388861\N,0,2.39498,10.035818,3.640885\C,0,3.387
 323,10.859411,4.019319\C,0,4.415125,11.215327,3.162723\C,0,5.92304,10.
 133168,-0.074373\C,0,6.958868,10.471621,-0.942753\C,0,7.636732,9.82001
 7,-2.045497\C,0,7.528249,8.589547,-2.690358\C,0,7.854656,5.849983,-3.8
 12147\H,0,7.447187,3.74069,-3.993065\H,0,8.725589,5.544729,-7.519152\H
 ,0,8.922878,7.739216,-6.426058\H,0,10.009303,9.038052,-5.002627\H,0,10
 .206455,11.230405,-3.855842\H,0,7.722715,13.622912,0.221888\H,0,5.8798
 83,13.014501,1.769311\H,0,3.330896,9.442017,0.475742\H,0,1.573528,8.89
 2001,2.10662\H,0,3.359565,11.235959,5.04372\H,0,5.20146,11.868655,3.54
 1318\H,0,5.44255,9.155866,-0.148982\H,0,6.770585,7.87001,-2.374367\H,0
 ,7.610209,5.854731,-2.749662\C,0,-7.237005,1.268257,-6.92996\N,0,-7.44
 5107,2.395654,-7.631944\C,0,-7.770007,2.29895,-8.932501\C,0,-7.895629,
 1.076819,-9.570807\C,0,-7.676614,-0.116029,-8.862531\C,0,-7.788659,-1.
 437792,-9.507116\C,0,-8.670599,-1.62608,-10.595924\C,0,-8.809397,-2.85
 5379,-11.230077\C,0,-8.029827,-3.898589,-10.7497\O,0,-8.017986,-5.1664
 29,-11.238803\C,0,-7.122085,-5.865455,-10.493599\C,0,-6.8015,-7.205316
 ,-10.663707\C,0,-5.850223,-7.736423,-9.800236\C,0,-5.239158,-6.961757,
 -8.787676\C,0,-4.237508,-7.568267,-7.891241\C,0,-4.054274,-7.10979,-6.
 575965\C,0,-3.100097,-7.69307,-5.761478\N,0,-2.319923,-8.702934,-6.184
 62\C,0,-2.477568,-9.162567,-7.437722\C,0,-3.41495,-8.628536,-8.305339\
 C,0,-5.589408,-5.611878,-8.639485\C,0,-6.53429,-5.058897,-9.501355\C,0
 ,-7.137447,-3.75224,-9.671409\C,0,-7.019239,-2.514415,-9.042586\C,0,-7
 .341117,0.014075,-7.504596\H,0,-6.986304,1.377657,-5.872791\H,0,-7.926
 174,3.231569,-9.478529\H,0,-8.140206,1.070999,-10.633197\H,0,-9.286871
 ,-0.793117,-10.939154\H,0,-9.50144,-2.996606,-12.060953\H,0,-7.278188,
 -7.812209,-11.434221\H,0,-5.593999,-8.792987,-9.897592\H,0,-4.668604,-
 6.309668,-6.162466\H,0,-2.957548,-7.347651,-4.735326\H,0,-1.825172,-9.
 978363,-7.755296\H,0,-3.474114,-9.03339,-9.31584\H,0,-5.110906,-4.9910
 53,-7.879821\H,0,-6.315207,-2.383418,-8.218723\H,0,-7.183068,-0.859639
 ,-6.872114\C,0,-5.886245,6.358204,-5.233476\N,0,-7.050711,6.022562,-5.
 815313\C,0,-8.076747,6.888798,-5.759343\C,0,-7.973248,8.111546,-5.1182
 77\C,0,-6.771552,8.482278,-4.492998\C,0,-6.626133,9.766758,-3.783125\C
 ,0,-7.379795,10.892814,-4.186634\C,0,-7.275273,12.120764,-3.543384\C,0
 ,-6.396541,12.192441,-2.471186\O,0,-6.162927,13.295871,-1.713195\C,0,-
 5.247252,12.939577,-0.774375\C,0,-4.725995,13.776006,0.203111\C,0,-3.7
 89045,13.22147,1.067492\C,0,-3.385491,11.869884,0.971396\C,0,-2.38764,
 11.324699,1.91065\C,0,-2.383932,9.968187,2.275988\C,0,-1.428062,9.4856
 83,3.152243\N,0,-0.478506,10.276863,3.680937\C,0,-0.463071,11.579874,3
 .35191\C,0,-1.390434,12.130532,2.483863\C,0,-3.936048,11.050068,-0.024
 476\C,0,-4.87018,11.590144,-0.906135\C,0,-5.630168,11.095123,-2.036364
 \C,0,-5.742323,9.874892,-2.699586\C,0,-5.713799,7.561161,-4.572281\H,0
 ,-5.06636,5.640692,-5.306712\H,0,-9.011725,6.58624,-6.235235\H,0,-8.85
 1928,8.756118,-5.089099\H,0,-8.048276,10.812907,-5.045822\H,0,-7.85122
 ,12.988157,-3.867655\H,0,-5.041342,14.816272,0.290782\H,0,-3.377571,13
 .850572,1.858926\H,0,-3.139599,9.276837,1.9025\H,0,-1.423677,8.434678,
 3.448288\H,0,0.322727,12.196162,3.793241\H,0,-1.306399,13.190199,2.241
 817\H,0,-3.619012,10.010981,-0.131014\H,0,-5.170274,9.010703,-2.356947
 \H,0,-4.736403,7.779106,-4.141341\C,0,6.79309,-6.025441,4.45277\N,0,7.
 110464,-5.988952,5.758423\C,0,7.305377,-7.147626,6.410851\C,0,7.187102
 ,-8.375218,5.78167\C,0,6.848893,-8.441819,4.420098\C,0,6.701042,-9.728
 889,3.715391\C,0,7.44663,-10.856519,4.129335\C,0,7.340005,-12.087271,3
 .491805\C,0,6.453644,-12.165092,2.426352\O,0,6.204354,-13.276528,1.685
 225\C,0,5.27861,-12.926831,0.753785\C,0,4.740805,-13.772245,-0.206885\
 C,0,3.796274,-13.223139,-1.066549\C,0,3.402883,-11.867788,-0.983103\C,
 0,2.40033,-11.326798,-1.919671\C,0,2.411175,-9.977239,-2.309648\C,0,1.
 452364,-9.49768,-3.184179\N,0,0.485803,-10.284957,-3.687303\C,0,0.4550
 57,-11.581029,-3.332791\C,0,1.385057,-12.128885,-2.465717\C,0,3.969684
 ,-11.038957,-0.003989\C,0,4.910315,-11.573875,0.873844\C,0,5.690626,-1
 1.06794,1.985201\C,0,5.81838,-9.839989,2.631182\C,0,6.654727,-7.216013
 ,3.761937\H,0,6.653341,-5.067783,3.947546\H,0,7.555425,-7.08682,7.4719
 58\H,0,7.335755,-9.277256,6.375521\H,0,8.151096,-10.76097,4.95762\H,0,
 7.927696,-12.949434,3.808877\H,0,5.049378,-14.815261,-0.285564\H,0,3.3
 71044,-13.859498,-1.844831\H,0,3.18084,-9.290041,-1.957664\H,0,1.45907
 2,-8.452631,-3.500328\H,0,-0.34572,-12.193776,-3.751365\H,0,1.288677,-
 13.182265,-2.201889\H,0,3.660329,-9.996544,0.092565\H,0,5.215551,-8.98
 7788,2.312017\H,0,6.41845,-7.172964,2.69857\C,0,6.348805,-1.565444,7.6
 94964\N,0,7.399261,-2.40394,7.675152\C,0,8.539774,-2.028964,8.27947\C,
 0,8.666716,-0.807058,8.917923\C,0,7.587409,0.09115,8.946224\C,0,7.6865
 79,1.408252,9.602348\C,0,8.553679,1.590947,10.704003\C,0,8.677867,2.81
 4992,11.351149\C,0,7.912553,3.863282,10.859037\O,0,7.901043,5.13085,11
 .348646\C,0,7.02748,5.837995,10.584725\C,0,6.712789,7.179739,10.750914
 \C,0,5.78368,7.719229,9.868686\C,0,5.188582,6.950578,8.84223\C,0,4.205
 861,7.564276,7.929819\C,0,4.048272,7.115084,6.608137\C,0,3.107549,7.70
 2156,5.780722\N,0,2.316703,8.706246,6.19724\C,0,2.451554,9.158444,7.45
 5662\C,0,3.374958,8.621049,8.336091\C,0,5.532965,5.598801,8.697846\C,0
 ,6.45558,5.037464,9.57839\C,0,7.040076,3.724321,9.763575\C,0,6.922892,
 2.487033,9.133394\C,0,6.406685,-0.327874,8.310756\H,0,5.432353,-1.9025
 26,7.206351\H,0,9.378071,-2.727494,8.240816\H,0,9.627554,-0.556135,9.3
 67844\H,0,9.128278,0.743672,11.082729\H,0,9.340133,2.945707,12.207629\
 H,0,7.176808,7.781502,11.533105\H,0,5.53185,8.777165,9.963012\H,0,4.67
 2136,6.319357,6.200368\H,0,2.984313,7.365147,4.749505\H,0,1.791311,9.9
 70217,7.76701\H,0,3.415857,9.019095,9.350211\H,0,5.065429,4.983021,7.9
 27257\H,0,6.266862,2.372465,8.268478\H,0,5.510899,0.293471,8.308657\\V
 ersion=ES64L-G16RevC.01\State=1-A\HF=-13122.3720877\RMSD=1.755e-09\Dip
 ole=-0.0147535,0.015886,-0.021323\Quadrupole=3.0481487,1.1828677,-4.23
 10164,0.2977757,0.1001951,0.0864273\PG=C01 [X(C264H168N24O12Pd6)]\\@
 The archive entry for this job was punched.


 I take a simple view of life: keep your eyes open and get on with it.
 -- Laurence Olivier
 Job cpu time:       5 days 22 hours 54 minutes  0.4 seconds.
 Elapsed time:       0 days  3 hours 17 minutes  8.1 seconds.
 File lengths (MBytes):  RWF=  31904 Int=      0 D2E=      0 Chk=   1592 Scr=     16
 Normal termination of Gaussian 16 at Tue Aug 15 10:08:29 2023.
