      -----------------------------------------------------------      
     |                   =====================                   |     
     |                           x T B                           |     
     |                   =====================                   |     
     |                         S. Grimme                         |     
     |          Mulliken Center for Theoretical Chemistry        |     
     |                    University of Bonn                     |     
     |                Version 6.2 RC2 (SAW190805)                |     
      -----------------------------------------------------------      

   This program is distributed in the hope that it will be useful,
   but WITHOUT ANY WARRANTY; without even the implied warranty of
   MERCHANTABILITY or FITNESS FOR A PARTICULAR PURPOSE.
   
   FOR NON-COMMERCIAL, ACADEMIA USE ONLY.
   
   Cite this work as:
   * S. Grimme, C. Bannwarth, P. Shushkov, J. Chem. Theory Comput., 2017,
     13, 1989-2009. DOI: 10.1021/acs.jctc.7b00118
   * C. Bannwarth, S. Ehlert and S. Grimme., J. Chem. Theory Comput., 2019,
     15, 1652-1671. DOI: 10.1021/acs.jctc.8b01176
   * P. Pracht, E. Caldeweyher, S. Ehlert, S. Grimme, ChemRxiv, 2019, preprint.
     DOI: 10.26434/chemrxiv.8326202.v1
   
   for DFT-D4:
   * E. Caldeweyher, C. Bannwarth and S. Grimme, J. Chem. Phys., 2017,
     147, 034112. DOI: 10.1063/1.4993215
   * E. Caldeweyher, S. Ehlert, A. Hansen, H. Neugebauer, S. Spicher,
     C. Bannwarth and S. Grimme, J. Chem. Phys., 2019, 150, 154122.
     DOI: 10.1063/1.5090222
   
   for sTDA-xTB:
   * S. Grimme and C. Bannwarth, J. Chem. Phys., 2016, 145, 054103.
     DOI: 10.1063/1.4959605
   
   in the mass-spec context:
   * V. Asgeirsson, C. Bauer and S. Grimme, Chem. Sci., 2017, 8, 4879.
     DOI: 10.1039/c7sc00601b
   
   for metadynamics refer to:
   * S. Grimme, J. Chem. Theory Comput., 2019, 155, 2847-2862
     DOI: 10.1021/acs.jctc.9b00143
   
   with help from (in alphabetical order)
   C. Bannwarth, F. Bohle, G. Brandenburg, E. Caldeweyher, M. Checinski,
   S. Dohm, S. Ehlert, S. Ehrlich, F. März, H. Neugebauer, J. Pisarek,
   P. Pracht, P. Shushkov, and S. Spicher.
   
 * started run on 2021/06/21 at 21:51:27.423     

           -------------------------------------------------
          |                Calculation Setup                |
           -------------------------------------------------

          program call               : /home/atarzia/software/xtb-190806/bin/xtb /data/atarzia/projects/unsymm/screening/production/free_energy_calculations/fe_4b1_c/input_structure.xyz --gfn 2 --hess --parallel 6 --etemp 300 --gbsa dmso --chrg 4 --uhf 0 -I det_control.in
          coordinate file            : /data/atarzia/projects/unsymm/screening/production/free_energy_calculations/fe_4b1_c/input_structure.xyz
          omp threads                :                     6
          number of atoms            :                   154
          number of electrons        :                   464
          charge                     :                     4
          spin                       :                   0.0
          first test random number   :      0.02560629983271


########################################################################
# WARNING! Please study the warnings concerning your input carefully
#  - XTBHOME is not set, using HOME instead
#  - XTBPATH is not set, using XTBHOME instead
#  - Process number higher than OMP_NUM_THREADS, I hope you know what you are doing.
########################################################################

           ------------------------------------------------- 
          |                 G F N 2 - x T B                 |
          | Geometry, Frequencies, Noncovalent interactions |
          |            JCTC 2019 parametrisation            |
           ------------------------------------------------- 
             k(s)              :                1.8500
             k(p)              :                2.2300
             k(d)              :                2.2300
             k(f)              :                2.0000
             kEN (H0ij)        :               -2.0000
             D4 a1             :                0.5200
             D4 a2             :                5.0000
             D4 s6             :                1.0000
             D4 s8             :                2.7000
             D4 s9             :                5.0000
             alphaj            :                2.0000

  Z AO/shell   Hii/eV     exponent
  1     Wed Apr 25 08:07:45 CEST 2018   EN: 2.200 GM2: 0.406  GM3: 0.0800  RAES: 1.40
     1s    -10.707211    1.230000
  6     Wed Apr 25 08:07:45 CEST 2018   EN: 2.550 GM2: 0.538  GM3: 0.1500  RAES: 3.00
     2s    -13.970922    2.096432
     2p    -10.063292    1.800000
  7     Wed Apr 25 08:07:45 CEST 2018   EN: 3.040 GM2: 0.461  GM3:-0.0640  RAES: 1.90
     2s    -16.686243    2.339881
     2p    -12.523956    2.014332
 46     Wed Apr 25 16:26:58 CEST 2018   EN: 2.200 GM2: 0.273  GM3: 0.0800  RAES: 5.00
     4d    -11.963518    2.353691
     5s     -9.714059    1.828354
     5p     -2.035281    1.333352

 Solvent             : dmso
 Using internal parameter file: .param_gbsa2_dmso
 Gsolv ref. state (COSMO-RS): gsolv [1 M gas/solution]
 temperature (mdtemp)       :    298.150000000000     
 dielectric constant        :    46.6800000000000     
 rho                        :    1.10000000000000     
 mass                       :    78.1300000000000     
 surface tension            :    15.5689454083859     
 probe radius               :   0.949087640000000     
 vdW radii scaling          :    1.00000000000000     
 Gshift (Eh)                :   5.161738145414381E-003
 c1                         :    1.63948621000000     
 soset                      :   1.179665000000000E-002
 HB correction              :  T
           ------------------------------------------------- 
          |        Self-Consistent Charge Iterations        |
           ------------------------------------------------- 

          ...................................................
          :                      SETUP                      :
          :.................................................:
          :  # basis functions                 460          :
          :  # atomic orbitals                 458          :
          :  # shells                          254          :
          :  # electrons                       464          :
          :  max. iterations                   250          :
          :  Hamiltonian                  GFN2-xTB          :
          :  restarted?                      false          :
          :  GBSA solvation                   true          :
          :  PC potential                    false          :
          :  electronic temp.          300.0000000     K    :
          :  accuracy                    1.0000000          :
          :  -> integral cutoff          0.2500000E+02      :
          :  -> integral neglect         0.1000000E-07      :
          :  -> SCF convergence          0.1000000E-05 Eh   :
          :  -> wf. convergence          0.1000000E-03 e    :
          :  Broyden damping             0.4000000          :
          ...................................................

 iter      E             dE          RMSdq      gap      omega  full diag
   1   -252.1794940 -0.252179E+03  0.589E+00    2.28       0.0  T
   2   -252.5742096 -0.394716E+00  0.396E+00    1.85       1.0  T
   3   -252.3881694  0.186040E+00  0.217E+00    2.00       1.0  T
   4   -252.7553054 -0.367136E+00  0.969E-01    2.14       1.0  T
   5   -252.8344901 -0.791847E-01  0.372E-01    2.10       1.0  T
   6   -252.8442831 -0.979300E-02  0.178E-01    2.14       1.0  T
   7   -252.8453984 -0.111530E-02  0.984E-02    2.14       1.0  T
   8   -252.8457334 -0.335000E-03  0.425E-02    2.15       1.0  T
   9   -252.8459207 -0.187294E-03  0.150E-02    2.14       1.0  T
  10   -252.8459336 -0.129183E-04  0.621E-03    2.14       1.3  T
  11   -252.8459339 -0.370767E-06  0.369E-03    2.14       2.2  T
  12   -252.8459344 -0.452386E-06  0.146E-03    2.14       5.5  T
  13   -252.8459345 -0.897519E-07  0.938E-04    2.14       8.6  T
  14   -252.8459346 -0.671645E-07  0.488E-04    2.14      16.5  T

   *** convergence criteria satisfied after 14 iterations ***

         #    Occupation            Energy/Eh            Energy/eV
      -------------------------------------------------------------
         1        2.0000           -0.7324881             -19.9320
       ...           ...                  ...                  ...
       226        2.0000           -0.4213043             -11.4643
       227        2.0000           -0.4154471             -11.3049
       228        2.0000           -0.4150114             -11.2930
       229        2.0000           -0.4040827             -10.9957
       230        2.0000           -0.4037493             -10.9866
       231        2.0000           -0.4017694             -10.9327
       232        2.0000           -0.4014892             -10.9251 (HOMO)
       233                         -0.3227292              -8.7819 (LUMO)
       234                         -0.3220876              -8.7644
       235                         -0.3210818              -8.7371
       236                         -0.3203390              -8.7169
       237                         -0.3095840              -8.4242
       ...                                ...                  ...
       458                          1.4463400              39.3569
      -------------------------------------------------------------
                  HL-Gap            0.0787600 Eh            2.1432 eV
             Fermi-level           -0.3621092 Eh           -9.8535 eV

 SCC (total)                   0 d,  0 h,  0 min,  0.821 sec
 SCC setup                      ...        0 min,  0.063 sec (  7.696%)
 Dispersion                     ...        0 min,  0.017 sec (  2.020%)
 integral evaluation            ...        0 min,  0.136 sec ( 16.503%)
 zeroth order Hamiltonian       ...        0 min,  0.004 sec (  0.427%)
 iterations                     ...        0 min,  0.461 sec ( 56.140%)
 molecular gradient             ...        0 min,  0.137 sec ( 16.731%)
 printout                       ...        0 min,  0.004 sec (  0.475%)

         :::::::::::::::::::::::::::::::::::::::::::::::::::::
         ::                     SUMMARY                     ::
         :::::::::::::::::::::::::::::::::::::::::::::::::::::
         :: total energy            -248.264645123947 Eh    ::
         :: total w/o Gsasa/hb      -248.157244562125 Eh    ::
         :: gradient norm              0.000612739606 Eh/a0 ::
         :: HOMO-LUMO gap              2.143167408417 eV    ::
         ::.................................................::
         :: SCC energy              -252.939953251543 Eh    ::
         :: -> isotropic ES            0.621327404835 Eh    ::
         :: -> anisotropic ES         -0.083411978092 Eh    ::
         :: -> anisotropic XC          0.172698308936 Eh    ::
         :: -> dispersion             -0.232034263361 Eh    ::
         :: -> Gsolv                  -0.643057911905 Eh    ::
         ::    -> Gborn               -0.535657350083 Eh    ::
         ::    -> Gsasa               -0.099180430795 Eh    ::
         ::    -> Ghb                 -0.013381869173 Eh    ::
         ::    -> Gshift               0.005161738145 Eh    ::
         :: repulsion energy           4.667301413361 Eh    ::
         :: add. restraining           0.000000000000 Eh    ::
         :::::::::::::::::::::::::::::::::::::::::::::::::::::

           ------------------------------------------------- 
          |                Numerical Hessian                |
           ------------------------------------------------- 
step length          :   0.00500
SCC accuracy         :   0.30000
Hessian scale factor :   1.00000
frozen atoms in %    :   0.00000    0
RMS gradient         :   0.00061
estimated CPU  time     98.82 min
estimated wall time     17.12 min

writing file <hessian>.

 projected vibrational frequencies (cm-1)
eigval :       -0.00    -0.00    -0.00     0.00     0.00     0.00
eigval :        6.33     9.32    12.65    18.22    18.61    19.79
eigval :       20.79    26.10    27.23    29.61    32.72    33.79
eigval :       37.01    40.77    41.29    44.01    52.35    55.32
eigval :       59.28    60.48    63.13    65.29    68.15    68.28
eigval :       70.76    75.90    78.95    83.53    83.80    92.54
eigval :       99.17   101.12   102.66   107.68   108.38   113.53
eigval :      118.35   118.92   131.94   133.22   136.63   140.00
eigval :      140.63   144.33   145.65   151.44   161.31   164.18
eigval :      165.04   170.61   171.23   176.99   177.68   182.38
eigval :      185.59   195.65   195.81   199.04   199.65   202.99
eigval :      210.65   214.18   221.62   237.18   242.75   247.29
eigval :      250.90   253.30   267.10   275.06   276.76   280.15
eigval :      302.63   306.72   309.01   310.59   314.70   318.99
eigval :      320.38   331.70   332.03   334.84   336.17   337.20
eigval :      363.54   364.96   367.62   369.10   369.94   371.42
eigval :      371.69   372.67   388.14   388.39   394.97   395.09
eigval :      396.00   396.09   398.51   398.87   426.72   426.96
eigval :      427.82   428.50   443.83   444.13   450.23   450.34
eigval :      460.79   461.04   461.10   461.30   472.42   472.45
eigval :      475.13   475.15   501.61   501.80   505.56   505.70
eigval :      512.18   512.69   513.68   514.67   525.26   525.91
eigval :      526.13   527.09   533.16   535.68   537.57   538.38
eigval :      546.95   549.08   550.45   551.58   575.92   577.67
eigval :      577.91   579.64   607.39   607.86   608.17   608.45
eigval :      619.37   619.74   621.80   622.29   622.48   622.97
eigval :      626.88   627.02   662.28   662.70   663.09   664.02
eigval :      674.53   674.69   680.24   680.59   688.21   688.30
eigval :      691.26   691.47   725.20   725.31   725.83   725.96
eigval :      742.40   743.43   744.37   745.68   773.07   774.42
eigval :      777.61   779.39   779.72   780.66   782.94   784.26
eigval :      801.43   802.61   804.02   804.36   820.16   821.10
eigval :      821.28   821.33   821.53   822.35   823.73   823.98
eigval :      825.69   826.06   835.81   836.08   853.23   853.50
eigval :      861.00   861.44   863.41   863.66   864.76   865.51
eigval :      868.17   870.87   877.41   879.17   881.75   883.99
eigval :      884.80   885.98   893.13   893.33   896.10   896.19
eigval :      896.98   897.05   901.01   901.20   902.44   902.63
eigval :      905.96   906.24   914.69   914.93   918.85   919.21
eigval :      926.56   926.65   926.94   927.09   935.50   935.57
eigval :      935.90   936.02   936.16   936.16   936.49   936.72
eigval :      978.87   981.44   981.51   982.63  1001.81  1003.16
eigval :     1004.67  1005.53  1048.09  1048.66  1048.84  1049.14
eigval :     1075.99  1076.14  1076.31  1076.44  1077.56  1077.75
eigval :     1078.51  1078.73  1091.62  1091.81  1094.29  1094.46
eigval :     1108.43  1108.46  1108.75  1108.86  1122.56  1122.63
eigval :     1124.21  1124.49  1135.30  1135.39  1135.51  1135.73
eigval :     1154.66  1154.85  1165.24  1165.61  1169.82  1170.05
eigval :     1173.00  1173.49  1174.21  1174.32  1175.58  1175.64
eigval :     1186.06  1186.21  1188.37  1188.70  1199.96  1200.03
eigval :     1202.26  1202.36  1214.41  1214.51  1217.22  1217.26
eigval :     1221.31  1221.47  1223.72  1223.92  1235.00  1235.23
eigval :     1243.09  1243.33  1257.78  1257.82  1258.83  1259.00
eigval :     1274.70  1274.75  1276.10  1276.18  1293.90  1295.40
eigval :     1295.68  1296.94  1297.16  1298.17  1299.55  1300.24
eigval :     1306.97  1307.11  1309.27  1309.36  1316.87  1317.38
eigval :     1317.70  1318.44  1359.46  1360.12  1361.32  1362.59
eigval :     1370.18  1371.32  1371.71  1372.66  1373.25  1374.39
eigval :     1374.68  1375.14  1397.70  1397.82  1398.36  1398.39
eigval :     1399.03  1399.52  1400.47  1400.51  1418.35  1419.16
eigval :     1420.39  1421.50  1433.87  1434.62  1436.09  1437.10
eigval :     1468.68  1468.78  1469.05  1469.11  1483.90  1484.17
eigval :     1485.46  1485.77  1529.21  1529.44  1530.06  1530.36
eigval :     1534.33  1534.43  1534.91  1535.01  1544.56  1544.59
eigval :     1545.24  1545.29  1550.46  1550.53  1551.23  1551.35
eigval :     1560.08  1560.13  1560.23  1560.35  1569.66  1569.74
eigval :     1570.62  1570.68  1582.87  1582.96  1583.33  1583.34
eigval :     2300.27  2300.71  2301.35  2301.68  2969.90  2970.27
eigval :     2975.30  2975.68  2976.22  2976.33  2981.92  2982.49
eigval :     2988.80  2989.65  2992.61  2993.38  3000.17  3000.56
eigval :     3002.99  3003.38  3093.82  3094.00  3094.32  3094.38
eigval :     3095.02  3095.32  3096.45  3096.58  3097.59  3098.03
eigval :     3103.30  3103.42  3103.46  3103.52  3105.17  3105.62
eigval :     3105.89  3105.96  3106.39  3106.77  3106.94  3107.01
eigval :     3107.92  3108.20  3109.14  3109.20  3109.45  3109.57
eigval :     3111.60  3112.56  3112.59  3112.79  3117.03  3117.61
eigval :     3117.72  3118.11  3118.49  3119.11  3119.55  3119.78
           -------------------------------------------------
          |                Property Printout                |
           -------------------------------------------------

    * Orbital Energies and Occupations

         #    Occupation            Energy/Eh            Energy/eV
      -------------------------------------------------------------
         1        2.0000           -0.7324892             -19.9320
       ...           ...                  ...                  ...
       220        2.0000           -0.4289503             -11.6723
       221        2.0000           -0.4269777             -11.6187
       222        2.0000           -0.4254772             -11.5778
       223        2.0000           -0.4234808             -11.5235
       224        2.0000           -0.4231212             -11.5137
       225        2.0000           -0.4219333             -11.4814
       226        2.0000           -0.4213031             -11.4642
       227        2.0000           -0.4154461             -11.3049
       228        2.0000           -0.4150102             -11.2930
       229        2.0000           -0.4040818             -10.9956
       230        2.0000           -0.4037483             -10.9866
       231        2.0000           -0.4017685             -10.9327
       232        2.0000           -0.4014882             -10.9251 (HOMO)
       233                         -0.3227286              -8.7819 (LUMO)
       234                         -0.3220873              -8.7644
       235                         -0.3210821              -8.7371
       236                         -0.3203394              -8.7169
       237                         -0.3095831              -8.4242
       238                         -0.3088826              -8.4051
       239                         -0.3085980              -8.3974
       240                         -0.3069468              -8.3524
       241                         -0.2976661              -8.0999
       242                         -0.2971741              -8.0865
       243                         -0.2947905              -8.0217
       ...                                ...                  ...
       458                          1.4463378              39.3569
      -------------------------------------------------------------
                  HL-Gap            0.0787596 Eh            2.1432 eV
             Fermi-level           -0.3621084 Eh           -9.8535 eV

     #   Z        covCN         q      C6AA      α(0)
     1  46 Pd     3.514    -0.076   274.028    34.139
     2  46 Pd     3.514    -0.076   274.021    34.139
     3   6 C      1.982    -0.018    31.526     9.067
     4   6 C      1.981    -0.032    31.918     9.124
     5   6 C      2.965     0.043    27.022     8.527
     6   6 C      2.926    -0.021    28.540     8.761
     7   6 C      2.914    -0.016    28.406     8.740
     8   6 C      2.914    -0.030    28.754     8.793
     9   6 C      2.990     0.028    27.377     8.583
    10   6 C      2.912    -0.032    28.797     8.799
    11   6 C      2.907     0.045    26.988     8.518
    12   7 N      2.667    -0.094    23.083     7.136
    13   6 C      2.896     0.060    26.652     8.464
    14   6 C      2.986    -0.005    28.142     8.702
    15   1 H      0.926     0.067     2.116     2.275
    16   1 H      0.926     0.058     2.220     2.330
    17   1 H      0.926     0.063     2.160     2.298
    18   1 H      0.926     0.090     1.877     2.143
    19   1 H      0.925     0.122     1.596     1.976
    20   1 H      0.925     0.124     1.580     1.966
    21   6 C      2.971     0.040    27.096     8.538
    22   6 C      2.925    -0.025    28.624     8.774
    23   6 C      2.921    -0.025    28.630     8.774
    24   6 C      2.976    -0.006    28.171     8.706
    25   6 C      2.922    -0.035    28.883     8.813
    26   6 C      2.925    -0.034    28.845     8.808
    27   1 H      0.926     0.054     2.275     2.359
    28   1 H      0.926     0.054     2.268     2.355
    29   1 H      0.926     0.066     2.130     2.282
    30   1 H      0.926     0.079     1.986     2.204
    31   6 C      2.971     0.008    27.829     8.653
    32   6 C      2.929    -0.003    28.097     8.693
    33   6 C      2.912    -0.028    28.703     8.785
    34   6 C      2.905     0.058    26.693     8.472
    35   7 N      2.667    -0.107    23.357     7.178
    36   6 C      2.914     0.043    27.039     8.527
    37   1 H      0.926     0.090     1.878     2.143
    38   1 H      0.926     0.098     1.804     2.100
    39   1 H      0.925     0.125     1.577     1.964
    40   1 H      0.925     0.134     1.503     1.917
    41   6 C      1.982    -0.017    31.500     9.064
    42   6 C      1.981    -0.032    31.913     9.123
    43   6 C      2.965     0.044    27.012     8.525
    44   6 C      2.927    -0.022    28.546     8.762
    45   6 C      2.914    -0.016    28.404     8.739
    46   6 C      2.915    -0.030    28.760     8.794
    47   6 C      2.990     0.027    27.381     8.584
    48   6 C      2.912    -0.032    28.797     8.799
    49   6 C      2.910     0.045    26.991     8.519
    50   7 N      2.667    -0.093    23.069     7.133
    51   6 C      2.893     0.059    26.670     8.467
    52   6 C      2.985    -0.005    28.134     8.701
    53   1 H      0.926     0.067     2.119     2.276
    54   1 H      0.926     0.058     2.219     2.329
    55   1 H      0.926     0.063     2.159     2.298
    56   1 H      0.926     0.090     1.876     2.142
    57   1 H      0.925     0.123     1.593     1.974
    58   1 H      0.925     0.127     1.558     1.952
    59   6 C      2.972     0.040    27.107     8.540
    60   6 C      2.924    -0.027    28.671     8.781
    61   6 C      2.922    -0.028    28.692     8.784
    62   6 C      2.976    -0.009    28.239     8.717
    63   6 C      2.921    -0.036    28.903     8.816
    64   6 C      2.925    -0.033    28.822     8.804
    65   1 H      0.926     0.058     2.222     2.331
    66   1 H      0.926     0.058     2.226     2.333
    67   1 H      0.926     0.071     2.077     2.254
    68   1 H      0.926     0.074     2.037     2.232
    69   6 C      2.971     0.008    27.846     8.656
    70   6 C      2.929    -0.003    28.095     8.693
    71   6 C      2.912    -0.028    28.701     8.785
    72   6 C      2.906     0.058    26.689     8.471
    73   7 N      2.666    -0.109    23.387     7.182
    74   6 C      2.913     0.044    27.011     8.522
    75   1 H      0.926     0.090     1.874     2.141
    76   1 H      0.926     0.098     1.804     2.100
    77   1 H      0.925     0.125     1.577     1.964
    78   1 H      0.925     0.130     1.536     1.938
    79   6 C      1.982    -0.018    31.525     9.067
    80   6 C      1.981    -0.032    31.918     9.124
    81   6 C      2.965     0.043    27.022     8.527
    82   6 C      2.926    -0.021    28.539     8.761
    83   6 C      2.914    -0.016    28.406     8.740
    84   6 C      2.914    -0.030    28.754     8.793
    85   6 C      2.990     0.028    27.377     8.583
    86   6 C      2.912    -0.032    28.796     8.799
    87   6 C      2.907     0.045    26.986     8.518
    88   7 N      2.667    -0.095    23.097     7.138
    89   6 C      2.896     0.060    26.650     8.464
    90   6 C      2.986    -0.005    28.144     8.702
    91   1 H      0.926     0.067     2.115     2.274
    92   1 H      0.926     0.058     2.219     2.330
    93   1 H      0.926     0.063     2.159     2.298
    94   1 H      0.926     0.090     1.877     2.142
    95   1 H      0.925     0.122     1.596     1.976
    96   1 H      0.925     0.124     1.582     1.967
    97   6 C      2.971     0.040    27.096     8.538
    98   6 C      2.925    -0.034    28.844     8.807
    99   6 C      2.921    -0.035    28.882     8.813
   100   6 C      2.976    -0.006    28.172     8.706
   101   6 C      2.921    -0.025    28.629     8.774
   102   6 C      2.925    -0.025    28.623     8.774
   103   1 H      0.926     0.079     1.987     2.204
   104   1 H      0.926     0.066     2.130     2.282
   105   1 H      0.926     0.054     2.267     2.354
   106   1 H      0.926     0.054     2.275     2.359
   107   6 C      2.971     0.008    27.830     8.653
   108   6 C      2.929    -0.003    28.096     8.693
   109   6 C      2.912    -0.028    28.703     8.785
   110   6 C      2.905     0.058    26.691     8.471
   111   7 N      2.667    -0.108    23.375     7.181
   112   6 C      2.914     0.043    27.037     8.526
   113   1 H      0.926     0.090     1.877     2.142
   114   1 H      0.926     0.098     1.803     2.100
   115   1 H      0.925     0.125     1.577     1.964
   116   1 H      0.925     0.134     1.502     1.917
   117   6 C      1.982    -0.017    31.500     9.064
   118   6 C      1.981    -0.032    31.914     9.123
   119   6 C      2.965     0.044    27.012     8.525
   120   6 C      2.927    -0.022    28.546     8.762
   121   6 C      2.914    -0.016    28.404     8.739
   122   6 C      2.915    -0.030    28.760     8.794
   123   6 C      2.990     0.027    27.382     8.584
   124   6 C      2.912    -0.032    28.797     8.799
   125   6 C      2.909     0.045    26.991     8.519
   126   7 N      2.667    -0.093    23.073     7.134
   127   6 C      2.893     0.059    26.670     8.467
   128   6 C      2.985    -0.005    28.134     8.701
   129   1 H      0.926     0.067     2.118     2.276
   130   1 H      0.926     0.058     2.219     2.329
   131   1 H      0.926     0.063     2.159     2.298
   132   1 H      0.926     0.090     1.877     2.143
   133   1 H      0.925     0.123     1.593     1.974
   134   1 H      0.925     0.127     1.559     1.952
   135   6 C      2.972     0.040    27.107     8.540
   136   6 C      2.924    -0.027    28.670     8.781
   137   6 C      2.922    -0.028    28.693     8.784
   138   6 C      2.976    -0.009    28.241     8.717
   139   6 C      2.921    -0.036    28.903     8.816
   140   6 C      2.925    -0.033    28.822     8.804
   141   1 H      0.926     0.058     2.222     2.331
   142   1 H      0.926     0.058     2.226     2.333
   143   1 H      0.926     0.071     2.076     2.253
   144   1 H      0.926     0.074     2.037     2.232
   145   6 C      2.971     0.008    27.848     8.656
   146   6 C      2.929    -0.003    28.095     8.693
   147   6 C      2.912    -0.028    28.701     8.785
   148   6 C      2.906     0.058    26.689     8.471
   149   7 N      2.666    -0.109    23.392     7.183
   150   6 C      2.913     0.044    27.012     8.522
   151   1 H      0.926     0.091     1.874     2.141
   152   1 H      0.926     0.098     1.804     2.100
   153   1 H      0.925     0.125     1.577     1.964
   154   1 H      0.925     0.130     1.536     1.938

 Mol. C6AA /au·bohr⁶  :     380062.842578
 Mol. C8AA /au·bohr⁸  :   10753693.752547
 Mol. α(0) /au        :       1013.223988


Wiberg/Mayer (AO) data.
largest (>0.10) Wiberg bond orders for each atom
          total WBO             WBO to atom ...
     1  Pd  3.512        N  126 0.602    N   88 0.600    N   35 0.589    N   73 0.586
     2  Pd  3.512        N   50 0.602    N   12 0.601    N  111 0.588    N  149 0.586
     3  C   3.942        C    4 2.635    C   21 1.134
     4  C   3.946        C    3 2.635    C    5 1.142
     5  C   3.984        C    6 1.446    C   14 1.200    C    4 1.142
     6  C   3.968        C    5 1.446    C    7 1.349    H   15 0.967
     7  C   3.982        C    8 1.521    C    6 1.349    H   16 0.968
     8  C   3.948        C    7 1.521    C    9 1.292    H   17 0.966
     9  C   3.988        C    8 1.292    C   10 1.273    C   14 1.231
    10  C   3.978        C   11 1.553    C    9 1.273    H   18 0.960    C   13 0.105
    11  C   3.969        C   10 1.553    N   12 1.246    H   19 0.904
    12  N   3.535        C   13 1.431    C   11 1.246    Pd   2 0.601
    13  C   3.966        N   12 1.431    C   14 1.318    H   20 0.911    C   10 0.105
    14  C   3.979        C   13 1.318    C    9 1.231    C    5 1.200
    15  H   0.995        C    6 0.967
    16  H   0.995        C    7 0.968
    17  H   0.995        C    8 0.966
    18  H   0.991        C   10 0.960
    19  H   0.984        C   11 0.904
    20  H   0.983        C   13 0.911
    21  C   3.983        C   22 1.347    C   26 1.345    C    3 1.134
    22  C   3.973        C   23 1.470    C   21 1.347    H   27 0.969
    23  C   3.989        C   22 1.470    C   24 1.375    H   28 0.966
    24  C   3.950        C   23 1.375    C   25 1.369    C   31 1.054
    25  C   3.987        C   26 1.475    C   24 1.369    H   29 0.964
    26  C   3.971        C   25 1.475    C   21 1.345    H   30 0.965
    27  H   0.996        C   22 0.969
    28  H   0.996        C   23 0.966
    29  H   0.994        C   25 0.964
    30  H   0.993        C   26 0.965
    31  C   3.982        C   36 1.386    C   32 1.367    C   24 1.054
    32  C   3.974        C   33 1.449    C   31 1.367    H   37 0.961
    33  C   3.979        C   32 1.449    C   34 1.425    H   38 0.960
    34  C   3.960        C   33 1.425    N   35 1.350    H   39 0.912
    35  N   3.530        C   36 1.350    C   34 1.350    Pd   1 0.589
    36  C   3.961        C   31 1.386    N   35 1.350    H   40 0.903
    37  H   0.990        C   32 0.961
    38  H   0.989        C   33 0.960
    39  H   0.983        C   34 0.912
    40  H   0.981        C   36 0.903
    41  C   3.940        C   42 2.637    C   59 1.126
    42  C   3.944        C   41 2.637    C   43 1.135
    43  C   3.984        C   44 1.451    C   52 1.203    C   42 1.135
    44  C   3.974        C   43 1.451    C   45 1.346    H   53 0.967
    45  C   3.982        C   46 1.523    C   44 1.346    H   54 0.968
    46  C   3.952        C   45 1.523    C   47 1.292    H   55 0.965
    47  C   3.988        C   46 1.292    C   48 1.273    C   52 1.231
    48  C   3.979        C   49 1.555    C   47 1.273    H   56 0.960    C   51 0.105
    49  C   3.969        C   48 1.555    N   50 1.245    H   57 0.903
    50  N   3.538        C   51 1.433    C   49 1.245    Pd   2 0.602
    51  C   3.965        N   50 1.433    C   52 1.316    H   58 0.912    C   48 0.105
    52  C   3.981        C   51 1.316    C   47 1.231    C   43 1.203
    53  H   0.995        C   44 0.967
    54  H   0.995        C   45 0.968
    55  H   0.995        C   46 0.965
    56  H   0.991        C   48 0.960
    57  H   0.984        C   49 0.903
    58  H   0.983        C   51 0.912
    59  C   3.983        C   60 1.352    C   64 1.348    C   41 1.126
    60  C   3.978        C   61 1.467    C   59 1.352    H   65 0.968    C   63 0.101
    61  C   3.988        C   60 1.467    C   62 1.376    H   66 0.965    C   64 0.101
    62  C   3.954        C   61 1.376    C   63 1.373    C   69 1.051
    63  C   3.986        C   64 1.471    C   62 1.373    H   67 0.963    C   60 0.101
    64  C   3.976        C   63 1.471    C   59 1.348    H   68 0.966    C   61 0.101
    65  H   0.996        C   60 0.968
    66  H   0.995        C   61 0.965
    67  H   0.994        C   63 0.963
    68  H   0.994        C   64 0.966
    69  C   3.982        C   74 1.388    C   70 1.367    C   62 1.051
    70  C   3.974        C   71 1.449    C   69 1.367    H   75 0.961
    71  C   3.980        C   70 1.449    C   72 1.426    H   76 0.961
    72  C   3.960        C   71 1.426    N   73 1.349    H   77 0.912
    73  N   3.527        C   74 1.350    C   72 1.349    Pd   1 0.586
    74  C   3.962        C   69 1.388    N   73 1.350    H   78 0.905
    75  H   0.990        C   70 0.961
    76  H   0.989        C   71 0.961
    77  H   0.983        C   72 0.912
    78  H   0.982        C   74 0.905
    79  C   3.942        C   80 2.635    C   97 1.134
    80  C   3.946        C   79 2.635    C   81 1.143
    81  C   3.984        C   82 1.446    C   90 1.200    C   80 1.143
    82  C   3.968        C   81 1.446    C   83 1.349    H   91 0.967
    83  C   3.982        C   84 1.521    C   82 1.349    H   92 0.968
    84  C   3.948        C   83 1.521    C   85 1.292    H   93 0.966
    85  C   3.988        C   84 1.292    C   86 1.273    C   90 1.231
    86  C   3.978        C   87 1.553    C   85 1.273    H   94 0.960    C   89 0.105
    87  C   3.969        C   86 1.553    N   88 1.246    H   95 0.904
    88  N   3.535        C   89 1.431    C   87 1.246    Pd   1 0.600
    89  C   3.966        N   88 1.431    C   90 1.318    H   96 0.911    C   86 0.105
    90  C   3.979        C   89 1.318    C   85 1.231    C   81 1.200
    91  H   0.995        C   82 0.967
    92  H   0.995        C   83 0.968
    93  H   0.995        C   84 0.966
    94  H   0.991        C   86 0.960
    95  H   0.984        C   87 0.904
    96  H   0.983        C   89 0.911
    97  C   3.983        C  102 1.347    C   98 1.345    C   79 1.134
    98  C   3.971        C   99 1.475    C   97 1.345    H  103 0.965
    99  C   3.987        C   98 1.475    C  100 1.369    H  104 0.964
   100  C   3.950        C  101 1.375    C   99 1.369    C  107 1.054
   101  C   3.989        C  102 1.470    C  100 1.375    H  105 0.966
   102  C   3.973        C  101 1.470    C   97 1.347    H  106 0.969
   103  H   0.993        C   98 0.965
   104  H   0.994        C   99 0.964
   105  H   0.996        C  101 0.966
   106  H   0.996        C  102 0.969
   107  C   3.982        C  112 1.386    C  108 1.367    C  100 1.054
   108  C   3.974        C  109 1.449    C  107 1.367    H  113 0.961
   109  C   3.979        C  108 1.449    C  110 1.426    H  114 0.960
   110  C   3.960        C  109 1.426    N  111 1.350    H  115 0.912
   111  N   3.529        C  112 1.350    C  110 1.350    Pd   2 0.588
   112  C   3.961        C  107 1.386    N  111 1.350    H  116 0.903
   113  H   0.990        C  108 0.961
   114  H   0.989        C  109 0.960
   115  H   0.983        C  110 0.912
   116  H   0.981        C  112 0.903
   117  C   3.940        C  118 2.637    C  135 1.126
   118  C   3.944        C  117 2.637    C  119 1.135
   119  C   3.984        C  120 1.450    C  128 1.203    C  118 1.135
   120  C   3.974        C  119 1.450    C  121 1.347    H  129 0.967
   121  C   3.982        C  122 1.523    C  120 1.347    H  130 0.968
   122  C   3.952        C  121 1.523    C  123 1.292    H  131 0.965
   123  C   3.988        C  122 1.292    C  124 1.273    C  128 1.231
   124  C   3.979        C  125 1.555    C  123 1.273    H  132 0.960    C  127 0.105
   125  C   3.969        C  124 1.555    N  126 1.245    H  133 0.903
   126  N   3.537        C  127 1.433    C  125 1.245    Pd   1 0.602
   127  C   3.965        N  126 1.433    C  128 1.316    H  134 0.912    C  124 0.105
   128  C   3.981        C  127 1.316    C  123 1.231    C  119 1.203
   129  H   0.995        C  120 0.967
   130  H   0.995        C  121 0.968
   131  H   0.995        C  122 0.965
   132  H   0.991        C  124 0.960
   133  H   0.984        C  125 0.903
   134  H   0.983        C  127 0.912
   135  C   3.983        C  136 1.352    C  140 1.348    C  117 1.126
   136  C   3.978        C  137 1.467    C  135 1.352    H  141 0.968    C  139 0.101
   137  C   3.988        C  136 1.467    C  138 1.376    H  142 0.965    C  140 0.100
   138  C   3.954        C  137 1.376    C  139 1.373    C  145 1.051
   139  C   3.986        C  140 1.471    C  138 1.373    H  143 0.963    C  136 0.101
   140  C   3.976        C  139 1.471    C  135 1.348    H  144 0.965    C  137 0.100
   141  H   0.996        C  136 0.968
   142  H   0.995        C  137 0.965
   143  H   0.994        C  139 0.963
   144  H   0.994        C  140 0.965
   145  C   3.982        C  150 1.388    C  146 1.367    C  138 1.051
   146  C   3.974        C  147 1.449    C  145 1.367    H  151 0.961
   147  C   3.980        C  146 1.449    C  148 1.426    H  152 0.961
   148  C   3.960        C  147 1.426    N  149 1.349    H  153 0.912
   149  N   3.527        C  150 1.350    C  148 1.349    Pd   2 0.586
   150  C   3.962        C  145 1.388    N  149 1.350    H  154 0.905
   151  H   0.990        C  146 0.961
   152  H   0.989        C  147 0.961
   153  H   0.983        C  148 0.912
   154  H   0.982        C  150 0.905

molecular dipole:
                 x           y           z       tot (Debye)
 q only:       -1.730      -9.011       6.781
   full:       -1.735      -9.011       6.780      29.000
molecular quadrupole (traceless):
                xx          xy          yy          xz          yz          zz
 q only:     -190.797     -31.026     363.991       8.616     -84.686    -173.194
  q+dip:     -200.762     -35.584     393.516      13.167     -95.051    -192.754
   full:     -190.966     -36.678     367.296       9.205     -92.184    -176.330

           -------------------------------------------------
          |               Frequency Printout                |
           -------------------------------------------------
 projected vibrational frequencies (cm-1)
eigval :       -0.00    -0.00    -0.00     0.00     0.00     0.00
eigval :        6.33     9.32    12.65    18.22    18.61    19.79
eigval :       20.79    26.10    27.23    29.61    32.72    33.79
eigval :       37.01    40.77    41.29    44.01    52.35    55.32
eigval :       59.28    60.48    63.13    65.29    68.15    68.28
eigval :       70.76    75.90    78.95    83.53    83.80    92.54
eigval :       99.17   101.12   102.66   107.68   108.38   113.53
eigval :      118.35   118.92   131.94   133.22   136.63   140.00
eigval :      140.63   144.33   145.65   151.44   161.31   164.18
eigval :      165.04   170.61   171.23   176.99   177.68   182.38
eigval :      185.59   195.65   195.81   199.04   199.65   202.99
eigval :      210.65   214.18   221.62   237.18   242.75   247.29
eigval :      250.90   253.30   267.10   275.06   276.76   280.15
eigval :      302.63   306.72   309.01   310.59   314.70   318.99
eigval :      320.38   331.70   332.03   334.84   336.17   337.20
eigval :      363.54   364.96   367.62   369.10   369.94   371.42
eigval :      371.69   372.67   388.14   388.39   394.97   395.09
eigval :      396.00   396.09   398.51   398.87   426.72   426.96
eigval :      427.82   428.50   443.83   444.13   450.23   450.34
eigval :      460.79   461.04   461.10   461.30   472.42   472.45
eigval :      475.13   475.15   501.61   501.80   505.56   505.70
eigval :      512.18   512.69   513.68   514.67   525.26   525.91
eigval :      526.13   527.09   533.16   535.68   537.57   538.38
eigval :      546.95   549.08   550.45   551.58   575.92   577.67
eigval :      577.91   579.64   607.39   607.86   608.17   608.45
eigval :      619.37   619.74   621.80   622.29   622.48   622.97
eigval :      626.88   627.02   662.28   662.70   663.09   664.02
eigval :      674.53   674.69   680.24   680.59   688.21   688.30
eigval :      691.26   691.47   725.20   725.31   725.83   725.96
eigval :      742.40   743.43   744.37   745.68   773.07   774.42
eigval :      777.61   779.39   779.72   780.66   782.94   784.26
eigval :      801.43   802.61   804.02   804.36   820.16   821.10
eigval :      821.28   821.33   821.53   822.35   823.73   823.98
eigval :      825.69   826.06   835.81   836.08   853.23   853.50
eigval :      861.00   861.44   863.41   863.66   864.76   865.51
eigval :      868.17   870.87   877.41   879.17   881.75   883.99
eigval :      884.80   885.98   893.13   893.33   896.10   896.19
eigval :      896.98   897.05   901.01   901.20   902.44   902.63
eigval :      905.96   906.24   914.69   914.93   918.85   919.21
eigval :      926.56   926.65   926.94   927.09   935.50   935.57
eigval :      935.90   936.02   936.16   936.16   936.49   936.72
eigval :      978.87   981.44   981.51   982.63  1001.81  1003.16
eigval :     1004.67  1005.53  1048.09  1048.66  1048.84  1049.14
eigval :     1075.99  1076.14  1076.31  1076.44  1077.56  1077.75
eigval :     1078.51  1078.73  1091.62  1091.81  1094.29  1094.46
eigval :     1108.43  1108.46  1108.75  1108.86  1122.56  1122.63
eigval :     1124.21  1124.49  1135.30  1135.39  1135.51  1135.73
eigval :     1154.66  1154.85  1165.24  1165.61  1169.82  1170.05
eigval :     1173.00  1173.49  1174.21  1174.32  1175.58  1175.64
eigval :     1186.06  1186.21  1188.37  1188.70  1199.96  1200.03
eigval :     1202.26  1202.36  1214.41  1214.51  1217.22  1217.26
eigval :     1221.31  1221.47  1223.72  1223.92  1235.00  1235.23
eigval :     1243.09  1243.33  1257.78  1257.82  1258.83  1259.00
eigval :     1274.70  1274.75  1276.10  1276.18  1293.90  1295.40
eigval :     1295.68  1296.94  1297.16  1298.17  1299.55  1300.24
eigval :     1306.97  1307.11  1309.27  1309.36  1316.87  1317.38
eigval :     1317.70  1318.44  1359.46  1360.12  1361.32  1362.59
eigval :     1370.18  1371.32  1371.71  1372.66  1373.25  1374.39
eigval :     1374.68  1375.14  1397.70  1397.82  1398.36  1398.39
eigval :     1399.03  1399.52  1400.47  1400.51  1418.35  1419.16
eigval :     1420.39  1421.50  1433.87  1434.62  1436.09  1437.10
eigval :     1468.68  1468.78  1469.05  1469.11  1483.90  1484.17
eigval :     1485.46  1485.77  1529.21  1529.44  1530.06  1530.36
eigval :     1534.33  1534.43  1534.91  1535.01  1544.56  1544.59
eigval :     1545.24  1545.29  1550.46  1550.53  1551.23  1551.35
eigval :     1560.08  1560.13  1560.23  1560.35  1569.66  1569.74
eigval :     1570.62  1570.68  1582.87  1582.96  1583.33  1583.34
eigval :     2300.27  2300.71  2301.35  2301.68  2969.90  2970.27
eigval :     2975.30  2975.68  2976.22  2976.33  2981.92  2982.49
eigval :     2988.80  2989.65  2992.61  2993.38  3000.17  3000.56
eigval :     3002.99  3003.38  3093.82  3094.00  3094.32  3094.38
eigval :     3095.02  3095.32  3096.45  3096.58  3097.59  3098.03
eigval :     3103.30  3103.42  3103.46  3103.52  3105.17  3105.62
eigval :     3105.89  3105.96  3106.39  3106.77  3106.94  3107.01
eigval :     3107.92  3108.20  3109.14  3109.20  3109.45  3109.57
eigval :     3111.60  3112.56  3112.59  3112.79  3117.03  3117.61
eigval :     3117.72  3118.11  3118.49  3119.11  3119.55  3119.78
 reduced masses (amu)
   1: 24.70   2: 24.91   3: 14.64   4: 24.14   5: 25.23   6: 25.35   7: 12.75   8: 15.99
   9: 13.02  10: 13.52  11: 11.87  12: 16.65  13: 16.14  14: 18.97  15: 21.97  16: 14.47
  17: 10.89  18: 17.90  19: 11.50  20: 11.49  21: 11.75  22: 11.82  23: 13.84  24: 13.54
  25: 10.96  26: 17.60  27: 16.55  28: 11.09  29: 24.37  30: 12.77  31: 11.96  32: 11.78
  33: 12.03  34: 11.82  35: 12.39  36: 20.78  37: 12.28  38: 13.89  39: 12.21  40: 11.03
  41: 12.99  42: 18.16  43: 24.07  44: 12.26  45: 11.49  46: 11.28  47: 11.45  48: 11.59
  49: 13.60  50: 13.90  51: 11.40  52: 12.44  53: 12.41  54: 10.53  55: 19.09  56: 13.31
  57: 12.44  58:  9.94  59: 10.49  60: 12.68  61: 14.19  62: 16.91  63: 17.40  64: 12.87
  65: 14.51  66: 13.42  67: 22.33  68: 20.68  69: 41.42  70: 28.31  71: 28.30  72: 19.05
  73: 30.39  74: 33.86  75: 48.49  76: 42.20  77: 44.56  78: 40.84  79: 11.24  80: 11.47
  81: 15.10  82: 12.10  83: 14.33  84: 15.36  85: 14.37  86: 12.11  87: 11.95  88: 11.39
  89: 17.32  90: 12.69  91: 11.31  92: 11.50  93: 10.09  94: 10.17  95:  9.54  96:  9.77
  97: 11.78  98: 11.03  99: 11.83 100: 11.73 101:  9.91 102:  9.91 103:  9.68 104:  9.59
 105: 10.94 106: 10.89 107: 11.41 108: 11.41 109: 11.42 110: 11.55 111: 11.13 112: 11.18
 113: 11.18 114: 11.18 115: 11.40 116: 11.32 117: 11.45 118: 11.33 119: 11.11 120: 11.12
 121: 11.28 122: 11.30 123: 10.54 124: 10.57 125: 10.48 126: 10.46 127: 12.24 128: 12.32
 129: 12.13 130: 12.38 131: 11.43 132: 11.45 133: 11.59 134: 11.69 135: 10.22 136: 10.37
 137: 10.38 138: 10.52 139: 10.12 140: 10.20 141: 10.15 142: 10.24 143: 11.97 144: 12.17
 145: 12.00 146: 12.29 147: 11.48 148: 11.52 149: 11.46 150: 11.46 151: 12.06 152: 12.14
 153: 11.63 154: 11.53 155: 12.10 156: 11.99 157: 11.86 158: 11.92 159: 11.36 160: 11.42
 161: 11.45 162: 11.50 163:  9.67 164:  9.65 165: 10.77 166: 10.78 167: 10.33 168: 10.35
 169:  9.86 170:  9.88 171: 10.54 172: 10.54 173: 10.64 174: 10.65 175: 11.42 176: 11.44
 177: 11.49 178: 11.52 179:  4.34 180:  4.43 181:  4.55 182:  4.63 183:  3.97 184:  3.80
 185:  4.51 186:  4.32 187: 11.53 188: 11.53 189: 11.49 190: 11.50 191: 10.21 192: 10.65
 193:  8.65 194:  5.95 195:  6.84 196: 10.07 197:  6.36 198:  5.19 199:  4.29 200:  4.24
 201:  4.06 202:  4.07 203:  4.29 204:  4.28 205:  4.04 206:  4.06 207:  4.06 208:  3.99
 209:  3.50 210:  3.52 211:  3.35 212:  3.51 213:  4.48 214:  4.42 215: 10.61 216: 10.39
 217: 10.23 218: 10.52 219:  3.61 220:  3.63 221:  3.78 222:  3.74 223:  3.94 224:  3.97
 225:  3.63 226:  3.63 227:  3.94 228:  3.93 229:  3.70 230:  3.69 231:  3.03 232:  3.02
 233:  2.82 234:  2.83 235:  3.99 236:  3.99 237:  3.89 238:  3.87 239:  3.71 240:  3.86
 241:  3.86 242:  3.70 243:  3.70 244:  3.70 245:  3.86 246:  3.86 247: 11.29 248: 11.28
 249: 11.24 250: 11.23 251: 10.17 252: 10.13 253: 10.24 254: 10.23 255: 10.02 256:  9.92
 257: 10.01 258:  9.93 259:  7.99 260:  7.57 261:  7.98 262:  7.34 263:  7.31 264:  7.32
 265:  8.12 266:  7.95 267:  6.80 268:  6.80 269:  6.65 270:  6.65 271:  6.20 272:  6.20
 273:  6.21 274:  6.22 275:  3.53 276:  3.54 277:  3.50 278:  3.50 279:  3.31 280:  3.32
 281:  3.35 282:  3.34 283:  3.07 284:  3.09 285:  3.26 286:  3.28 287:  1.96 288:  1.82
 289:  3.69 290:  3.41 291:  3.71 292:  3.52 293:  2.43 294:  2.11 295:  2.81 296:  2.81
 297:  2.59 298:  2.63 299:  4.02 300:  4.06 301:  4.25 302:  4.24 303:  5.48 304:  5.45
 305:  5.71 306:  5.64 307:  6.14 308:  6.21 309:  5.90 310:  5.83 311:  2.99 312:  2.98
 313:  3.02 314:  3.01 315:  3.16 316:  3.16 317:  3.20 318:  3.20 319:  7.95 320:  7.92
 321:  8.00 322:  7.99 323:  9.37 324:  8.87 325: 10.04 326: 12.00 327: 11.15 328: 11.53
 329:  9.44 330: 10.54 331: 11.40 332: 11.38 333: 11.33 334: 11.30 335: 10.17 336: 10.18
 337: 10.09 338: 10.13 339: 10.54 340: 10.60 341: 10.51 342: 10.54 343:  9.66 344:  9.65
 345:  9.48 346:  9.63 347: 10.01 348:  9.92 349: 10.07 350:  9.91 351: 10.38 352: 10.21
 353: 10.42 354: 10.43 355: 10.79 356: 10.63 357: 10.83 358: 10.83 359:  9.98 360:  9.97
 361: 10.03 362: 10.02 363: 10.76 364: 10.73 365: 10.81 366: 10.77 367: 11.02 368: 11.02
 369: 11.01 370: 11.00 371: 10.36 372: 10.38 373: 10.40 374: 10.41 375: 11.79 376: 11.78
 377: 11.80 378: 11.80 379: 11.57 380: 11.57 381: 11.59 382: 11.59 383: 11.73 384: 11.73
 385: 11.73 386: 11.73 387: 11.68 388: 11.68 389: 11.69 390: 11.68 391: 11.57 392: 11.57
 393: 11.57 394: 11.57 395: 11.47 396: 11.47 397: 11.47 398: 11.47 399: 11.53 400: 11.53
 401: 11.54 402: 11.54 403: 12.01 404: 12.01 405: 12.01 406: 12.01 407:  1.86 408:  1.86
 409:  1.84 410:  1.85 411:  1.85 412:  1.85 413:  1.84 414:  1.84 415:  1.84 416:  1.84
 417:  1.84 418:  1.84 419:  1.85 420:  1.85 421:  1.85 422:  1.85 423:  1.78 424:  1.78
 425:  1.78 426:  1.78 427:  1.79 428:  1.79 429:  1.79 430:  1.79 431:  1.81 432:  1.81
 433:  1.84 434:  1.84 435:  1.84 436:  1.84 437:  1.83 438:  1.86 439:  1.82 440:  1.83
 441:  1.79 442:  1.85 443:  1.88 444:  1.79 445:  1.88 446:  1.88 447:  1.90 448:  1.90
 449:  1.90 450:  1.90 451:  1.86 452:  1.86 453:  1.86 454:  1.86 455:  1.87 456:  1.88
 457:  1.87 458:  1.88 459:  1.89 460:  1.89 461:  1.89 462:  1.89
 IR intensities (amu)
   1:  0.62   2:  0.51   3:  0.20   4:  0.46   5:  0.21   6:  0.61   7:  0.24   8:  0.45
   9:  0.04  10:  0.11  11:  0.14  12:  0.39  13:  0.03  14:  0.01  15:  0.00  16:  0.01
  17:  0.07  18:  0.01  19:  0.07  20:  0.01  21:  0.10  22:  0.15  23:  0.00  24:  0.13
  25:  0.01  26:  0.32  27:  0.42  28:  0.00  29:  0.18  30:  0.02  31:  0.25  32:  0.01
  33:  0.14  34:  0.06  35:  0.22  36:  0.00  37:  0.06  38:  0.00  39:  0.08  40:  0.00
  41:  0.00  42:  0.13  43:  0.01  44:  0.04  45:  0.00  46:  0.08  47:  0.00  48:  0.23
  49:  0.03  50:  0.01  51:  0.04  52:  0.15  53:  0.00  54:  0.16  55:  0.00  56:  0.27
  57:  0.02  58:  0.01  59:  0.13  60:  0.30  61:  0.36  62:  0.43  63:  0.61  64:  0.23
  65:  0.63  66:  0.02  67:  0.85  68:  0.03  69:  0.56  70:  0.00  71:  0.73  72:  0.00
  73:  0.82  74:  0.00  75:  0.02  76:  1.05  77:  0.02  78:  1.04  79:  0.14  80:  0.01
  81:  0.01  82:  0.27  83:  0.01  84:  0.50  85:  0.00  86:  0.02  87:  0.26  88:  0.20
  89:  0.15  90:  0.00  91:  0.27  92:  0.40  93:  0.00  94:  0.01  95:  0.09  96:  0.37
  97:  0.05  98:  0.01  99:  0.33 100:  0.01 101:  0.06 102:  0.19 103:  0.05 104:  0.09
 105:  0.15 106:  0.01 107:  0.04 108:  0.13 109:  0.01 110:  0.11 111:  0.15 112:  0.04
 113:  0.16 114:  0.08 115:  0.15 116:  0.08 117:  0.02 118:  0.00 119:  0.07 120:  0.09
 121:  0.16 122:  0.00 123:  0.08 124:  0.03 125:  0.11 126:  0.14 127:  0.00 128:  0.31
 129:  0.01 130:  0.55 131:  0.00 132:  0.00 133:  0.16 134:  0.28 135:  0.00 136:  0.16
 137:  0.00 138:  0.18 139:  0.18 140:  0.00 141:  0.11 142:  0.00 143:  0.45 144:  0.01
 145:  0.51 146:  0.00 147:  0.01 148:  0.19 149:  0.01 150:  0.15 151:  0.45 152:  0.03
 153:  0.27 154:  0.01 155:  0.00 156:  0.46 157:  0.20 158:  0.02 159:  0.00 160:  0.04
 161:  0.00 162:  0.45 163:  0.04 164:  0.35 165:  0.16 166:  0.02 167:  0.08 168:  0.02
 169:  0.03 170:  0.15 171:  0.10 172:  0.09 173:  0.08 174:  0.10 175:  0.47 176:  0.00
 177:  0.49 178:  0.00 179:  0.01 180:  0.21 181:  0.31 182:  0.01 183:  0.10 184:  0.01
 185:  0.02 186:  0.32 187:  0.00 188:  0.48 189:  0.01 190:  0.57 191:  0.00 192:  0.02
 193:  0.23 194:  0.03 195:  0.15 196:  0.29 197:  0.33 198:  0.01 199:  0.32 200:  0.12
 201:  0.20 202:  0.30 203:  0.04 204:  0.04 205:  0.11 206:  0.02 207:  0.07 208:  0.09
 209:  0.10 210:  0.00 211:  0.00 212:  0.17 213:  0.11 214:  0.00 215:  0.15 216:  0.01
 217:  0.48 218:  0.00 219:  0.02 220:  0.02 221:  0.01 222:  0.02 223:  0.09 224:  0.03
 225:  0.05 226:  0.03 227:  0.05 228:  0.06 229:  0.02 230:  0.02 231:  0.07 232:  0.08
 233:  0.00 234:  0.03 235:  0.06 236:  0.22 237:  0.14 238:  0.18 239:  0.02 240:  0.05
 241:  0.04 242:  0.02 243:  0.02 244:  0.02 245:  0.04 246:  0.04 247:  0.00 248:  0.22
 249:  0.01 250:  0.46 251:  0.25 252:  0.00 253:  0.34 254:  0.00 255:  0.08 256:  0.04
 257:  0.35 258:  0.01 259:  0.04 260:  0.14 261:  0.32 262:  0.26 263:  0.43 264:  0.43
 265:  0.77 266:  0.19 267:  0.16 268:  0.53 269:  0.47 270:  0.46 271:  0.38 272:  0.33
 273:  0.53 274:  0.34 275:  0.25 276:  0.08 277:  0.35 278:  0.01 279:  0.02 280:  0.09
 281:  0.10 282:  0.05 283:  0.23 284:  0.32 285:  0.59 286:  0.04 287:  0.12 288:  0.01
 289:  0.00 290:  0.16 291:  0.08 292:  0.18 293:  0.04 294:  0.01 295:  0.02 296:  0.16
 297:  0.16 298:  0.01 299:  0.01 300:  0.05 301:  0.39 302:  0.52 303:  0.08 304:  0.12
 305:  0.18 306:  0.02 307:  0.02 308:  0.05 309:  0.26 310:  0.25 311:  0.02 312:  0.10
 313:  0.13 314:  0.05 315:  0.06 316:  0.08 317:  0.08 318:  0.07 319:  0.09 320:  0.72
 321:  0.51 322:  1.01 323:  0.00 324:  0.07 325:  0.00 326:  0.24 327:  0.36 328:  0.01
 329:  0.21 330:  0.00 331:  0.09 332:  0.04 333:  0.08 334:  0.01 335:  0.34 336:  0.02
 337:  0.48 338:  0.03 339:  1.04 340:  0.08 341:  1.29 342:  0.07 343:  0.01 344:  0.04
 345:  0.50 346:  1.34 347:  0.67 348:  0.02 349:  0.59 350:  0.03 351:  0.61 352:  0.16
 353:  0.63 354:  0.11 355:  0.02 356:  1.37 357:  1.22 358:  0.79 359:  0.01 360:  0.00
 361:  0.19 362:  0.34 363:  1.01 364:  1.88 365:  0.04 366:  0.02 367:  0.12 368:  0.52
 369:  0.04 370:  0.49 371:  0.00 372:  0.61 373:  0.01 374:  0.60 375:  1.12 376:  0.13
 377:  0.89 378:  0.18 379:  0.05 380:  0.67 381:  0.02 382:  0.42 383:  0.15 384:  0.50
 385:  0.10 386:  0.39 387:  0.17 388:  2.00 389:  0.05 390:  0.14 391:  1.41 392:  1.35
 393:  0.25 394:  0.23 395:  0.08 396:  0.64 397:  0.21 398:  0.45 399:  0.55 400:  0.54
 401:  0.61 402:  0.52 403:  0.92 404:  0.98 405:  0.90 406:  0.96 407:  0.01 408:  0.01
 409:  0.04 410:  0.06 411:  0.03 412:  0.08 413:  0.04 414:  0.05 415:  0.11 416:  0.09
 417:  0.13 418:  0.13 419:  0.04 420:  0.04 421:  0.11 422:  0.13 423:  0.13 424:  0.12
 425:  0.12 426:  0.13 427:  0.08 428:  0.09 429:  0.08 430:  0.08 431:  0.11 432:  0.09
 433:  0.15 434:  0.16 435:  0.15 436:  0.17 437:  0.06 438:  0.19 439:  0.05 440:  0.05
 441:  0.08 442:  0.15 443:  0.29 444:  0.07 445:  0.22 446:  0.24 447:  0.31 448:  0.29
 449:  0.35 450:  0.37 451:  0.11 452:  0.09 453:  0.08 454:  0.12 455:  0.15 456:  0.15
 457:  0.07 458:  0.09 459:  0.01 460:  0.01 461:  0.01 462:  0.01
 Raman intensities (amu)
   1:  0.00   2:  0.00   3:  0.00   4:  0.00   5:  0.00   6:  0.00   7:  0.00   8:  0.00
   9:  0.00  10:  0.00  11:  0.00  12:  0.00  13:  0.00  14:  0.00  15:  0.00  16:  0.00
  17:  0.00  18:  0.00  19:  0.00  20:  0.00  21:  0.00  22:  0.00  23:  0.00  24:  0.00
  25:  0.00  26:  0.00  27:  0.00  28:  0.00  29:  0.00  30:  0.00  31:  0.00  32:  0.00
  33:  0.00  34:  0.00  35:  0.00  36:  0.00  37:  0.00  38:  0.00  39:  0.00  40:  0.00
  41:  0.00  42:  0.00  43:  0.00  44:  0.00  45:  0.00  46:  0.00  47:  0.00  48:  0.00
  49:  0.00  50:  0.00  51:  0.00  52:  0.00  53:  0.00  54:  0.00  55:  0.00  56:  0.00
  57:  0.00  58:  0.00  59:  0.00  60:  0.00  61:  0.00  62:  0.00  63:  0.00  64:  0.00
  65:  0.00  66:  0.00  67:  0.00  68:  0.00  69:  0.00  70:  0.00  71:  0.00  72:  0.00
  73:  0.00  74:  0.00  75:  0.00  76:  0.00  77:  0.00  78:  0.00  79:  0.00  80:  0.00
  81:  0.00  82:  0.00  83:  0.00  84:  0.00  85:  0.00  86:  0.00  87:  0.00  88:  0.00
  89:  0.00  90:  0.00  91:  0.00  92:  0.00  93:  0.00  94:  0.00  95:  0.00  96:  0.00
  97:  0.00  98:  0.00  99:  0.00 100:  0.00 101:  0.00 102:  0.00 103:  0.00 104:  0.00
 105:  0.00 106:  0.00 107:  0.00 108:  0.00 109:  0.00 110:  0.00 111:  0.00 112:  0.00
 113:  0.00 114:  0.00 115:  0.00 116:  0.00 117:  0.00 118:  0.00 119:  0.00 120:  0.00
 121:  0.00 122:  0.00 123:  0.00 124:  0.00 125:  0.00 126:  0.00 127:  0.00 128:  0.00
 129:  0.00 130:  0.00 131:  0.00 132:  0.00 133:  0.00 134:  0.00 135:  0.00 136:  0.00
 137:  0.00 138:  0.00 139:  0.00 140:  0.00 141:  0.00 142:  0.00 143:  0.00 144:  0.00
 145:  0.00 146:  0.00 147:  0.00 148:  0.00 149:  0.00 150:  0.00 151:  0.00 152:  0.00
 153:  0.00 154:  0.00 155:  0.00 156:  0.00 157:  0.00 158:  0.00 159:  0.00 160:  0.00
 161:  0.00 162:  0.00 163:  0.00 164:  0.00 165:  0.00 166:  0.00 167:  0.00 168:  0.00
 169:  0.00 170:  0.00 171:  0.00 172:  0.00 173:  0.00 174:  0.00 175:  0.00 176:  0.00
 177:  0.00 178:  0.00 179:  0.00 180:  0.00 181:  0.00 182:  0.00 183:  0.00 184:  0.00
 185:  0.00 186:  0.00 187:  0.00 188:  0.00 189:  0.00 190:  0.00 191:  0.00 192:  0.00
 193:  0.00 194:  0.00 195:  0.00 196:  0.00 197:  0.00 198:  0.00 199:  0.00 200:  0.00
 201:  0.00 202:  0.00 203:  0.00 204:  0.00 205:  0.00 206:  0.00 207:  0.00 208:  0.00
 209:  0.00 210:  0.00 211:  0.00 212:  0.00 213:  0.00 214:  0.00 215:  0.00 216:  0.00
 217:  0.00 218:  0.00 219:  0.00 220:  0.00 221:  0.00 222:  0.00 223:  0.00 224:  0.00
 225:  0.00 226:  0.00 227:  0.00 228:  0.00 229:  0.00 230:  0.00 231:  0.00 232:  0.00
 233:  0.00 234:  0.00 235:  0.00 236:  0.00 237:  0.00 238:  0.00 239:  0.00 240:  0.00
 241:  0.00 242:  0.00 243:  0.00 244:  0.00 245:  0.00 246:  0.00 247:  0.00 248:  0.00
 249:  0.00 250:  0.00 251:  0.00 252:  0.00 253:  0.00 254:  0.00 255:  0.00 256:  0.00
 257:  0.00 258:  0.00 259:  0.00 260:  0.00 261:  0.00 262:  0.00 263:  0.00 264:  0.00
 265:  0.00 266:  0.00 267:  0.00 268:  0.00 269:  0.00 270:  0.00 271:  0.00 272:  0.00
 273:  0.00 274:  0.00 275:  0.00 276:  0.00 277:  0.00 278:  0.00 279:  0.00 280:  0.00
 281:  0.00 282:  0.00 283:  0.00 284:  0.00 285:  0.00 286:  0.00 287:  0.00 288:  0.00
 289:  0.00 290:  0.00 291:  0.00 292:  0.00 293:  0.00 294:  0.00 295:  0.00 296:  0.00
 297:  0.00 298:  0.00 299:  0.00 300:  0.00 301:  0.00 302:  0.00 303:  0.00 304:  0.00
 305:  0.00 306:  0.00 307:  0.00 308:  0.00 309:  0.00 310:  0.00 311:  0.00 312:  0.00
 313:  0.00 314:  0.00 315:  0.00 316:  0.00 317:  0.00 318:  0.00 319:  0.00 320:  0.00
 321:  0.00 322:  0.00 323:  0.00 324:  0.00 325:  0.00 326:  0.00 327:  0.00 328:  0.00
 329:  0.00 330:  0.00 331:  0.00 332:  0.00 333:  0.00 334:  0.00 335:  0.00 336:  0.00
 337:  0.00 338:  0.00 339:  0.00 340:  0.00 341:  0.00 342:  0.00 343:  0.00 344:  0.00
 345:  0.00 346:  0.00 347:  0.00 348:  0.00 349:  0.00 350:  0.00 351:  0.00 352:  0.00
 353:  0.00 354:  0.00 355:  0.00 356:  0.00 357:  0.00 358:  0.00 359:  0.00 360:  0.00
 361:  0.00 362:  0.00 363:  0.00 364:  0.00 365:  0.00 366:  0.00 367:  0.00 368:  0.00
 369:  0.00 370:  0.00 371:  0.00 372:  0.00 373:  0.00 374:  0.00 375:  0.00 376:  0.00
 377:  0.00 378:  0.00 379:  0.00 380:  0.00 381:  0.00 382:  0.00 383:  0.00 384:  0.00
 385:  0.00 386:  0.00 387:  0.00 388:  0.00 389:  0.00 390:  0.00 391:  0.00 392:  0.00
 393:  0.00 394:  0.00 395:  0.00 396:  0.00 397:  0.00 398:  0.00 399:  0.00 400:  0.00
 401:  0.00 402:  0.00 403:  0.00 404:  0.00 405:  0.00 406:  0.00 407:  0.00 408:  0.00
 409:  0.00 410:  0.00 411:  0.00 412:  0.00 413:  0.00 414:  0.00 415:  0.00 416:  0.00
 417:  0.00 418:  0.00 419:  0.00 420:  0.00 421:  0.00 422:  0.00 423:  0.00 424:  0.00
 425:  0.00 426:  0.00 427:  0.00 428:  0.00 429:  0.00 430:  0.00 431:  0.00 432:  0.00
 433:  0.00 434:  0.00 435:  0.00 436:  0.00 437:  0.00 438:  0.00 439:  0.00 440:  0.00
 441:  0.00 442:  0.00 443:  0.00 444:  0.00 445:  0.00 446:  0.00 447:  0.00 448:  0.00
 449:  0.00 450:  0.00 451:  0.00 452:  0.00 453:  0.00 454:  0.00 455:  0.00 456:  0.00
 457:  0.00 458:  0.00 459:  0.00 460:  0.00 461:  0.00 462:  0.00
 output can be read by thermo (or use thermo option).
 writing <g98.out> molden fake output.
 recommended (thermochemical) frequency scaling factor: 1.0
           -------------------------------------------------
          |             Thermodynamic Functions             |
           -------------------------------------------------

Refinement of some symmetry elements was terminated before convergence was reached.
Some symmetry elements may remain unidentified.
Molecule has no symmetry elements
It seems to be the C1 point group
c1  symmetry found (for desy threshold:  0.10E+00) used in thermo

          ...................................................
          :                      SETUP                      :
          :.................................................:
          :  # frequencies                         456      :
          :  # imaginary freq.                       0      :
          :  linear?                             false      :
          :  only rotor calc.                    false      :
          :  symmetry                               c1      :
          :  rotational number                       1      :
          :  scaling factor                  1.0000000      :
          :  rotor cutoff                   50.0000000 cm⁻¹ :
          :  imag. cutoff                  -20.0000000 cm⁻¹ :
          :.................................................:

    mode    ω/cm⁻¹     T·S(HO)/kcal·mol⁻¹    T·S(FR)/kcal·mol⁻¹   T·S(vib)
   ------------------------------------------------------------------------
       1      6.33    -2.65908 (  0.03%)    -1.66863 ( 99.97%)    -1.66888
       2      9.32    -2.43000 (  0.12%)    -1.55408 ( 99.88%)    -1.55514
       3     12.65    -2.24910 (  0.41%)    -1.46361 ( 99.59%)    -1.46682
       4     18.22    -2.03320 (  1.73%)    -1.35561 ( 98.27%)    -1.36735
       5     18.61    -2.02066 (  1.88%)    -1.34934 ( 98.12%)    -1.36198
       6     19.79    -1.98426 (  2.39%)    -1.33113 ( 97.61%)    -1.34677
       7     20.79    -1.95515 (  2.90%)    -1.31656 ( 97.10%)    -1.33508
       8     26.10    -1.82049 (  6.91%)    -1.24916 ( 93.09%)    -1.28863
       9     27.23    -1.79545 (  8.08%)    -1.23663 ( 91.92%)    -1.28178
      10     29.61    -1.74569 ( 10.96%)    -1.21171 ( 89.04%)    -1.27022
      11     32.72    -1.68663 ( 15.50%)    -1.18212 ( 84.50%)    -1.26034
      12     33.79    -1.66771 ( 17.26%)    -1.17264 ( 82.74%)    -1.25807
      13     37.01    -1.61397 ( 23.08%)    -1.14571 ( 76.92%)    -1.25378
      14     40.77    -1.55671 ( 30.66%)    -1.11699 ( 69.34%)    -1.25180
      15     41.29    -1.54924 ( 31.74%)    -1.11325 ( 68.26%)    -1.25165
      16     44.01    -1.51157 ( 37.51%)    -1.09434 ( 62.49%)    -1.25085
      17     52.35    -1.40924 ( 54.58%)    -1.04295 ( 45.42%)    -1.24286
      18     55.32    -1.37668 ( 59.98%)    -1.02658 ( 40.02%)    -1.23657
      19     59.28    -1.33606 ( 66.39%)    -1.00613 ( 33.61%)    -1.22517
      20     60.48    -1.32426 ( 68.15%)    -1.00020 ( 31.85%)    -1.22106
      21     63.13    -1.29901 ( 71.76%)    -0.98748 ( 28.24%)    -1.21104
      22     65.29    -1.27919 ( 74.41%)    -0.97749 ( 25.59%)    -1.20199
      23     68.15    -1.25407 ( 77.53%)    -0.96482 ( 22.47%)    -1.18908
      24     68.28    -1.25289 ( 77.67%)    -0.96423 ( 22.33%)    -1.18844
      25     70.76    -1.23195 ( 80.05%)    -0.95366 ( 19.95%)    -1.17643
      26     75.90    -1.19089 ( 84.15%)    -0.93291 ( 15.85%)    -1.15000
      27     78.95    -1.16779 ( 86.14%)    -0.92122 ( 13.86%)    -1.13362
      28     83.53    -1.13478 ( 88.62%)    -0.90451 ( 11.38%)    -1.10859
      29     83.80    -1.13293 ( 88.75%)    -0.90357 ( 11.25%)    -1.10713
      30     92.54    -1.07505 ( 92.15%)    -0.87419 (  7.85%)    -1.05928
      31     99.17    -1.03473 ( 93.93%)    -0.85367 (  6.07%)    -1.02375
      32    101.12    -1.02345 ( 94.36%)    -0.84792 (  5.64%)    -1.01355
      33    102.66    -1.01463 ( 94.67%)    -0.84342 (  5.33%)    -1.00551
      34    107.68    -0.98694 ( 95.56%)    -0.82928 (  4.44%)    -0.97994
      35    108.38    -0.98320 ( 95.67%)    -0.82736 (  4.33%)    -0.97644
      36    113.53    -0.95636 ( 96.37%)    -0.81362 (  3.63%)    -0.95118
      37    118.35    -0.93233 ( 96.91%)    -0.80129 (  3.09%)    -0.92829
      38    118.92    -0.92961 ( 96.97%)    -0.79989 (  3.03%)    -0.92568
      39    131.94    -0.86985 ( 97.98%)    -0.76909 (  2.02%)    -0.86782
      40    133.22    -0.86433 ( 98.05%)    -0.76623 (  1.95%)    -0.86242
      41    136.63    -0.84989 ( 98.24%)    -0.75876 (  1.76%)    -0.84829
      42    140.00    -0.83598 ( 98.40%)    -0.75154 (  1.60%)    -0.83463
      43    140.63    -0.83340 ( 98.43%)    -0.75019 (  1.57%)    -0.83209
      44    144.33    -0.81862 ( 98.58%)    -0.74251 (  1.42%)    -0.81754
      45    145.65    -0.81345 ( 98.63%)    -0.73982 (  1.37%)    -0.81244
      46    151.44    -0.79132 ( 98.83%)    -0.72827 (  1.17%)    -0.79058
      47    161.31    -0.75562 ( 99.09%)    -0.70956 (  0.91%)    -0.75520
      48    164.18    -0.74571 ( 99.15%)    -0.70434 (  0.85%)    -0.74536
      49    165.04    -0.74276 ( 99.16%)    -0.70279 (  0.84%)    -0.74242
      50    170.61    -0.72412 ( 99.27%)    -0.69295 (  0.73%)    -0.72389
      51    171.23    -0.72211 ( 99.28%)    -0.69188 (  0.72%)    -0.72189
      52    176.99    -0.70360 ( 99.37%)    -0.68207 (  0.63%)    -0.70346
      53    177.68    -0.70145 ( 99.38%)    -0.68093 (  0.62%)    -0.70132
      54    182.38    -0.68692 ( 99.44%)    -0.67319 (  0.56%)    -0.68684
      55    185.59    -0.67722 ( 99.48%)    -0.66802 (  0.52%)    -0.67717
      56    195.65    -0.64808 ( 99.58%)    -0.65239 (  0.42%)    -0.64809
      57    195.81    -0.64762 ( 99.58%)    -0.65215 (  0.42%)    -0.64764
      58    199.04    -0.63862 ( 99.60%)    -0.64729 (  0.40%)    -0.63865
      59    199.65    -0.63695 ( 99.61%)    -0.64639 (  0.39%)    -0.63698
      60    202.99    -0.62786 ( 99.63%)    -0.64148 (  0.37%)    -0.62791
      61    210.65    -0.60763 ( 99.68%)    -0.63050 (  0.32%)    -0.60771
      62    214.18    -0.59862 ( 99.70%)    -0.62558 (  0.30%)    -0.59870
      63    221.62    -0.58014 ( 99.74%)    -0.61546 (  0.26%)    -0.58023
      64    237.18    -0.54380 ( 99.80%)    -0.59536 (  0.20%)    -0.54390
      65    242.75    -0.53148 ( 99.82%)    -0.58848 (  0.18%)    -0.53159
      66    247.29    -0.52171 ( 99.83%)    -0.58300 (  0.17%)    -0.52181
      67    250.90    -0.51407 ( 99.84%)    -0.57870 (  0.16%)    -0.51417
      68    253.30    -0.50910 ( 99.85%)    -0.57589 (  0.15%)    -0.50920
      69    267.10    -0.48147 ( 99.88%)    -0.56016 (  0.12%)    -0.48157
      70    275.06    -0.46636 ( 99.89%)    -0.55146 (  0.11%)    -0.46645
      71    276.76    -0.46322 ( 99.89%)    -0.54965 (  0.11%)    -0.46331
      72    280.15    -0.45699 ( 99.90%)    -0.54603 (  0.10%)    -0.45708
   ------------------------------------------------------------------------

   temp. (K)  partition function   enthalpy   heat capacity  entropy
                                   cal/mol     cal/K/mol   cal/K/mol   J/K/mol
 298.15  VIB  0.288E+40            50181.136    323.850    315.695
         ROT  0.553E+09              888.752      2.981     42.986
         INT  0.159E+49            51069.889    326.831    358.681
         TR   0.528E+29             1481.254      4.968     47.643
         TOT                       52551.1424   331.7993   406.3246  1700.0619

       T/K    H(0)-H(T)+PV         H(T)/Eh          T*S/Eh         G(T)/Eh
   ------------------------------------------------------------------------
    298.15    0.837456E-01    0.122915E+01    0.193058E+00    0.103610E+01
   ------------------------------------------------------------------------

         :::::::::::::::::::::::::::::::::::::::::::::::::::::
         ::                  THERMODYNAMIC                  ::
         :::::::::::::::::::::::::::::::::::::::::::::::::::::
         :: total free energy        -247.228549550468 Eh   ::
         ::.................................................::
         :: total energy             -248.264645148141 Eh   ::
         :: zero point energy           1.145407928978 Eh   ::
         :: G(RRHO) w/o ZPVE           -0.109312331305 Eh   ::
         :: G(RRHO) contrib.            1.036095597673 Eh   ::
         :::::::::::::::::::::::::::::::::::::::::::::::::::::

           -------------------------------------------------
          | TOTAL ENERGY             -248.264645148141 Eh   |
          | TOTAL ENTHALPY           -247.035491643038 Eh   |
          | TOTAL FREE ENERGY        -247.228549550468 Eh   |
          | GRADIENT NORM               0.000612778839 Eh/α |
          | HOMO-LUMO GAP               2.143157065350 eV   |
           -------------------------------------------------

------------------------------------------------------------------------
 * finished run on 2021/06/21 at 21:58:04.245     
------------------------------------------------------------------------
 total:
 * wall-time:     0 d,  0 h,  6 min, 36.822 sec
 *  cpu-time:     0 d,  0 h, 38 min, 14.069 sec
 * ratio c/w:     5.781 speedup
 SCF:
 * wall-time:     0 d,  0 h,  0 min,  0.823 sec
 *  cpu-time:     0 d,  0 h,  0 min,  4.340 sec
 * ratio c/w:     5.275 speedup
 numerical hessian:
 * wall-time:     0 d,  0 h,  6 min, 35.251 sec
 *  cpu-time:     0 d,  0 h, 38 min,  8.779 sec
 * ratio c/w:     5.791 speedup

