 Entering Gaussian System, Link 0=g16
 Initial command:
 /apps/gaussian/g16-c01-avx/g16/l1.exe "/rds/general/ephemeral/user/atarzia/ephemeral/unsymm/single_point_dft/s_5a3_d/Gau-2661544.inp" -scrdir="/rds/general/ephemeral/user/atarzia/ephemeral/unsymm/single_point_dft/s_5a3_d/"
 Entering Link 1 = /apps/gaussian/g16-c01-avx/g16/l1.exe PID=   2661552.
  
 Copyright (c) 1988-2019, Gaussian, Inc.  All Rights Reserved.
  
 This is part of the Gaussian(R) 16 program.  It is based on
 the Gaussian(R) 09 system (copyright 2009, Gaussian, Inc.),
 the Gaussian(R) 03 system (copyright 2003, Gaussian, Inc.),
 the Gaussian(R) 98 system (copyright 1998, Gaussian, Inc.),
 the Gaussian(R) 94 system (copyright 1995, Gaussian, Inc.),
 the Gaussian 92(TM) system (copyright 1992, Gaussian, Inc.),
 the Gaussian 90(TM) system (copyright 1990, Gaussian, Inc.),
 the Gaussian 88(TM) system (copyright 1988, Gaussian, Inc.),
 the Gaussian 86(TM) system (copyright 1986, Carnegie Mellon
 University), and the Gaussian 82(TM) system (copyright 1983,
 Carnegie Mellon University). Gaussian is a federally registered
 trademark of Gaussian, Inc.
  
 This software contains proprietary and confidential information,
 including trade secrets, belonging to Gaussian, Inc.
  
 This software is provided under written license and may be
 used, copied, transmitted, or stored only in accord with that
 written license.
  
 The following legend is applicable only to US Government
 contracts under FAR:
  
                    RESTRICTED RIGHTS LEGEND
  
 Use, reproduction and disclosure by the US Government is
 subject to restrictions as set forth in subparagraphs (a)
 and (c) of the Commercial Computer Software - Restricted
 Rights clause in FAR 52.227-19.
  
 Gaussian, Inc.
 340 Quinnipiac St., Bldg. 40, Wallingford CT 06492
  
  
 ---------------------------------------------------------------
 Warning -- This program may not be used in any manner that
 competes with the business of Gaussian, Inc. or will provide
 assistance to any competitor of Gaussian, Inc.  The licensee
 of this program is prohibited from giving any competitor of
 Gaussian, Inc. access to this program.  By using this program,
 the user acknowledges that Gaussian, Inc. is engaged in the
 business of creating and licensing software in the field of
 computational chemistry and represents and warrants to the
 licensee that it is not a competitor of Gaussian, Inc. and that
 it will not use this program in any manner prohibited above.
 ---------------------------------------------------------------
  

 Cite this work as:
 Gaussian 16, Revision C.01,
 M. J. Frisch, G. W. Trucks, H. B. Schlegel, G. E. Scuseria, 
 M. A. Robb, J. R. Cheeseman, G. Scalmani, V. Barone, 
 G. A. Petersson, H. Nakatsuji, X. Li, M. Caricato, A. V. Marenich, 
 J. Bloino, B. G. Janesko, R. Gomperts, B. Mennucci, H. P. Hratchian, 
 J. V. Ortiz, A. F. Izmaylov, J. L. Sonnenberg, D. Williams-Young, 
 F. Ding, F. Lipparini, F. Egidi, J. Goings, B. Peng, A. Petrone, 
 T. Henderson, D. Ranasinghe, V. G. Zakrzewski, J. Gao, N. Rega, 
 G. Zheng, W. Liang, M. Hada, M. Ehara, K. Toyota, R. Fukuda, 
 J. Hasegawa, M. Ishida, T. Nakajima, Y. Honda, O. Kitao, H. Nakai, 
 T. Vreven, K. Throssell, J. A. Montgomery, Jr., J. E. Peralta, 
 F. Ogliaro, M. J. Bearpark, J. J. Heyd, E. N. Brothers, K. N. Kudin, 
 V. N. Staroverov, T. A. Keith, R. Kobayashi, J. Normand, 
 K. Raghavachari, A. P. Rendell, J. C. Burant, S. S. Iyengar, 
 J. Tomasi, M. Cossi, J. M. Millam, M. Klene, C. Adamo, R. Cammi, 
 J. W. Ochterski, R. L. Martin, K. Morokuma, O. Farkas, 
 J. B. Foresman, and D. J. Fox, Gaussian, Inc., Wallingford CT, 2019.
 
 ******************************************
 Gaussian 16:  ES64L-G16RevC.01  3-Jul-2019
                26-Feb-2021 
 ******************************************
 %chk=_s_5a3_d.chk
 %mem=60000mb
 %nprocshared=32
 Will use up to   32 processors via shared memory.
 ----------------------------------------------------------------------
 #P PBE1PBE/Def2SVP SP SCF=(YQC,MaxCycle=900) int=(Grid=Superfinegrid) 
 EmpiricalDispersion=GD3BJ SCRF=(PCM,Solvent=DiMethylSulfoxide)
 ----------------------------------------------------------------------
 1/38=1,172=1/1;
 2/12=2,17=6,18=5,40=1/2;
 3/5=43,7=101,11=2,25=1,30=1,70=2201,72=21,74=-13,75=-7,124=41/1,2,3;
 4//1;
 5/5=2,7=900,8=4,13=1,38=1,53=21/8,2,8;
 6/7=2,8=2,9=2,10=2,28=1/1;
 99/5=1,9=1/99;
 Leave Link    1 at Fri Feb 26 11:53:53 2021, MaxMem=  7864320000 cpu:               3.8 elap:               0.1
 (Enter /apps/gaussian/g16-c01-avx/g16/l101.exe)
 --------
 _s_5a3_d
 --------
 Symbolic Z-matrix:
 Charge =  4 Multiplicity = 1
 Pd                   -0.1518    5.3088   -0.0747 
 Pd                    0.3189   -7.9791    0.059 
 C                     7.2635   -4.5239   -0.1198 
 C                     6.8936   -5.6751   -0.0943 
 C                     6.4214   -7.0009   -0.064 
 C                     7.295    -8.0744   -0.0604 
 C                     6.82     -9.3905   -0.0303 
 C                     5.4749   -9.6564   -0.0036 
 C                     4.5509   -8.5901   -0.0064 
 C                     3.1577   -8.796     0.0203 
 N                     2.294    -7.8047    0.0181 
 C                     2.7313   -6.5193   -0.0108 
 C                     4.0613   -6.2118   -0.0382 
 C                     5.0193   -7.2461   -0.0367 
 H                     8.3587   -7.8913   -0.0811 
 H                     7.5318   -10.2017  -0.0283 
 H                     5.1153   -10.6728   0.0195 
 H                     2.7578   -9.8058    0.044 
 H                     1.9574   -5.75     -0.011 
 H                     4.3981   -5.1879   -0.0611 
 C                     7.683    -3.1787   -0.15 
 C                     9.0654   -2.873    -0.1862 
 C                     9.4803   -1.5734   -0.2161 
 C                     8.5498   -0.5115   -0.2118 
 C                     8.955     0.8408   -0.2426 
 C                     8.0371    1.85     -0.2378 
 C                     6.652     1.5526   -0.2012 
 C                     6.227     0.2406   -0.1705 
 C                     7.1601   -0.8136   -0.1752 
 C                     6.7522   -2.1603   -0.1448 
 H                     9.7819   -3.6809   -0.1897 
 H                     10.5349  -1.3388   -0.2438 
 H                     10.0119   1.064    -0.2703 
 H                     8.3537    2.8818   -0.2616 
 H                     5.1726    0.0124   -0.1428 
 H                     5.6978   -2.3889   -0.1171 
 C                     5.7239    2.612    -0.1966 
 C                     4.9317    3.5258   -0.1921 
 C                     4.0529    4.6244   -0.1882 
 C                     4.5453    5.9366   -0.226 
 C                     3.6512    6.992    -0.2197 
 C                     2.2919    6.7256   -0.1759 
 N                     1.8253    5.4722   -0.1402 
 C                     2.6665    4.443    -0.1457 
 H                     5.6096    6.1098   -0.2594 
 H                     4.0028    8.0107   -0.2482 
 H                     1.5523    7.5266   -0.1691 
 H                     2.2322    3.4479   -0.1154 
 C                     0.1776    2.1814    7.0181 
 C                     0.1321    3.3139    6.596 
 C                     0.0773    4.6159    6.0637 
 C                     0.0741    5.7286    6.8868 
 C                     0.0193    7.0209    6.3521 
 C                    -0.0332    7.2238    4.9968 
 C                    -0.0321    6.1158    4.1231 
 C                    -0.0845    6.2566    2.7225 
 N                    -0.0834    5.2265    1.9056 
 C                    -0.0302    3.9632    2.4011 
 C                     0.0231    3.718     3.7433 
 C                     0.0237    4.7954    4.6524 
 H                     0.1147    5.5953    7.9572 
 H                     0.0188    7.8641    7.0256 
 H                    -0.0754    8.222     4.5911 
 H                    -0.1281    7.2464    2.2769 
 H                    -0.0328    3.1589    1.6637 
 H                     0.0649    2.7112    4.1266 
 C                     0.2299    0.8574    7.4985 
 C                     0.2722    0.6158    8.8934 
 C                     0.3222   -0.6628    9.3672 
 C                     0.3329   -1.7661    8.4862 
 C                     0.384    -3.0979    8.9527 
 C                     0.3933   -4.1479    8.0819 
 C                     0.3516   -3.9147    6.6847 
 C                     0.3013   -2.6242    6.2002 
 C                     0.2908   -1.5284    7.0842 
 C                     0.2395   -0.2024    6.6153 
 H                     0.2642    1.4556    9.5722 
 H                     0.3543   -0.8486    10.4313 
 H                     0.4158   -3.2721    10.0187 
 H                     0.4325   -5.1638    8.4452 
 H                     0.2695   -2.4448    5.1366 
 H                     0.2076   -0.0226    5.5516 
 C                     0.3624   -5.0155    5.8059 
 C                     0.3718   -5.9644    5.0564 
 C                     0.3855   -7.102     4.2288 
 C                     0.4362   -8.3899    4.781 
 C                     0.4488   -9.485     3.9362 
 C                     0.4111   -9.2816    2.5659 
 N                     0.3626   -8.0515    2.0421 
 C                     0.3495   -6.9849    2.8354 
 H                     0.4648   -8.5137    5.8523 
 H                     0.4876   -10.4861   4.3343 
 H                     0.4195   -10.1156   1.8637 
 H                     0.3098   -6.0111    2.3557 
 C                    -6.8533   -5.0227    0.1421 
 C                    -6.403    -6.1452    0.1443 
 C                    -5.838    -7.4346    0.1457 
 C                    -6.6334   -8.5671    0.1624 
 C                    -6.0661   -9.8466    0.1634 
 C                    -4.7054   -10.0169   0.1476 
 C                    -3.8593   -8.8879    0.1303 
 C                    -2.4549   -8.9949    0.1129 
 N                    -1.6638   -7.945     0.0966 
 C                    -2.1911   -6.6936    0.0965 
 C                    -3.5398   -6.4807    0.1123 
 C                    -4.4219   -7.5802    0.1295 
 H                    -7.7075   -8.4596    0.1748 
 H                    -6.7186   -10.7061   0.1767 
 H                    -4.2746   -11.0055   0.1483 
 H                    -1.9842   -9.974     0.1122 
 H                    -1.4738   -5.8714    0.0833 
 H                    -3.9484   -5.4831    0.1119 
 C                    -7.3669   -3.7102    0.1402 
 C                    -8.7677   -3.5024    0.1588 
 C                    -9.2735   -2.2351    0.1577 
 C                    -8.4203   -1.1103    0.1381 
 C                    -8.9202    0.2102    0.1369 
 C                    -8.0759    1.2816    0.1182 
 C                    -6.673     1.0822    0.0991 
 C                    -6.1561   -0.1967    0.0994 
 C                    -7.0124   -1.314     0.119 
 C                    -6.5103   -2.6288    0.1205 
 H                    -9.4254   -4.3588    0.174 
 H                    -10.3423  -2.0752    0.1719 
 H                    -9.9905    0.3586    0.1514 
 H                    -8.4647    2.2887    0.1176 
 H                    -5.088    -0.3502    0.085 
 H                    -5.4422   -2.7827    0.1061 
 C                    -5.822     2.2045    0.08 
 C                    -5.0967    3.172     0.0633 
 C                    -4.2979    4.3299    0.0433 
 C                    -4.8822    5.6045    0.0558 
 C                    -4.0651    6.7203    0.0337 
 C                    -2.6902    6.5503   -0.0008 
 N                    -2.1358    5.3327   -0.0123 
 C                    -2.902     4.2467    0.0091 
 H                    -5.9563    5.7022    0.0822 
 H                    -4.4881    7.7118    0.0428 
 H                    -2.0092    7.4014   -0.0196 
 H                    -2.3981    3.2845   -0.0013 
 C                    -0.3041    2.0232   -7.101 
 C                    -0.3318    3.1648   -6.7024 
 C                    -0.3617    4.4782   -6.1966 
 C                    -0.4409    5.5714   -7.0416 
 C                    -0.4708    6.8751   -6.5332 
 C                    -0.4227    7.1087   -5.1827 
 C                    -0.3416    6.0213   -4.2871 
 C                    -0.2901    6.1937   -2.8901 
 N                    -0.2148    5.1828   -2.053 
 C                    -0.1829    3.909    -2.523 
 C                    -0.2281    3.6335   -3.8596 
 C                    -0.31      4.6897   -4.7897 
 H                    -0.4802    5.4139   -8.1089 
 H                    -0.5328    7.7025   -7.2233 
 H                    -0.4463    8.1155   -4.7972 
 H                    -0.3126    7.193    -2.4645 
 H                    -0.1189    3.122    -1.7699 
 H                    -0.2025    2.6187   -4.2224 
 C                    -0.2711    0.6891   -7.5542 
 C                    -0.3173    0.4162   -8.9432 
 C                    -0.2852   -0.8724   -9.3908 
 C                    -0.2058   -1.9553   -8.4882 
 C                    -0.1707   -3.2967   -8.9276 
 C                    -0.0935   -4.3266   -8.0363 
 C                    -0.0475   -4.0621   -6.6448 
 C                    -0.0804   -2.7614   -6.1867 
 C                    -0.1594   -1.6862   -7.092 
 C                    -0.1937   -0.3503   -6.6502 
 H                    -0.3779    1.2403   -9.6385 
 H                    -0.3203   -1.082    -10.4504 
 H                    -0.2061   -3.4948   -9.9893 
 H                    -0.0668   -5.35     -8.3789 
 H                    -0.0452   -2.5582   -5.1274 
 H                    -0.1584   -0.1467   -5.5909 
 C                     0.0316   -5.1425   -5.7446 
 C                     0.0991   -6.0744   -4.9768 
 C                     0.1758   -7.193    -4.127 
 C                     0.2188   -8.4918   -4.6535 
 C                     0.2923   -9.5677   -3.7872 
 C                     0.3211   -9.3346   -2.4214 
 N                     0.2804   -8.0939   -1.9223 
 C                     0.2103   -7.0455   -2.7365 
 H                     0.1941   -8.639    -5.7219 
 H                     0.3266   -10.5767  -4.1652 
 H                     0.3781   -10.1526  -1.7029 
 H                     0.1802   -6.062    -2.2763 
 
 ITRead=  0  0  0  0  0  0  0  0  0  0  0  0  0  0  0  0  0  0  0  0
 ITRead=  0  0  0  0  0  0  0  0  0  0  0  0  0  0  0  0  0  0  0  0
 ITRead=  0  0  0  0  0  0  0  0  0  0  0  0  0  0  0  0  0  0  0  0
 ITRead=  0  0  0  0  0  0  0  0  0  0  0  0  0  0  0  0  0  0  0  0
 ITRead=  0  0  0  0  0  0  0  0  0  0  0  0  0  0  0  0  0  0  0  0
 ITRead=  0  0  0  0  0  0  0  0  0  0  0  0  0  0  0  0  0  0  0  0
 ITRead=  0  0  0  0  0  0  0  0  0  0  0  0  0  0  0  0  0  0  0  0
 ITRead=  0  0  0  0  0  0  0  0  0  0  0  0  0  0  0  0  0  0  0  0
 ITRead=  0  0  0  0  0  0  0  0  0  0  0  0  0  0  0  0  0  0  0  0
 ITRead=  0  0  0  0  0  0
 MicOpt= -1 -1 -1 -1 -1 -1 -1 -1 -1 -1 -1 -1 -1 -1 -1 -1 -1 -1 -1 -1
 MicOpt= -1 -1 -1 -1 -1 -1 -1 -1 -1 -1 -1 -1 -1 -1 -1 -1 -1 -1 -1 -1
 MicOpt= -1 -1 -1 -1 -1 -1 -1 -1 -1 -1 -1 -1 -1 -1 -1 -1 -1 -1 -1 -1
 MicOpt= -1 -1 -1 -1 -1 -1 -1 -1 -1 -1 -1 -1 -1 -1 -1 -1 -1 -1 -1 -1
 MicOpt= -1 -1 -1 -1 -1 -1 -1 -1 -1 -1 -1 -1 -1 -1 -1 -1 -1 -1 -1 -1
 MicOpt= -1 -1 -1 -1 -1 -1 -1 -1 -1 -1 -1 -1 -1 -1 -1 -1 -1 -1 -1 -1
 MicOpt= -1 -1 -1 -1 -1 -1 -1 -1 -1 -1 -1 -1 -1 -1 -1 -1 -1 -1 -1 -1
 MicOpt= -1 -1 -1 -1 -1 -1 -1 -1 -1 -1 -1 -1 -1 -1 -1 -1 -1 -1 -1 -1
 MicOpt= -1 -1 -1 -1 -1 -1 -1 -1 -1 -1 -1 -1 -1 -1 -1 -1 -1 -1 -1 -1
 MicOpt= -1 -1 -1 -1 -1 -1
 NAtoms=    186 NQM=      186 NQMF=       0 NMMI=      0 NMMIF=      0
                NMic=       0 NMicF=      0.
                    Isotopes and Nuclear Properties:
 (Nuclear quadrupole moments (NQMom) in fm**2, nuclear magnetic moments (NMagM)
  in nuclear magnetons)

  Atom         1           2           3           4           5           6           7           8           9          10
 IAtWgt=         106         106          12          12          12          12          12          12          12          12
 AtmWgt= 105.9032000 105.9032000  12.0000000  12.0000000  12.0000000  12.0000000  12.0000000  12.0000000  12.0000000  12.0000000
 NucSpn=           0           0           0           0           0           0           0           0           0           0
 AtZEff=  -0.0000000  -0.0000000  -0.0000000  -0.0000000  -0.0000000  -0.0000000  -0.0000000  -0.0000000  -0.0000000  -0.0000000
 NQMom=    0.0000000   0.0000000   0.0000000   0.0000000   0.0000000   0.0000000   0.0000000   0.0000000   0.0000000   0.0000000
 NMagM=    0.0000000   0.0000000   0.0000000   0.0000000   0.0000000   0.0000000   0.0000000   0.0000000   0.0000000   0.0000000
 AtZNuc=  46.0000000  46.0000000   6.0000000   6.0000000   6.0000000   6.0000000   6.0000000   6.0000000   6.0000000   6.0000000

  Atom        11          12          13          14          15          16          17          18          19          20
 IAtWgt=          14          12          12          12           1           1           1           1           1           1
 AtmWgt=  14.0030740  12.0000000  12.0000000  12.0000000   1.0078250   1.0078250   1.0078250   1.0078250   1.0078250   1.0078250
 NucSpn=           2           0           0           0           1           1           1           1           1           1
 AtZEff=  -0.0000000  -0.0000000  -0.0000000  -0.0000000  -0.0000000  -0.0000000  -0.0000000  -0.0000000  -0.0000000  -0.0000000
 NQMom=    2.0440000   0.0000000   0.0000000   0.0000000   0.0000000   0.0000000   0.0000000   0.0000000   0.0000000   0.0000000
 NMagM=    0.4037610   0.0000000   0.0000000   0.0000000   2.7928460   2.7928460   2.7928460   2.7928460   2.7928460   2.7928460
 AtZNuc=   7.0000000   6.0000000   6.0000000   6.0000000   1.0000000   1.0000000   1.0000000   1.0000000   1.0000000   1.0000000

  Atom        21          22          23          24          25          26          27          28          29          30
 IAtWgt=          12          12          12          12          12          12          12          12          12          12
 AtmWgt=  12.0000000  12.0000000  12.0000000  12.0000000  12.0000000  12.0000000  12.0000000  12.0000000  12.0000000  12.0000000
 NucSpn=           0           0           0           0           0           0           0           0           0           0
 AtZEff=  -0.0000000  -0.0000000  -0.0000000  -0.0000000  -0.0000000  -0.0000000  -0.0000000  -0.0000000  -0.0000000  -0.0000000
 NQMom=    0.0000000   0.0000000   0.0000000   0.0000000   0.0000000   0.0000000   0.0000000   0.0000000   0.0000000   0.0000000
 NMagM=    0.0000000   0.0000000   0.0000000   0.0000000   0.0000000   0.0000000   0.0000000   0.0000000   0.0000000   0.0000000
 AtZNuc=   6.0000000   6.0000000   6.0000000   6.0000000   6.0000000   6.0000000   6.0000000   6.0000000   6.0000000   6.0000000

  Atom        31          32          33          34          35          36          37          38          39          40
 IAtWgt=           1           1           1           1           1           1          12          12          12          12
 AtmWgt=   1.0078250   1.0078250   1.0078250   1.0078250   1.0078250   1.0078250  12.0000000  12.0000000  12.0000000  12.0000000
 NucSpn=           1           1           1           1           1           1           0           0           0           0
 AtZEff=  -0.0000000  -0.0000000  -0.0000000  -0.0000000  -0.0000000  -0.0000000  -0.0000000  -0.0000000  -0.0000000  -0.0000000
 NQMom=    0.0000000   0.0000000   0.0000000   0.0000000   0.0000000   0.0000000   0.0000000   0.0000000   0.0000000   0.0000000
 NMagM=    2.7928460   2.7928460   2.7928460   2.7928460   2.7928460   2.7928460   0.0000000   0.0000000   0.0000000   0.0000000
 AtZNuc=   1.0000000   1.0000000   1.0000000   1.0000000   1.0000000   1.0000000   6.0000000   6.0000000   6.0000000   6.0000000

  Atom        41          42          43          44          45          46          47          48          49          50
 IAtWgt=          12          12          14          12           1           1           1           1          12          12
 AtmWgt=  12.0000000  12.0000000  14.0030740  12.0000000   1.0078250   1.0078250   1.0078250   1.0078250  12.0000000  12.0000000
 NucSpn=           0           0           2           0           1           1           1           1           0           0
 AtZEff=  -0.0000000  -0.0000000  -0.0000000  -0.0000000  -0.0000000  -0.0000000  -0.0000000  -0.0000000  -0.0000000  -0.0000000
 NQMom=    0.0000000   0.0000000   2.0440000   0.0000000   0.0000000   0.0000000   0.0000000   0.0000000   0.0000000   0.0000000
 NMagM=    0.0000000   0.0000000   0.4037610   0.0000000   2.7928460   2.7928460   2.7928460   2.7928460   0.0000000   0.0000000
 AtZNuc=   6.0000000   6.0000000   7.0000000   6.0000000   1.0000000   1.0000000   1.0000000   1.0000000   6.0000000   6.0000000

  Atom        51          52          53          54          55          56          57          58          59          60
 IAtWgt=          12          12          12          12          12          12          14          12          12          12
 AtmWgt=  12.0000000  12.0000000  12.0000000  12.0000000  12.0000000  12.0000000  14.0030740  12.0000000  12.0000000  12.0000000
 NucSpn=           0           0           0           0           0           0           2           0           0           0
 AtZEff=  -0.0000000  -0.0000000  -0.0000000  -0.0000000  -0.0000000  -0.0000000  -0.0000000  -0.0000000  -0.0000000  -0.0000000
 NQMom=    0.0000000   0.0000000   0.0000000   0.0000000   0.0000000   0.0000000   2.0440000   0.0000000   0.0000000   0.0000000
 NMagM=    0.0000000   0.0000000   0.0000000   0.0000000   0.0000000   0.0000000   0.4037610   0.0000000   0.0000000   0.0000000
 AtZNuc=   6.0000000   6.0000000   6.0000000   6.0000000   6.0000000   6.0000000   7.0000000   6.0000000   6.0000000   6.0000000

  Atom        61          62          63          64          65          66          67          68          69          70
 IAtWgt=           1           1           1           1           1           1          12          12          12          12
 AtmWgt=   1.0078250   1.0078250   1.0078250   1.0078250   1.0078250   1.0078250  12.0000000  12.0000000  12.0000000  12.0000000
 NucSpn=           1           1           1           1           1           1           0           0           0           0
 AtZEff=  -0.0000000  -0.0000000  -0.0000000  -0.0000000  -0.0000000  -0.0000000  -0.0000000  -0.0000000  -0.0000000  -0.0000000
 NQMom=    0.0000000   0.0000000   0.0000000   0.0000000   0.0000000   0.0000000   0.0000000   0.0000000   0.0000000   0.0000000
 NMagM=    2.7928460   2.7928460   2.7928460   2.7928460   2.7928460   2.7928460   0.0000000   0.0000000   0.0000000   0.0000000
 AtZNuc=   1.0000000   1.0000000   1.0000000   1.0000000   1.0000000   1.0000000   6.0000000   6.0000000   6.0000000   6.0000000

  Atom        71          72          73          74          75          76          77          78          79          80
 IAtWgt=          12          12          12          12          12          12           1           1           1           1
 AtmWgt=  12.0000000  12.0000000  12.0000000  12.0000000  12.0000000  12.0000000   1.0078250   1.0078250   1.0078250   1.0078250
 NucSpn=           0           0           0           0           0           0           1           1           1           1
 AtZEff=  -0.0000000  -0.0000000  -0.0000000  -0.0000000  -0.0000000  -0.0000000  -0.0000000  -0.0000000  -0.0000000  -0.0000000
 NQMom=    0.0000000   0.0000000   0.0000000   0.0000000   0.0000000   0.0000000   0.0000000   0.0000000   0.0000000   0.0000000
 NMagM=    0.0000000   0.0000000   0.0000000   0.0000000   0.0000000   0.0000000   2.7928460   2.7928460   2.7928460   2.7928460
 AtZNuc=   6.0000000   6.0000000   6.0000000   6.0000000   6.0000000   6.0000000   1.0000000   1.0000000   1.0000000   1.0000000

  Atom        81          82          83          84          85          86          87          88          89          90
 IAtWgt=           1           1          12          12          12          12          12          12          14          12
 AtmWgt=   1.0078250   1.0078250  12.0000000  12.0000000  12.0000000  12.0000000  12.0000000  12.0000000  14.0030740  12.0000000
 NucSpn=           1           1           0           0           0           0           0           0           2           0
 AtZEff=  -0.0000000  -0.0000000  -0.0000000  -0.0000000  -0.0000000  -0.0000000  -0.0000000  -0.0000000  -0.0000000  -0.0000000
 NQMom=    0.0000000   0.0000000   0.0000000   0.0000000   0.0000000   0.0000000   0.0000000   0.0000000   2.0440000   0.0000000
 NMagM=    2.7928460   2.7928460   0.0000000   0.0000000   0.0000000   0.0000000   0.0000000   0.0000000   0.4037610   0.0000000
 AtZNuc=   1.0000000   1.0000000   6.0000000   6.0000000   6.0000000   6.0000000   6.0000000   6.0000000   7.0000000   6.0000000

  Atom        91          92          93          94          95          96          97          98          99         100
 IAtWgt=           1           1           1           1          12          12          12          12          12          12
 AtmWgt=   1.0078250   1.0078250   1.0078250   1.0078250  12.0000000  12.0000000  12.0000000  12.0000000  12.0000000  12.0000000
 NucSpn=           1           1           1           1           0           0           0           0           0           0
 AtZEff=  -0.0000000  -0.0000000  -0.0000000  -0.0000000  -0.0000000  -0.0000000  -0.0000000  -0.0000000  -0.0000000  -0.0000000
 NQMom=    0.0000000   0.0000000   0.0000000   0.0000000   0.0000000   0.0000000   0.0000000   0.0000000   0.0000000   0.0000000
 NMagM=    2.7928460   2.7928460   2.7928460   2.7928460   0.0000000   0.0000000   0.0000000   0.0000000   0.0000000   0.0000000
 AtZNuc=   1.0000000   1.0000000   1.0000000   1.0000000   6.0000000   6.0000000   6.0000000   6.0000000   6.0000000   6.0000000

  Atom       101         102         103         104         105         106         107         108         109         110
 IAtWgt=          12          12          14          12          12          12           1           1           1           1
 AtmWgt=  12.0000000  12.0000000  14.0030740  12.0000000  12.0000000  12.0000000   1.0078250   1.0078250   1.0078250   1.0078250
 NucSpn=           0           0           2           0           0           0           1           1           1           1
 AtZEff=  -0.0000000  -0.0000000  -0.0000000  -0.0000000  -0.0000000  -0.0000000  -0.0000000  -0.0000000  -0.0000000  -0.0000000
 NQMom=    0.0000000   0.0000000   2.0440000   0.0000000   0.0000000   0.0000000   0.0000000   0.0000000   0.0000000   0.0000000
 NMagM=    0.0000000   0.0000000   0.4037610   0.0000000   0.0000000   0.0000000   2.7928460   2.7928460   2.7928460   2.7928460
 AtZNuc=   6.0000000   6.0000000   7.0000000   6.0000000   6.0000000   6.0000000   1.0000000   1.0000000   1.0000000   1.0000000

  Atom       111         112         113         114         115         116         117         118         119         120
 IAtWgt=           1           1          12          12          12          12          12          12          12          12
 AtmWgt=   1.0078250   1.0078250  12.0000000  12.0000000  12.0000000  12.0000000  12.0000000  12.0000000  12.0000000  12.0000000
 NucSpn=           1           1           0           0           0           0           0           0           0           0
 AtZEff=  -0.0000000  -0.0000000  -0.0000000  -0.0000000  -0.0000000  -0.0000000  -0.0000000  -0.0000000  -0.0000000  -0.0000000
 NQMom=    0.0000000   0.0000000   0.0000000   0.0000000   0.0000000   0.0000000   0.0000000   0.0000000   0.0000000   0.0000000
 NMagM=    2.7928460   2.7928460   0.0000000   0.0000000   0.0000000   0.0000000   0.0000000   0.0000000   0.0000000   0.0000000
 AtZNuc=   1.0000000   1.0000000   6.0000000   6.0000000   6.0000000   6.0000000   6.0000000   6.0000000   6.0000000   6.0000000

  Atom       121         122         123         124         125         126         127         128         129         130
 IAtWgt=          12          12           1           1           1           1           1           1          12          12
 AtmWgt=  12.0000000  12.0000000   1.0078250   1.0078250   1.0078250   1.0078250   1.0078250   1.0078250  12.0000000  12.0000000
 NucSpn=           0           0           1           1           1           1           1           1           0           0
 AtZEff=  -0.0000000  -0.0000000  -0.0000000  -0.0000000  -0.0000000  -0.0000000  -0.0000000  -0.0000000  -0.0000000  -0.0000000
 NQMom=    0.0000000   0.0000000   0.0000000   0.0000000   0.0000000   0.0000000   0.0000000   0.0000000   0.0000000   0.0000000
 NMagM=    0.0000000   0.0000000   2.7928460   2.7928460   2.7928460   2.7928460   2.7928460   2.7928460   0.0000000   0.0000000
 AtZNuc=   6.0000000   6.0000000   1.0000000   1.0000000   1.0000000   1.0000000   1.0000000   1.0000000   6.0000000   6.0000000

  Atom       131         132         133         134         135         136         137         138         139         140
 IAtWgt=          12          12          12          12          14          12           1           1           1           1
 AtmWgt=  12.0000000  12.0000000  12.0000000  12.0000000  14.0030740  12.0000000   1.0078250   1.0078250   1.0078250   1.0078250
 NucSpn=           0           0           0           0           2           0           1           1           1           1
 AtZEff=  -0.0000000  -0.0000000  -0.0000000  -0.0000000  -0.0000000  -0.0000000  -0.0000000  -0.0000000  -0.0000000  -0.0000000
 NQMom=    0.0000000   0.0000000   0.0000000   0.0000000   2.0440000   0.0000000   0.0000000   0.0000000   0.0000000   0.0000000
 NMagM=    0.0000000   0.0000000   0.0000000   0.0000000   0.4037610   0.0000000   2.7928460   2.7928460   2.7928460   2.7928460
 AtZNuc=   6.0000000   6.0000000   6.0000000   6.0000000   7.0000000   6.0000000   1.0000000   1.0000000   1.0000000   1.0000000

  Atom       141         142         143         144         145         146         147         148         149         150
 IAtWgt=          12          12          12          12          12          12          12          12          14          12
 AtmWgt=  12.0000000  12.0000000  12.0000000  12.0000000  12.0000000  12.0000000  12.0000000  12.0000000  14.0030740  12.0000000
 NucSpn=           0           0           0           0           0           0           0           0           2           0
 AtZEff=  -0.0000000  -0.0000000  -0.0000000  -0.0000000  -0.0000000  -0.0000000  -0.0000000  -0.0000000  -0.0000000  -0.0000000
 NQMom=    0.0000000   0.0000000   0.0000000   0.0000000   0.0000000   0.0000000   0.0000000   0.0000000   2.0440000   0.0000000
 NMagM=    0.0000000   0.0000000   0.0000000   0.0000000   0.0000000   0.0000000   0.0000000   0.0000000   0.4037610   0.0000000
 AtZNuc=   6.0000000   6.0000000   6.0000000   6.0000000   6.0000000   6.0000000   6.0000000   6.0000000   7.0000000   6.0000000

  Atom       151         152         153         154         155         156         157         158         159         160
 IAtWgt=          12          12           1           1           1           1           1           1          12          12
 AtmWgt=  12.0000000  12.0000000   1.0078250   1.0078250   1.0078250   1.0078250   1.0078250   1.0078250  12.0000000  12.0000000
 NucSpn=           0           0           1           1           1           1           1           1           0           0
 AtZEff=  -0.0000000  -0.0000000  -0.0000000  -0.0000000  -0.0000000  -0.0000000  -0.0000000  -0.0000000  -0.0000000  -0.0000000
 NQMom=    0.0000000   0.0000000   0.0000000   0.0000000   0.0000000   0.0000000   0.0000000   0.0000000   0.0000000   0.0000000
 NMagM=    0.0000000   0.0000000   2.7928460   2.7928460   2.7928460   2.7928460   2.7928460   2.7928460   0.0000000   0.0000000
 AtZNuc=   6.0000000   6.0000000   1.0000000   1.0000000   1.0000000   1.0000000   1.0000000   1.0000000   6.0000000   6.0000000

  Atom       161         162         163         164         165         166         167         168         169         170
 IAtWgt=          12          12          12          12          12          12          12          12           1           1
 AtmWgt=  12.0000000  12.0000000  12.0000000  12.0000000  12.0000000  12.0000000  12.0000000  12.0000000   1.0078250   1.0078250
 NucSpn=           0           0           0           0           0           0           0           0           1           1
 AtZEff=  -0.0000000  -0.0000000  -0.0000000  -0.0000000  -0.0000000  -0.0000000  -0.0000000  -0.0000000  -0.0000000  -0.0000000
 NQMom=    0.0000000   0.0000000   0.0000000   0.0000000   0.0000000   0.0000000   0.0000000   0.0000000   0.0000000   0.0000000
 NMagM=    0.0000000   0.0000000   0.0000000   0.0000000   0.0000000   0.0000000   0.0000000   0.0000000   2.7928460   2.7928460
 AtZNuc=   6.0000000   6.0000000   6.0000000   6.0000000   6.0000000   6.0000000   6.0000000   6.0000000   1.0000000   1.0000000

  Atom       171         172         173         174         175         176         177         178         179         180
 IAtWgt=           1           1           1           1          12          12          12          12          12          12
 AtmWgt=   1.0078250   1.0078250   1.0078250   1.0078250  12.0000000  12.0000000  12.0000000  12.0000000  12.0000000  12.0000000
 NucSpn=           1           1           1           1           0           0           0           0           0           0
 AtZEff=  -0.0000000  -0.0000000  -0.0000000  -0.0000000  -0.0000000  -0.0000000  -0.0000000  -0.0000000  -0.0000000  -0.0000000
 NQMom=    0.0000000   0.0000000   0.0000000   0.0000000   0.0000000   0.0000000   0.0000000   0.0000000   0.0000000   0.0000000
 NMagM=    2.7928460   2.7928460   2.7928460   2.7928460   0.0000000   0.0000000   0.0000000   0.0000000   0.0000000   0.0000000
 AtZNuc=   1.0000000   1.0000000   1.0000000   1.0000000   6.0000000   6.0000000   6.0000000   6.0000000   6.0000000   6.0000000

  Atom       181         182         183         184         185         186
 IAtWgt=          14          12           1           1           1           1
 AtmWgt=  14.0030740  12.0000000   1.0078250   1.0078250   1.0078250   1.0078250
 NucSpn=           2           0           1           1           1           1
 AtZEff=  -0.0000000  -0.0000000  -0.0000000  -0.0000000  -0.0000000  -0.0000000
 NQMom=    2.0440000   0.0000000   0.0000000   0.0000000   0.0000000   0.0000000
 NMagM=    0.4037610   0.0000000   2.7928460   2.7928460   2.7928460   2.7928460
 AtZNuc=   7.0000000   6.0000000   1.0000000   1.0000000   1.0000000   1.0000000
 Leave Link  101 at Fri Feb 26 11:53:54 2021, MaxMem=  7864320000 cpu:               5.9 elap:               0.2
 (Enter /apps/gaussian/g16-c01-avx/g16/l202.exe)
 Stoichiometry    C112H64N8Pd2(4+)
 Framework group  C1[X(C112H64N8Pd2)]
 Deg. of freedom   552
 Full point group                 C1      NOp   1
 Largest Abelian subgroup         C1      NOp   1
 Largest concise Abelian subgroup C1      NOp   1
                         Standard orientation:                         
 ---------------------------------------------------------------------
 Center     Atomic      Atomic             Coordinates (Angstroms)
 Number     Number       Type             X           Y           Z
 ---------------------------------------------------------------------
      1         46           0        6.648328   -0.009899   -0.004370
      2         46           0       -6.648578   -0.008072    0.000136
      3          6           0       -3.442126   -5.035025   -4.964364
      4          6           0       -4.579570   -4.746581   -4.671517
      5          6           0       -5.887886   -4.381524   -4.301814
      6          6           0       -6.991899   -4.982446   -4.881159
      7          6           0       -8.290419   -4.615538   -4.509846
      8          6           0       -8.508338   -3.649622   -3.561043
      9          6           0       -7.409727   -3.012460   -2.946341
     10          6           0       -7.565968   -2.013622   -1.965512
     11          7           0       -6.544467   -1.418151   -1.390527
     12          6           0       -5.275290   -1.757536   -1.734516
     13          6           0       -5.015253   -2.713382   -2.674169
     14          6           0       -6.083088   -3.375357   -3.313747
     15          1           0       -6.846728   -5.745684   -5.630696
     16          1           0       -9.126515   -5.106600   -4.983671
     17          1           0       -9.511419   -3.371412   -3.279364
     18          1           0       -8.561020   -1.706813   -1.655804
     19          1           0       -4.478864   -1.221300   -1.215960
     20          1           0       -4.003865   -2.975438   -2.940158
     21          6           0       -2.112542   -5.362563   -5.298098
     22          6           0       -1.856089   -6.350303   -6.280134
     23          6           0       -0.571912   -6.673219   -6.609695
     24          6           0        0.522464   -6.036081   -5.985293
     25          6           0        1.859660   -6.353069   -6.309755
     26          6           0        2.900917   -5.723688   -5.692736
     27          6           0        2.652851   -4.734536   -4.708698
     28          6           0        1.356635   -4.404440   -4.371396
     29          6           0        0.269865   -5.043440   -4.998010
     30          6           0       -1.061635   -4.724403   -4.672080
     31          1           0       -2.689001   -6.841100   -6.761241
     32          1           0       -0.374882   -7.426730   -7.358952
     33          1           0        2.045216   -7.107875   -7.060395
     34          1           0        3.920930   -5.970733   -5.945628
     35          1           0        1.165994   -3.651283   -3.622388
     36          1           0       -1.252676   -3.971233   -3.923065
     37          6           0        3.744640   -4.099264   -4.085685
     38          6           0        4.686074   -3.557720   -3.553647
     39          6           0        5.815281   -2.959006   -2.965719
     40          6           0        7.109358   -3.333110   -3.354517
     41          6           0        8.195918   -2.723535   -2.753576
     42          6           0        7.977838   -1.759063   -1.782589
     43          7           0        6.741619   -1.404152   -1.414075
     44          6           0        5.683123   -1.976768   -1.978521
     45          1           0        7.244741   -4.087726   -4.113514
     46          1           0        9.201636   -2.992305   -3.033716
     47          1           0        8.804647   -1.253556   -1.283084
     48          1           0        4.703926   -1.650029   -1.640627
     49          6           0        3.441065   -5.023951    4.972547
     50          6           0        4.578592   -4.737769    4.677713
     51          6           0        5.886927   -4.374611    4.306327
     52          6           0        6.990824   -4.974757    4.886706
     53          6           0        8.289489   -4.609632    4.513746
     54          6           0        8.507548   -3.646189    3.562435
     55          6           0        7.408923   -3.009877    2.946685
     56          6           0        7.565369   -2.013322    1.963500
     57          7           0        6.544028   -1.418622    1.387630
     58          6           0        5.274789   -1.756580    1.732728
     59          6           0        5.014561   -2.710208    2.674714
     60          6           0        6.082195   -3.371095    3.315526
     61          1           0        6.845565   -5.735929    5.638165
     62          1           0        9.125457   -5.100034    4.988353
     63          1           0        9.510587   -3.369281    3.279574
     64          1           0        8.560459   -1.707685    1.652782
     65          1           0        4.478438   -1.221261    1.213188
     66          1           0        4.003163   -2.971141    2.941739
     67          6           0        2.111349   -5.348884    5.308358
     68          6           0        1.854589   -6.330894    6.296102
     69          6           0        0.570390   -6.651107    6.627913
     70          6           0       -0.523809   -6.016892    6.000182
     71          6           0       -1.861139   -6.331141    6.326863
     72          6           0       -2.902125   -5.704670    5.706572
     73          6           0       -2.653759   -4.721239    4.716892
     74          6           0       -1.357550   -4.393840    4.377312
     75          6           0       -0.270883   -5.030018    5.007214
     76          6           0        1.060681   -4.713783    4.679029
     77          1           0        2.687375   -6.819389    6.779772
     78          1           0        0.373032   -7.400062    7.381556
     79          1           0       -2.046913   -7.081565    7.081890
     80          1           0       -3.922325   -5.949666    5.961024
     81          1           0       -1.166604   -3.645237    3.623937
     82          1           0        1.252032   -3.965052    3.925644
     83          6           0       -3.745484   -4.088692    4.090646
     84          6           0       -4.686645   -3.549019    3.556585
     85          6           0       -5.815756   -2.952579    2.966153
     86          6           0       -7.110051   -3.326910    3.354560
     87          6           0       -8.196482   -2.719235    2.751659
     88          6           0       -7.978304   -1.756228    1.779275
     89          7           0       -6.742129   -1.401130    1.410978
     90          6           0       -5.683651   -1.972093    1.977332
     91          1           0       -7.245397   -4.080308    4.114758
     92          1           0       -9.202222   -2.988356    3.031391
     93          1           0       -8.805076   -1.252120    1.278241
     94          1           0       -4.704351   -1.645311    1.639456
     95          6           0       -3.438758    5.039795    4.940152
     96          6           0       -4.576598    4.748450    4.651674
     97          6           0       -5.885313    4.379932    4.286658
     98          6           0       -6.988779    4.982420    4.865335
     99          6           0       -8.287680    4.612185    4.498275
    100          6           0       -8.506326    3.641743    3.554245
    101          6           0       -7.408164    3.003010    2.940335
    102          6           0       -7.565100    1.999901    1.963998
    103          7           0       -6.544028    1.402961    1.390003
    104          6           0       -5.274646    1.744487    1.730704
    105          6           0       -5.013858    2.704830    2.665743
    106          6           0       -6.081253    3.368776    3.303819
    107          1           0       -6.843096    5.749392    5.610943
    108          1           0       -9.123405    5.104429    4.971489
    109          1           0       -9.509647    3.361187    3.275757
    110          1           0       -8.560339    1.691058    1.656895
    111          1           0       -4.478511    1.206397    1.213659
    112          1           0       -4.002340    2.968784    2.929030
    113          6           0       -2.108790    5.370622    5.269064
    114          6           0       -1.851264    6.366993    6.242045
    115          6           0       -0.566751    6.693093    6.566961
    116          6           0        0.526983    6.050930    5.946573
    117          6           0        1.864449    6.371076    6.266435
    118          6           0        2.905129    5.736498    5.653748
    119          6           0        2.655927    4.738672    4.678815
    120          6           0        1.359434    4.405452    4.345888
    121          6           0        0.273306    5.049618    4.968277
    122          6           0       -1.058546    4.727483    4.647020
    123          1           0       -2.683724    6.861601    6.720159
    124          1           0       -0.368911    7.453267    7.309320
    125          1           0        2.050848    7.132509    7.010244
    126          1           0        3.925435    5.985918    5.903111
    127          1           0        1.168017    3.645713    3.603753
    128          1           0       -1.250363    3.967757    3.904893
    129          6           0        3.747237    4.097843    4.060346
    130          6           0        4.688321    3.551600    3.532733
    131          6           0        5.817080    2.948083    2.948880
    132          6           0        7.111558    3.321525    3.337514
    133          6           0        8.197613    2.707558    2.740287
    134          6           0        7.978944    1.739667    1.772914
    135          7           0        6.742485    1.385356    1.404572
    136          6           0        5.684398    1.961912    1.965777
    137          1           0        7.247309    4.079190    4.093455
    138          1           0        9.203456    2.975622    3.020477
    139          1           0        8.805311    1.230810    1.276258
    140          1           0        4.704957    1.635107    1.628513
    141          6           0        3.440014    5.039991   -4.943255
    142          6           0        4.577871    4.748587   -4.654699
    143          6           0        5.886427    4.379434   -4.289796
    144          6           0        6.990074    4.982163   -4.867780
    145          6           0        8.288911    4.611539   -4.500821
    146          6           0        8.507257    3.640294   -3.557560
    147          6           0        7.408837    3.001200   -2.944251
    148          6           0        7.565443    1.997517   -1.968507
    149          7           0        6.544258    1.400353   -1.395008
    150          6           0        5.274848    1.742141   -1.735985
    151          6           0        5.014390    2.703096   -2.670421
    152          6           0        6.082001    3.367516   -3.307683
    153          1           0        6.844656    5.749783   -5.612826
    154          1           0        9.124791    5.103977   -4.973559
    155          1           0        9.510390    3.359340   -3.278989
    156          1           0        8.560645    1.688434   -1.661451
    157          1           0        4.478644    1.203605   -1.219590
    158          1           0        4.002966    2.967251   -2.933749
    159          6           0        2.110140    5.371402   -5.271744
    160          6           0        1.852835    6.369032   -6.243577
    161          6           0        0.568407    6.695755   -6.568173
    162          6           0       -0.525525    6.052933   -5.948691
    163          6           0       -1.862905    6.373570   -6.268479
    164          6           0       -2.903682    5.738379   -5.656610
    165          6           0       -2.654788    4.739450   -4.682679
    166          6           0       -1.358344    4.405691   -4.350120
    167          6           0       -0.272095    5.050331   -4.971703
    168          6           0        1.059737    4.727644   -4.650627
    169          1           0        2.685419    6.864138   -6.720995
    170          1           0        0.370699    7.456740   -7.309611
    171          1           0       -2.049089    7.135840   -7.011435
    172          1           0       -3.923940    5.988127   -5.905880
    173          1           0       -1.167032    3.645049   -3.608858
    174          1           0        1.251445    3.966916   -3.909441
    175          6           0       -3.746187    4.098414   -4.064776
    176          6           0       -4.687462    3.551977   -3.537596
    177          6           0       -5.816449    2.948592   -2.953967
    178          6           0       -7.110678    3.322001   -3.343158
    179          6           0       -8.197044    2.708192   -2.746093
    180          6           0       -7.978660    1.740440   -1.778447
    181          7           0       -6.742301    1.386107   -1.409719
    182          6           0       -5.684054    1.962523   -1.970821
    183          1           0       -7.246314    4.079451   -4.099219
    184          1           0       -9.202832    2.976300   -3.026538
    185          1           0       -8.805250    1.231790   -1.281818
    186          1           0       -4.704713    1.635677   -1.633147
 ---------------------------------------------------------------------
 Rotational constants (GHZ):           0.0093471           0.0062743           0.0062238
 Leave Link  202 at Fri Feb 26 11:53:54 2021, MaxMem=  7864320000 cpu:               1.7 elap:               0.1
 (Enter /apps/gaussian/g16-c01-avx/g16/l301.exe)
 Standard basis: def2SVP (5D, 7F)
 Ernie: Thresh=  0.10000D-02 Tol=  0.10000D-05 Strict=F.
 There are  2192 symmetry adapted cartesian basis functions of A   symmetry.
 There are  2062 symmetry adapted basis functions of A   symmetry.
  2062 basis functions,  3578 primitive gaussians,  2192 cartesian basis functions
   412 alpha electrons      412 beta electrons
       nuclear repulsion energy     22632.2899154489 Hartrees.
 IExCor= 1009 DFT=T Ex+Corr=PBE1PBE ExCW=0 ScaHFX=  0.250000
 ScaDFX=  0.750000  0.750000  1.000000  1.000000 ScalE2=  1.000000  1.000000
 IRadAn=      7 IRanWt=     -1 IRanGd=            0 ICorTp=0 IEmpDi=141
 NAtoms=  186 NActive=  186 NUniq=  186 SFac= 1.00D+00 NAtFMM=   60 NAOKFM=T Big=T
 Integral buffers will be    131072 words long.
 Raffenetti 2 integral format.
 Two-electron integral symmetry is turned on.
 R6Disp:  Grimme-D3(BJ) Dispersion energy=       -0.2860174779 Hartrees.
 Nuclear repulsion after empirical dispersion term =    22632.0038979710 Hartrees.
 ------------------------------------------------------------------------------
 Polarizable Continuum Model (PCM)
 =================================
 Model                : PCM.
 Atomic radii         : UFF (Universal Force Field).
 Polarization charges : Total charges.
 Charge compensation  : None.
 Solution method      : On-the-fly selection.
 Cavity type          : Scaled VdW (van der Waals Surface) (Alpha=1.100).
 Cavity algorithm     : GePol (No added spheres)
                        Default sphere list used, NSphG=  186.
                        Lebedev-Laikov grids with approx.  5.0 points / Ang**2.
                        Smoothing algorithm: York/Karplus (Gamma=1.0000).
                        Polarization charges: spherical gaussians, with
                                              point-specific exponents (IZeta= 3).
                        Self-potential: point-specific (ISelfS= 7).
                        Self-field    : sphere-specific E.n sum rule (ISelfD= 2).
 Solvent              : DiMethylSulfoxide, Eps=  46.826000 Eps(inf)=   2.007889
 ------------------------------------------------------------------------------
 GePol: Number of generator spheres                  =     186
 GePol: Total number of spheres                      =     186
 GePol: Number of exposed spheres                    =     186 (100.00%)
 GePol: Number of points                             =   13435
 GePol: Average weight of points                     =       0.13
 GePol: Minimum weight of points                     =   0.22D-11
 GePol: Maximum weight of points                     =    0.20577
 GePol: Number of points with low weight             =    1007
 GePol: Fraction of low-weight points (<1% of avg)   =       7.50%
 GePol: Cavity surface area                          =   1762.351 Ang**2
 GePol: Cavity volume                                =   2091.710 Ang**3
 Leave Link  301 at Fri Feb 26 11:53:55 2021, MaxMem=  7864320000 cpu:               4.8 elap:               0.2
 (Enter /apps/gaussian/g16-c01-avx/g16/l302.exe)
 NPDir=0 NMtPBC=     1 NCelOv=     1 NCel=       1 NClECP=     1 NCelD=      1
         NCelK=      1 NCelE2=     1 NClLst=     1 CellRange=     0.0.
 One-electron integrals computed using PRISM.
 One-electron integral symmetry used in STVInt
   1 Symmetry operations used in ECPInt.
 ECPInt:  NShTT=  436645 NPrTT= 1619083 LenC2=  189318 LenP2D=  383355.
 LDataN:  DoStor=T MaxTD1= 7 Len=  274
 NBasis=  2062 RedAO= T EigKep=  2.39D-04  NBF=  2062
 NBsUse=  2062 1.00D-06 EigRej= -1.00D+00 NBFU=  2062
 Precomputing XC quadrature grid using
 IXCGrd= 4 IRadAn=           7 IRanWt=          -1 IRanGd=           0 AccXCQ= 0.00D+00.
 Generated NRdTot=       0 NPtTot=           0 NUsed=           0 NTot=          32
 NSgBfM=  1681  1645  1669  1670  1681 MxSgAt=   186 MxSgA2=   182.
 Leave Link  302 at Fri Feb 26 11:54:13 2021, MaxMem=  7864320000 cpu:             558.0 elap:              17.6
 (Enter /apps/gaussian/g16-c01-avx/g16/l303.exe)
 DipDrv:  MaxL=1.
 Leave Link  303 at Fri Feb 26 11:54:14 2021, MaxMem=  7864320000 cpu:              23.2 elap:               0.8
 (Enter /apps/gaussian/g16-c01-avx/g16/l401.exe)
 ExpMin= 3.70D-02 ExpMax= 1.71D+03 ExpMxC= 2.58D+02 IAcc=3 IRadAn=         7 AccDes= 0.00D+00
 Harris functional with IExCor= 1009 and IRadAn=       7 diagonalized for initial guess.
 HarFok:  IExCor= 1009 AccDes= 0.00D+00 IRadAn=         7 IDoV= 1 UseB2=F ITyADJ=14
 ICtDFT=  3500011 ScaDFX=  1.000000  1.000000  1.000000  1.000000
 FoFCou: FMM=F IPFlag=           0 FMFlag=      100000 FMFlg1=        2001
         NFxFlg=           0 DoJE=T BraDBF=F KetDBF=T FulRan=T
         wScrn=  0.000000 ICntrl=       500 IOpCl=  0 I1Cent=   200000004 NGrid=           0
         NMat0=    1 NMatS0=      1 NMatT0=    0 NMatD0=    1 NMtDS0=    0 NMtDT0=    0
 Petite list used in FoFCou.
 Harris En= -4992.99913134933    
 JPrj=0 DoOrth=F DoCkMO=F.
 Leave Link  401 at Fri Feb 26 11:54:47 2021, MaxMem=  7864320000 cpu:            1053.9 elap:              33.2
 (Enter /apps/gaussian/g16-c01-avx/g16/l508.exe)
 Integral symmetry usage will be decided dynamically.
 Tight linear equation convergence will be used.
 RPBE1PBE wavefunction.
 Linear searches until partial convergence.
 Full line searches.
 Fock matrices will be formed incrementally for  20 cycles.
 Inv3:  Mode=1 IEnd=   541497675.
 Iteration    1 A*A^-1 deviation from unit magnitude is 1.09D-14 for  13419.
 Iteration    1 A*A^-1 deviation from orthogonality  is 4.45D-15 for  13426  13397.
 Iteration    1 A^-1*A deviation from unit magnitude is 1.08D-14 for  13419.
 Iteration    1 A^-1*A deviation from orthogonality  is 6.22D-15 for  13426   7612.
 FoFJK:  IHMeth= 1 ICntrl=       0 DoSepK=F KAlg= 0 I1Cent=           0 FoldK=F
 IRaf= 390000000 NMat=       1 IRICut=       1 DoRegI=T DoRafI=F ISym2E= 1 IDoP0=0 IntGTp=1.
 Iteration   1 EE= -4961.95665818923                                    Grad=5.636D+00 Max rot=   41.5650 deg.
 Gradient too large for Newton-Raphson -- use scaled steepest descent instead.
 Alpha Gap=    -0.077 HL deriv= 1.19D-02
     ILin= 1 X=0.000D+00 Y=-4.961956658189D+03 DE= 0.00D+00 F= -9.33D+01
 RMSU=  1.51D-03    CP:  9.70D-01
     ILin= 2 X=2.000D-01 Y=-4.974966237663D+03 DE=-1.30D+01 F= -2.54D+01 OKLS=F
 RMSU=  9.53D-05    CP:  9.67D-01  1.09D+00
     ILin= 3 X=2.188D-01 Y=-4.975376499994D+03 DE=-1.34D+01 F= -1.84D+01
     Note:  rotation exceeds Pi/2.
 RMSU=  4.35D-04    CP:  9.54D-01  1.45D+00  3.00D+00
     ILin= 4 X=3.094D-01 Y=-4.975849300700D+03 DE=-1.39D+01 F=  4.93D+00
     Accept linear search using points  3 and  4.
     An  expanding polynomial of degree  4 produced  0.2526
 RMSU=  2.04D-05    CP:  9.62D-01  1.24D+00  3.00D+00  4.90D-02
 Iteration   2 EE= -4975.81014704529     Delta-E=      -13.853488856064 Grad=3.897D+00 Max rot=   35.6137 deg.
 Gradient too large for Newton-Raphson -- use scaled steepest descent instead.
 Alpha Gap=     0.090 HL deriv= 4.30D-02
     ILin= 1 X=0.000D+00 Y=-4.975810147045D+03 DE= 0.00D+00 F= -4.15D+01
 RMSU=  1.22D-03    CP:  9.43D-01  1.30D+00  2.15D+00  4.60D-01  3.00D+00
     ILin= 2 X=3.000D-01 Y=-4.982580504121D+03 DE=-6.77D+00 F= -4.24D+00 OKLS=F
 RMSU=  2.36D-04    CP:  9.36D-01  1.30D+00  3.00D+00  5.99D-01  3.00D+00
                    CP:  1.30D+00
     ILin= 3 X=4.000D-01 Y=-4.982568227538D+03 DE=-6.76D+00 F=  3.90D+00
     An  expanding polynomial of degree  3 produced  0.3489
 RMSU=  8.51D-06    CP:  9.40D-01  1.30D+00  2.52D+00  5.30D-01  3.00D+00
                    CP:  1.15D+00  4.36D-01
 Iteration   3 EE= -4982.67628474892     Delta-E=       -6.866137703626 Grad=2.021D+00 Max rot=   17.8817 deg.
 Gradient too large for Newton-Raphson -- use scaled steepest descent instead.
 Alpha Gap=     0.157 HL deriv= 2.63D-02
     ILin= 1 X=0.000D+00 Y=-4.982676284749D+03 DE= 0.00D+00 F= -1.64D+01
 RMSU=  8.71D-04    CP:  9.30D-01  1.28D+00  1.58D+00  4.20D-01  3.00D+00
                    CP:  1.17D+00  5.74D-01 -3.00D+00
     ILin= 2 X=3.000D-01 Y=-4.985382297860D+03 DE=-2.71D+00 F= -1.60D+00 OKLS=F
 RMSU=  1.46D-04    CP:  9.26D-01  1.27D+00  1.51D+00  3.71D-01  3.00D+00
                    CP:  1.16D+00  9.84D-01 -3.00D+00  1.28D+00
     ILin= 3 X=4.000D-01 Y=-4.985346820223D+03 DE=-2.67D+00 F=  2.09D+00
     An  expanding polynomial of degree  3 produced  0.3424
 RMSU=  3.43D-06    CP:  9.28D-01  1.28D+00  1.54D+00  3.99D-01  3.00D+00
                    CP:  1.17D+00  7.31D-01 -3.00D+00  1.13D+00  3.70D-01
 Iteration   4 EE= -4985.41276402980     Delta-E=       -2.736479280880 Grad=1.187D+00 Max rot=   12.8379 deg.
 Gradient too large for Newton-Raphson -- use scaled steepest descent instead.
 Alpha Gap=     0.146 HL deriv= 1.19D-02
     ILin= 1 X=0.000D+00 Y=-4.985412764030D+03 DE= 0.00D+00 F= -6.16D+00
 RMSU=  5.57D-04    CP:  9.23D-01  1.14D+00  8.86D-01  3.77D-01  3.00D+00
                    CP:  1.17D+00  5.26D-01 -3.00D+00  1.09D+00  5.29D-01
                    CP: -3.00D+00
     ILin= 2 X=3.000D-01 Y=-4.986743916608D+03 DE=-1.33D+00 F= -2.75D+00 OKLS=F
 RMSU=  1.17D-04    CP:  9.19D-01  1.05D+00  6.44D-01  3.63D-01  3.00D+00
                    CP:  1.15D+00  5.60D-01 -3.00D+00  1.02D+00  1.10D+00
                    CP: -3.00D+00  1.60D+00
     ILin= 3 X=5.000D-01 Y=-4.987097564887D+03 DE=-1.68D+00 F= -8.69D-01
 RMSU=  3.25D-05    CP:  9.14D-01  9.53D-01  5.35D-01  3.46D-01  3.00D+00
                    CP:  1.12D+00  7.19D-01 -3.00D+00  9.36D-01  1.96D+00
                    CP: -3.00D+00  2.07D+00  2.67D+00
     ILin= 4 X=7.000D-01 Y=-4.987122995623D+03 DE=-1.71D+00 F=  5.48D-01
     Accept linear search using points  3 and  4.
     An  expanding polynomial of degree  4 produced  0.5940
 RMSU=  4.60D-07    CP:  9.17D-01  1.00D+00  5.78D-01  3.56D-01  3.00D+00
                    CP:  1.14D+00  6.21D-01 -3.00D+00  9.83D-01  1.47D+00
                    CP: -3.00D+00  1.84D+00  1.71D+00  3.02D-01
 Iteration   5 EE= -4987.14477499855     Delta-E=       -1.732010968753 Grad=1.081D+00 Max rot=    6.6715 deg.
 Gradient too large for Newton-Raphson -- use scaled steepest descent instead.
 Alpha Gap=     0.083 HL deriv= 1.18D-02
     ILin= 1 X=0.000D+00 Y=-4.987144774999D+03 DE= 0.00D+00 F= -4.56D+00
 RMSU=  7.33D-04    CP:  9.14D-01  8.20D-01 -5.12D-01  2.10D-01  3.00D+00
                    CP:  8.62D-01  1.96D-01 -3.00D+00  9.04D-01  1.67D+00
                    CP: -3.00D+00  1.69D+00  1.72D+00  3.00D+00  3.00D+00
     ILin= 2 X=5.000D-01 Y=-4.988554634010D+03 DE=-1.41D+00 F= -5.24D-01 OKLS=T
     Reject lnstep IMin12=  1  2 Big=T Turn=F Min= 6.548D-01 FVal=-4.988662228981D+03 Lims=  0.00D+00  5.00D-01
 RMSU=  6.81D-05    CP:  9.13D-01  7.80D-01 -6.55D-01  1.82D-01  3.00D+00
                    CP:  8.05D-01  1.41D-01 -3.00D+00  8.83D-01  1.74D+00
                    CP: -3.00D+00  1.62D+00  1.84D+00  3.00D+00  3.00D+00
                    CP:  1.17D+00
     ILin= 3 X=6.000D-01 Y=-4.988548533226D+03 DE=-1.40D+00 F=  6.64D-01
     An  expanding polynomial of degree  3 produced  0.5436
     Minimum is close to point  2 DX=  4.36D-02 DF= -9.15D-03 DXR=  8.03D-02 DFR=  6.49D-03 which will be used.
 Iteration   6 EE= -4988.55463401049     Delta-E=       -1.409859011939 Grad=7.294D-01 Max rot=   11.9093 deg.
 Gradient too large for Newton-Raphson -- use scaled steepest descent instead.
 Alpha Gap=     0.246 HL deriv= 3.36D-03
     ILin= 1 X=0.000D+00 Y=-4.988554634010D+03 DE= 0.00D+00 F= -5.24D+00
 RMSU=  7.26D-04    CP:  9.10D-01  7.71D-01 -6.60D-01  1.66D-01  3.00D+00
                    CP:  7.72D-01  2.39D-01 -3.00D+00  8.85D-01  2.00D+00
                    CP: -3.00D+00  1.64D+00  3.00D+00  3.00D+00 -3.00D+00
                    CP:  8.95D-01  8.46D-01
     ILin= 2 X=4.000D-01 Y=-4.989367729620D+03 DE=-8.13D-01 F=  2.05D-01 OKLS=F
 RMSU=  1.65D-04    CP:  9.09D-01  7.62D-01 -6.86D-01  1.57D-01  3.00D+00
                    CP:  7.53D-01  2.14D-01 -3.00D+00  8.64D-01  2.05D+00
                    CP: -3.00D+00  1.59D+00  3.00D+00  3.00D+00 -3.00D+00
                    CP:  8.33D-01  1.21D+00  1.16D+00
     ILin= 3 X=5.000D-01 Y=-4.989308261710D+03 DE=-7.54D-01 F=  1.00D+00
     An  expanding polynomial of degree  3 produced  0.3934
     Minimum is close to point  2 DX= -6.58D-03 DF= -2.28D-04 DXR=  1.67D-02 DFR=  2.80D-04 which will be used.
 Iteration   7 EE= -4989.36772961990     Delta-E=       -0.813095609406 Grad=6.717D-01 Max rot=    4.5685 deg.
 Gradient too large for Newton-Raphson -- use scaled steepest descent instead.
 Alpha Gap=     0.187 HL deriv= 8.63D-03
     ILin= 1 X=0.000D+00 Y=-4.989367729620D+03 DE= 0.00D+00 F= -1.71D+00
 RMSU=  3.05D-04    CP:  9.09D-01  6.55D-01 -1.13D+00  1.07D-01  3.00D+00
                    CP:  6.16D-01  1.19D-01 -3.00D+00  7.71D-01  1.97D+00
                    CP: -3.00D+00  1.58D+00  3.00D+00  3.00D+00 -3.00D+00
                    CP:  1.12D+00  2.44D+00  9.15D-01 -1.23D-01
     ILin= 2 X=5.000D-01 Y=-4.989773836697D+03 DE=-4.06D-01 F=  1.87D-01 OKLS=T
     Accept linear search using points  1 and  2.
     An  expanding polynomial of degree  2 produced  0.3354
 Restarting incremental Fock formation.
 Iteration   8 EE= -4989.74751676903     Delta-E=       -0.379787149133 Grad=3.187D-01 Max rot=    2.1486 deg.
 Gradient too large for Newton-Raphson -- use scaled steepest descent instead.
 Alpha Gap=     0.321 HL deriv= 2.06D-03
     ILin= 1 X=0.000D+00 Y=-4.989747516769D+03 DE= 0.00D+00 F= -4.19D-01
 RMSU=  1.73D-04    CP:  9.98D-01
     ILin= 2 X=4.000D-01 Y=-4.989881070600D+03 DE=-1.34D-01 F= -2.49D-01 OKLS=F
 RMSU=  4.41D-06    CP:  9.98D-01  1.25D+00
     ILin= 3 X=5.000D-01 Y=-4.989903849749D+03 DE=-1.56D-01 F= -2.07D-01
 RMSU=  5.25D-06    CP:  9.97D-01  1.74D+00  3.00D+00
     ILin= 4 X=7.000D-01 Y=-4.989936819394D+03 DE=-1.89D-01 F= -1.23D-01
 RMSU=  3.82D-05    CP:  9.94D-01  2.69D+00  3.00D+00  3.00D+00
     ILin= 5 X=1.100D+00 Y=-4.989953384715D+03 DE=-2.06D-01 F=  3.92D-02
     Accept linear search using points  4 and  5.
     An  expanding polynomial of degree  5 produced  0.9106
 RMSU=  3.04D-07    CP:  9.95D-01  2.25D+00  3.00D+00  3.00D+00  3.08D-01
 Iteration   9 EE= -4989.95363605910     Delta-E=       -0.206119290066 Grad=2.271D-01 Max rot=    1.6181 deg.
 Gradient too large for Newton-Raphson -- use scaled steepest descent instead.
 Alpha Gap=     0.299 HL deriv= 2.52D-03
     ILin= 1 X=0.000D+00 Y=-4.989953636059D+03 DE= 0.00D+00 F= -1.82D-01
 RMSU=  1.67D-04    CP:  9.94D-01  2.29D+00  3.00D+00  3.00D+00  5.50D-01
                    CP: -3.00D+00
     ILin= 2 X=6.000D-01 Y=-4.989986436225D+03 DE=-3.28D-02 F=  7.42D-02 OKLS=T
     Accept linear search using points  1 and  2.
     An  expanding polynomial of degree  2 produced  0.3554
 RMSU=  2.65D-06    CP:  9.95D-01  2.28D+00  3.00D+00  3.00D+00  4.19D-01
                    CP: -3.00D+00  5.94D-01
 Iteration  10 EE= -4989.99169974835     Delta-E=       -0.038063689255 Grad=1.074D-01 Max rot=    0.7389 deg.
 Gradient too large for Newton-Raphson -- use scaled steepest descent instead.
 Alpha Gap=     0.339 HL deriv= 2.05D-03
     ILin= 1 X=0.000D+00 Y=-4.989991699748D+03 DE= 0.00D+00 F= -5.40D-02
 RMSU=  8.31D-05    CP:  9.94D-01  2.59D+00  3.00D+00  3.00D+00  1.01D+00
                    CP: -3.00D+00  7.02D-01 -1.87D+00
     ILin= 2 X=6.000D-01 Y=-4.990016199748D+03 DE=-2.45D-02 F= -2.66D-02 OKLS=F
 RMSU=  5.42D-06    CP:  9.94D-01  2.74D+00  3.00D+00  3.00D+00  1.39D+00
                    CP: -3.00D+00  7.55D-01 -3.00D+00  1.50D+00
     ILin= 3 X=9.000D-01 Y=-4.990021801709D+03 DE=-3.01D-02 F= -1.05D-02
 RMSU=  4.34D-06    CP:  9.93D-01  2.94D+00  3.00D+00  3.00D+00  1.98D+00
                    CP: -3.00D+00  8.26D-01 -3.00D+00  2.15D+00  3.00D+00
     ILin= 4 X=1.300D+00 Y=-4.990021401747D+03 DE=-2.97D-02 F=  1.29D-02
     An  expanding polynomial of degree  4 produced  1.0848
 RMSU=  1.07D-06    CP:  9.94D-01  2.83D+00  3.00D+00  3.00D+00  1.66D+00
                    CP: -3.00D+00  7.88D-01 -3.00D+00  1.80D+00  2.07D+00
                    CP:  2.17D-01
 Iteration  11 EE= -4990.02277993716     Delta-E=       -0.031080188812 Grad=1.662D-01 Max rot=    1.2121 deg.
 Gradient too large for Newton-Raphson -- use scaled steepest descent instead.
 Alpha Gap=     0.291 HL deriv= 3.14D-04
     ILin= 1 X=0.000D+00 Y=-4.990022779937D+03 DE= 0.00D+00 F= -9.69D-02
 RMSU=  7.36D-05    CP:  9.93D-01  2.78D+00  3.00D+00  3.00D+00  1.65D+00
                    CP: -3.00D+00  1.43D+00 -3.00D+00  1.42D+00  2.38D+00
                    CP:  7.64D-01  3.00D+00
     ILin= 2 X=6.000D-01 Y=-4.990035647287D+03 DE=-1.29D-02 F=  5.41D-02 OKLS=T
     Accept linear search using points  1 and  2.
     An  expanding polynomial of degree  2 produced  0.3352
 RMSU=  1.95D-06    CP:  9.93D-01  2.80D+00  3.00D+00  3.00D+00  1.63D+00
                    CP: -3.00D+00  1.15D+00 -3.00D+00  1.59D+00  2.04D+00
                    CP:  3.52D-01  2.47D+00  5.60D-01
 Iteration  12 EE= -4990.04114900729     Delta-E=       -0.018369070123 Grad=6.808D-02 Max rot=    0.7999 deg.
 Gradient too large for Newton-Raphson -- use scaled steepest descent instead.
 Alpha Gap=     0.327 HL deriv= 5.14D-04
     ILin= 1 X=0.000D+00 Y=-4.990041149007D+03 DE= 0.00D+00 F= -4.00D-02
 RMSU=  4.48D-05    CP:  9.93D-01  2.97D+00  3.00D+00  3.00D+00  2.35D+00
                    CP: -3.00D+00  1.18D+00 -3.00D+00  2.34D+00  3.00D+00
                    CP:  3.00D+00 -3.00D+00  1.41D+00 -7.80D-01
     ILin= 2 X=6.000D-01 Y=-4.990065922736D+03 DE=-2.48D-02 F= -4.10D-02 OKLS=F
 RMSU=  1.81D-05    CP:  9.92D-01  3.00D+00  3.00D+00  3.00D+00  2.78D+00
                    CP: -3.00D+00  1.20D+00 -3.00D+00  2.69D+00  3.00D+00
                    CP:  3.00D+00 -3.00D+00  1.80D+00  1.80D-01  1.56D+00
     ILin= 3 X=9.000D-01 Y=-4.990077862869D+03 DE=-3.67D-02 F= -3.82D-02
 RMSU=  2.98D-05    CP:  9.92D-01  3.00D+00  3.00D+00  3.00D+00  3.00D+00
                    CP: -3.00D+00  1.21D+00 -3.00D+00  3.00D+00  3.00D+00
                    CP:  3.00D+00 -3.00D+00  2.38D+00  2.32D+00  2.50D+00
                    CP:  3.00D+00
     ILin= 4 X=1.400D+00 Y=-4.990094994149D+03 DE=-5.38D-02 F= -2.96D-02
 RMSU=  5.90D-05    CP:  9.91D-01  3.00D+00  3.00D+00  3.00D+00  3.00D+00
                    CP: -3.00D+00  1.22D+00 -3.00D+00  3.00D+00  3.00D+00
                    CP:  3.00D+00 -3.00D+00  2.92D+00  3.00D+00  3.00D+00
                    CP:  3.00D+00  3.00D+00
     ILin= 5 X=2.000D+00 Y=-4.990108547262D+03 DE=-6.74D-02 F= -1.51D-02
 RMSU=  1.01D-04    CP:  9.90D-01  3.00D+00  3.00D+00  3.00D+00  3.00D+00
                    CP: -3.00D+00  1.20D+00 -3.00D+00  3.00D+00  3.00D+00
                    CP:  3.00D+00 -3.00D+00  3.00D+00  3.00D+00  3.00D+00
                    CP:  3.00D+00  3.00D+00  3.00D+00
     ILin= 6 X=3.000D+00 Y=-4.990111185801D+03 DE=-7.00D-02 F=  8.88D-03
     Accept linear search using points  5 and  6.
     An  expanding polynomial of degree  6 produced  2.6009
 RMSU=  2.20D-05    CP:  9.91D-01  3.00D+00  3.00D+00  3.00D+00  3.00D+00
                    CP: -3.00D+00  1.21D+00 -3.00D+00  3.00D+00  3.00D+00
                    CP:  3.00D+00 -3.00D+00  3.00D+00  3.00D+00  3.00D+00
                    CP:  3.00D+00  3.00D+00  2.56D+00  5.30D-01
 Iteration  13 EE= -4990.11302251418     Delta-E=       -0.071873506895 Grad=4.196D-01 Max rot=    2.9586 deg.
 Gradient too large for Newton-Raphson -- use scaled steepest descent instead.
 Alpha Gap=     0.217 HL deriv= 9.34D-03
     ILin= 1 X=0.000D+00 Y=-4.990113022514D+03 DE= 0.00D+00 F= -8.45D-01
 Restarting incremental Fock formation.
     ILin= 2 X=9.000D-01 Y=-4.990034133608D+03 DE= 7.89D-02 F=  9.50D-01 OKLS=T
     Reject lnstep IMin12=  1  2 Big=F Turn=F Min= 4.041D-01 FVal=-4.990300303225D+03 Lims=  0.00D+00  9.00D-01
 RMSU=  3.54D-04    CP:  1.00D+00
     ILin= 3 X=4.000D-01 Y=-4.990283224087D+03 DE=-1.70D-01 F=  2.46D-03
     A contracting polynomial of degree  3 produced  0.4073
     Minimum is close to point  3 DX=  7.30D-03 DF= -5.46D-05 DXR=  1.79D-02 DFR=  3.21D-04 which will be used.
 Iteration  14 EE= -4990.28322408667     Delta-E=       -0.170201572484 Grad=2.415D-01 Max rot=    3.0279 deg.
 Gradient too large for Newton-Raphson -- use scaled steepest descent instead.
 Alpha Gap=     0.348 HL deriv= 1.32D-03
     ILin= 1 X=0.000D+00 Y=-4.990283224087D+03 DE= 0.00D+00 F= -3.27D-01
 RMSU=  4.31D-04    CP:  1.00D+00  1.03D+00
     ILin= 2 X=1.000D+00 Y=-4.990316881929D+03 DE=-3.37D-02 F=  2.25D-01 OKLS=T
     Accept linear search using points  1 and  2.
     An  expanding polynomial of degree  2 produced  0.5455
 RMSU=  5.06D-05    CP:  1.00D+00  1.01D+00  5.47D-01
 Iteration  15 EE= -4990.37083795483     Delta-E=       -0.087613868160 Grad=2.409D-01 Max rot=    1.6174 deg.
 Gradient too large for Newton-Raphson -- use scaled steepest descent instead.
 Alpha Gap=     0.260 HL deriv= 1.88D-03
     ILin= 1 X=0.000D+00 Y=-4.990370837955D+03 DE= 0.00D+00 F= -2.49D-01
 RMSU=  9.00D-05    CP:  1.00D+00  5.66D-01  5.48D-01  5.99D-01
     ILin= 2 X=5.000D-01 Y=-4.990428295359D+03 DE=-5.75D-02 F=  2.22D-02 OKLS=T
     Accept linear search using points  1 and  2.
     An  expanding polynomial of degree  2 produced  0.3321
 RMSU=  3.62D-06    CP:  1.00D+00  7.15D-01  5.49D-01  8.05D-01  6.73D-01
 Iteration  16 EE= -4990.42419867861     Delta-E=       -0.053360723789 Grad=1.165D-01 Max rot=    1.7295 deg.
 Gradient too large for Newton-Raphson -- use scaled steepest descent instead.
 Alpha Gap=     0.314 HL deriv= 9.25D-04
     ILin= 1 X=0.000D+00 Y=-4.990424198679D+03 DE= 0.00D+00 F= -7.51D-02
 RMSU=  4.34D-05    CP:  1.00D+00  6.59D-01  6.77D-01  4.29D-01  9.66D-01
                    CP: -8.00D-01
     ILin= 2 X=4.000D-01 Y=-4.990450369727D+03 DE=-2.62D-02 F= -5.53D-02 OKLS=F
 RMSU=  2.85D-06    CP:  1.00D+00  6.34D-01  7.39D-01  1.71D-01  1.11D+00
                    CP: -2.08D+00  1.50D+00
     ILin= 3 X=6.000D-01 Y=-4.990460374607D+03 DE=-3.62D-02 F= -4.46D-02
 RMSU=  1.02D-05    CP:  9.99D-01  5.90D-01  8.54D-01 -4.76D-01  1.37D+00
                    CP: -3.00D+00  2.49D+00  3.00D+00
     ILin= 4 X=1.000D+00 Y=-4.990473708506D+03 DE=-4.95D-02 F= -2.18D-02
 RMSU=  3.19D-05    CP:  9.99D-01  5.51D-01  9.78D-01 -1.50D+00  1.66D+00
                    CP: -3.00D+00  3.00D+00  3.00D+00  3.00D+00
     ILin= 5 X=1.500D+00 Y=-4.990477102811D+03 DE=-5.29D-02 F=  8.44D-03
     Accept linear search using points  4 and  5.
     An  expanding polynomial of degree  5 produced  1.2814
 RMSU=  3.18D-06    CP:  9.99D-01  5.66D-01  9.27D-01 -1.03D+00  1.54D+00
                    CP: -3.00D+00  3.00D+00  3.00D+00  2.51D+00  2.43D-01
 Iteration  17 EE= -4990.47748190760     Delta-E=       -0.053283228983 Grad=1.898D-01 Max rot=    2.8352 deg.
 Gradient too large for Newton-Raphson -- use scaled steepest descent instead.
 Alpha Gap=     0.275 HL deriv= 5.42D-04
     ILin= 1 X=0.000D+00 Y=-4.990477481908D+03 DE= 0.00D+00 F= -1.43D-01
 RMSU=  1.37D-04    CP:  9.99D-01  3.83D-01  7.90D-01 -1.39D+00  2.66D+00
                    CP: -3.00D+00  2.66D+00  3.00D+00  3.00D+00  8.07D-02
                    CP: -3.00D+00
     ILin= 2 X=7.000D-01 Y=-4.990491859989D+03 DE=-1.44D-02 F=  1.02D-01 OKLS=T
     Accept linear search using points  1 and  2.
     An  expanding polynomial of degree  2 produced  0.3831
 RMSU=  1.03D-05    CP:  9.99D-01  4.66D-01  8.51D-01 -1.19D+00  2.19D+00
                    CP: -3.00D+00  2.91D+00  3.00D+00  3.00D+00  3.97D-02
                    CP: -2.30D+00  5.34D-01
 Iteration  18 EE= -4990.50670845123     Delta-E=       -0.029226543636 Grad=1.291D-01 Max rot=    3.7585 deg.
 Gradient too large for Newton-Raphson -- use scaled steepest descent instead.
 Alpha Gap=     0.316 HL deriv= 4.74D-05
     ILin= 1 X=0.000D+00 Y=-4.990506708451D+03 DE= 0.00D+00 F= -7.55D-02
 RMSU=  7.20D-05    CP:  9.98D-01  5.41D-01  9.21D-01 -1.56D+00  2.17D+00
                    CP: -3.00D+00  3.00D+00  3.00D+00  3.00D+00  3.00D+00
                    CP: -3.00D+00  7.93D-01 -1.70D+00
     ILin= 2 X=7.000D-01 Y=-4.990542436075D+03 DE=-3.57D-02 F= -2.54D-02 OKLS=F
 RMSU=  3.91D-05    CP:  9.98D-01  5.75D-01  9.46D-01 -1.76D+00  2.09D+00
                    CP: -3.00D+00  3.00D+00  3.00D+00  3.00D+00  3.00D+00
                    CP: -3.00D+00  8.97D-01 -3.00D+00  1.57D+00
     ILin= 3 X=1.000D+00 Y=-4.990546735716D+03 DE=-4.00D-02 F= -3.38D-03
 RMSU=  2.40D-05    CP:  9.98D-01  6.21D-01  9.73D-01 -2.07D+00  1.93D+00
                    CP: -3.00D+00  3.00D+00  3.00D+00  3.00D+00  3.00D+00
                    CP: -3.00D+00  1.02D+00 -3.00D+00  2.31D+00  2.34D+00
     ILin= 4 X=1.400D+00 Y=-4.990542542399D+03 DE=-3.58D-02 F=  2.38D-02
     An  expanding polynomial of degree  4 produced  1.0506
     Minimum is close to point  3 DX=  5.06D-02 DF= -9.07D-05 DXR=  4.82D-02 DFR=  2.27D-03 which will be used.
 Iteration  19 EE= -4990.54673571615     Delta-E=       -0.040027264920 Grad=2.485D-01 Max rot=    4.3437 deg.
 Gradient too large for Newton-Raphson -- use scaled steepest descent instead.
 Alpha Gap=     0.260 HL deriv= 1.94D-04
     ILin= 1 X=0.000D+00 Y=-4.990546735716D+03 DE= 0.00D+00 F= -2.20D-01
 RMSU=  7.00D-05    CP:  9.97D-01  4.14D-01  8.17D-01 -2.10D+00  2.88D+00
                    CP: -3.00D+00  3.00D+00  3.00D+00  3.00D+00  3.00D+00
                    CP: -3.00D+00  1.91D+00 -3.00D+00  1.33D+00  4.41D-01
                    CP:  2.03D+00
     ILin= 2 X=6.000D-01 Y=-4.990584121951D+03 DE=-3.74D-02 F=  1.00D-01 OKLS=T
     Accept linear search using points  1 and  2.
     An  expanding polynomial of degree  2 produced  0.3515
 RMSU=  3.47D-06    CP:  9.98D-01  4.80D-01  8.70D-01 -1.93D+00  2.58D+00
                    CP: -3.00D+00  3.00D+00  3.00D+00  3.00D+00  3.00D+00
                    CP: -3.00D+00  1.50D+00 -3.00D+00  1.45D+00  7.00D-01
                    CP:  9.94D-01  5.95D-01
 Iteration  20 EE= -4990.59214040216     Delta-E=       -0.045404686007 Grad=1.526D-01 Max rot=    5.3189 deg.
 Gradient too large for Newton-Raphson -- use scaled steepest descent instead.
 Alpha Gap=     0.302 HL deriv= 8.21D-05
     ILin= 1 X=0.000D+00 Y=-4.990592140402D+03 DE= 0.00D+00 F= -3.86D-01
 RMSU=  3.17D-04    CP:  9.97D-01  4.90D-01  9.68D-01 -2.19D+00  1.32D+00
                    CP: -3.00D+00  3.00D+00  3.00D+00  3.00D+00  3.00D+00
                    CP: -3.00D+00  1.59D+00 -3.00D+00  2.25D+00  1.44D+00
                    CP:  3.00D+00  1.52D+00  3.00D+00
     ILin= 2 X=6.000D-01 Y=-4.990768761021D+03 DE=-1.77D-01 F= -1.68D-01 OKLS=F
 RMSU=  1.32D-04    CP:  9.96D-01  5.01D-01  9.90D-01 -2.66D+00  4.61D-01
                    CP: -3.00D+00  2.82D+00  3.00D+00  3.00D+00  2.83D+00
                    CP: -3.00D+00  1.42D+00 -3.00D+00  2.16D+00  1.30D+00
                    CP:  3.00D+00  1.46D+00  3.00D+00  1.33D+00
     ILin= 3 X=9.000D-01 Y=-4.990796799426D+03 DE=-2.05D-01 F= -1.76D-02
 Restarting incremental Fock formation.
     ILin= 4 X=1.200D+00 Y=-4.990778038089D+03 DE=-1.86D-01 F=  1.45D-01
     An  expanding polynomial of degree  4 produced  0.9348
     Minimum is close to point  3 DX=  3.48D-02 DF= -3.18D-04 DXR=  3.73D-02 DFR=  1.55D-03 which will be used.
 Iteration  21 EE= -4990.79679942596     Delta-E=       -0.204659023799 Grad=2.373D-01 Max rot=    1.4582 deg.
 Gradient too large for Newton-Raphson -- use scaled steepest descent instead.
 Alpha Gap=     0.234 HL deriv= 1.34D-03
     ILin= 1 X=0.000D+00 Y=-4.990796799426D+03 DE= 0.00D+00 F= -1.74D-01
 RMSU=  2.64D-04    CP:  9.99D-01
     ILin= 2 X=6.000D-01 Y=-4.990835783389D+03 DE=-3.90D-02 F=  4.72D-02 OKLS=T
     Accept linear search using points  1 and  2.
     An  expanding polynomial of degree  2 produced  0.3831
 RMSU=  4.67D-05    CP:  9.99D-01  8.36D-01
 Iteration  22 EE= -4990.83707853804     Delta-E=       -0.040279112080 Grad=8.105D-02 Max rot=    1.0559 deg.
 Gradient too large for Newton-Raphson -- use scaled steepest descent instead.
 Alpha Gap=     0.276 HL deriv= 4.80D-04
     ILin= 1 X=0.000D+00 Y=-4.990837078538D+03 DE= 0.00D+00 F= -2.81D-02
 RMSU=  6.79D-05    CP:  9.99D-01  9.37D-01  4.96D-01
     ILin= 2 X=6.000D-01 Y=-4.990849056195D+03 DE=-1.20D-02 F= -1.19D-02 OKLS=F
 RMSU=  5.58D-06    CP:  9.98D-01  1.00D+00  1.50D-01  1.66D+00
     ILin= 3 X=1.000D+00 Y=-4.990851661681D+03 DE=-1.46D-02 F= -1.16D-03
 RMSU=  5.53D-06    CP:  9.98D-01  1.09D+00 -3.81D-01  2.63D+00  3.00D+00
     ILin= 4 X=1.600D+00 Y=-4.990847562200D+03 DE=-1.05D-02 F=  1.48D-02
     An  expanding polynomial of degree  4 produced  1.0434
     Minimum is close to point  3 DX=  4.34D-02 DF= -2.52D-05 DXR=  4.16D-02 DFR=  1.73D-03 which will be used.
 Iteration  23 EE= -4990.85166168087     Delta-E=       -0.014583142831 Grad=4.612D-02 Max rot=    0.3192 deg.
 Gradient too large for Newton-Raphson -- use scaled steepest descent instead.
 Alpha Gap=     0.271 HL deriv= 6.46D-04
     ILin= 1 X=0.000D+00 Y=-4.990851661681D+03 DE= 0.00D+00 F= -6.93D-03
 RMSU=  2.54D-05    CP:  9.98D-01  1.02D+00 -2.15D-01  1.60D+00  1.02D+00
                    CP: -6.07D-02
     ILin= 2 X=6.000D-01 Y=-4.990853052645D+03 DE=-1.39D-03 F=  2.31D-03 OKLS=T
     Accept linear search using points  1 and  2.
     An  expanding polynomial of degree  2 produced  0.3668
 RMSU=  7.47D-08    CP:  9.98D-01  1.01D+00 -7.33D-02  1.62D+00  9.97D-01
                    CP: -3.71D-02  6.12D-01
 Iteration  24 EE= -4990.85317152890     Delta-E=       -0.001509848029 Grad=1.820D-02 Max rot=    0.2003 deg.
 Gradient too large for Newton-Raphson -- use scaled steepest descent instead.
 Alpha Gap=     0.275 HL deriv= 4.50D-04
     ILin= 1 X=0.000D+00 Y=-4.990853171529D+03 DE= 0.00D+00 F= -1.34D-03
 RMSU=  9.30D-06    CP:  9.98D-01  9.95D-01 -1.60D-01  1.74D+00  1.16D+00
                    CP: -5.70D-02  9.71D-01  3.00D+00
     ILin= 2 X=6.000D-01 Y=-4.990853759771D+03 DE=-5.88D-04 F= -6.20D-04 OKLS=F
 RMSU=  2.62D-07    CP:  9.98D-01  9.80D-01 -2.47D-01  1.85D+00  1.38D+00
                    CP: -7.68D-02  1.33D+00  3.00D+00  2.00D+00
     ILin= 3 X=1.200D+00 Y=-4.990853916298D+03 DE=-7.45D-04 F=  9.85D-05
     Accept linear search using points  2 and  3.
     An  expanding polynomial of degree  3 produced  1.0117
 RMSU=  1.56D-08    CP:  9.98D-01  9.85D-01 -2.20D-01  1.81D+00  1.31D+00
                    CP: -7.06D-02  1.22D+00  3.00D+00  1.69D+00  5.64D-01
 Iteration  25 EE= -4990.85391361463     Delta-E=       -0.000742085729 Grad=1.362D-02 Max rot=    0.0583 deg.
 Gradient too large for Newton-Raphson -- use scaled steepest descent instead.
 Alpha Gap=     0.274 HL deriv= 2.15D-04
     ILin= 1 X=0.000D+00 Y=-4.990853913615D+03 DE= 0.00D+00 F= -6.34D-04
 RMSU=  5.59D-06    CP:  9.98D-01  9.91D-01 -2.95D-01  1.84D+00  1.43D+00
                    CP: -8.80D-02  1.40D+00  3.00D+00  1.39D+00  1.66D+00
                    CP: -1.02D+00
     ILin= 2 X=6.000D-01 Y=-4.990854004009D+03 DE=-9.04D-05 F=  3.33D-04 OKLS=T
[...]
 Alpha virt. eigenvalues --    2.28304   2.29142   2.29160   2.29226   2.29231
 Alpha virt. eigenvalues --    2.29238   2.29240   2.29367   2.29723   2.29732
 Alpha virt. eigenvalues --    2.29750   2.29768   2.30205   2.30620   2.30645
 Alpha virt. eigenvalues --    2.31241   2.32313   2.32314   2.32548   2.32562
 Alpha virt. eigenvalues --    2.32657   2.32715   2.32736   2.32939   2.32947
 Alpha virt. eigenvalues --    2.33122   2.33927   2.33943   2.34108   2.34110
 Alpha virt. eigenvalues --    2.34922   2.35272   2.35974   2.36092   2.36100
 Alpha virt. eigenvalues --    2.36400   2.36451   2.36478   2.36593   2.36655
 Alpha virt. eigenvalues --    2.36924   2.36935   2.36959   2.36998   2.37145
 Alpha virt. eigenvalues --    2.37430   2.37878   2.37893   2.37975   2.37994
 Alpha virt. eigenvalues --    2.38720   2.38734   2.38820   2.38861   2.39210
 Alpha virt. eigenvalues --    2.39257   2.39288   2.39335   2.39346   2.39424
 Alpha virt. eigenvalues --    2.39425   2.39740   2.40346   2.40642   2.40647
 Alpha virt. eigenvalues --    2.40652   2.40918   2.41405   2.41423   2.41433
 Alpha virt. eigenvalues --    2.42084   2.42084   2.42404   2.42622   2.43940
 Alpha virt. eigenvalues --    2.43966   2.44810   2.45007   2.46281   2.46284
 Alpha virt. eigenvalues --    2.46943   2.47019   2.47028   2.47168   2.47169
 Alpha virt. eigenvalues --    2.47347   2.47459   2.48070   2.49706   2.49720
 Alpha virt. eigenvalues --    2.49918   2.50526   2.51654   2.51880   2.52095
 Alpha virt. eigenvalues --    2.52108   2.52707   2.52847   2.53390   2.53404
 Alpha virt. eigenvalues --    2.53414   2.53479   2.53748   2.54146   2.54153
 Alpha virt. eigenvalues --    2.54157   2.55262   2.55272   2.55615   2.56206
 Alpha virt. eigenvalues --    2.56554   2.56558   2.57836   2.57838   2.58101
 Alpha virt. eigenvalues --    2.58261   2.59623   2.59722   2.59967   2.60120
 Alpha virt. eigenvalues --    2.60124   2.60350   2.61614   2.61863   2.61908
 Alpha virt. eigenvalues --    2.61922   2.62189   2.62198   2.62221   2.62331
 Alpha virt. eigenvalues --    2.62641   2.62653   2.63016   2.63126   2.63506
 Alpha virt. eigenvalues --    2.63513   2.63547   2.63739   2.64460   2.64469
 Alpha virt. eigenvalues --    2.65157   2.65166   2.65483   2.65516   2.65625
 Alpha virt. eigenvalues --    2.65677   2.66044   2.66069   2.66977   2.66979
 Alpha virt. eigenvalues --    2.67094   2.67119   2.67490   2.67499   2.67982
 Alpha virt. eigenvalues --    2.67982   2.67984   2.67999   2.69982   2.70055
 Alpha virt. eigenvalues --    2.70204   2.70210   2.71367   2.71367   2.71389
 Alpha virt. eigenvalues --    2.71685   2.73065   2.73081   2.73133   2.73142
 Alpha virt. eigenvalues --    2.73301   2.73303   2.73644   2.73821   2.74700
 Alpha virt. eigenvalues --    2.74714   2.74739   2.74746   2.76257   2.76501
 Alpha virt. eigenvalues --    2.76519   2.76561   2.76646   2.76654   2.76655
 Alpha virt. eigenvalues --    2.76709   2.76843   2.76844   2.77202   2.77203
 Alpha virt. eigenvalues --    2.77261   2.77485   2.77782   2.77795   2.77832
 Alpha virt. eigenvalues --    2.77849   2.77865   2.77866   2.77913   2.77936
 Alpha virt. eigenvalues --    2.80709   2.81028   2.81131   2.81141   2.81339
 Alpha virt. eigenvalues --    2.81344   2.81380   2.81427   2.82970   2.82972
 Alpha virt. eigenvalues --    2.83199   2.83343   2.87236   2.87844   2.88917
 Alpha virt. eigenvalues --    2.88924   2.89043   2.89868   2.89972   2.89975
 Alpha virt. eigenvalues --    2.90283   2.91086   2.91110   2.91444   2.91745
 Alpha virt. eigenvalues --    2.91961   2.91966   2.92009   2.92643   2.93670
 Alpha virt. eigenvalues --    2.93794   2.93801   2.94851   2.94856   2.94870
 Alpha virt. eigenvalues --    2.94873   2.94898   2.95093   2.95134   2.95138
 Alpha virt. eigenvalues --    2.95430   2.95433   2.95438   2.95441   2.96109
 Alpha virt. eigenvalues --    2.96125   2.96220   2.96235   2.97729   2.97939
 Alpha virt. eigenvalues --    2.97955   2.99694   2.99735   2.99810   2.99964
 Alpha virt. eigenvalues --    3.00848   3.00866   3.02463   3.02530   3.02880
 Alpha virt. eigenvalues --    3.04529   3.04624   3.04628   3.05083   3.07172
 Alpha virt. eigenvalues --    3.07184   3.07355   3.07423   3.08919   3.09418
 Alpha virt. eigenvalues --    3.09425   3.09440   3.11777   3.11884   3.11896
 Alpha virt. eigenvalues --    3.12609   3.12781   3.12787   3.13356   3.13387
 Alpha virt. eigenvalues --    3.13644   3.13715   3.13720   3.13729   3.15959
 Alpha virt. eigenvalues --    3.15960   3.16072   3.16074   3.17316   3.17359
 Alpha virt. eigenvalues --    3.18525   3.18779   3.18797   3.20198   3.23692
 Alpha virt. eigenvalues --    3.24379   3.24404   3.25453   3.26638   3.26646
 Alpha virt. eigenvalues --    3.27893   3.28343   3.35861   3.35920   3.35922
 Alpha virt. eigenvalues --    3.36330   3.37945   3.37947   3.38319   3.38528
 Alpha virt. eigenvalues --    3.47866   3.47903   3.47905   3.48036   3.50899
 Alpha virt. eigenvalues --    3.50913   3.50914   3.51098   3.57461   3.57521
 Alpha virt. eigenvalues --    3.57526   3.57664   3.62492   3.62498   3.62826
 Alpha virt. eigenvalues --    3.62872   3.66602   3.66606   3.66893   3.66941
 Alpha virt. eigenvalues --    3.78889   3.78890   3.79071   3.79082   3.81467
 Alpha virt. eigenvalues --    3.81468   3.81639   3.81646  51.72382  51.72402
          Condensed to atoms (all electrons):
 Mulliken charges:
               1
     1  Pd   0.498213
     2  Pd   0.498241
     3  C    0.009277
     4  C   -0.063790
     5  C   -0.019667
     6  C    0.019264
     7  C   -0.001405
     8  C    0.020176
     9  C   -0.065437
    10  C    0.182206
    11  N   -0.321315
    12  C    0.145933
    13  C   -0.010148
    14  C    0.068182
    15  H    0.043604
    16  H    0.054410
    17  H    0.043927
    18  H    0.084009
    19  H    0.104785
    20  H    0.048852
    21  C   -0.063222
    22  C    0.025845
    23  C   -0.011446
    24  C    0.006027
    25  C   -0.011028
    26  C    0.025589
    27  C   -0.070383
    28  C   -0.008091
    29  C    0.035557
    30  C   -0.019322
    31  H    0.033028
    32  H    0.030376
    33  H    0.030454
    34  H    0.033429
    35  H    0.025504
    36  H    0.027393
    37  C    0.012394
    38  C   -0.009914
    39  C   -0.123812
    40  C    0.104187
    41  C   -0.030017
    42  C    0.145633
    43  N   -0.311771
    44  C    0.192152
    45  H    0.063926
    46  H    0.071100
    47  H    0.118387
    48  H    0.086145
    49  C    0.009279
    50  C   -0.063808
    51  C   -0.019660
    52  C    0.019328
    53  C   -0.001386
    54  C    0.020248
    55  C   -0.065518
    56  C    0.182181
    57  N   -0.321259
    58  C    0.145919
    59  C   -0.010172
    60  C    0.068225
    61  H    0.043549
    62  H    0.054390
    63  H    0.043897
    64  H    0.084030
    65  H    0.104768
    66  H    0.048841
    67  C   -0.063201
    68  C    0.025866
    69  C   -0.011373
    70  C    0.005955
    71  C   -0.011021
    72  C    0.025568
    73  C   -0.070291
    74  C   -0.008024
    75  C    0.035498
    76  C   -0.019371
    77  H    0.033026
    78  H    0.030333
    79  H    0.030474
    80  H    0.033467
    81  H    0.025458
    82  H    0.027387
    83  C    0.012413
    84  C   -0.009958
    85  C   -0.123787
    86  C    0.104228
    87  C   -0.029994
    88  C    0.145629
    89  N   -0.311832
    90  C    0.192030
    91  H    0.063917
    92  H    0.071101
    93  H    0.118397
    94  H    0.086194
    95  C    0.009266
    96  C   -0.063780
    97  C   -0.019615
    98  C    0.019254
    99  C   -0.001426
   100  C    0.020168
   101  C   -0.065347
   102  C    0.182150
   103  N   -0.321295
   104  C    0.145684
   105  C   -0.010073
   106  C    0.068207
   107  H    0.043616
   108  H    0.054412
   109  H    0.043928
   110  H    0.084136
   111  H    0.104716
   112  H    0.048812
   113  C   -0.063236
   114  C    0.025809
   115  C   -0.011460
   116  C    0.006062
   117  C   -0.011098
   118  C    0.025590
   119  C   -0.070352
   120  C   -0.008071
   121  C    0.035562
   122  C   -0.019309
   123  H    0.033064
   124  H    0.030402
   125  H    0.030491
   126  H    0.033441
   127  H    0.025505
   128  H    0.027368
   129  C    0.012346
   130  C   -0.009894
   131  C   -0.123777
   132  C    0.104207
   133  C   -0.029940
   134  C    0.145657
   135  N   -0.311910
   136  C    0.192018
   137  H    0.063956
   138  H    0.071071
   139  H    0.118351
   140  H    0.086121
   141  C    0.009253
   142  C   -0.063737
   143  C   -0.019590
   144  C    0.019203
   145  C   -0.001406
   146  C    0.020252
   147  C   -0.065441
   148  C    0.182144
   149  N   -0.321336
   150  C    0.145766
   151  C   -0.010032
   152  C    0.068195
   153  H    0.043640
   154  H    0.054417
   155  H    0.043901
   156  H    0.084111
   157  H    0.104722
   158  H    0.048783
   159  C   -0.063280
   160  C    0.025816
   161  C   -0.011391
   162  C    0.006004
   163  C   -0.011063
   164  C    0.025583
   165  C   -0.070368
   166  C   -0.008117
   167  C    0.035568
   168  C   -0.019305
   169  H    0.033076
   170  H    0.030353
   171  H    0.030477
   172  H    0.033438
   173  H    0.025504
   174  H    0.027400
   175  C    0.012342
   176  C   -0.009851
   177  C   -0.123709
   178  C    0.104223
   179  C   -0.029978
   180  C    0.145638
   181  N   -0.311914
   182  C    0.191996
   183  H    0.063915
   184  H    0.071094
   185  H    0.118397
   186  H    0.086141
 Sum of Mulliken charges =   4.00000
 Mulliken charges with hydrogens summed into heavy atoms:
               1
     1  Pd   0.498213
     2  Pd   0.498241
     3  C    0.009277
     4  C   -0.063790
     5  C   -0.019667
     6  C    0.062869
     7  C    0.053005
     8  C    0.064103
     9  C   -0.065437
    10  C    0.266215
    11  N   -0.321315
    12  C    0.250718
    13  C    0.038704
    14  C    0.068182
    21  C   -0.063222
    22  C    0.058873
    23  C    0.018930
    24  C    0.006027
    25  C    0.019426
    26  C    0.059018
    27  C   -0.070383
    28  C    0.017413
    29  C    0.035557
    30  C    0.008071
    37  C    0.012394
    38  C   -0.009914
    39  C   -0.123812
    40  C    0.168113
    41  C    0.041083
    42  C    0.264020
    43  N   -0.311771
    44  C    0.278296
    49  C    0.009279
    50  C   -0.063808
    51  C   -0.019660
    52  C    0.062877
    53  C    0.053004
    54  C    0.064145
    55  C   -0.065518
    56  C    0.266211
    57  N   -0.321259
    58  C    0.250686
    59  C    0.038670
    60  C    0.068225
    67  C   -0.063201
    68  C    0.058892
    69  C    0.018961
    70  C    0.005955
    71  C    0.019453
    72  C    0.059034
    73  C   -0.070291
    74  C    0.017434
    75  C    0.035498
    76  C    0.008016
    83  C    0.012413
    84  C   -0.009958
    85  C   -0.123787
    86  C    0.168145
    87  C    0.041107
    88  C    0.264026
    89  N   -0.311832
    90  C    0.278224
    95  C    0.009266
    96  C   -0.063780
    97  C   -0.019615
    98  C    0.062869
    99  C    0.052986
   100  C    0.064096
   101  C   -0.065347
   102  C    0.266285
   103  N   -0.321295
   104  C    0.250401
   105  C    0.038739
   106  C    0.068207
   113  C   -0.063236
   114  C    0.058873
   115  C    0.018943
   116  C    0.006062
   117  C    0.019392
   118  C    0.059031
   119  C   -0.070352
   120  C    0.017434
   121  C    0.035562
   122  C    0.008060
   129  C    0.012346
   130  C   -0.009894
   131  C   -0.123777
   132  C    0.168163
   133  C    0.041131
   134  C    0.264008
   135  N   -0.311910
   136  C    0.278139
   141  C    0.009253
   142  C   -0.063737
   143  C   -0.019590
   144  C    0.062843
   145  C    0.053011
   146  C    0.064153
   147  C   -0.065441
   148  C    0.266255
   149  N   -0.321336
   150  C    0.250487
   151  C    0.038752
   152  C    0.068195
   159  C   -0.063280
   160  C    0.058892
   161  C    0.018962
   162  C    0.006004
   163  C    0.019415
   164  C    0.059021
   165  C   -0.070368
   166  C    0.017387
   167  C    0.035568
   168  C    0.008095
   175  C    0.012342
   176  C   -0.009851
   177  C   -0.123709
   178  C    0.168138
   179  C    0.041116
   180  C    0.264034
   181  N   -0.311914
   182  C    0.278137
 Electronic spatial extent (au):  <R**2>=         190944.9791
 Charge=              4.0000 electrons
 Dipole moment (field-independent basis, Debye):
    X=             -0.0025    Y=             -0.0669    Z=             -0.0159  Tot=              0.0688
 Quadrupole moment (field-independent basis, Debye-Ang):
   XX=            343.1441   YY=           -469.1678   ZZ=           -475.2388
   XY=             -0.0538   XZ=             -0.1945   YZ=              0.0057
 Traceless Quadrupole moment (field-independent basis, Debye-Ang):
   XX=            543.5650   YY=           -268.7470   ZZ=           -274.8180
   XY=             -0.0538   XZ=             -0.1945   YZ=              0.0057
 Octapole moment (field-independent basis, Debye-Ang**2):
  XXX=             -0.2451  YYY=              9.2822  ZZZ=              2.5490  XYY=             -0.0426
  XXY=             -6.5831  XXZ=             -1.6045  XZZ=             -0.0439  YZZ=             -9.1341
  YYZ=             -2.1770  XYZ=           -222.4484
 Hexadecapole moment (field-independent basis, Debye-Ang**3):
 XXXX=         -51097.9556 YYYY=         -65956.1510 ZZZZ=         -64756.4303 XXXY=             -1.3183
 XXXZ=             -7.4220 YYYX=             -0.4815 YYYZ=             18.9451 ZZZX=             -4.1611
 ZZZY=            -18.0507 XXYY=         -23090.0231 XXZZ=         -23064.2557 YYZZ=         -13151.7192
 XXYZ=             -0.0663 YYXZ=              0.2347 ZZXY=             -0.8902
 N-N= 2.263200389797D+04 E-N=-5.656104935821D+04  KE= 4.784921026499D+03
 Leave Link  601 at Fri Feb 26 13:54:10 2021, MaxMem=  7864320000 cpu:              61.2 elap:               2.1
 (Enter /apps/gaussian/g16-c01-avx/g16/l9999.exe)
 Unable to Open any file for archive entry.
 1\1\GINC-CX3-3-17\SP\RPBE1PBE\def2SVP\C112H64N8Pd2(4+)\ATARZIA\26-Feb-
 2021\0\\#P PBE1PBE/Def2SVP SP SCF=(YQC,MaxCycle=900) int=(Grid=Superfi
 negrid) EmpiricalDispersion=GD3BJ SCRF=(PCM,Solvent=DiMethylSulfoxide)
 \\_s_5a3_d\\4,1\Pd,0,-0.1518,5.3088,-0.0747\Pd,0,0.3189,-7.9791,0.059\
 C,0,7.2635,-4.5239,-0.1198\C,0,6.8936,-5.6751,-0.0943\C,0,6.4214,-7.00
 09,-0.064\C,0,7.295,-8.0744,-0.0604\C,0,6.82,-9.3905,-0.0303\C,0,5.474
 9,-9.6564,-0.0036\C,0,4.5509,-8.5901,-0.0064\C,0,3.1577,-8.796,0.0203\
 N,0,2.294,-7.8047,0.0181\C,0,2.7313,-6.5193,-0.0108\C,0,4.0613,-6.2118
 ,-0.0382\C,0,5.0193,-7.2461,-0.0367\H,0,8.3587,-7.8913,-0.0811\H,0,7.5
 318,-10.2017,-0.0283\H,0,5.1153,-10.6728,0.0195\H,0,2.7578,-9.8058,0.0
 44\H,0,1.9574,-5.75,-0.011\H,0,4.3981,-5.1879,-0.0611\C,0,7.683,-3.178
 7,-0.15\C,0,9.0654,-2.873,-0.1862\C,0,9.4803,-1.5734,-0.2161\C,0,8.549
 8,-0.5115,-0.2118\C,0,8.955,0.8408,-0.2426\C,0,8.0371,1.85,-0.2378\C,0
 ,6.652,1.5526,-0.2012\C,0,6.227,0.2406,-0.1705\C,0,7.1601,-0.8136,-0.1
 752\C,0,6.7522,-2.1603,-0.1448\H,0,9.7819,-3.6809,-0.1897\H,0,10.5349,
 -1.3388,-0.2438\H,0,10.0119,1.064,-0.2703\H,0,8.3537,2.8818,-0.2616\H,
 0,5.1726,0.0124,-0.1428\H,0,5.6978,-2.3889,-0.1171\C,0,5.7239,2.612,-0
 .1966\C,0,4.9317,3.5258,-0.1921\C,0,4.0529,4.6244,-0.1882\C,0,4.5453,5
 .9366,-0.226\C,0,3.6512,6.992,-0.2197\C,0,2.2919,6.7256,-0.1759\N,0,1.
 8253,5.4722,-0.1402\C,0,2.6665,4.443,-0.1457\H,0,5.6096,6.1098,-0.2594
 \H,0,4.0028,8.0107,-0.2482\H,0,1.5523,7.5266,-0.1691\H,0,2.2322,3.4479
 ,-0.1154\C,0,0.1776,2.1814,7.0181\C,0,0.1321,3.3139,6.596\C,0,0.0773,4
 .6159,6.0637\C,0,0.0741,5.7286,6.8868\C,0,0.0193,7.0209,6.3521\C,0,-0.
 0332,7.2238,4.9968\C,0,-0.0321,6.1158,4.1231\C,0,-0.0845,6.2566,2.7225
 \N,0,-0.0834,5.2265,1.9056\C,0,-0.0302,3.9632,2.4011\C,0,0.0231,3.718,
 3.7433\C,0,0.0237,4.7954,4.6524\H,0,0.1147,5.5953,7.9572\H,0,0.0188,7.
 8641,7.0256\H,0,-0.0754,8.222,4.5911\H,0,-0.1281,7.2464,2.2769\H,0,-0.
 0328,3.1589,1.6637\H,0,0.0649,2.7112,4.1266\C,0,0.2299,0.8574,7.4985\C
 ,0,0.2722,0.6158,8.8934\C,0,0.3222,-0.6628,9.3672\C,0,0.3329,-1.7661,8
 .4862\C,0,0.384,-3.0979,8.9527\C,0,0.3933,-4.1479,8.0819\C,0,0.3516,-3
 .9147,6.6847\C,0,0.3013,-2.6242,6.2002\C,0,0.2908,-1.5284,7.0842\C,0,0
 .2395,-0.2024,6.6153\H,0,0.2642,1.4556,9.5722\H,0,0.3543,-0.8486,10.43
 13\H,0,0.4158,-3.2721,10.0187\H,0,0.4325,-5.1638,8.4452\H,0,0.2695,-2.
 4448,5.1366\H,0,0.2076,-0.0226,5.5516\C,0,0.3624,-5.0155,5.8059\C,0,0.
 3718,-5.9644,5.0564\C,0,0.3855,-7.102,4.2288\C,0,0.4362,-8.3899,4.781\
 C,0,0.4488,-9.485,3.9362\C,0,0.4111,-9.2816,2.5659\N,0,0.3626,-8.0515,
 2.0421\C,0,0.3495,-6.9849,2.8354\H,0,0.4648,-8.5137,5.8523\H,0,0.4876,
 -10.4861,4.3343\H,0,0.4195,-10.1156,1.8637\H,0,0.3098,-6.0111,2.3557\C
 ,0,-6.8533,-5.0227,0.1421\C,0,-6.403,-6.1452,0.1443\C,0,-5.838,-7.4346
 ,0.1457\C,0,-6.6334,-8.5671,0.1624\C,0,-6.0661,-9.8466,0.1634\C,0,-4.7
 054,-10.0169,0.1476\C,0,-3.8593,-8.8879,0.1303\C,0,-2.4549,-8.9949,0.1
 129\N,0,-1.6638,-7.945,0.0966\C,0,-2.1911,-6.6936,0.0965\C,0,-3.5398,-
 6.4807,0.1123\C,0,-4.4219,-7.5802,0.1295\H,0,-7.7075,-8.4596,0.1748\H,
 0,-6.7186,-10.7061,0.1767\H,0,-4.2746,-11.0055,0.1483\H,0,-1.9842,-9.9
 74,0.1122\H,0,-1.4738,-5.8714,0.0833\H,0,-3.9484,-5.4831,0.1119\C,0,-7
 .3669,-3.7102,0.1402\C,0,-8.7677,-3.5024,0.1588\C,0,-9.2735,-2.2351,0.
 1577\C,0,-8.4203,-1.1103,0.1381\C,0,-8.9202,0.2102,0.1369\C,0,-8.0759,
 1.2816,0.1182\C,0,-6.673,1.0822,0.0991\C,0,-6.1561,-0.1967,0.0994\C,0,
 -7.0124,-1.314,0.119\C,0,-6.5103,-2.6288,0.1205\H,0,-9.4254,-4.3588,0.
 174\H,0,-10.3423,-2.0752,0.1719\H,0,-9.9905,0.3586,0.1514\H,0,-8.4647,
 2.2887,0.1176\H,0,-5.088,-0.3502,0.085\H,0,-5.4422,-2.7827,0.1061\C,0,
 -5.822,2.2045,0.08\C,0,-5.0967,3.172,0.0633\C,0,-4.2979,4.3299,0.0433\
 C,0,-4.8822,5.6045,0.0558\C,0,-4.0651,6.7203,0.0337\C,0,-2.6902,6.5503
 ,-0.0008\N,0,-2.1358,5.3327,-0.0123\C,0,-2.902,4.2467,0.0091\H,0,-5.95
 63,5.7022,0.0822\H,0,-4.4881,7.7118,0.0428\H,0,-2.0092,7.4014,-0.0196\
 H,0,-2.3981,3.2845,-0.0013\C,0,-0.3041,2.0232,-7.101\C,0,-0.3318,3.164
 8,-6.7024\C,0,-0.3617,4.4782,-6.1966\C,0,-0.4409,5.5714,-7.0416\C,0,-0
 .4708,6.8751,-6.5332\C,0,-0.4227,7.1087,-5.1827\C,0,-0.3416,6.0213,-4.
 2871\C,0,-0.2901,6.1937,-2.8901\N,0,-0.2148,5.1828,-2.053\C,0,-0.1829,
 3.909,-2.523\C,0,-0.2281,3.6335,-3.8596\C,0,-0.31,4.6897,-4.7897\H,0,-
 0.4802,5.4139,-8.1089\H,0,-0.5328,7.7025,-7.2233\H,0,-0.4463,8.1155,-4
 .7972\H,0,-0.3126,7.193,-2.4645\H,0,-0.1189,3.122,-1.7699\H,0,-0.2025,
 2.6187,-4.2224\C,0,-0.2711,0.6891,-7.5542\C,0,-0.3173,0.4162,-8.9432\C
 ,0,-0.2852,-0.8724,-9.3908\C,0,-0.2058,-1.9553,-8.4882\C,0,-0.1707,-3.
 2967,-8.9276\C,0,-0.0935,-4.3266,-8.0363\C,0,-0.0475,-4.0621,-6.6448\C
 ,0,-0.0804,-2.7614,-6.1867\C,0,-0.1594,-1.6862,-7.092\C,0,-0.1937,-0.3
 503,-6.6502\H,0,-0.3779,1.2403,-9.6385\H,0,-0.3203,-1.082,-10.4504\H,0
 ,-0.2061,-3.4948,-9.9893\H,0,-0.0668,-5.35,-8.3789\H,0,-0.0452,-2.5582
 ,-5.1274\H,0,-0.1584,-0.1467,-5.5909\C,0,0.0316,-5.1425,-5.7446\C,0,0.
 0991,-6.0744,-4.9768\C,0,0.1758,-7.193,-4.127\C,0,0.2188,-8.4918,-4.65
 35\C,0,0.2923,-9.5677,-3.7872\C,0,0.3211,-9.3346,-2.4214\N,0,0.2804,-8
 .0939,-1.9223\C,0,0.2103,-7.0455,-2.7365\H,0,0.1941,-8.639,-5.7219\H,0
 ,0.3266,-10.5767,-4.1652\H,0,0.3781,-10.1526,-1.7029\H,0,0.1802,-6.062
 ,-2.2763\\Version=ES64L-G16RevC.01\State=1-A\HF=-4990.8541205\RMSD=1.3
 39e-09\Dipole=0.023424,-0.0000174,0.0135863\Quadrupole=-201.1742233,40
 3.3031965,-202.1289732,-21.4904665,2.4678072,-5.99747\PG=C01 [X(C112H6
 4N8Pd2)]\\@
 The archive entry for this job was punched.


 KINETICS       FACT
 ---------  =  -------
 MECHANISM     FICTION
 Job cpu time:       2 days 15 hours 11 minutes 58.1 seconds.
 Elapsed time:       0 days  2 hours  0 minutes 15.1 seconds.
 File lengths (MBytes):  RWF=   5427 Int=      0 D2E=      0 Chk=    251 Scr=      2
 Normal termination of Gaussian 16 at Fri Feb 26 13:54:11 2021.
