 Entering Gaussian System, Link 0=g16
 Input=m2_lb.com
 Output=m2_lb.log
 Initial command:
 /apps/gaussian/g16-c01-avx/g16/l1.exe "/rds/general/user/vposligu/home/work/Pd2L4_cages/New_Cages/opt/PBE0-def2svp-solvent/SP-more_LoT/m2_lb/HSE/Gau-1704242.inp" -scrdir="/rds/general/user/vposligu/home/work/Pd2L4_cages/New_Cages/opt/PBE0-def2svp-solvent/SP-more_LoT/m2_lb/HSE/"
 Entering Link 1 = /apps/gaussian/g16-c01-avx/g16/l1.exe PID=   1704243.
  
 Copyright (c) 1988-2019, Gaussian, Inc.  All Rights Reserved.
  
 This is part of the Gaussian(R) 16 program.  It is based on
 the Gaussian(R) 09 system (copyright 2009, Gaussian, Inc.),
 the Gaussian(R) 03 system (copyright 2003, Gaussian, Inc.),
 the Gaussian(R) 98 system (copyright 1998, Gaussian, Inc.),
 the Gaussian(R) 94 system (copyright 1995, Gaussian, Inc.),
 the Gaussian 92(TM) system (copyright 1992, Gaussian, Inc.),
 the Gaussian 90(TM) system (copyright 1990, Gaussian, Inc.),
 the Gaussian 88(TM) system (copyright 1988, Gaussian, Inc.),
 the Gaussian 86(TM) system (copyright 1986, Carnegie Mellon
 University), and the Gaussian 82(TM) system (copyright 1983,
 Carnegie Mellon University). Gaussian is a federally registered
 trademark of Gaussian, Inc.
  
 This software contains proprietary and confidential information,
 including trade secrets, belonging to Gaussian, Inc.
  
 This software is provided under written license and may be
 used, copied, transmitted, or stored only in accord with that
 written license.
  
 The following legend is applicable only to US Government
 contracts under FAR:
  
                    RESTRICTED RIGHTS LEGEND
  
 Use, reproduction and disclosure by the US Government is
 subject to restrictions as set forth in subparagraphs (a)
 and (c) of the Commercial Computer Software - Restricted
 Rights clause in FAR 52.227-19.
  
 Gaussian, Inc.
 340 Quinnipiac St., Bldg. 40, Wallingford CT 06492
  
  
 ---------------------------------------------------------------
 Warning -- This program may not be used in any manner that
 competes with the business of Gaussian, Inc. or will provide
 assistance to any competitor of Gaussian, Inc.  The licensee
 of this program is prohibited from giving any competitor of
 Gaussian, Inc. access to this program.  By using this program,
 the user acknowledges that Gaussian, Inc. is engaged in the
 business of creating and licensing software in the field of
 computational chemistry and represents and warrants to the
 licensee that it is not a competitor of Gaussian, Inc. and that
 it will not use this program in any manner prohibited above.
 ---------------------------------------------------------------
  

 Cite this work as:
 Gaussian 16, Revision C.01,
 M. J. Frisch, G. W. Trucks, H. B. Schlegel, G. E. Scuseria, 
 M. A. Robb, J. R. Cheeseman, G. Scalmani, V. Barone, 
 G. A. Petersson, H. Nakatsuji, X. Li, M. Caricato, A. V. Marenich, 
 J. Bloino, B. G. Janesko, R. Gomperts, B. Mennucci, H. P. Hratchian, 
 J. V. Ortiz, A. F. Izmaylov, J. L. Sonnenberg, D. Williams-Young, 
 F. Ding, F. Lipparini, F. Egidi, J. Goings, B. Peng, A. Petrone, 
 T. Henderson, D. Ranasinghe, V. G. Zakrzewski, J. Gao, N. Rega, 
 G. Zheng, W. Liang, M. Hada, M. Ehara, K. Toyota, R. Fukuda, 
 J. Hasegawa, M. Ishida, T. Nakajima, Y. Honda, O. Kitao, H. Nakai, 
 T. Vreven, K. Throssell, J. A. Montgomery, Jr., J. E. Peralta, 
 F. Ogliaro, M. J. Bearpark, J. J. Heyd, E. N. Brothers, K. N. Kudin, 
 V. N. Staroverov, T. A. Keith, R. Kobayashi, J. Normand, 
 K. Raghavachari, A. P. Rendell, J. C. Burant, S. S. Iyengar, 
 J. Tomasi, M. Cossi, J. M. Millam, M. Klene, C. Adamo, R. Cammi, 
 J. W. Ochterski, R. L. Martin, K. Morokuma, O. Farkas, 
 J. B. Foresman, and D. J. Fox, Gaussian, Inc., Wallingford CT, 2019.
 
 ******************************************
 Gaussian 16:  ES64L-G16RevC.01  3-Jul-2019
                25-Jul-2023 
 ******************************************
 %nprocshared=48
 Will use up to   48 processors via shared memory.
 %mem=120GB
 %chk=m2_lb.chk
 -----------------------------------------
 # SP HSEH1PBE/def2svp scrf=(solvent=dmso)
 -----------------------------------------
 1/38=1,172=1/1;
 2/12=2,17=6,18=5,40=1/2;
 3/5=43,7=101,11=2,25=1,30=1,70=2201,72=21,74=-51/1,2,3;
 4//1;
 5/5=2,38=5,53=21/2;
 6/7=2,8=2,9=2,10=2,28=1/1;
 99/5=1,9=1/99;
 -----
 m2_lb
 -----
 Symbolic Z-matrix:
 Charge =  4 Multiplicity = 1
 Pd                    9.174    -0.54      1.013 
 Pd                   -9.141    -1.333     0.289 
 C                     11.488   -2.845    -1.735 
 C                     11.085   -1.908    -0.821 
 N                     9.769    -1.737    -0.513 
 C                     8.849    -2.476    -1.105 
 C                     9.161    -3.489    -2.034 
 C                     8.144    -4.297    -2.634 
 C                     6.732    -4.042    -2.265 
 C                     6.284    -4.227    -0.948 
 C                     5.033    -3.77     -0.551 
 C                     4.203    -3.106    -1.471 
 C                     3.012    -2.433    -1.078 
 C                     2.055    -1.719    -0.839 
 C                     1.035    -0.728    -0.697 
 N                     0.12     -0.859     0.271 
 C                    -0.81      0.097     0.388 
 C                    -1.79     -0.01      1.424 
 C                    -2.694     0.04      2.238 
 C                    -3.827     0.226     3.079 
 C                    -4.164     1.528     3.49 
 C                    -5.371     1.771     4.134 
 C                    -6.272     0.726     4.377 
 C                    -7.645     1.022     4.844 
 C                    -7.901     1.669     6.036 
 C                    -9.224     1.951     6.447 
 C                    -10.304    1.594     5.672 
 C                    -10.091    0.948     4.431 
 C                    -11.146    0.562     3.565 
 C                    -10.87    -0.049     2.37 
 N                    -9.589    -0.285     1.973 
 C                    -8.579     0.077     2.746 
 C                    -8.756     0.674     4.01 
 C                    -5.885    -0.587     4.06 
 C                    -4.679    -0.839     3.421 
 C                    -0.869     1.214    -0.46 
 C                     0.09      1.348    -1.456 
 C                     1.06      0.364    -1.582 
 C                     4.615    -3.005    -2.813 
 C                     5.863    -3.47     -3.203 
 C                     8.522    -5.234    -3.572 
 C                     9.882    -5.417    -3.914 
 C                     10.875   -4.663    -3.329 
 C                     10.534   -3.676    -2.375 
 H                     12.55    -2.952    -1.965 
 H                     11.795   -1.263    -0.301 
 H                     7.811    -2.279    -0.833 
 H                     6.941    -4.702    -0.215 
 H                     4.713    -3.884     0.486 
 H                    -3.49      2.353     3.247 
 H                    -5.649     2.794     4.399 
 H                    -7.067     1.95      6.683 
 H                    -9.385     2.454     7.403 
 H                    -11.324    1.804     5.998 
 H                    -12.183    0.748     3.848 
 H                    -11.659   -0.369     1.688 
 H                    -7.576    -0.111     2.362 
 H                    -6.556    -1.419     4.289 
 H                    -4.411    -1.859     3.143 
 H                    -1.649     1.963    -0.32 
 H                     0.074     2.232    -2.1 
 H                     1.827     0.412    -2.354 
 H                     3.965    -2.506    -3.534 
 H                     6.196    -3.336    -4.234 
 H                     7.76     -5.855    -4.048 
 H                     10.144   -6.177    -4.654 
 H                     11.923   -4.813    -3.594 
 C                     8.907    -4.424     2.773 
 C                     9.358    -3.267     2.196 
 N                     8.532    -2.202     2. 
 C                     7.275    -2.253     2.406 
 C                     6.724    -3.378     3.054 
 C                     5.364    -3.415     3.502 
 C                     4.486    -2.226     3.419 
 C                     4.862    -0.996     3.984 
 C                     4.037     0.117     3.88 
 C                     2.808     0.03      3.199 
 C                     2.012     1.191     2.982 
 C                     1.374     2.193     2.713 
 C                     0.729     3.401     2.296 
 N                    -0.539     3.322     1.879 
 C                    -1.117     4.423     1.386 
 C                    -2.47      4.299     0.927 
 C                    -3.616     4.208     0.523 
 C                    -4.947     4.102     0.023 
 C                    -5.266     4.603    -1.251 
 C                    -6.548     4.46     -1.763 
 C                    -7.561     3.832    -1.02 
 C                    -8.913     3.693    -1.607 
 C                    -9.489     4.769    -2.258 
 C                    -10.775    4.693    -2.833 
 C                    -11.514    3.536    -2.759 
 C                    -10.971    2.402    -2.11 
 C                    -11.682    1.181    -2.002 
 C                    -11.118    0.112    -1.36 
 N                    -9.864     0.184    -0.837 
 C                    -9.156     1.295    -0.944 
 C                    -9.66      2.47     -1.542 
 C                    -7.251     3.381     0.274 
 C                    -5.964     3.498     0.783 
 C                    -0.453     5.658     1.295 
 C                     0.853     5.741     1.765 
 C                     1.459     4.603     2.282 
 C                     2.409    -1.211     2.67 
 C                     3.239    -2.318     2.784 
 C                     4.879    -4.605     4.012 
 C                     5.702    -5.746     4.138 
 C                     7.025    -5.711     3.761 
 C                     7.561    -4.526     3.206 
 H                     9.586    -5.269     2.892 
 H                     10.388   -3.155     1.856 
 H                     6.653    -1.381     2.2 
 H                     5.808    -0.911     4.525 
 H                     4.345     1.068     4.32 
 H                    -4.492     5.086    -1.846 
 H                    -6.764     4.824    -2.769 
 H                    -8.945     5.715    -2.307 
 H                    -11.188    5.574    -3.329 
 H                    -12.515    3.476    -3.19 
 H                    -12.683    1.092    -2.425 
 H                    -11.64    -0.84     -1.246 
 H                    -8.145     1.273    -0.536 
 H                    -8.029     2.95      0.906 
 H                    -5.742     3.124     1.783 
 H                    -0.961     6.522     0.866 
 H                     1.4       6.685     1.717 
 H                     2.488     4.62      2.645 
 H                     1.463    -1.288     2.129 
 H                     2.927    -3.267     2.342 
 H                     3.843    -4.654     4.354 
 H                     5.279    -6.66      4.559 
 H                     7.667    -6.585     3.877 
 C                     8.698     1.045     4.915 
 C                     9.094     0.345     3.809 
 N                     8.566     0.6       2.579 
 C                     7.642     1.534     2.431 
 C                     7.145     2.295     3.51 
 C                     6.142     3.302     3.346 
 C                     5.447     3.575     2.066 
 C                     5.329     4.901     1.62 
 C                     4.499     5.224     0.556 
 C                     3.745     4.223    -0.083 
 C                     2.716     4.591    -0.994 
 C                     1.741     4.947    -1.633 
 C                     0.51      5.352    -2.236 
 N                    -0.366     4.38     -2.508 
 C                    -1.575     4.706    -2.979 
 C                    -2.47      3.612    -3.197 
 C                    -3.189     2.638    -3.324 
 C                    -3.948     1.443    -3.478 
 C                    -3.272     0.211    -3.545 
 C                    -3.983    -0.964    -3.729 
 C                    -5.381    -0.96     -3.828 
 C                    -6.078    -2.245    -4.062 
 C                    -5.644    -3.076    -5.08 
 C                    -6.266    -4.315    -5.345 
 C                    -7.334    -4.744    -4.592 
 C                    -7.802    -3.943    -3.524 
 C                    -8.875    -4.341    -2.69 
 C                    -9.256    -3.554    -1.638 
 N                    -8.615    -2.385    -1.359 
 C                    -7.621    -1.969    -2.124 
 C                    -7.168    -2.691    -3.249 
 C                    -6.056     0.269    -3.747 
 C                    -5.351     1.455    -3.58 
 C                    -1.954     6.035    -3.227 
 C                    -1.031     7.043    -2.964 
 C                     0.221     6.71     -2.458 
 C                     3.927     2.884     0.302 
 C                     4.773     2.567     1.358 
 C                     5.776     4.039     4.459 
 C                     6.339     3.802     5.731 
 C                     7.283     2.819     5.91 
 C                     7.709     2.053     4.801 
 H                     9.15      0.828     5.884 
 H                     9.848    -0.441     3.863 
 H                     7.269     1.71      1.421 
 H                     5.876     5.693     2.136 
 H                     4.386     6.264     0.245 
 H                    -2.184     0.185    -3.453 
 H                    -3.443    -1.909    -3.779 
 H                    -4.812    -2.754    -5.71 
 H                    -5.895    -4.93     -6.167 
 H                    -7.824    -5.697    -4.799 
 H                    -9.395    -5.282    -2.878 
 H                    -10.073   -3.831    -0.971 
 H                    -7.134    -1.035    -1.838 
 H                    -7.143     0.307    -3.852 
 H                    -5.886     2.404    -3.533 
 H                    -2.946     6.262    -3.619 
 H                    -1.291     8.088    -3.146 
 H                     0.963     7.474    -2.226 
 H                     3.353     2.097    -0.191 
 H                     4.842     1.528     1.686 
 H                     5.005     4.806     4.356 
 H                     6.005     4.403     6.579 
 H                     7.714     2.621     6.893 
 C                     11.035    3.085    -0.208 
 C                     10.783    1.862     0.352 
 N                     9.682     1.139     0.005 
 C                     8.848     1.592    -0.915 
 C                     9.024     2.833    -1.562 
 C                     8.09      3.33     -2.525 
 C                     6.945     2.515    -2.99 
 C                     7.138     1.237    -3.538 
 C                     6.062     0.493    -4.004 
 C                     4.756     1.009    -3.93 
 C                     3.646     0.243    -4.395 
 C                     2.69     -0.415    -4.763 
 C                     1.544    -1.206    -5.114 
 N                     0.81     -1.656    -4.092 
 C                    -0.276    -2.389    -4.357 
 C                    -1.054    -2.826    -3.238 
 C                    -1.764    -3.151    -2.303 
 C                    -2.619    -3.487    -1.215 
 C                    -3.907    -4.007    -1.446 
 C                    -4.74     -4.317    -0.38 
 C                    -4.312    -4.127     0.945 
 C                    -5.153    -4.524     2.096 
 C                    -4.615    -5.332     3.082 
 C                    -5.386    -5.788     4.173 
 C                    -6.714    -5.449     4.289 
 C                    -7.303    -4.6       3.324 
 C                    -8.657    -4.191     3.399 
 C                    -9.163    -3.319     2.475 
 N                    -8.386    -2.804     1.48 
 C                    -7.125    -3.185     1.359 
 C                    -6.519    -4.114     2.233 
 C                    -3.027    -3.61      1.167 
 C                    -2.191    -3.287     0.109 
 C                    -0.674    -2.709    -5.668 
 C                     0.099    -2.24     -6.725 
 C                     1.229    -1.475    -6.455 
 C                     4.559     2.287    -3.379 
 C                     5.642     3.028    -2.923 
 C                     8.281     4.608    -3.016 
 C                     9.386     5.394    -2.622 
 C                     10.315    4.915    -1.728 
 C                     10.146    3.626    -1.17 
 H                     11.913    3.652     0.106 
 H                     11.433    1.423     1.11 
 H                     7.979     0.972    -1.14 
 H                     8.147     0.827    -3.624 
 H                     6.228    -0.496    -4.435 
 H                    -4.248    -4.176    -2.47 
 H                    -5.724    -4.747    -0.581 
 H                    -3.576    -5.655     2.995 
 H                    -4.92     -6.436     4.919 
 H                    -7.32     -5.817     5.118 
 H                    -9.298    -4.562     4.2 
 H                    -10.199   -2.984     2.51 
 H                    -6.544    -2.726     0.558 
 H                    -2.68     -3.443     2.19 
 H                    -1.206    -2.853     0.298 
 H                    -1.569    -3.309    -5.839 
 H                    -0.18     -2.469    -7.755 
 H                     1.859    -1.086    -7.256 
 H                     3.549     2.697    -3.306 
 H                     5.474     4.016    -2.489 
 H                     7.576     5.007    -3.748 
 H                     9.504     6.392    -3.049 
 H                     11.176    5.517    -1.434 
 
 Stoichiometry    C156H92N12Pd2(4+)
 Framework group  C1[X(C156H92N12Pd2)]
 Deg. of freedom   780
 Full point group                 C1      NOp   1
 Largest Abelian subgroup         C1      NOp   1
 Largest concise Abelian subgroup C1      NOp   1
                         Standard orientation:                         
 ---------------------------------------------------------------------
 Center     Atomic      Atomic             Coordinates (Angstroms)
 Number     Number       Type             X           Y           Z
 ---------------------------------------------------------------------
      1         46           0        9.173969   -0.540003    1.013008
      2         46           0       -9.141030   -1.333027    0.289008
      3          6           0       11.487972   -2.845000   -1.734992
      4          6           0       11.084971   -1.908000   -0.820992
      5          7           0        9.768971   -1.737002   -0.512992
      6          6           0        8.848972   -2.476003   -1.104992
      7          6           0        9.160973   -3.489003   -2.033992
      8          6           0        8.143974   -4.297004   -2.633992
      9          6           0        6.731974   -4.042006   -2.264992
     10          6           0        6.283974   -4.227007   -0.947992
     11          6           0        5.032973   -3.770008   -0.550992
     12          6           0        4.202973   -3.106009   -1.470992
     13          6           0        3.011972   -2.433011   -1.077992
     14          6           0        2.054971   -1.719012   -0.838992
     15          6           0        1.034969   -0.728014   -0.696992
     16          7           0        0.119970   -0.859015    0.271008
     17          6           0       -0.810032    0.096984    0.388008
     18          6           0       -1.790032   -0.010017    1.424008
     19          6           0       -2.694032    0.039981    2.238008
     20          6           0       -3.827032    0.225980    3.079008
     21          6           0       -4.164034    1.527980    3.490008
     22          6           0       -5.371034    1.770978    4.134008
     23          6           0       -6.272033    0.725977    4.377008
     24          6           0       -7.645033    1.021975    4.844008
     25          6           0       -7.901034    1.668975    6.036008
     26          6           0       -9.224034    1.950973    6.447008
     27          6           0      -10.304034    1.593971    5.672008
     28          6           0      -10.091033    0.947972    4.431008
     29          6           0      -11.146032    0.561970    3.565008
     30          6           0      -10.870031   -0.049029    2.370008
     31          7           0       -9.589031   -0.285028    1.973008
     32          6           0       -8.579032    0.076974    2.746008
     33          6           0       -8.756032    0.673973    4.010008
     34          6           0       -5.885031   -0.587023    4.060008
     35          6           0       -4.679030   -0.839021    3.421008
     36          6           0       -0.869033    1.213984   -0.459992
     37          6           0        0.089967    1.347985   -1.455992
     38          6           0        1.059968    0.363986   -1.581992
     39          6           0        4.614972   -3.005009   -2.812992
     40          6           0        5.862973   -3.470007   -3.202992
     41          6           0        8.521975   -5.234004   -3.571992
     42          6           0        9.881976   -5.417002   -3.913992
     43          6           0       10.874975   -4.663001   -3.328992
     44          6           0       10.533973   -3.676001   -2.374992
     45          1           0       12.549972   -2.951998   -1.964992
     46          1           0       11.794970   -1.262999   -0.300992
     47          1           0        7.810971   -2.279005   -0.832992
     48          1           0        6.940975   -4.702006   -0.214992
     49          1           0        4.712974   -3.884009    0.486008
     50          1           0       -3.490035    2.352980    3.247008
     51          1           0       -5.649035    2.793978    4.399008
     52          1           0       -7.067034    1.949976    6.683008
     53          1           0       -9.385035    2.453973    7.403008
     54          1           0      -11.324034    1.803970    5.998008
     55          1           0      -12.183033    0.747969    3.848008
     56          1           0      -11.659031   -0.369030    1.688008
     57          1           0       -7.576031   -0.111025    2.362008
     58          1           0       -6.556030   -1.419024    4.289008
     59          1           0       -4.411029   -1.859021    3.143008
     60          1           0       -1.649034    1.962983   -0.319992
     61          1           0        0.073965    2.231985   -2.099992
     62          1           0        1.826968    0.411987   -2.353992
     63          1           0        3.964972   -2.506010   -3.533992
     64          1           0        6.195973   -3.336007   -4.233992
     65          1           0        7.759976   -5.855005   -4.047992
     66          1           0       10.143977   -6.177002   -4.653992
     67          1           0       11.922975   -4.812999   -3.593992
     68          6           0        8.906974   -4.424003    2.773008
     69          6           0        9.357973   -3.267003    2.196008
     70          7           0        8.531971   -2.202004    2.000008
     71          6           0        7.274971   -2.253005    2.406008
     72          6           0        6.723973   -3.378006    3.054008
     73          6           0        5.363973   -3.415008    3.502008
     74          6           0        4.485971   -2.226009    3.419008
     75          6           0        4.861970   -0.996009    3.984008
     76          6           0        4.036968    0.116990    3.880008
     77          6           0        2.807968    0.029989    3.199008
     78          6           0        2.011967    1.190988    2.982008
     79          6           0        1.373966    2.192987    2.713008
     80          6           0        0.728964    3.400986    2.296008
     81          7           0       -0.539036    3.321984    1.879008
     82          6           0       -1.117037    4.422984    1.386008
     83          6           0       -2.470037    4.298982    0.927008
     84          6           0       -3.616037    4.207980    0.523008
     85          6           0       -4.947037    4.101979    0.023008
     86          6           0       -5.266038    4.602978   -1.250992
     87          6           0       -6.548037    4.459976   -1.762992
     88          6           0       -7.561037    3.831975   -1.019992
     89          6           0       -8.913036    3.692973   -1.606992
     90          6           0       -9.489038    4.768972   -2.257992
     91          6           0      -10.775038    4.692971   -2.832992
     92          6           0      -11.514036    3.535970   -2.758992
     93          6           0      -10.971035    2.401971   -2.109992
     94          6           0      -11.682033    1.180970   -2.001992
     95          6           0      -11.118032    0.111970   -1.359992
     96          7           0       -9.864032    0.183972   -0.836992
     97          6           0       -9.156033    1.294973   -0.943992
     98          6           0       -9.660035    2.469972   -1.541992
     99          6           0       -7.251036    3.380975    0.274008
    100          6           0       -5.964036    3.497977    0.783008
    101          6           0       -0.453039    5.657984    1.295008
    102          6           0        0.852961    5.740986    1.765008
    103          6           0        1.458962    4.602987    2.282008
    104          6           0        2.408970   -1.211012    2.670008
    105          6           0        3.238972   -2.318011    2.784008
    106          6           0        4.878975   -4.605008    4.012008
    107          6           0        5.701976   -5.746007    4.138008
    108          6           0        7.024976   -5.711006    3.761008
    109          6           0        7.560974   -4.526005    3.206008
    110          1           0        9.585975   -5.269002    2.892008
    111          1           0       10.387973   -3.155001    1.856008
    112          1           0        6.652970   -1.381006    2.200008
    113          1           0        5.807970   -0.911007    4.525008
    114          1           0        4.344967    1.067991    4.320008
    115          1           0       -4.492038    5.085979   -1.845992
    116          1           0       -6.764038    4.823976   -2.768992
    117          1           0       -8.945039    5.714973   -2.306992
    118          1           0      -11.188039    5.573970   -3.328992
    119          1           0      -12.515036    3.475968   -3.189992
    120          1           0      -12.683033    1.091968   -2.424992
    121          1           0      -11.640030   -0.840030   -1.245992
    122          1           0       -8.145033    1.272974   -0.535992
    123          1           0       -8.029035    2.949974    0.906008
    124          1           0       -5.742036    3.123977    1.783008
    125          1           0       -0.961040    6.521984    0.866008
    126          1           0        1.399960    6.684987    1.717008
    127          1           0        2.487962    4.619988    2.645008
    128          1           0        1.462970   -1.288013    2.129008
    129          1           0        2.926973   -3.267011    2.342008
    130          1           0        3.842975   -4.654010    4.354008
    131          1           0        5.278977   -6.660008    4.559008
    132          1           0        7.666977   -6.585005    3.877008
    133          6           0        8.697967    1.044997    4.915008
    134          6           0        9.093968    0.344997    3.809008
    135          7           0        8.565968    0.599996    2.579008
    136          6           0        7.641966    1.533995    2.431008
    137          6           0        7.144965    2.294995    3.510008
    138          6           0        6.141964    3.301993    3.346008
    139          6           0        5.446964    3.574992    2.066008
    140          6           0        5.328962    4.900992    1.620008
    141          6           0        4.498962    5.223991    0.556008
    142          6           0        3.744963    4.222990   -0.082992
    143          6           0        2.715962    4.590989   -0.993992
    144          6           0        1.740962    4.946987   -1.632992
    145          6           0        0.509961    5.351986   -2.235992
    146          7           0       -0.366037    4.379985   -2.507992
    147          6           0       -1.575038    4.705983   -2.978992
    148          6           0       -2.470036    3.611982   -3.196992
    149          6           0       -3.189035    2.637981   -3.323992
    150          6           0       -3.948033    1.442980   -3.477992
    151          6           0       -3.272032    0.210981   -3.544992
    152          6           0       -3.983030   -0.964020   -3.728992
    153          6           0       -5.381030   -0.960022   -3.827992
    154          6           0       -6.078029   -2.245023   -4.061992
    155          6           0       -5.644027   -3.076022   -5.079992
    156          6           0       -6.266026   -4.315023   -5.344992
    157          6           0       -7.334025   -4.744025   -4.591992
    158          6           0       -7.802026   -3.943025   -3.523992
    159          6           0       -8.875026   -4.341027   -2.689992
    160          6           0       -9.256027   -3.554027   -1.637992
    161          7           0       -8.615028   -2.385026   -1.358992
    162          6           0       -7.621029   -1.969025   -2.123992
    163          6           0       -7.168028   -2.691024   -3.248992
    164          6           0       -6.056032    0.268977   -3.746992
    165          6           0       -5.351033    1.454978   -3.579992
    166          6           0       -1.954040    6.034982   -3.226992
    167          6           0       -1.031041    7.042984   -2.963992
    168          6           0        0.220960    6.709985   -2.457992
    169          6           0        3.926965    2.883990    0.302008
    170          6           0        4.772965    2.566991    1.358008
    171          6           0        5.775963    4.038993    4.459008
    172          6           0        6.338963    3.801993    5.731008
    173          6           0        7.282965    2.818995    5.910008
    174          6           0        7.708966    2.052995    4.801008
    175          1           0        9.149967    0.827997    5.884008
    176          1           0        9.847969   -0.441002    3.863008
    177          1           0        7.268966    1.709995    1.421008
    178          1           0        5.875961    5.692993    2.136008
    179          1           0        4.385960    6.263991    0.245008
    180          1           0       -2.184032    0.184982   -3.452992
    181          1           0       -3.443029   -1.909020   -3.778992
    182          1           0       -4.812028   -2.754021   -5.709992
    183          1           0       -5.895025   -4.930023   -6.166992
    184          1           0       -7.824024   -5.697025   -4.798992
    185          1           0       -9.395025   -5.282027   -2.877992
    186          1           0      -10.073026   -3.831028   -0.970992
    187          1           0       -7.134030   -1.035024   -1.837992
    188          1           0       -7.143032    0.306976   -3.851992
    189          1           0       -5.886035    2.403977   -3.532992
    190          1           0       -2.946040    6.261981   -3.618992
    191          1           0       -1.291042    8.087983   -3.145992
    192          1           0        0.962959    7.473986   -2.225992
    193          1           0        3.352966    2.096989   -0.190992
    194          1           0        4.841966    1.527991    1.686008
    195          1           0        5.004962    4.805992    4.356008
    196          1           0        6.004963    4.402993    6.579008
    197          1           0        7.713965    2.620995    6.893008
    198          6           0       11.034964    3.085000   -0.207992
    199          6           0       10.782966    1.861999    0.352008
    200          7           0        9.681967    1.138998    0.005008
    201          6           0        8.847966    1.591997   -0.914992
    202          6           0        9.023965    2.832997   -1.561992
    203          6           0        8.089964    3.329996   -2.524992
    204          6           0        6.944965    2.514994   -2.989992
    205          6           0        7.137967    1.236994   -3.537992
    206          6           0        6.061968    0.492993   -4.003992
    207          6           0        4.755967    1.008991   -3.929992
    208          6           0        3.645968    0.242990   -4.394992
    209          6           0        2.689969   -0.415011   -4.762992
    210          6           0        1.543970   -1.206013   -5.113992
    211          7           0        0.809971   -1.656014   -4.091992
    212          6           0       -0.276028   -2.389015   -4.356992
    213          6           0       -1.054028   -2.826016   -3.237992
    214          6           0       -1.764027   -3.151017   -2.302992
    215          6           0       -2.619027   -3.487018   -1.214992
    216          6           0       -3.907026   -4.007020   -1.445992
    217          6           0       -4.740026   -4.317021   -0.379992
    218          6           0       -4.312026   -4.127021    0.945008
    219          6           0       -5.153026   -4.524022    2.096008
    220          6           0       -4.615025   -5.332021    3.082008
    221          6           0       -5.386024   -5.788022    4.173008
    222          6           0       -6.714024   -5.449024    4.289008
    223          6           0       -7.303025   -4.600025    3.324008
    224          6           0       -8.657026   -4.191026    3.399008
    225          6           0       -9.163027   -3.319027    2.475008
    226          7           0       -8.386028   -2.804026    1.480008
    227          6           0       -7.125027   -3.185024    1.359008
    228          6           0       -6.519026   -4.114024    2.233008
    229          6           0       -3.027027   -3.610019    1.167008
    230          6           0       -2.191027   -3.287018    0.109008
    231          6           0       -0.674028   -2.709016   -5.667992
    232          6           0        0.098971   -2.240015   -6.724992
    233          6           0        1.228970   -1.475013   -6.454992
    234          6           0        4.558965    2.286991   -3.378992
    235          6           0        5.641964    3.027993   -2.922992
    236          6           0        8.280962    4.607996   -3.015992
    237          6           0        9.385961    5.393997   -2.621992
    238          6           0       10.314962    4.914999   -1.727992
    239          6           0       10.145964    3.625998   -1.169992
    240          1           0       11.912964    3.652001    0.106008
    241          1           0       11.432967    1.423000    1.110008
    242          1           0        7.978967    0.971996   -1.139992
    243          1           0        8.146967    0.826996   -3.623992
    244          1           0        6.227969   -0.496007   -4.434992
    245          1           0       -4.248026   -4.176021   -2.469992
    246          1           0       -5.724025   -4.747023   -0.580992
    247          1           0       -3.576024   -5.655020    2.995008
    248          1           0       -4.920023   -6.436021    4.919008
    249          1           0       -7.320024   -5.817025    5.118008
    250          1           0       -9.298026   -4.562027    4.200008
    251          1           0      -10.199028   -2.984028    2.510008
    252          1           0       -6.544028   -2.726024    0.558008
    253          1           0       -2.680027   -3.443018    2.190008
    254          1           0       -1.206028   -2.853017    0.298008
    255          1           0       -1.569027   -3.309017   -5.838992
    256          1           0       -0.180028   -2.469015   -7.754992
    257          1           0        1.858970   -1.086012   -7.255992
    258          1           0        3.548965    2.696990   -3.305992
    259          1           0        5.473963    4.015992   -2.488992
    260          1           0        7.575962    5.006995   -3.747992
    261          1           0        9.503960    6.391998   -3.048992
    262          1           0       11.175961    5.517000   -1.433992
 ---------------------------------------------------------------------
 Rotational constants (GHZ):           0.0116067           0.0038129           0.0037131
 Standard basis: def2SVP (5D, 7F)
 There are  3052 symmetry adapted cartesian basis functions of A   symmetry.
 There are  2874 symmetry adapted basis functions of A   symmetry.
  2874 basis functions,  4974 primitive gaussians,  3052 cartesian basis functions
   572 alpha electrons      572 beta electrons
       nuclear repulsion energy     43970.1681707041 Hartrees.
 NAtoms=  262 NActive=  262 NUniq=  262 SFac= 1.00D+00 NAtFMM=   60 NAOKFM=T Big=T
 Integral buffers will be    131072 words long.
 Raffenetti 2 integral format.
 Two-electron integral symmetry is turned on.
 ------------------------------------------------------------------------------
 Polarizable Continuum Model (PCM)
 =================================
 Model                : PCM.
 Atomic radii         : UFF (Universal Force Field).
 Polarization charges : Total charges.
 Charge compensation  : None.
 Solution method      : On-the-fly selection.
 Cavity type          : Scaled VdW (van der Waals Surface) (Alpha=1.100).
 Cavity algorithm     : GePol (No added spheres)
                        Default sphere list used, NSphG=  262.
                        Lebedev-Laikov grids with approx.  5.0 points / Ang**2.
                        Smoothing algorithm: York/Karplus (Gamma=1.0000).
                        Polarization charges: spherical gaussians, with
                                              point-specific exponents (IZeta= 3).
                        Self-potential: point-specific (ISelfS= 7).
                        Self-field    : sphere-specific E.n sum rule (ISelfD= 2).
 Solvent              : DiMethylSulfoxide, Eps=  46.826000 Eps(inf)=   2.007889
 ------------------------------------------------------------------------------
 One-electron integrals computed using PRISM.
   1 Symmetry operations used in ECPInt.
 ECPInt:  NShTT=  853471 NPrTT= 3163845 LenC2=  408606 LenP2D=  840778.
 LDataN:  DoStor=T MaxTD1= 7 Len=  274
 Number of processors reduced to  37 by ecpmxn.
 NBasis=  2874 RedAO= T EigKep=  2.22D-04  NBF=  2874
 NBsUse=  2874 1.00D-06 EigRej= -1.00D+00 NBFU=  2874
 Defaulting to unpruned grid for atomic number  46.
 ExpMin= 3.70D-02 ExpMax= 1.71D+03 ExpMxC= 2.58D+02 IAcc=3 IRadAn=         5 AccDes= 0.00D+00
 Harris functional with IExCor= 1009 and IRadAn=       5 diagonalized for initial guess.
 HarFok:  IExCor= 1009 AccDes= 0.00D+00 IRadAn=         5 IDoV= 1 UseB2=F ITyADJ=14
 ICtDFT=  3500011 ScaDFX=  1.000000  1.000000  1.000000  1.000000
 Defaulting to unpruned grid for atomic number  46.
 FoFCou: FMM=F IPFlag=           0 FMFlag=      100000 FMFlg1=        2001
         NFxFlg=           0 DoJE=T BraDBF=F KetDBF=T FulRan=T
         wScrn=  0.000000 ICntrl=       500 IOpCl=  0 I1Cent=   200000004 NGrid=           0
         NMat0=    1 NMatS0=      1 NMatT0=    0 NMatD0=    1 NMtDS0=    0 NMtDT0=    0
 Petite list used in FoFCou.
 Requested convergence on RMS density matrix=1.00D-08 within 128 cycles.
 Requested convergence on MAX density matrix=1.00D-06.
 Requested convergence on             energy=1.00D-06.
 No special actions if energy rises.
 Defaulting to unpruned grid for atomic number  46.
 Defaulting to unpruned grid for atomic number  46.
 Defaulting to unpruned grid for atomic number  46.
 Defaulting to unpruned grid for atomic number  46.
 Defaulting to unpruned grid for atomic number  46.
 Defaulting to unpruned grid for atomic number  46.
 Defaulting to unpruned grid for atomic number  46.
 Defaulting to unpruned grid for atomic number  46.
 Defaulting to unpruned grid for atomic number  46.
 Defaulting to unpruned grid for atomic number  46.
 Defaulting to unpruned grid for atomic number  46.
 Defaulting to unpruned grid for atomic number  46.
 Defaulting to unpruned grid for atomic number  46.
 Defaulting to unpruned grid for atomic number  46.
 Defaulting to unpruned grid for atomic number  46.
 Defaulting to unpruned grid for atomic number  46.
 Defaulting to unpruned grid for atomic number  46.
 Defaulting to unpruned grid for atomic number  46.
 Defaulting to unpruned grid for atomic number  46.
 Defaulting to unpruned grid for atomic number  46.
 Defaulting to unpruned grid for atomic number  46.
 Defaulting to unpruned grid for atomic number  46.
 Defaulting to unpruned grid for atomic number  46.
 Defaulting to unpruned grid for atomic number  46.
 Defaulting to unpruned grid for atomic number  46.
 Defaulting to unpruned grid for atomic number  46.
 Defaulting to unpruned grid for atomic number  46.
 Defaulting to unpruned grid for atomic number  46.
 Defaulting to unpruned grid for atomic number  46.
 Defaulting to unpruned grid for atomic number  46.
 Defaulting to unpruned grid for atomic number  46.
 Defaulting to unpruned grid for atomic number  46.
 Defaulting to unpruned grid for atomic number  46.
 Defaulting to unpruned grid for atomic number  46.
 Defaulting to unpruned grid for atomic number  46.
 Defaulting to unpruned grid for atomic number  46.
 Defaulting to unpruned grid for atomic number  46.
 Defaulting to unpruned grid for atomic number  46.
 Defaulting to unpruned grid for atomic number  46.
 Defaulting to unpruned grid for atomic number  46.
 Defaulting to unpruned grid for atomic number  46.
 Defaulting to unpruned grid for atomic number  46.
 Defaulting to unpruned grid for atomic number  46.
 Defaulting to unpruned grid for atomic number  46.
 Defaulting to unpruned grid for atomic number  46.
 Defaulting to unpruned grid for atomic number  46.
 Defaulting to unpruned grid for atomic number  46.
 Defaulting to unpruned grid for atomic number  46.
 Inv3:  Mode=1 IEnd=   856120347.
 Iteration    1 A*A^-1 deviation from unit magnitude is 1.60D-14 for  16868.
 Iteration    1 A*A^-1 deviation from orthogonality  is 1.60D-14 for  16868   5767.
 Iteration    1 A^-1*A deviation from unit magnitude is 1.51D-14 for  16868.
 Iteration    1 A^-1*A deviation from orthogonality  is 1.50D-14 for  16428  16404.
 EnCoef did   100 forward-backward iterations
 EnCoef did   100 forward-backward iterations
 Error on total polarization charges =  0.03156
 SCF Done:  E(RHSEH1PBE) =  -6900.15335574     A.U. after   19 cycles
            NFock= 19  Conv=0.35D-08     -V/T= 2.0343
 Hyperfine terms turned off by default for NAtoms > 100.

 **********************************************************************

            Population analysis using the SCF Density.

 **********************************************************************

 Orbital symmetries:
       Occupied  (A) (A) (A) (A) (A) (A) (A) (A) (A) (A) (A) (A)
                 (A) (A) (A) (A) (A) (A) (A) (A) (A) (A) (A) (A)
                 (A) (A) (A) (A) (A) (A) (A) (A) (A) (A) (A) (A)
                 (A) (A) (A) (A) (A) (A) (A) (A) (A) (A) (A) (A)
                 (A) (A) (A) (A) (A) (A) (A) (A) (A) (A) (A) (A)
                 (A) (A) (A) (A) (A) (A) (A) (A) (A) (A) (A) (A)
                 (A) (A) (A) (A) (A) (A) (A) (A) (A) (A) (A) (A)
                 (A) (A) (A) (A) (A) (A) (A) (A) (A) (A) (A) (A)
                 (A) (A) (A) (A) (A) (A) (A) (A) (A) (A) (A) (A)
                 (A) (A) (A) (A) (A) (A) (A) (A) (A) (A) (A) (A)
                 (A) (A) (A) (A) (A) (A) (A) (A) (A) (A) (A) (A)
                 (A) (A) (A) (A) (A) (A) (A) (A) (A) (A) (A) (A)
                 (A) (A) (A) (A) (A) (A) (A) (A) (A) (A) (A) (A)
                 (A) (A) (A) (A) (A) (A) (A) (A) (A) (A) (A) (A)
                 (A) (A) (A) (A) (A) (A) (A) (A) (A) (A) (A) (A)
                 (A) (A) (A) (A) (A) (A) (A) (A) (A) (A) (A) (A)
                 (A) (A) (A) (A) (A) (A) (A) (A) (A) (A) (A) (A)
                 (A) (A) (A) (A) (A) (A) (A) (A) (A) (A) (A) (A)
                 (A) (A) (A) (A) (A) (A) (A) (A) (A) (A) (A) (A)
                 (A) (A) (A) (A) (A) (A) (A) (A) (A) (A) (A) (A)
                 (A) (A) (A) (A) (A) (A) (A) (A) (A) (A) (A) (A)
                 (A) (A) (A) (A) (A) (A) (A) (A) (A) (A) (A) (A)
                 (A) (A) (A) (A) (A) (A) (A) (A) (A) (A) (A) (A)
                 (A) (A) (A) (A) (A) (A) (A) (A) (A) (A) (A) (A)
                 (A) (A) (A) (A) (A) (A) (A) (A) (A) (A) (A) (A)
                 (A) (A) (A) (A) (A) (A) (A) (A) (A) (A) (A) (A)
                 (A) (A) (A) (A) (A) (A) (A) (A) (A) (A) (A) (A)
                 (A) (A) (A) (A) (A) (A) (A) (A) (A) (A) (A) (A)
                 (A) (A) (A) (A) (A) (A) (A) (A) (A) (A) (A) (A)
                 (A) (A) (A) (A) (A) (A) (A) (A) (A) (A) (A) (A)
                 (A) (A) (A) (A) (A) (A) (A) (A) (A) (A) (A) (A)
                 (A) (A) (A) (A) (A) (A) (A) (A) (A) (A) (A) (A)
                 (A) (A) (A) (A) (A) (A) (A) (A) (A) (A) (A) (A)
                 (A) (A) (A) (A) (A) (A) (A) (A) (A) (A) (A) (A)
                 (A) (A) (A) (A) (A) (A) (A) (A) (A) (A) (A) (A)
                 (A) (A) (A) (A) (A) (A) (A) (A) (A) (A) (A) (A)
                 (A) (A) (A) (A) (A) (A) (A) (A) (A) (A) (A) (A)
                 (A) (A) (A) (A) (A) (A) (A) (A) (A) (A) (A) (A)
                 (A) (A) (A) (A) (A) (A) (A) (A) (A) (A) (A) (A)
                 (A) (A) (A) (A) (A) (A) (A) (A) (A) (A) (A) (A)
                 (A) (A) (A) (A) (A) (A) (A) (A) (A) (A) (A) (A)
                 (A) (A) (A) (A) (A) (A) (A) (A) (A) (A) (A) (A)
                 (A) (A) (A) (A) (A) (A) (A) (A) (A) (A) (A) (A)
                 (A) (A) (A) (A) (A) (A) (A) (A) (A) (A) (A) (A)
                 (A) (A) (A) (A) (A) (A) (A) (A) (A) (A) (A) (A)
                 (A) (A) (A) (A) (A) (A) (A) (A) (A) (A) (A) (A)
                 (A) (A) (A) (A) (A) (A) (A) (A) (A) (A) (A) (A)
                 (A) (A) (A) (A) (A) (A) (A) (A)
       Virtual   (A) (A) (A) (A) (A) (A) (A) (A) (A) (A) (A) (A)
                 (A) (A) (A) (A) (A) (A) (A) (A) (A) (A) (A) (A)
                 (A) (A) (A) (A) (A) (A) (A) (A) (A) (A) (A) (A)
                 (A) (A) (A) (A) (A) (A) (A) (A) (A) (A) (A) (A)
                 (A) (A) (A) (A) (A) (A) (A) (A) (A) (A) (A) (A)
                 (A) (A) (A) (A) (A) (A) (A) (A) (A) (A) (A) (A)
                 (A) (A) (A) (A) (A) (A) (A) (A) (A) (A) (A) (A)
                 (A) (A) (A) (A) (A) (A) (A) (A) (A) (A) (A) (A)
                 (A) (A) (A) (A) (A) (A) (A) (A) (A) (A) (A) (A)
                 (A) (A) (A) (A) (A) (A) (A) (A) (A) (A) (A) (A)
                 (A) (A) (A) (A) (A) (A) (A) (A) (A) (A) (A) (A)
                 (A) (A) (A) (A) (A) (A) (A) (A) (A) (A) (A) (A)
                 (A) (A) (A) (A) (A) (A) (A) (A) (A) (A) (A) (A)
                 (A) (A) (A) (A) (A) (A) (A) (A) (A) (A) (A) (A)
                 (A) (A) (A) (A) (A) (A) (A) (A) (A) (A) (A) (A)
                 (A) (A) (A) (A) (A) (A) (A) (A) (A) (A) (A) (A)
                 (A) (A) (A) (A) (A) (A) (A) (A) (A) (A) (A) (A)
                 (A) (A) (A) (A) (A) (A) (A) (A) (A) (A) (A) (A)
                 (A) (A) (A) (A) (A) (A) (A) (A) (A) (A) (A) (A)
                 (A) (A) (A) (A) (A) (A) (A) (A) (A) (A) (A) (A)
                 (A) (A) (A) (A) (A) (A) (A) (A) (A) (A) (A) (A)
                 (A) (A) (A) (A) (A) (A) (A) (A) (A) (A) (A) (A)
                 (A) (A) (A) (A) (A) (A) (A) (A) (A) (A) (A) (A)
                 (A) (A) (A) (A) (A) (A) (A) (A) (A) (A) (A) (A)
                 (A) (A) (A) (A) (A) (A) (A) (A) (A) (A) (A) (A)
                 (A) (A) (A) (A) (A) (A) (A) (A) (A) (A) (A) (A)
                 (A) (A) (A) (A) (A) (A) (A) (A) (A) (A) (A) (A)
                 (A) (A) (A) (A) (A) (A) (A) (A) (A) (A) (A) (A)
                 (A) (A) (A) (A) (A) (A) (A) (A) (A) (A) (A) (A)
                 (A) (A) (A) (A) (A) (A) (A) (A) (A) (A) (A) (A)
                 (A) (A) (A) (A) (A) (A) (A) (A) (A) (A) (A) (A)
                 (A) (A) (A) (A) (A) (A) (A) (A) (A) (A) (A) (A)
                 (A) (A) (A) (A) (A) (A) (A) (A) (A) (A) (A) (A)
                 (A) (A) (A) (A) (A) (A) (A) (A) (A) (A) (A) (A)
                 (A) (A) (A) (A) (A) (A) (A) (A) (A) (A) (A) (A)
                 (A) (A) (A) (A) (A) (A) (A) (A) (A) (A) (A) (A)
                 (A) (A) (A) (A) (A) (A) (A) (A) (A) (A) (A) (A)
                 (A) (A) (A) (A) (A) (A) (A) (A) (A) (A) (A) (A)
                 (A) (A) (A) (A) (A) (A) (A) (A) (A) (A) (A) (A)
                 (A) (A) (A) (A) (A) (A) (A) (A) (A) (A) (A) (A)
                 (A) (A) (A) (A) (A) (A) (A) (A) (A) (A) (A) (A)
                 (A) (A) (A) (A) (A) (A) (A) (A) (A) (A) (A) (A)
                 (A) (A) (A) (A) (A) (A) (A) (A) (A) (A) (A) (A)
                 (A) (A) (A) (A) (A) (A) (A) (A) (A) (A) (A) (A)
                 (A) (A) (A) (A) (A) (A) (A) (A) (A) (A) (A) (A)
                 (A) (A) (A) (A) (A) (A) (A) (A) (A) (A) (A) (A)
                 (A) (A) (A) (A) (A) (A) (A) (A) (A) (A) (A) (A)
                 (A) (A) (A) (A) (A) (A) (A) (A) (A) (A) (A) (A)
                 (A) (A) (A) (A) (A) (A) (A) (A) (A) (A) (A) (A)
                 (A) (A) (A) (A) (A) (A) (A) (A) (A) (A) (A) (A)
                 (A) (A) (A) (A) (A) (A) (A) (A) (A) (A) (A) (A)
                 (A) (A) (A) (A) (A) (A) (A) (A) (A) (A) (A) (A)
                 (A) (A) (A) (A) (A) (A) (A) (A) (A) (A) (A) (A)
                 (A) (A) (A) (A) (A) (A) (A) (A) (A) (A) (A) (A)
                 (A) (A) (A) (A) (A) (A) (A) (A) (A) (A) (A) (A)
                 (A) (A) (A) (A) (A) (A) (A) (A) (A) (A) (A) (A)
                 (A) (A) (A) (A) (A) (A) (A) (A) (A) (A) (A) (A)
                 (A) (A) (A) (A) (A) (A) (A) (A) (A) (A) (A) (A)
                 (A) (A) (A) (A) (A) (A) (A) (A) (A) (A) (A) (A)
                 (A) (A) (A) (A) (A) (A) (A) (A) (A) (A) (A) (A)
                 (A) (A) (A) (A) (A) (A) (A) (A) (A) (A) (A) (A)
                 (A) (A) (A) (A) (A) (A) (A) (A) (A) (A) (A) (A)
                 (A) (A) (A) (A) (A) (A) (A) (A) (A) (A) (A) (A)
                 (A) (A) (A) (A) (A) (A) (A) (A) (A) (A) (A) (A)
                 (A) (A) (A) (A) (A) (A) (A) (A) (A) (A) (A) (A)
                 (A) (A) (A) (A) (A) (A) (A) (A) (A) (A) (A) (A)
                 (A) (A) (A) (A) (A) (A) (A) (A) (A) (A) (A) (A)
                 (A) (A) (A) (A) (A) (A) (A) (A) (A) (A) (A) (A)
                 (A) (A) (A) (A) (A) (A) (A) (A) (A) (A) (A) (A)
                 (A) (A) (A) (A) (A) (A) (A) (A) (A) (A) (A) (A)
                 (A) (A) (A) (A) (A) (A) (A) (A) (A) (A) (A) (A)
                 (A) (A) (A) (A) (A) (A) (A) (A) (A) (A) (A) (A)
                 (A) (A) (A) (A) (A) (A) (A) (A) (A) (A) (A) (A)
                 (A) (A) (A) (A) (A) (A) (A) (A) (A) (A) (A) (A)
                 (A) (A) (A) (A) (A) (A) (A) (A) (A) (A) (A) (A)
                 (A) (A) (A) (A) (A) (A) (A) (A) (A) (A) (A) (A)
                 (A) (A) (A) (A) (A) (A) (A) (A) (A) (A) (A) (A)
                 (A) (A) (A) (A) (A) (A) (A) (A) (A) (A) (A) (A)
                 (A) (A) (A) (A) (A) (A) (A) (A) (A) (A) (A) (A)
                 (A) (A) (A) (A) (A) (A) (A) (A) (A) (A) (A) (A)
                 (A) (A) (A) (A) (A) (A) (A) (A) (A) (A) (A) (A)
                 (A) (A) (A) (A) (A) (A) (A) (A) (A) (A) (A) (A)
                 (A) (A) (A) (A) (A) (A) (A) (A) (A) (A) (A) (A)
                 (A) (A) (A) (A) (A) (A) (A) (A) (A) (A) (A) (A)
                 (A) (A) (A) (A) (A) (A) (A) (A) (A) (A) (A) (A)
                 (A) (A) (A) (A) (A) (A) (A) (A) (A) (A) (A) (A)
                 (A) (A) (A) (A) (A) (A) (A) (A) (A) (A) (A) (A)
                 (A) (A) (A) (A) (A) (A) (A) (A) (A) (A) (A) (A)
                 (A) (A) (A) (A) (A) (A) (A) (A) (A) (A) (A) (A)
                 (A) (A) (A) (A) (A) (A) (A) (A) (A) (A) (A) (A)
                 (A) (A) (A) (A) (A) (A) (A) (A) (A) (A) (A) (A)
                 (A) (A) (A) (A) (A) (A) (A) (A) (A) (A) (A) (A)
                 (A) (A) (A) (A) (A) (A) (A) (A) (A) (A) (A) (A)
                 (A) (A) (A) (A) (A) (A) (A) (A) (A) (A) (A) (A)
                 (A) (A) (A) (A) (A) (A) (A) (A) (A) (A) (A) (A)
                 (A) (A) (A) (A) (A) (A) (A) (A) (A) (A) (A) (A)
                 (A) (A) (A) (A) (A) (A) (A) (A) (A) (A) (A) (A)
                 (A) (A) (A) (A) (A) (A) (A) (A) (A) (A) (A) (A)
                 (A) (A) (A) (A) (A) (A) (A) (A) (A) (A) (A) (A)
                 (A) (A) (A) (A) (A) (A) (A) (A) (A) (A) (A) (A)
                 (A) (A) (A) (A) (A) (A) (A) (A) (A) (A) (A) (A)
                 (A) (A) (A) (A) (A) (A) (A) (A) (A) (A) (A) (A)
                 (A) (A) (A) (A) (A) (A) (A) (A) (A) (A) (A) (A)
                 (A) (A) (A) (A) (A) (A) (A) (A) (A) (A) (A) (A)
                 (A) (A) (A) (A) (A) (A) (A) (A) (A) (A) (A) (A)
                 (A) (A) (A) (A) (A) (A) (A) (A) (A) (A) (A) (A)
                 (A) (A) (A) (A) (A) (A) (A) (A) (A) (A) (A) (A)
                 (A) (A) (A) (A) (A) (A) (A) (A) (A) (A) (A) (A)
                 (A) (A) (A) (A) (A) (A) (A) (A) (A) (A) (A) (A)
                 (A) (A) (A) (A) (A) (A) (A) (A) (A) (A) (A) (A)
                 (A) (A) (A) (A) (A) (A) (A) (A) (A) (A) (A) (A)
                 (A) (A) (A) (A) (A) (A) (A) (A) (A) (A) (A) (A)
                 (A) (A) (A) (A) (A) (A) (A) (A) (A) (A) (A) (A)
                 (A) (A) (A) (A) (A) (A) (A) (A) (A) (A) (A) (A)
                 (A) (A) (A) (A) (A) (A) (A) (A) (A) (A) (A) (A)
                 (A) (A) (A) (A) (A) (A) (A) (A) (A) (A) (A) (A)
                 (A) (A) (A) (A) (A) (A) (A) (A) (A) (A) (A) (A)
                 (A) (A) (A) (A) (A) (A) (A) (A) (A) (A) (A) (A)
                 (A) (A) (A) (A) (A) (A) (A) (A) (A) (A) (A) (A)
                 (A) (A) (A) (A) (A) (A) (A) (A) (A) (A) (A) (A)
                 (A) (A) (A) (A) (A) (A) (A) (A) (A) (A) (A) (A)
                 (A) (A) (A) (A) (A) (A) (A) (A) (A) (A) (A) (A)
                 (A) (A) (A) (A) (A) (A) (A) (A) (A) (A) (A) (A)
                 (A) (A) (A) (A) (A) (A) (A) (A) (A) (A) (A) (A)
                 (A) (A) (A) (A) (A) (A) (A) (A) (A) (A) (A) (A)
                 (A) (A) (A) (A) (A) (A) (A) (A) (A) (A) (A) (A)
                 (A) (A) (A) (A) (A) (A) (A) (A) (A) (A) (A) (A)
                 (A) (A) (A) (A) (A) (A) (A) (A) (A) (A) (A) (A)
                 (A) (A) (A) (A) (A) (A) (A) (A) (A) (A) (A) (A)
                 (A) (A) (A) (A) (A) (A) (A) (A) (A) (A) (A) (A)
                 (A) (A) (A) (A) (A) (A) (A) (A) (A) (A) (A) (A)
                 (A) (A) (A) (A) (A) (A) (A) (A) (A) (A) (A) (A)
                 (A) (A) (A) (A) (A) (A) (A) (A) (A) (A) (A) (A)
                 (A) (A) (A) (A) (A) (A) (A) (A) (A) (A) (A) (A)
                 (A) (A) (A) (A) (A) (A) (A) (A) (A) (A) (A) (A)
                 (A) (A) (A) (A) (A) (A) (A) (A) (A) (A) (A) (A)
                 (A) (A) (A) (A) (A) (A) (A) (A) (A) (A) (A) (A)
                 (A) (A) (A) (A) (A) (A) (A) (A) (A) (A) (A) (A)
                 (A) (A) (A) (A) (A) (A) (A) (A) (A) (A) (A) (A)
                 (A) (A) (A) (A) (A) (A) (A) (A) (A) (A) (A) (A)
                 (A) (A) (A) (A) (A) (A) (A) (A) (A) (A) (A) (A)
                 (A) (A) (A) (A) (A) (A) (A) (A) (A) (A) (A) (A)
                 (A) (A) (A) (A) (A) (A) (A) (A) (A) (A) (A) (A)
                 (A) (A) (A) (A) (A) (A) (A) (A) (A) (A) (A) (A)
                 (A) (A) (A) (A) (A) (A) (A) (A) (A) (A) (A) (A)
                 (A) (A) (A) (A) (A) (A) (A) (A) (A) (A) (A) (A)
                 (A) (A) (A) (A) (A) (A) (A) (A) (A) (A) (A) (A)
                 (A) (A) (A) (A) (A) (A) (A) (A) (A) (A) (A) (A)
                 (A) (A) (A) (A) (A) (A) (A) (A) (A) (A) (A) (A)
                 (A) (A) (A) (A) (A) (A) (A) (A) (A) (A) (A) (A)
                 (A) (A) (A) (A) (A) (A) (A) (A) (A) (A) (A) (A)
                 (A) (A) (A) (A) (A) (A) (A) (A) (A) (A) (A) (A)
                 (A) (A) (A) (A) (A) (A) (A) (A) (A) (A) (A) (A)
                 (A) (A) (A) (A) (A) (A) (A) (A) (A) (A) (A) (A)
                 (A) (A) (A) (A) (A) (A) (A) (A) (A) (A) (A) (A)
                 (A) (A) (A) (A) (A) (A) (A) (A) (A) (A) (A) (A)
                 (A) (A) (A) (A) (A) (A) (A) (A) (A) (A) (A) (A)
                 (A) (A) (A) (A) (A) (A) (A) (A) (A) (A) (A) (A)
                 (A) (A) (A) (A) (A) (A) (A) (A) (A) (A) (A) (A)
                 (A) (A) (A) (A) (A) (A) (A) (A) (A) (A) (A) (A)
                 (A) (A) (A) (A) (A) (A) (A) (A) (A) (A) (A) (A)
                 (A) (A) (A) (A) (A) (A) (A) (A) (A) (A) (A) (A)
                 (A) (A) (A) (A) (A) (A) (A) (A) (A) (A) (A) (A)
                 (A) (A) (A) (A) (A) (A) (A) (A) (A) (A) (A) (A)
                 (A) (A) (A) (A) (A) (A) (A) (A) (A) (A) (A) (A)
                 (A) (A) (A) (A) (A) (A) (A) (A) (A) (A) (A) (A)
                 (A) (A) (A) (A) (A) (A) (A) (A) (A) (A) (A) (A)
                 (A) (A) (A) (A) (A) (A) (A) (A) (A) (A) (A) (A)
                 (A) (A) (A) (A) (A) (A) (A) (A) (A) (A) (A) (A)
                 (A) (A) (A) (A) (A) (A) (A) (A) (A) (A) (A) (A)
                 (A) (A) (A) (A) (A) (A) (A) (A) (A) (A) (A) (A)
                 (A) (A) (A) (A) (A) (A) (A) (A) (A) (A) (A) (A)
                 (A) (A) (A) (A) (A) (A) (A) (A) (A) (A) (A) (A)
                 (A) (A) (A) (A) (A) (A) (A) (A) (A) (A) (A) (A)
                 (A) (A) (A) (A) (A) (A) (A) (A) (A) (A) (A) (A)
                 (A) (A) (A) (A) (A) (A) (A) (A) (A) (A) (A) (A)
                 (A) (A) (A) (A) (A) (A) (A) (A) (A) (A) (A) (A)
                 (A) (A) (A) (A) (A) (A) (A) (A) (A) (A) (A) (A)
                 (A) (A) (A) (A) (A) (A) (A) (A) (A) (A) (A) (A)
                 (A) (A) (A) (A) (A) (A) (A) (A) (A) (A) (A) (A)
                 (A) (A) (A) (A) (A) (A) (A) (A) (A) (A) (A) (A)
                 (A) (A) (A) (A) (A) (A) (A) (A) (A) (A) (A) (A)
                 (A) (A) (A) (A) (A) (A) (A) (A) (A) (A) (A) (A)
                 (A) (A) (A) (A) (A) (A) (A) (A) (A) (A) (A) (A)
                 (A) (A) (A) (A) (A) (A) (A) (A) (A) (A) (A) (A)
                 (A) (A) (A) (A) (A) (A) (A) (A) (A) (A) (A) (A)
                 (A) (A) (A) (A) (A) (A) (A) (A) (A) (A) (A) (A)
                 (A) (A) (A) (A) (A) (A) (A) (A) (A) (A) (A) (A)
                 (A) (A) (A) (A) (A) (A) (A) (A) (A) (A) (A) (A)
                 (A) (A) (A) (A) (A) (A) (A) (A) (A) (A) (A) (A)
                 (A) (A) (A) (A) (A) (A) (A) (A) (A) (A) (A) (A)
                 (A) (A) (A) (A) (A) (A) (A) (A) (A) (A)
 The electronic state is 1-A.
 Alpha  occ. eigenvalues --  -14.46823 -14.46754 -14.46741 -14.46700 -14.46688
 Alpha  occ. eigenvalues --  -14.46682 -14.46611 -14.46580 -14.40050 -14.39808
 Alpha  occ. eigenvalues --  -14.39646 -14.39628 -10.30976 -10.30902 -10.30843
 Alpha  occ. eigenvalues --  -10.30823 -10.30781 -10.30742 -10.30633 -10.30556
 Alpha  occ. eigenvalues --  -10.30191 -10.30174 -10.30047 -10.30020 -10.29769
 Alpha  occ. eigenvalues --  -10.29693 -10.29460 -10.29449 -10.29443 -10.29402
 Alpha  occ. eigenvalues --  -10.29392 -10.29391 -10.29387 -10.29379 -10.29163
 Alpha  occ. eigenvalues --  -10.29151 -10.27661 -10.27609 -10.27607 -10.27595
 Alpha  occ. eigenvalues --  -10.27595 -10.27564 -10.27559 -10.27557 -10.27553
 Alpha  occ. eigenvalues --  -10.27518 -10.27509 -10.27499 -10.27483 -10.27424
 Alpha  occ. eigenvalues --  -10.27325 -10.27257 -10.27222 -10.27187 -10.27171
 Alpha  occ. eigenvalues --  -10.27144 -10.27137 -10.27124 -10.27104 -10.27049
 Alpha  occ. eigenvalues --  -10.27048 -10.27017 -10.27015 -10.27013 -10.26956
 Alpha  occ. eigenvalues --  -10.26920 -10.26918 -10.26906 -10.26407 -10.26391
 Alpha  occ. eigenvalues --  -10.26378 -10.26355 -10.26350 -10.26349 -10.26348
 Alpha  occ. eigenvalues --  -10.26334 -10.26319 -10.26261 -10.26212 -10.26162
 Alpha  occ. eigenvalues --  -10.26121 -10.26120 -10.26108 -10.26050 -10.25964
 Alpha  occ. eigenvalues --  -10.25916 -10.25738 -10.25707 -10.25706 -10.25704
 Alpha  occ. eigenvalues --  -10.25687 -10.25672 -10.25652 -10.25637 -10.25623
 Alpha  occ. eigenvalues --  -10.25563 -10.25551 -10.25507 -10.25498 -10.25496
 Alpha  occ. eigenvalues --  -10.25492 -10.25488 -10.25446 -10.25435 -10.25432
 Alpha  occ. eigenvalues --  -10.25419 -10.25399 -10.25389 -10.25347 -10.25345
 Alpha  occ. eigenvalues --  -10.25334 -10.25300 -10.25297 -10.25290 -10.25269
 Alpha  occ. eigenvalues --  -10.25194 -10.25173 -10.25151 -10.25141 -10.25140
 Alpha  occ. eigenvalues --  -10.25130 -10.25109 -10.25105 -10.25096 -10.25069
 Alpha  occ. eigenvalues --  -10.25067 -10.25065 -10.25047 -10.25043 -10.25033
 Alpha  occ. eigenvalues --  -10.25021 -10.25016 -10.25008 -10.25002 -10.24987
 Alpha  occ. eigenvalues --  -10.24983 -10.24981 -10.24977 -10.24962 -10.24958
 Alpha  occ. eigenvalues --  -10.24955 -10.24929 -10.24904 -10.24892 -10.24854
 Alpha  occ. eigenvalues --  -10.24807 -10.24806 -10.24783 -10.24721 -10.24658
 Alpha  occ. eigenvalues --  -10.24658 -10.24650 -10.24641 -10.24546 -10.24511
 Alpha  occ. eigenvalues --  -10.24450 -10.24446 -10.24434 -10.24421 -10.24381
 Alpha  occ. eigenvalues --  -10.24363 -10.24351 -10.24332 -10.24323 -10.24148
 Alpha  occ. eigenvalues --  -10.24110 -10.23964 -10.23910  -3.55347  -3.55328
 Alpha  occ. eigenvalues --   -2.23201  -2.23145  -2.23124  -2.23117  -2.18990
 Alpha  occ. eigenvalues --   -2.18986  -1.01583  -1.01517  -1.00935  -1.00875
 Alpha  occ. eigenvalues --   -1.00855  -1.00851  -1.00704  -1.00670  -0.98308
 Alpha  occ. eigenvalues --   -0.98127  -0.97796  -0.97427  -0.90991  -0.90941
 Alpha  occ. eigenvalues --   -0.90868  -0.90856  -0.90838  -0.90832  -0.90811
 Alpha  occ. eigenvalues --   -0.90796  -0.88926  -0.88838  -0.88811  -0.88777
 Alpha  occ. eigenvalues --   -0.88746  -0.88720  -0.88706  -0.88673  -0.84119
 Alpha  occ. eigenvalues --   -0.84054  -0.83954  -0.83896  -0.83883  -0.83851
 Alpha  occ. eigenvalues --   -0.83801  -0.83759  -0.83060  -0.82967  -0.82827
 Alpha  occ. eigenvalues --   -0.82737  -0.82736  -0.82494  -0.82388  -0.81735
 Alpha  occ. eigenvalues --   -0.81194  -0.81124  -0.81074  -0.81049  -0.80975
 Alpha  occ. eigenvalues --   -0.80876  -0.80831  -0.80803  -0.80592  -0.80512
 Alpha  occ. eigenvalues --   -0.80470  -0.80300  -0.80278  -0.80221  -0.80165
 Alpha  occ. eigenvalues --   -0.79917  -0.77894  -0.77860  -0.77782  -0.77661
 Alpha  occ. eigenvalues --   -0.77320  -0.77283  -0.77254  -0.77180  -0.77143
 Alpha  occ. eigenvalues --   -0.77107  -0.77032  -0.76976  -0.76865  -0.76769
 Alpha  occ. eigenvalues --   -0.76727  -0.76661  -0.74782  -0.74751  -0.74679
 Alpha  occ. eigenvalues --   -0.74594  -0.73376  -0.73351  -0.73134  -0.72759
 Alpha  occ. eigenvalues --   -0.69136  -0.69093  -0.69001  -0.68958  -0.68920
 Alpha  occ. eigenvalues --   -0.68899  -0.68860  -0.68799  -0.68003  -0.67917
 Alpha  occ. eigenvalues --   -0.67849  -0.67810  -0.67699  -0.67574  -0.67540
 Alpha  occ. eigenvalues --   -0.67158  -0.66903  -0.66863  -0.66840  -0.66812
 Alpha  occ. eigenvalues --   -0.66745  -0.66719  -0.66647  -0.66503  -0.65306
 Alpha  occ. eigenvalues --   -0.65260  -0.65152  -0.65067  -0.65046  -0.64911
 Alpha  occ. eigenvalues --   -0.64856  -0.64497  -0.63092  -0.63083  -0.63019
 Alpha  occ. eigenvalues --   -0.62970  -0.62958  -0.62891  -0.62760  -0.62747
 Alpha  occ. eigenvalues --   -0.61681  -0.61582  -0.61485  -0.61446  -0.61370
 Alpha  occ. eigenvalues --   -0.61356  -0.61278  -0.61213  -0.58480  -0.58294
 Alpha  occ. eigenvalues --   -0.58063  -0.57454  -0.56862  -0.56832  -0.56581
 Alpha  occ. eigenvalues --   -0.56551  -0.56496  -0.56471  -0.56454  -0.56357
 Alpha  occ. eigenvalues --   -0.56240  -0.56087  -0.55752  -0.55699  -0.55695
 Alpha  occ. eigenvalues --   -0.55676  -0.55605  -0.55572  -0.55557  -0.55475
 Alpha  occ. eigenvalues --   -0.55417  -0.55360  -0.55046  -0.54784  -0.54629
 Alpha  occ. eigenvalues --   -0.54603  -0.54556  -0.54537  -0.54378  -0.54247
 Alpha  occ. eigenvalues --   -0.53781  -0.53768  -0.53758  -0.53755  -0.52628
 Alpha  occ. eigenvalues --   -0.52503  -0.52276  -0.51849  -0.50468  -0.50405
 Alpha  occ. eigenvalues --   -0.50352  -0.50223  -0.50176  -0.50090  -0.49997
 Alpha  occ. eigenvalues --   -0.49926  -0.49878  -0.49806  -0.49667  -0.49379
 Alpha  occ. eigenvalues --   -0.49369  -0.49302  -0.49223  -0.49132  -0.49057
 Alpha  occ. eigenvalues --   -0.49014  -0.48952  -0.48914  -0.48726  -0.48685
 Alpha  occ. eigenvalues --   -0.48612  -0.48545  -0.48490  -0.48445  -0.48420
 Alpha  occ. eigenvalues --   -0.48390  -0.48269  -0.48240  -0.48114  -0.47972
 Alpha  occ. eigenvalues --   -0.47886  -0.47845  -0.47655  -0.47612  -0.47583
 Alpha  occ. eigenvalues --   -0.47566  -0.47544  -0.47509  -0.47426  -0.46978
 Alpha  occ. eigenvalues --   -0.46347  -0.46347  -0.46296  -0.46284  -0.46277
 Alpha  occ. eigenvalues --   -0.46256  -0.46207  -0.46135  -0.45923  -0.45712
 Alpha  occ. eigenvalues --   -0.45618  -0.45553  -0.45341  -0.45303  -0.45221
 Alpha  occ. eigenvalues --   -0.45176  -0.45149  -0.45124  -0.45083  -0.45039
 Alpha  occ. eigenvalues --   -0.44809  -0.44754  -0.44695  -0.44549  -0.44441
 Alpha  occ. eigenvalues --   -0.44338  -0.44204  -0.44099  -0.44085  -0.43980
 Alpha  occ. eigenvalues --   -0.43874  -0.43771  -0.43706  -0.43657  -0.43637
 Alpha  occ. eigenvalues --   -0.43490  -0.43458  -0.43042  -0.42922  -0.42537
 Alpha  occ. eigenvalues --   -0.42534  -0.42523  -0.42495  -0.42427  -0.42234
 Alpha  occ. eigenvalues --   -0.41893  -0.41820  -0.41807  -0.41761  -0.41393
 Alpha  occ. eigenvalues --   -0.41085  -0.41077  -0.41044  -0.40933  -0.40870
 Alpha  occ. eigenvalues --   -0.40802  -0.40771  -0.40682  -0.40570  -0.40523
 Alpha  occ. eigenvalues --   -0.40437  -0.40361  -0.40272  -0.40182  -0.40138
 Alpha  occ. eigenvalues --   -0.40061  -0.40053  -0.39949  -0.39886  -0.39788
 Alpha  occ. eigenvalues --   -0.39733  -0.39699  -0.39660  -0.39649  -0.39266
 Alpha  occ. eigenvalues --   -0.39244  -0.39122  -0.39107  -0.39063  -0.38919
 Alpha  occ. eigenvalues --   -0.38821  -0.38700  -0.37990  -0.37963  -0.37926
 Alpha  occ. eigenvalues --   -0.37851  -0.36978  -0.36918  -0.36884  -0.36844
 Alpha  occ. eigenvalues --   -0.36733  -0.36700  -0.36668  -0.36625  -0.36448
 Alpha  occ. eigenvalues --   -0.36367  -0.36333  -0.36297  -0.36230  -0.36150
 Alpha  occ. eigenvalues --   -0.36101  -0.36030  -0.35798  -0.35396  -0.35312
 Alpha  occ. eigenvalues --   -0.35104  -0.34730  -0.34560  -0.34522  -0.34383
 Alpha  occ. eigenvalues --   -0.34345  -0.34165  -0.33863  -0.33648  -0.33564
 Alpha  occ. eigenvalues --   -0.33346  -0.33268  -0.33195  -0.32953  -0.32790
 Alpha  occ. eigenvalues --   -0.32511  -0.32448  -0.32311  -0.32256  -0.32137
 Alpha  occ. eigenvalues --   -0.31884  -0.31836  -0.31815  -0.31723  -0.31505
 Alpha  occ. eigenvalues --   -0.31140  -0.31014  -0.30833  -0.30768  -0.30491
 Alpha  occ. eigenvalues --   -0.30269  -0.29698  -0.29681  -0.29635  -0.29573
 Alpha  occ. eigenvalues --   -0.29558  -0.29527  -0.29431  -0.29375  -0.29165
 Alpha  occ. eigenvalues --   -0.29027  -0.28974  -0.28961  -0.28924  -0.28746
 Alpha  occ. eigenvalues --   -0.28277  -0.28201  -0.28024  -0.27926  -0.27882
 Alpha  occ. eigenvalues --   -0.27831  -0.27813  -0.27735  -0.27715  -0.27563
 Alpha  occ. eigenvalues --   -0.27495  -0.27362  -0.27245  -0.27178  -0.27098
 Alpha  occ. eigenvalues --   -0.27040  -0.26691  -0.26648  -0.26536  -0.26207
 Alpha  occ. eigenvalues --   -0.25881  -0.25749  -0.25638  -0.25522  -0.24265
 Alpha  occ. eigenvalues --   -0.24236  -0.24166  -0.23991  -0.23352  -0.23040
 Alpha  occ. eigenvalues --   -0.23018  -0.22722
 Alpha virt. eigenvalues --   -0.11116  -0.11038  -0.10904  -0.10816  -0.10788
 Alpha virt. eigenvalues --   -0.10702  -0.10603  -0.10453  -0.09335  -0.09133
 Alpha virt. eigenvalues --   -0.09017  -0.08989  -0.08926  -0.08789  -0.08455
 Alpha virt. eigenvalues --   -0.08407  -0.08197  -0.07971  -0.07547  -0.07480
 Alpha virt. eigenvalues --   -0.07365  -0.07356  -0.07342  -0.07318  -0.07192
 Alpha virt. eigenvalues --   -0.07111  -0.06553  -0.05635  -0.05088  -0.04952
 Alpha virt. eigenvalues --   -0.04803  -0.04736  -0.04606  -0.04492  -0.04422
 Alpha virt. eigenvalues --   -0.04349  -0.04280  -0.04185  -0.04153  -0.04079
 Alpha virt. eigenvalues --   -0.03756  -0.03607  -0.01882  -0.01736  -0.01686
 Alpha virt. eigenvalues --   -0.01628  -0.01502  -0.01443  -0.01315  -0.01168
 Alpha virt. eigenvalues --    0.00165   0.00209   0.01003   0.01211   0.01237
 Alpha virt. eigenvalues --    0.01669   0.02152   0.02242   0.02428   0.02787
 Alpha virt. eigenvalues --    0.02867   0.03143   0.03183   0.03333   0.03389
 Alpha virt. eigenvalues --    0.03448   0.03635   0.03679   0.03756   0.03859
 Alpha virt. eigenvalues --    0.04049   0.04138   0.04363   0.04480   0.04501
 Alpha virt. eigenvalues --    0.04640   0.04706   0.04880   0.05095   0.05145
 Alpha virt. eigenvalues --    0.05273   0.05408   0.05586   0.05790   0.06103
 Alpha virt. eigenvalues --    0.06154   0.06198   0.06279   0.06327   0.06449
 Alpha virt. eigenvalues --    0.06488   0.06668   0.06801   0.06937   0.07099
 Alpha virt. eigenvalues --    0.07236   0.07386   0.07569   0.07798   0.07823
 Alpha virt. eigenvalues --    0.07876   0.08031   0.08192   0.08349   0.08433
 Alpha virt. eigenvalues --    0.08513   0.08562   0.08660   0.08693   0.08750
 Alpha virt. eigenvalues --    0.08884   0.08967   0.09102   0.09162   0.09252
 Alpha virt. eigenvalues --    0.09389   0.09629   0.09703   0.09853   0.10370
 Alpha virt. eigenvalues --    0.10514   0.10585   0.10660   0.10700   0.10943
 Alpha virt. eigenvalues --    0.11112   0.11296   0.11309   0.11537   0.11600
 Alpha virt. eigenvalues --    0.11719   0.11826   0.11909   0.11946   0.12143
 Alpha virt. eigenvalues --    0.12283   0.12302   0.12498   0.12612   0.12644
 Alpha virt. eigenvalues --    0.12809   0.12929   0.13037   0.13085   0.13242
 Alpha virt. eigenvalues --    0.13335   0.13397   0.13511   0.13637   0.13711
 Alpha virt. eigenvalues --    0.13793   0.13906   0.13990   0.14111   0.14193
 Alpha virt. eigenvalues --    0.14305   0.14317   0.14439   0.14480   0.14609
 Alpha virt. eigenvalues --    0.14737   0.14786   0.14815   0.14868   0.14904
 Alpha virt. eigenvalues --    0.14954   0.15075   0.15155   0.15186   0.15291
 Alpha virt. eigenvalues --    0.15408   0.15495   0.15567   0.15703   0.15812
 Alpha virt. eigenvalues --    0.15857   0.15903   0.16010   0.16143   0.16189
 Alpha virt. eigenvalues --    0.16332   0.16428   0.16539   0.16615   0.16864
 Alpha virt. eigenvalues --    0.16881   0.16967   0.17105   0.17159   0.17347
 Alpha virt. eigenvalues --    0.17463   0.17536   0.17704   0.17773   0.17917
 Alpha virt. eigenvalues --    0.18013   0.18142   0.18171   0.18289   0.18527
 Alpha virt. eigenvalues --    0.18683   0.18907   0.19082   0.19210   0.19312
 Alpha virt. eigenvalues --    0.19437   0.19661   0.19687   0.19855   0.20086
 Alpha virt. eigenvalues --    0.20254   0.20515   0.20646   0.20691   0.20852
 Alpha virt. eigenvalues --    0.21162   0.21234   0.21491   0.21627   0.21864
 Alpha virt. eigenvalues --    0.21896   0.21993   0.22213   0.22338   0.22396
 Alpha virt. eigenvalues --    0.22486   0.22562   0.22627   0.22681   0.22732
 Alpha virt. eigenvalues --    0.22881   0.22926   0.22969   0.23033   0.23116
 Alpha virt. eigenvalues --    0.23233   0.23325   0.23432   0.23563   0.23602
 Alpha virt. eigenvalues --    0.23758   0.23827   0.23873   0.23989   0.24071
 Alpha virt. eigenvalues --    0.24104   0.24243   0.24351   0.24497   0.24582
 Alpha virt. eigenvalues --    0.24703   0.24751   0.24802   0.24908   0.24920
 Alpha virt. eigenvalues --    0.25043   0.25105   0.25184   0.25301   0.25560
 Alpha virt. eigenvalues --    0.25659   0.25768   0.25798   0.26040   0.26099
 Alpha virt. eigenvalues --    0.26111   0.26167   0.26335   0.26454   0.26609
 Alpha virt. eigenvalues --    0.26660   0.26763   0.26879   0.26913   0.27061
 Alpha virt. eigenvalues --    0.27088   0.27171   0.27263   0.27363   0.27412
 Alpha virt. eigenvalues --    0.27484   0.27568   0.27655   0.27684   0.27828
 Alpha virt. eigenvalues --    0.27862   0.27886   0.28014   0.28080   0.28151
 Alpha virt. eigenvalues --    0.28305   0.28351   0.28467   0.28577   0.28631
 Alpha virt. eigenvalues --    0.28784   0.28813   0.28874   0.29012   0.29073
 Alpha virt. eigenvalues --    0.29223   0.29263   0.29313   0.29504   0.29551
 Alpha virt. eigenvalues --    0.29589   0.29705   0.29941   0.30055   0.30094
 Alpha virt. eigenvalues --    0.30143   0.30381   0.30508   0.30652   0.30749
 Alpha virt. eigenvalues --    0.30806   0.30923   0.31087   0.31226   0.31320
 Alpha virt. eigenvalues --    0.31436   0.31562   0.31668   0.31834   0.31935
 Alpha virt. eigenvalues --    0.31993   0.32164   0.32273   0.32329   0.32489
 Alpha virt. eigenvalues --    0.32544   0.32618   0.32682   0.32790   0.32833
 Alpha virt. eigenvalues --    0.32961   0.33094   0.33172   0.33361   0.33433
 Alpha virt. eigenvalues --    0.33544   0.33604   0.33759   0.34054   0.34157
 Alpha virt. eigenvalues --    0.34224   0.34349   0.34503   0.34697   0.34801
 Alpha virt. eigenvalues --    0.34880   0.35003   0.35095   0.35171   0.35216
 Alpha virt. eigenvalues --    0.35262   0.35410   0.35473   0.35529   0.35574
 Alpha virt. eigenvalues --    0.35803   0.35895   0.36031   0.36042   0.36092
 Alpha virt. eigenvalues --    0.36248   0.36356   0.36527   0.36655   0.36734
 Alpha virt. eigenvalues --    0.36839   0.36928   0.37022   0.37171   0.37217
 Alpha virt. eigenvalues --    0.37256   0.37331   0.37451   0.37534   0.37611
 Alpha virt. eigenvalues --    0.37719   0.37864   0.37929   0.38031   0.38043
 Alpha virt. eigenvalues --    0.38199   0.38273   0.38330   0.38564   0.38727
 Alpha virt. eigenvalues --    0.38781   0.38872   0.38957   0.39107   0.39155
 Alpha virt. eigenvalues --    0.39376   0.39501   0.39657   0.39691   0.39829
 Alpha virt. eigenvalues --    0.39877   0.40068   0.40084   0.40264   0.40467
 Alpha virt. eigenvalues --    0.40640   0.40716   0.40892   0.41066   0.41211
 Alpha virt. eigenvalues --    0.41333   0.41358   0.41461   0.41573   0.41679
 Alpha virt. eigenvalues --    0.41785   0.41865   0.42068   0.42116   0.42199
 Alpha virt. eigenvalues --    0.42286   0.42320   0.42418   0.42478   0.42538
 Alpha virt. eigenvalues --    0.42744   0.42755   0.42856   0.42901   0.42944
 Alpha virt. eigenvalues --    0.43051   0.43158   0.43223   0.43319   0.43374
 Alpha virt. eigenvalues --    0.43398   0.43549   0.43714   0.43760   0.43797
 Alpha virt. eigenvalues --    0.43868   0.43960   0.43999   0.44086   0.44183
 Alpha virt. eigenvalues --    0.44259   0.44411   0.44423   0.44440   0.44528
 Alpha virt. eigenvalues --    0.44614   0.44696   0.44749   0.44863   0.44888
 Alpha virt. eigenvalues --    0.44989   0.45097   0.45133   0.45263   0.45286
 Alpha virt. eigenvalues --    0.45323   0.45506   0.45570   0.45680   0.45757
 Alpha virt. eigenvalues --    0.45878   0.45946   0.46072   0.46086   0.46162
 Alpha virt. eigenvalues --    0.46280   0.46346   0.46373   0.46414   0.46523
 Alpha virt. eigenvalues --    0.46565   0.46626   0.46696   0.46717   0.46914
 Alpha virt. eigenvalues --    0.46956   0.47055   0.47134   0.47267   0.47382
 Alpha virt. eigenvalues --    0.47549   0.47630   0.47692   0.47768   0.47819
 Alpha virt. eigenvalues --    0.47967   0.48083   0.48211   0.48315   0.48365
 Alpha virt. eigenvalues --    0.48436   0.48577   0.48647   0.48753   0.48819
 Alpha virt. eigenvalues --    0.48925   0.49009   0.49183   0.49237   0.49307
 Alpha virt. eigenvalues --    0.49366   0.49469   0.49549   0.49670   0.49765
 Alpha virt. eigenvalues --    0.49917   0.49951   0.50012   0.50147   0.50310
 Alpha virt. eigenvalues --    0.50342   0.50419   0.50446   0.50684   0.50807
 Alpha virt. eigenvalues --    0.50955   0.51057   0.51238   0.51281   0.51423
 Alpha virt. eigenvalues --    0.51553   0.51576   0.51699   0.51771   0.52016
 Alpha virt. eigenvalues --    0.52056   0.52266   0.52461   0.52630   0.52690
 Alpha virt. eigenvalues --    0.52796   0.52947   0.53051   0.53151   0.53205
 Alpha virt. eigenvalues --    0.53273   0.53397   0.53454   0.53611   0.53717
 Alpha virt. eigenvalues --    0.53753   0.53921   0.54116   0.54167   0.54254
 Alpha virt. eigenvalues --    0.54304   0.54395   0.54563   0.54658   0.54727
 Alpha virt. eigenvalues --    0.54846   0.54933   0.54946   0.55084   0.55151
 Alpha virt. eigenvalues --    0.55290   0.55432   0.55567   0.55682   0.55737
 Alpha virt. eigenvalues --    0.55984   0.56003   0.56133   0.56179   0.56259
 Alpha virt. eigenvalues --    0.56494   0.56599   0.56635   0.56770   0.56931
 Alpha virt. eigenvalues --    0.57084   0.57120   0.57194   0.57301   0.57435
 Alpha virt. eigenvalues --    0.57506   0.57564   0.57698   0.57829   0.57919
 Alpha virt. eigenvalues --    0.58201   0.58267   0.58423   0.58482   0.58541
 Alpha virt. eigenvalues --    0.58620   0.58731   0.58779   0.58876   0.58975
 Alpha virt. eigenvalues --    0.59288   0.59321   0.59357   0.59526   0.59587
 Alpha virt. eigenvalues --    0.59700   0.59756   0.59961   0.59986   0.60198
 Alpha virt. eigenvalues --    0.60280   0.60330   0.60422   0.60533   0.60614
 Alpha virt. eigenvalues --    0.60720   0.60758   0.60821   0.61006   0.61155
 Alpha virt. eigenvalues --    0.61238   0.61330   0.61392   0.61503   0.61727
 Alpha virt. eigenvalues --    0.61829   0.61981   0.62012   0.62135   0.62170
 Alpha virt. eigenvalues --    0.62352   0.62484   0.62495   0.62620   0.62700
 Alpha virt. eigenvalues --    0.62707   0.62834   0.62936   0.62964   0.63047
 Alpha virt. eigenvalues --    0.63092   0.63120   0.63229   0.63241   0.63379
 Alpha virt. eigenvalues --    0.63411   0.63462   0.63565   0.63610   0.63687
 Alpha virt. eigenvalues --    0.63770   0.63820   0.63867   0.63937   0.64003
 Alpha virt. eigenvalues --    0.64046   0.64092   0.64173   0.64347   0.64406
 Alpha virt. eigenvalues --    0.64451   0.64510   0.64550   0.64631   0.64676
 Alpha virt. eigenvalues --    0.64799   0.64853   0.64958   0.65007   0.65061
 Alpha virt. eigenvalues --    0.65170   0.65250   0.65292   0.65413   0.65530
 Alpha virt. eigenvalues --    0.65573   0.65597   0.65706   0.65832   0.65907
 Alpha virt. eigenvalues --    0.65993   0.66049   0.66097   0.66114   0.66250
 Alpha virt. eigenvalues --    0.66286   0.66370   0.66437   0.66549   0.66561
 Alpha virt. eigenvalues --    0.66613   0.66708   0.66783   0.66816   0.66918
 Alpha virt. eigenvalues --    0.66995   0.67071   0.67162   0.67286   0.67338
 Alpha virt. eigenvalues --    0.67381   0.67453   0.67549   0.67662   0.67789
 Alpha virt. eigenvalues --    0.67878   0.67910   0.68016   0.68199   0.68357
 Alpha virt. eigenvalues --    0.68378   0.68436   0.68532   0.68639   0.68772
 Alpha virt. eigenvalues --    0.68897   0.68933   0.68962   0.69019   0.69156
 Alpha virt. eigenvalues --    0.69300   0.69405   0.69429   0.69463   0.69578
 Alpha virt. eigenvalues --    0.69665   0.69728   0.69754   0.69890   0.70002
 Alpha virt. eigenvalues --    0.70076   0.70119   0.70255   0.70311   0.70373
 Alpha virt. eigenvalues --    0.70490   0.70494   0.70559   0.70598   0.70711
 Alpha virt. eigenvalues --    0.70757   0.70843   0.70953   0.71032   0.71108
 Alpha virt. eigenvalues --    0.71277   0.71377   0.71417   0.71485   0.71599
 Alpha virt. eigenvalues --    0.71769   0.71838   0.71949   0.72031   0.72193
 Alpha virt. eigenvalues --    0.72317   0.72328   0.72405   0.72443   0.72594
 Alpha virt. eigenvalues --    0.72641   0.72714   0.72809   0.72938   0.72945
[...]
 Alpha virt. eigenvalues --    3.03899   3.04015   3.04244   3.04418   3.04735
 Alpha virt. eigenvalues --    3.05146   3.06006   3.06608   3.06849   3.06948
 Alpha virt. eigenvalues --    3.07300   3.07775   3.07878   3.08440   3.09035
 Alpha virt. eigenvalues --    3.09115   3.09645   3.10017   3.10208   3.10376
 Alpha virt. eigenvalues --    3.10552   3.10747   3.11164   3.11406   3.12106
 Alpha virt. eigenvalues --    3.12227   3.12635   3.12710   3.13399   3.13459
 Alpha virt. eigenvalues --    3.13500   3.13521   3.14587   3.14725   3.14898
 Alpha virt. eigenvalues --    3.14972   3.15090   3.15138   3.15331   3.15481
 Alpha virt. eigenvalues --    3.17323   3.17499   3.17575   3.18200   3.22752
 Alpha virt. eigenvalues --    3.23552   3.23841   3.24347   3.25790   3.26086
 Alpha virt. eigenvalues --    3.26321   3.26748   3.27940   3.28345   3.28923
 Alpha virt. eigenvalues --    3.29128   3.30704   3.31555   3.31994   3.32558
 Alpha virt. eigenvalues --    3.40966   3.41009   3.41323   3.42187   3.43180
 Alpha virt. eigenvalues --    3.43405   3.43462   3.44264   3.47610   3.47684
 Alpha virt. eigenvalues --    3.47803   3.48000   3.50755   3.50845   3.50869
 Alpha virt. eigenvalues --    3.51021   3.52828   3.52944   3.53088   3.53134
 Alpha virt. eigenvalues --    3.58732   3.58895   3.59035   3.59765   3.61666
 Alpha virt. eigenvalues --    3.61722   3.61994   3.62141   3.63544   3.63585
 Alpha virt. eigenvalues --    3.63672   3.63840   3.72262   3.72456   3.72745
 Alpha virt. eigenvalues --    3.72921   3.78688   3.78745   3.78994   3.79472
 Alpha virt. eigenvalues --   51.67789  51.68061
          Condensed to atoms (all electrons):
 Mulliken charges:
               1
     1  Pd   0.452471
     2  Pd   0.465073
     3  C   -0.032308
     4  C    0.129568
     5  N   -0.310725
     6  C    0.142743
     7  C   -0.004484
     8  C    0.031660
     9  C   -0.071573
    10  C   -0.040122
    11  C    0.004399
    12  C   -0.061032
    13  C   -0.001605
    14  C    0.025432
    15  C   -0.039084
    16  N   -0.172700
    17  C   -0.036868
    18  C    0.022529
    19  C   -0.002536
    20  C   -0.060846
    21  C   -0.012284
    22  C    0.009875
    23  C   -0.056105
    24  C    0.040116
    25  C   -0.025071
    26  C    0.006295
    27  C   -0.007438
    28  C    0.039441
    29  C   -0.028292
    30  C    0.124947
    31  N   -0.313259
    32  C    0.129193
    33  C   -0.000450
    34  C   -0.048674
    35  C    0.012680
    36  C    0.017666
    37  C    0.025486
    38  C    0.028658
    39  C   -0.002211
    40  C    0.016414
    41  C   -0.022711
    42  C    0.005054
    43  C   -0.007922
    44  C    0.043389
    45  H    0.058546
    46  H    0.096817
    47  H    0.118357
    48  H    0.045103
    49  H    0.032308
    50  H    0.038923
    51  H    0.047652
    52  H    0.043644
    53  H    0.058566
    54  H    0.044765
    55  H    0.057888
    56  H    0.099588
    57  H    0.122878
    58  H    0.046663
    59  H    0.027067
    60  H    0.030163
    61  H    0.042306
    62  H    0.021826
    63  H    0.035789
    64  H    0.042688
    65  H    0.042591
    66  H    0.058603
    67  H    0.044421
    68  C   -0.026503
    69  C    0.126979
    70  N   -0.317874
    71  C    0.126214
    72  C   -0.001293
    73  C    0.029558
    74  C   -0.029781
    75  C   -0.041458
    76  C   -0.014250
    77  C   -0.076156
    78  C   -0.011625
    79  C    0.044521
    80  C   -0.067820
    81  N   -0.151867
    82  C   -0.072780
    83  C    0.030352
    84  C   -0.005897
    85  C   -0.065135
    86  C    0.021508
    87  C   -0.038666
    88  C   -0.005958
    89  C    0.061964
    90  C   -0.041190
    91  C    0.009256
    92  C   -0.006781
    93  C    0.031177
    94  C   -0.029410
    95  C    0.130003
    96  N   -0.306173
    97  C    0.120004
    98  C    0.000080
    99  C   -0.053583
   100  C    0.010991
   101  C    0.020909
   102  C    0.034513
   103  C    0.026827
   104  C    0.015249
   105  C   -0.018835
   106  C   -0.022660
   107  C    0.008729
   108  C   -0.004710
   109  C    0.033541
   110  H    0.058182
   111  H    0.105651
   112  H    0.114904
   113  H    0.045718
   114  H    0.041831
   115  H    0.022093
   116  H    0.047320
   117  H    0.047151
   118  H    0.057623
   119  H    0.045242
   120  H    0.057909
   121  H    0.100404
   122  H    0.099761
   123  H    0.049966
   124  H    0.019677
   125  H    0.044018
   126  H    0.054560
   127  H    0.043116
   128  H    0.028789
   129  H    0.040571
   130  H    0.045988
   131  H    0.057971
   132  H    0.044531
   133  C   -0.027918
   134  C    0.131790
   135  N   -0.312039
   136  C    0.131794
   137  C   -0.009757
   138  C    0.032898
   139  C   -0.018794
   140  C   -0.031318
   141  C    0.006802
   142  C   -0.115211
   143  C   -0.014229
   144  C    0.082345
   145  C   -0.064319
   146  N   -0.160985
   147  C   -0.043696
   148  C    0.039282
   149  C   -0.021198
   150  C   -0.065090
   151  C    0.000585
   152  C   -0.012371
   153  C   -0.015344
   154  C    0.035503
   155  C   -0.039100
   156  C    0.011885
   157  C   -0.007252
   158  C    0.035383
   159  C   -0.028881
   160  C    0.134264
   161  N   -0.309798
   162  C    0.130268
   163  C   -0.003675
   164  C   -0.036527
   165  C    0.005550
   166  C    0.004668
   167  C    0.040124
   168  C    0.011269
   169  C    0.022647
   170  C   -0.029711
   171  C   -0.035444
   172  C    0.014294
   173  C   -0.006054
   174  C    0.037706
   175  H    0.059073
   176  H    0.107904
   177  H    0.095678
   178  H    0.041927
   179  H    0.040328
   180  H    0.039193
   181  H    0.022731
   182  H    0.049136
   183  H    0.057415
   184  H    0.045277
   185  H    0.058874
   186  H    0.106592
   187  H    0.095566
   188  H    0.046771
   189  H    0.033725
   190  H    0.056109
   191  H    0.060766
   192  H    0.047493
   193  H    0.034835
   194  H    0.052106
   195  H    0.051136
   196  H    0.057627
   197  H    0.045586
   198  C   -0.029126
   199  C    0.133768
   200  N   -0.311535
   201  C    0.126965
   202  C   -0.007602
   203  C    0.048487
   204  C   -0.041172
   205  C   -0.034927
   206  C    0.006465
   207  C   -0.072798
   208  C   -0.027285
   209  C    0.046816
   210  C   -0.067318
   211  N   -0.149497
   212  C   -0.067698
   213  C    0.051303
   214  C   -0.024879
   215  C   -0.072895
   216  C   -0.000700
   217  C   -0.037773
   218  C   -0.021773
   219  C    0.023232
   220  C   -0.022274
   221  C    0.008846
   222  C   -0.003470
   223  C    0.030371
   224  C   -0.026314
   225  C    0.130391
   226  N   -0.311205
   227  C    0.123796
   228  C   -0.002354
   229  C   -0.028651
   230  C    0.015818
   231  C    0.009168
   232  C    0.038730
   233  C    0.019092
   234  C   -0.001618
   235  C   -0.003085
   236  C   -0.028042
   237  C    0.007516
   238  C   -0.006279
   239  C    0.033062
   240  H    0.058987
   241  H    0.101979
   242  H    0.108330
   243  H    0.049080
   244  H    0.036091
   245  H    0.038877
   246  H    0.046988
   247  H    0.047256
   248  H    0.058285
   249  H    0.044836
   250  H    0.058047
   251  H    0.104607
   252  H    0.105966
   253  H    0.044068
   254  H    0.031561
   255  H    0.050318
   256  H    0.059829
   257  H    0.048209
   258  H    0.038511
   259  H    0.043205
   260  H    0.045553
   261  H    0.057958
   262  H    0.044827
 Sum of Mulliken charges =   4.00000
 Mulliken charges with hydrogens summed into heavy atoms:
               1
     1  Pd   0.452471
     2  Pd   0.465073
     3  C    0.026238
     4  C    0.226385
     5  N   -0.310725
     6  C    0.261100
     7  C   -0.004484
     8  C    0.031660
     9  C   -0.071573
    10  C    0.004981
    11  C    0.036707
    12  C   -0.061032
    13  C   -0.001605
    14  C    0.025432
    15  C   -0.039084
    16  N   -0.172700
    17  C   -0.036868
    18  C    0.022529
    19  C   -0.002536
    20  C   -0.060846
    21  C    0.026638
    22  C    0.057528
    23  C   -0.056105
    24  C    0.040116
    25  C    0.018573
    26  C    0.064862
    27  C    0.037327
    28  C    0.039441
    29  C    0.029596
    30  C    0.224535
    31  N   -0.313259
    32  C    0.252071
    33  C   -0.000450
    34  C   -0.002010
    35  C    0.039746
    36  C    0.047829
    37  C    0.067792
    38  C    0.050484
    39  C    0.033579
    40  C    0.059102
    41  C    0.019879
    42  C    0.063656
    43  C    0.036499
    44  C    0.043389
    68  C    0.031679
    69  C    0.232630
    70  N   -0.317874
    71  C    0.241117
    72  C   -0.001293
    73  C    0.029558
    74  C   -0.029781
    75  C    0.004260
    76  C    0.027580
    77  C   -0.076156
    78  C   -0.011625
    79  C    0.044521
    80  C   -0.067820
    81  N   -0.151867
    82  C   -0.072780
    83  C    0.030352
    84  C   -0.005897
    85  C   -0.065135
    86  C    0.043601
    87  C    0.008654
    88  C   -0.005958
    89  C    0.061964
    90  C    0.005961
    91  C    0.066879
    92  C    0.038461
    93  C    0.031177
    94  C    0.028500
    95  C    0.230407
    96  N   -0.306173
    97  C    0.219765
    98  C    0.000080
    99  C   -0.003617
   100  C    0.030667
   101  C    0.064927
   102  C    0.089073
   103  C    0.069943
   104  C    0.044038
   105  C    0.021736
   106  C    0.023327
   107  C    0.066700
   108  C    0.039821
   109  C    0.033541
   133  C    0.031154
   134  C    0.239694
   135  N   -0.312039
   136  C    0.227472
   137  C   -0.009757
   138  C    0.032898
   139  C   -0.018794
   140  C    0.010609
   141  C    0.047130
   142  C   -0.115211
   143  C   -0.014229
   144  C    0.082345
   145  C   -0.064319
   146  N   -0.160985
   147  C   -0.043696
   148  C    0.039282
   149  C   -0.021198
   150  C   -0.065090
   151  C    0.039779
   152  C    0.010360
   153  C   -0.015344
   154  C    0.035503
   155  C    0.010036
   156  C    0.069300
   157  C    0.038024
   158  C    0.035383
   159  C    0.029993
   160  C    0.240856
   161  N   -0.309798
   162  C    0.225834
   163  C   -0.003675
   164  C    0.010244
   165  C    0.039275
   166  C    0.060777
   167  C    0.100890
   168  C    0.058762
   169  C    0.057482
   170  C    0.022396
   171  C    0.015692
   172  C    0.071921
   173  C    0.039532
   174  C    0.037706
   198  C    0.029861
   199  C    0.235747
   200  N   -0.311535
   201  C    0.235296
   202  C   -0.007602
   203  C    0.048487
   204  C   -0.041172
   205  C    0.014153
   206  C    0.042555
   207  C   -0.072798
   208  C   -0.027285
   209  C    0.046816
   210  C   -0.067318
   211  N   -0.149497
   212  C   -0.067698
   213  C    0.051303
   214  C   -0.024879
   215  C   -0.072895
   216  C    0.038177
   217  C    0.009215
   218  C   -0.021773
   219  C    0.023232
   220  C    0.024982
   221  C    0.067131
   222  C    0.041367
   223  C    0.030371
   224  C    0.031733
   225  C    0.234998
   226  N   -0.311205
   227  C    0.229762
   228  C   -0.002354
   229  C    0.015416
   230  C    0.047379
   231  C    0.059486
   232  C    0.098559
   233  C    0.067301
   234  C    0.036893
   235  C    0.040120
   236  C    0.017512
   237  C    0.065474
   238  C    0.038548
   239  C    0.033062
 Electronic spatial extent (au):  <R**2>=         271060.6845
 Charge=              4.0000 electrons
 Dipole moment (field-independent basis, Debye):
    X=             -0.1747    Y=             -7.1853    Z=              7.4693  Tot=             10.3658
 Quadrupole moment (field-independent basis, Debye-Ang):
   XX=            666.5892   YY=           -631.5170   ZZ=           -705.9191
   XY=             28.2094   XZ=             33.5494   YZ=             -3.9967
 Traceless Quadrupole moment (field-independent basis, Debye-Ang):
   XX=            890.2048   YY=           -407.9014   ZZ=           -482.3034
   XY=             28.2094   XZ=             33.5494   YZ=             -3.9967
 Octapole moment (field-independent basis, Debye-Ang**2):
  XXX=           -355.9906  YYY=            102.3371  ZZZ=            303.8855  XYY=            246.8198
  XXY=           -906.1113  XXZ=            770.2422  XZZ=           -184.8021  YZZ=           -314.7927
  YYZ=            -49.2291  XYZ=            175.4926
 Hexadecapole moment (field-independent basis, Debye-Ang**3):
 XXXX=         -97029.0315 YYYY=         -51369.2574 ZZZZ=         -45708.4826 XXXY=          -2313.6473
 XXXZ=           -594.6331 YYYX=           1165.5981 YYYZ=          -2368.2518 ZZZX=             84.7826
 ZZZY=           2346.9529 XXYY=         -36085.0540 XXZZ=         -37434.5887 YYZZ=         -14517.6476
 XXYZ=             68.9667 YYXZ=            965.6668 ZZXY=             63.5679
 N-N= 4.397016817070D+04 E-N=-1.036073621668D+05  KE= 6.671024410979D+03
 Unable to Open any file for archive entry.
 1\1\GINC-CX3-15-15\SP\RHSEH1PBE\def2SVP\C156H92N12Pd2(4+)\VPOSLIGU\25-
 Jul-2023\0\\# SP HSEH1PBE/def2svp scrf=(solvent=dmso)\\m2_lb\\4,1\Pd,0
 ,9.174,-0.54,1.013\Pd,0,-9.141,-1.333,0.289\C,0,11.488,-2.845,-1.735\C
 ,0,11.085,-1.908,-0.821\N,0,9.769,-1.737,-0.513\C,0,8.849,-2.476,-1.10
 5\C,0,9.161,-3.489,-2.034\C,0,8.144,-4.297,-2.634\C,0,6.732,-4.042,-2.
 265\C,0,6.284,-4.227,-0.948\C,0,5.033,-3.77,-0.551\C,0,4.203,-3.106,-1
 .471\C,0,3.012,-2.433,-1.078\C,0,2.055,-1.719,-0.839\C,0,1.035,-0.728,
 -0.697\N,0,0.12,-0.859,0.271\C,0,-0.81,0.097,0.388\C,0,-1.79,-0.01,1.4
 24\C,0,-2.694,0.04,2.238\C,0,-3.827,0.226,3.079\C,0,-4.164,1.528,3.49\
 C,0,-5.371,1.771,4.134\C,0,-6.272,0.726,4.377\C,0,-7.645,1.022,4.844\C
 ,0,-7.901,1.669,6.036\C,0,-9.224,1.951,6.447\C,0,-10.304,1.594,5.672\C
 ,0,-10.091,0.948,4.431\C,0,-11.146,0.562,3.565\C,0,-10.87,-0.049,2.37\
 N,0,-9.589,-0.285,1.973\C,0,-8.579,0.077,2.746\C,0,-8.756,0.674,4.01\C
 ,0,-5.885,-0.587,4.06\C,0,-4.679,-0.839,3.421\C,0,-0.869,1.214,-0.46\C
 ,0,0.09,1.348,-1.456\C,0,1.06,0.364,-1.582\C,0,4.615,-3.005,-2.813\C,0
 ,5.863,-3.47,-3.203\C,0,8.522,-5.234,-3.572\C,0,9.882,-5.417,-3.914\C,
 0,10.875,-4.663,-3.329\C,0,10.534,-3.676,-2.375\H,0,12.55,-2.952,-1.96
 5\H,0,11.795,-1.263,-0.301\H,0,7.811,-2.279,-0.833\H,0,6.941,-4.702,-0
 .215\H,0,4.713,-3.884,0.486\H,0,-3.49,2.353,3.247\H,0,-5.649,2.794,4.3
 99\H,0,-7.067,1.95,6.683\H,0,-9.385,2.454,7.403\H,0,-11.324,1.804,5.99
 8\H,0,-12.183,0.748,3.848\H,0,-11.659,-0.369,1.688\H,0,-7.576,-0.111,2
 .362\H,0,-6.556,-1.419,4.289\H,0,-4.411,-1.859,3.143\H,0,-1.649,1.963,
 -0.32\H,0,0.074,2.232,-2.1\H,0,1.827,0.412,-2.354\H,0,3.965,-2.506,-3.
 534\H,0,6.196,-3.336,-4.234\H,0,7.76,-5.855,-4.048\H,0,10.144,-6.177,-
 4.654\H,0,11.923,-4.813,-3.594\C,0,8.907,-4.424,2.773\C,0,9.358,-3.267
 ,2.196\N,0,8.532,-2.202,2.\C,0,7.275,-2.253,2.406\C,0,6.724,-3.378,3.0
 54\C,0,5.364,-3.415,3.502\C,0,4.486,-2.226,3.419\C,0,4.862,-0.996,3.98
 4\C,0,4.037,0.117,3.88\C,0,2.808,0.03,3.199\C,0,2.012,1.191,2.982\C,0,
 1.374,2.193,2.713\C,0,0.729,3.401,2.296\N,0,-0.539,3.322,1.879\C,0,-1.
 117,4.423,1.386\C,0,-2.47,4.299,0.927\C,0,-3.616,4.208,0.523\C,0,-4.94
 7,4.102,0.023\C,0,-5.266,4.603,-1.251\C,0,-6.548,4.46,-1.763\C,0,-7.56
 1,3.832,-1.02\C,0,-8.913,3.693,-1.607\C,0,-9.489,4.769,-2.258\C,0,-10.
 775,4.693,-2.833\C,0,-11.514,3.536,-2.759\C,0,-10.971,2.402,-2.11\C,0,
 -11.682,1.181,-2.002\C,0,-11.118,0.112,-1.36\N,0,-9.864,0.184,-0.837\C
 ,0,-9.156,1.295,-0.944\C,0,-9.66,2.47,-1.542\C,0,-7.251,3.381,0.274\C,
 0,-5.964,3.498,0.783\C,0,-0.453,5.658,1.295\C,0,0.853,5.741,1.765\C,0,
 1.459,4.603,2.282\C,0,2.409,-1.211,2.67\C,0,3.239,-2.318,2.784\C,0,4.8
 79,-4.605,4.012\C,0,5.702,-5.746,4.138\C,0,7.025,-5.711,3.761\C,0,7.56
 1,-4.526,3.206\H,0,9.586,-5.269,2.892\H,0,10.388,-3.155,1.856\H,0,6.65
 3,-1.381,2.2\H,0,5.808,-0.911,4.525\H,0,4.345,1.068,4.32\H,0,-4.492,5.
 086,-1.846\H,0,-6.764,4.824,-2.769\H,0,-8.945,5.715,-2.307\H,0,-11.188
 ,5.574,-3.329\H,0,-12.515,3.476,-3.19\H,0,-12.683,1.092,-2.425\H,0,-11
 .64,-0.84,-1.246\H,0,-8.145,1.273,-0.536\H,0,-8.029,2.95,0.906\H,0,-5.
 742,3.124,1.783\H,0,-0.961,6.522,0.866\H,0,1.4,6.685,1.717\H,0,2.488,4
 .62,2.645\H,0,1.463,-1.288,2.129\H,0,2.927,-3.267,2.342\H,0,3.843,-4.6
 54,4.354\H,0,5.279,-6.66,4.559\H,0,7.667,-6.585,3.877\C,0,8.698,1.045,
 4.915\C,0,9.094,0.345,3.809\N,0,8.566,0.6,2.579\C,0,7.642,1.534,2.431\
 C,0,7.145,2.295,3.51\C,0,6.142,3.302,3.346\C,0,5.447,3.575,2.066\C,0,5
 .329,4.901,1.62\C,0,4.499,5.224,0.556\C,0,3.745,4.223,-0.083\C,0,2.716
 ,4.591,-0.994\C,0,1.741,4.947,-1.633\C,0,0.51,5.352,-2.236\N,0,-0.366,
 4.38,-2.508\C,0,-1.575,4.706,-2.979\C,0,-2.47,3.612,-3.197\C,0,-3.189,
 2.638,-3.324\C,0,-3.948,1.443,-3.478\C,0,-3.272,0.211,-3.545\C,0,-3.98
 3,-0.964,-3.729\C,0,-5.381,-0.96,-3.828\C,0,-6.078,-2.245,-4.062\C,0,-
 5.644,-3.076,-5.08\C,0,-6.266,-4.315,-5.345\C,0,-7.334,-4.744,-4.592\C
 ,0,-7.802,-3.943,-3.524\C,0,-8.875,-4.341,-2.69\C,0,-9.256,-3.554,-1.6
 38\N,0,-8.615,-2.385,-1.359\C,0,-7.621,-1.969,-2.124\C,0,-7.168,-2.691
 ,-3.249\C,0,-6.056,0.269,-3.747\C,0,-5.351,1.455,-3.58\C,0,-1.954,6.03
 5,-3.227\C,0,-1.031,7.043,-2.964\C,0,0.221,6.71,-2.458\C,0,3.927,2.884
 ,0.302\C,0,4.773,2.567,1.358\C,0,5.776,4.039,4.459\C,0,6.339,3.802,5.7
 31\C,0,7.283,2.819,5.91\C,0,7.709,2.053,4.801\H,0,9.15,0.828,5.884\H,0
 ,9.848,-0.441,3.863\H,0,7.269,1.71,1.421\H,0,5.876,5.693,2.136\H,0,4.3
 86,6.264,0.245\H,0,-2.184,0.185,-3.453\H,0,-3.443,-1.909,-3.779\H,0,-4
 .812,-2.754,-5.71\H,0,-5.895,-4.93,-6.167\H,0,-7.824,-5.697,-4.799\H,0
 ,-9.395,-5.282,-2.878\H,0,-10.073,-3.831,-0.971\H,0,-7.134,-1.035,-1.8
 38\H,0,-7.143,0.307,-3.852\H,0,-5.886,2.404,-3.533\H,0,-2.946,6.262,-3
 .619\H,0,-1.291,8.088,-3.146\H,0,0.963,7.474,-2.226\H,0,3.353,2.097,-0
 .191\H,0,4.842,1.528,1.686\H,0,5.005,4.806,4.356\H,0,6.005,4.403,6.579
 \H,0,7.714,2.621,6.893\C,0,11.035,3.085,-0.208\C,0,10.783,1.862,0.352\
 N,0,9.682,1.139,0.005\C,0,8.848,1.592,-0.915\C,0,9.024,2.833,-1.562\C,
 0,8.09,3.33,-2.525\C,0,6.945,2.515,-2.99\C,0,7.138,1.237,-3.538\C,0,6.
 062,0.493,-4.004\C,0,4.756,1.009,-3.93\C,0,3.646,0.243,-4.395\C,0,2.69
 ,-0.415,-4.763\C,0,1.544,-1.206,-5.114\N,0,0.81,-1.656,-4.092\C,0,-0.2
 76,-2.389,-4.357\C,0,-1.054,-2.826,-3.238\C,0,-1.764,-3.151,-2.303\C,0
 ,-2.619,-3.487,-1.215\C,0,-3.907,-4.007,-1.446\C,0,-4.74,-4.317,-0.38\
 C,0,-4.312,-4.127,0.945\C,0,-5.153,-4.524,2.096\C,0,-4.615,-5.332,3.08
 2\C,0,-5.386,-5.788,4.173\C,0,-6.714,-5.449,4.289\C,0,-7.303,-4.6,3.32
 4\C,0,-8.657,-4.191,3.399\C,0,-9.163,-3.319,2.475\N,0,-8.386,-2.804,1.
 48\C,0,-7.125,-3.185,1.359\C,0,-6.519,-4.114,2.233\C,0,-3.027,-3.61,1.
 167\C,0,-2.191,-3.287,0.109\C,0,-0.674,-2.709,-5.668\C,0,0.099,-2.24,-
 6.725\C,0,1.229,-1.475,-6.455\C,0,4.559,2.287,-3.379\C,0,5.642,3.028,-
 2.923\C,0,8.281,4.608,-3.016\C,0,9.386,5.394,-2.622\C,0,10.315,4.915,-
 1.728\C,0,10.146,3.626,-1.17\H,0,11.913,3.652,0.106\H,0,11.433,1.423,1
 .11\H,0,7.979,0.972,-1.14\H,0,8.147,0.827,-3.624\H,0,6.228,-0.496,-4.4
 35\H,0,-4.248,-4.176,-2.47\H,0,-5.724,-4.747,-0.581\H,0,-3.576,-5.655,
 2.995\H,0,-4.92,-6.436,4.919\H,0,-7.32,-5.817,5.118\H,0,-9.298,-4.562,
 4.2\H,0,-10.199,-2.984,2.51\H,0,-6.544,-2.726,0.558\H,0,-2.68,-3.443,2
 .19\H,0,-1.206,-2.853,0.298\H,0,-1.569,-3.309,-5.839\H,0,-0.18,-2.469,
 -7.755\H,0,1.859,-1.086,-7.256\H,0,3.549,2.697,-3.306\H,0,5.474,4.016,
 -2.489\H,0,7.576,5.007,-3.748\H,0,9.504,6.392,-3.049\H,0,11.176,5.517,
 -1.434\\Version=ES64L-G16RevC.01\State=1-A\HF=-6900.1533557\RMSD=3.527
 e-09\Dipole=-0.0687345,-2.8269336,2.9386322\Quadrupole=661.8455366,-30
 3.2647522,-358.5807845,20.9716961,24.9431245,-2.9715046\PG=C01 [X(C156
 H92N12Pd2)]\\@
 The archive entry for this job was punched.


 WE DON'T KNOW ONE MILLIONTH OF ONE PERCENT ABOUT
 ANYTHING.
                                     T. A. EDISON.
 Job cpu time:       2 days 19 hours 47 minutes 44.1 seconds.
 Elapsed time:       0 days  1 hours 30 minutes 16.6 seconds.
 File lengths (MBytes):  RWF=   9152 Int=      0 D2E=      0 Chk=    496 Scr=     16
 Normal termination of Gaussian 16 at Tue Jul 25 19:58:54 2023.
