Job execution start: Sun Apr 11 08:37:20 BST 2021
Shared library path: /work/e05/e05/atarzia/orca_4_2_1_linux_x86-64_openmpi314:/work/e05/e05/atarzia/openmpi-3.1.4/lib:/opt/cray/pe/papi/6.0.0.4/lib64:/opt/cray/libfabric/1.11.0.0.233/lib64
Slurm Job ID is: 195007
Slurm Job name is: longD
nid001030

                                 *****************
                                 * O   R   C   A *
                                 *****************

           --- An Ab Initio, DFT and Semiempirical electronic structure package ---

                  #######################################################
                  #                        -***-                        #
                  #          Department of theory and spectroscopy      #
                  #               Directorship: Frank Neese             #
                  #        Max Planck Institute fuer Kohlenforschung    #
                  #                Kaiser Wilhelm Platz 1               #
                  #                 D-45470 Muelheim/Ruhr               #
                  #                      Germany                        #
                  #                                                     #
                  #                  All rights reserved                #
                  #                        -***-                        #
                  #######################################################


                         Program Version 4.2.1 -  RELEASE  -


 With contributions from (in alphabetic order):
   Daniel Aravena         : Magnetic Suceptibility
   Michael Atanasov       : Ab Initio Ligand Field Theory (pilot matlab implementation)
   Alexander A. Auer      : GIAO ZORA, VPT2
   Ute Becker             : Parallelization
   Giovanni Bistoni       : ED, misc. LED, open-shell LED, HFLD
   Martin Brehm           : Molecular dynamics
   Dmytro Bykov           : SCF Hessian
   Vijay G. Chilkuri      : MRCI spin determinant printing, contributions to CSF-ICE
   Dipayan Datta          : RHF DLPNO-CCSD density
   Achintya Kumar Dutta   : EOM-CC, STEOM-CC
   Dmitry Ganyushin       : Spin-Orbit,Spin-Spin,Magnetic field MRCI
   Miquel Garcia          : C-PCM Hessian, Gaussian charge scheme
   Yang Guo               : DLPNO-NEVPT2, CIM, IAO-localization
   Andreas Hansen         : Spin unrestricted coupled pair/coupled cluster methods
   Benjamin Helmich-Paris : CASSCF linear response (MC-RPA)
   Lee Huntington         : MR-EOM, pCC
   Robert Izsak           : Overlap fitted RIJCOSX, COSX-SCS-MP3, EOM
   Christian Kollmar      : KDIIS, OOCD, Brueckner-CCSD(T), CCSD density
   Simone Kossmann        : Meta GGA functionals, TD-DFT gradient, OOMP2, MP2 Hessian
   Martin Krupicka        : AUTO-CI
   Lucas Lang             : DCDCAS
   Dagmar Lenk            : GEPOL surface, SMD
   Dimitrios Liakos       : Extrapolation schemes; Compound Job, initial MDCI parallelization
   Dimitrios Manganas     : Further ROCIS development; embedding schemes
   Dimitrios Pantazis     : SARC Basis sets
   Taras Petrenko         : DFT Hessian,TD-DFT gradient, ASA, ECA, R-Raman, ABS, FL, XAS/XES, NRVS
   Peter Pinski           : DLPNO-MP2, DLPNO-MP2 Gradient
   Christoph Reimann      : Effective Core Potentials
   Marius Retegan         : Local ZFS, SOC
   Christoph Riplinger    : Optimizer, TS searches, QM/MM, DLPNO-CCSD(T), (RO)-DLPNO pert. Triples
   Tobias Risthaus        : Range-separated hybrids, TD-DFT gradient, RPA, STAB
   Michael Roemelt        : Original ROCIS implementation
   Masaaki Saitow         : Open-shell DLPNO-CCSD energy and density
   Barbara Sandhoefer     : DKH picture change effects
   Avijit Sen             : IP-ROCIS
   Kantharuban Sivalingam : CASSCF convergence, NEVPT2, FIC-MRCI
   Bernardo de Souza      : ESD, SOC TD-DFT
   Georgi Stoychev        : AutoAux, RI-MP2 NMR
   Willem Van den Heuvel  : Paramagnetic NMR
   Boris Wezisla          : Elementary symmetry handling
   Frank Wennmohs         : Technical directorship


 We gratefully acknowledge several colleagues who have allowed us to
 interface, adapt or use parts of their codes:
   Stefan Grimme, W. Hujo, H. Kruse,             : VdW corrections, initial TS optimization,
                  C. Bannwarth                     DFT functionals, gCP, sTDA/sTD-DF
   Ed Valeev, F. Pavosevic, A. Kumar             : LibInt (2-el integral package), F12 methods
   Garnet Chan, S. Sharma, J. Yang, R. Olivares  : DMRG
   Ulf Ekstrom                                   : XCFun DFT Library
   Mihaly Kallay                                 : mrcc  (arbitrary order and MRCC methods)
   Andreas Klamt, Michael Diedenhofen            : otool_cosmo (COSMO solvation model)
   Jiri Pittner, Ondrej Demel                    : Mk-CCSD
   Frank Weinhold                                : gennbo (NPA and NBO analysis)
   Christopher J. Cramer and Donald G. Truhlar   : smd solvation model
   Lars Goerigk                                  : TD-DFT with DH, B97 family of functionals
   V. Asgeirsson, H. Jonsson                     : NEB implementation
   FAccTs GmbH                                   : IRC, NEB, NEB-TS, Multilevel, MM, QM/MM, CI optimization
   S Lehtola, MJT Oliveira, MAL Marques          : LibXC Library


 Your calculation uses the libint2 library for the computation of 2-el integrals
 For citations please refer to: http://libint.valeyev.net

 Your ORCA version has been built with support for libXC version: 4.2.3
 For citations please refer to: https://tddft.org/programs/libxc/

 This ORCA versions uses:
   CBLAS   interface :  Fast vector & matrix operations
   LAPACKE interface :  Fast linear algebra routines
   SCALAPACK package :  Parallel linear algebra routines




***************************************
The coordinates will be read from file: longD_opt.xyz
***************************************


Your calculation utilizes the atom-pairwise dispersion correction
based on tight binding partial charges (D4)
Cite in your paper:
E.Caldeweyher, C.Bannwarth, S.Grimme, J.Chem.Phys., (2017), 147, 034112.
E.Caldeweyher, S.Ehlert, A.Hansen, H.Neugebauer, S.Grimme, J.Chem.Phys., (2018), in progress.
   

----- Orbital basis set information -----
Your calculation utilizes the basis: def2-SVP
   F. Weigend and R. Ahlrichs, Phys. Chem. Chem. Phys. 7, 3297 (2005).

----- AuxJ basis set information -----
Your calculation utilizes the auxiliary basis: def2/J
   F. Weigend, Phys. Chem. Chem. Phys. 8, 1057 (2006).

================================================================================
                                        WARNINGS
                       Please study these warnings very carefully!
================================================================================


WARNING: Geometry Optimization
  ===> : Switching off AutoStart
         For restart on a previous wavefunction, please use MOREAD

INFO   : the flag for use of LIBINT has been found!

================================================================================
                                       INPUT FILE
================================================================================
NAME = longD.in
|  1> # closed shell KS, PBE0/def2-SVP/D4
|  2> ! DFT OPT RKS PBE0 RIJCOSX GridX6 def2-SVP def2/J D4 Grid6 NOFINALGRID SlowConv TightSCF XYZFILE PDBFILE
|  3> 
|  4> %base "_longD" 
|  5> 
|  6> %scf
|  7>    MaxIter 2000
|  8> end
|  9> 
| 10> %geom
| 11>    MaxIter 1000
| 12> end
| 13> 
| 14> %pal
| 15>    nprocs 128
| 16> end
| 17> 
| 18> * xyzfile 0 1 longD_opt.xyz
| 19> 
| 20>                          ****END OF INPUT****
================================================================================

                       *****************************
                       * Geometry Optimization Run *
                       *****************************

Geometry optimization settings:
Update method            Update   .... BFGS
Choice of coordinates    CoordSys .... Z-matrix Internals
Initial Hessian          InHess   .... Almoef's Model

Convergence Tolerances:
Energy Change            TolE     ....  5.0000e-06 Eh
Max. Gradient            TolMAXG  ....  3.0000e-04 Eh/bohr
RMS Gradient             TolRMSG  ....  1.0000e-04 Eh/bohr
Max. Displacement        TolMAXD  ....  4.0000e-03 bohr
RMS Displacement         TolRMSD  ....  2.0000e-03 bohr
Strict Convergence                ....  False
------------------------------------------------------------------------------
                        ORCA OPTIMIZATION COORDINATE SETUP
------------------------------------------------------------------------------

The optimization will be done in new redundant internal coordinates
Making redundant internal coordinates   ...  (new redundants) done
Evaluating the initial hessian          ...  (Almloef) done
Evaluating the coordinates              ...  done
Calculating the B-matrix                .... done
Calculating the G-matrix                .... done
Diagonalizing the G-matrix              .... done
Small eigenvalue found = 4.922e-04
Small eigenvalue found = 6.410e-04
Small eigenvalue found = 3.126e-03
Small eigenvalue found = 3.946e-03
Small eigenvalue found = 8.077e-03
Small eigenvalue found = 8.515e-03
Small eigenvalue found = 1.049e-02
Small eigenvalue found = 1.302e-02
Small eigenvalue found = 2.006e-02
Small eigenvalue found = 2.292e-02
The first mode is                       ....  128
The number of degrees of freedom        ....  162

    -----------------------------------------------------------------
                    Redundant Internal Coordinates


    -----------------------------------------------------------------
         Definition                    Initial Value    Approx d2E/dq
    -----------------------------------------------------------------
      1. B(C   1,H   0)                  1.0957         0.352654   
      2. B(N   2,C   1)                  1.2678         0.876697   
      3. B(C   3,N   2)                  1.3782         0.584285   
      4. B(C   4,C   3)                  1.3972         0.608417   
      5. B(C   5,C   4)                  1.3812         0.645377   
      6. B(C   6,C   5)                  1.3852         0.635966   
      7. B(C   7,C   6)                  1.3867         0.632420   
      8. B(C   8,C   7)                  1.3797         0.648854   
      9. B(C   8,C   3)                  1.3970         0.608998   
     10. B(H   9,C   8)                  1.0793         0.374526   
     11. B(H  10,C   7)                  1.0803         0.373176   
     12. B(H  11,C   6)                  1.0798         0.373872   
     13. B(H  12,C   5)                  1.0805         0.372844   
     14. B(H  13,C   4)                  1.0808         0.372495   
     15. B(C  14,C   1)                  1.4530         0.495698   
     16. B(N  15,C  14)                  1.3339         0.687787   
     17. B(C  16,N  15)                  1.3135         0.741172   
     18. B(C  17,C  16)                  1.3992         0.603937   
     19. B(C  18,C  17)                  1.3968         0.609384   
     20. B(C  19,C  18)                  1.3790         0.650527   
     21. B(C  19,C  14)                  1.3980         0.606773   
     22. B(H  20,C  19)                  1.0779         0.376453   
     23. B(H  21,C  18)                  1.0809         0.372377   
     24. B(C  22,C  17)                  1.4643         0.475614   
     25. B(C  23,C  22)                  1.3945         0.614660   
     26. B(C  24,C  23)                  1.3792         0.650072   
     27. B(C  25,C  24)                  1.3945         0.614499   
     28. B(C  26,C  25)                  1.3944         0.614789   
     29. B(C  27,C  26)                  1.3794         0.649626   
     30. B(C  27,C  22)                  1.3945         0.614615   
     31. B(H  28,C  27)                  1.0802         0.373267   
     32. B(H  29,C  26)                  1.0801         0.373500   
     33. B(C  30,C  25)                  1.4643         0.475581   
     34. B(C  31,C  30)                  1.3992         0.604122   
     35. B(N  32,C  31)                  1.3136         0.740816   
     36. B(C  33,N  32)                  1.3338         0.687894   
     37. B(C  34,C  33)                  1.3980         0.606702   
     38. B(C  35,C  34)                  1.3789         0.650855   
     39. B(C  35,C  30)                  1.3969         0.609223   
     40. B(H  36,C  35)                  1.0809         0.372389   
     41. B(H  37,C  34)                  1.0779         0.376466   
     42. B(C  38,C  33)                  1.4531         0.495611   
     43. B(N  39,C  38)                  1.2678         0.876646   
     44. B(C  40,N  39)                  1.3781         0.584558   
     45. B(C  41,C  40)                  1.3970         0.608930   
     46. B(C  42,C  41)                  1.3797         0.648900   
     47. B(C  43,C  42)                  1.3867         0.632411   
     48. B(C  44,C  43)                  1.3852         0.635951   
     49. B(C  45,C  44)                  1.3812         0.645391   
     50. B(C  45,C  40)                  1.3973         0.608367   
     51. B(H  46,C  45)                  1.0808         0.372497   
     52. B(H  47,C  44)                  1.0805         0.372843   
     53. B(H  48,C  43)                  1.0798         0.373873   
     54. B(H  49,C  42)                  1.0803         0.373178   
     55. B(H  50,C  41)                  1.0793         0.374527   
     56. B(H  51,C  38)                  1.0957         0.352702   
     57. B(H  52,C  31)                  1.0827         0.369849   
     58. B(H  53,C  24)                  1.0802         0.373291   
     59. B(H  54,C  23)                  1.0800         0.373523   
     60. B(H  55,C  16)                  1.0827         0.369856   
     61. A(H   0,C   1,C  14)          114.9594         0.338693   
     62. A(H   0,C   1,N   2)          123.9629         0.370751   
     63. A(N   2,C   1,C  14)          121.0589         0.440863   
     64. A(C   1,N   2,C   3)          123.2608         0.451199   
     65. A(N   2,C   3,C   8)          118.1264         0.425296   
     66. A(N   2,C   3,C   4)          122.5526         0.425223   
     67. A(C   4,C   3,C   8)          119.1774         0.431207   
     68. A(C   3,C   4,C   5)          120.1300         0.435730   
     69. A(C   5,C   4,H  13)          120.5690         0.357364   
     70. A(C   3,C   4,H  13)          119.2709         0.353805   
     71. A(C   6,C   5,H  12)          119.9982         0.356530   
     72. A(C   4,C   5,H  12)          119.6423         0.357421   
     73. A(C   4,C   5,C   6)          120.3592         0.439223   
     74. A(C   5,C   6,H  11)          120.0900         0.356696   
     75. A(C   5,C   6,C   7)          119.7879         0.437619   
     76. A(C   7,C   6,H  11)          120.1204         0.356358   
     77. A(C   6,C   7,H  10)          119.9309         0.356245   
     78. A(C   6,C   7,C   8)          120.3352         0.439206   
     79. A(C   8,C   7,H  10)          119.7316         0.357801   
     80. A(C   7,C   8,H   9)          121.0552         0.358021   
     81. A(C   3,C   8,H   9)          118.7391         0.354189   
     82. A(C   3,C   8,C   7)          120.1870         0.436227   
     83. A(N  15,C  14,C  19)          122.0574         0.437653   
     84. A(C   1,C  14,N  15)          116.1078         0.422057   
     85. A(C   1,C  14,C  19)          121.8347         0.415429   
     86. A(C  14,N  15,C  16)          118.7422         0.450803   
     87. A(N  15,C  16,C  17)          124.0812         0.443226   
     88. A(N  15,C  16,H  55)          115.3975         0.363183   
     89. A(C  17,C  16,H  55)          120.5116         0.352938   
     90. A(C  16,C  17,C  18)          116.8747         0.430684   
     91. A(C  18,C  17,C  22)          121.8958         0.412702   
     92. A(C  16,C  17,C  22)          121.2290         0.412044   
     93. A(C  17,C  18,C  19)          119.4472         0.436479   
     94. A(C  19,C  18,H  21)          120.5348         0.357828   
     95. A(C  17,C  18,H  21)          120.0039         0.353882   
     96. A(C  14,C  19,H  20)          119.0129         0.354277   
     97. A(C  14,C  19,C  18)          118.7917         0.436142   
     98. A(C  18,C  19,H  20)          122.1933         0.358491   
     99. A(C  23,C  22,C  27)          118.5154         0.432712   
    100. A(C  17,C  22,C  27)          120.7826         0.413328   
    101. A(C  17,C  22,C  23)          120.7017         0.413334   
    102. A(C  24,C  23,H  54)          119.7094         0.357972   
    103. A(C  22,C  23,C  24)          120.7147         0.437103   
    104. A(C  22,C  23,H  54)          119.5621         0.354584   
    105. A(C  23,C  24,H  53)          119.6133         0.357934   
    106. A(C  23,C  24,C  25)          120.7699         0.437082   
    107. A(C  25,C  24,H  53)          119.6024         0.354530   
    108. A(C  26,C  25,C  30)          120.8385         0.413344   
    109. A(C  24,C  25,C  30)          120.6457         0.413309   
    110. A(C  24,C  25,C  26)          118.5153         0.432713   
    111. A(C  27,C  26,H  29)          119.7102         0.357926   
    112. A(C  25,C  26,H  29)          119.5643         0.354592   
    113. A(C  25,C  26,C  27)          120.7119         0.437065   
    114. A(C  26,C  27,H  28)          119.6150         0.357889   
    115. A(C  22,C  27,H  28)          119.6043         0.354538   
    116. A(C  22,C  27,C  26)          120.7664         0.437043   
    117. A(C  31,C  30,C  35)          116.8779         0.430687   
    118. A(C  25,C  30,C  35)          121.8194         0.412677   
    119. A(C  25,C  30,C  31)          121.3012         0.412062   
    120. A(C  30,C  31,N  32)          124.0784         0.443212   
    121. A(N  32,C  31,H  52)          115.3966         0.363152   
    122. A(C  30,C  31,H  52)          120.5141         0.352955   
    123. A(C  31,N  32,C  33)          118.7384         0.450776   
    124. A(N  32,C  33,C  38)          116.1722         0.422056   
    125. A(N  32,C  33,C  34)          122.0633         0.437656   
    126. A(C  34,C  33,C  38)          121.7642         0.415407   
    127. A(C  35,C  34,H  37)          122.2028         0.358524   
    128. A(C  33,C  34,H  37)          119.0053         0.354272   
    129. A(C  33,C  34,C  35)          118.7905         0.436172   
    130. A(C  34,C  35,H  36)          120.5350         0.357860   
    131. A(C  30,C  35,H  36)          120.0029         0.353868   
    132. A(C  30,C  35,C  34)          119.4493         0.436498   
    133. A(N  39,C  38,H  51)          123.9826         0.370756   
    134. A(C  33,C  38,H  51)          115.0093         0.338691   
    135. A(C  33,C  38,N  39)          120.9927         0.440845   
    136. A(C  38,N  39,C  40)          123.3288         0.451233   
    137. A(C  41,C  40,C  45)          119.1769         0.431192   
    138. A(N  39,C  40,C  45)          122.5538         0.425253   
    139. A(N  39,C  40,C  41)          118.1202         0.425323   
    140. A(C  42,C  41,H  50)          121.0575         0.358026   
    141. A(C  40,C  41,H  50)          118.7351         0.354182   
    142. A(C  40,C  41,C  42)          120.1893         0.436224   
    143. A(C  43,C  42,H  49)          119.9315         0.356245   
    144. A(C  41,C  42,H  49)          119.7332         0.357806   
    145. A(C  41,C  42,C  43)          120.3328         0.439210   
    146. A(C  44,C  43,H  48)          120.0881         0.356695   
    147. A(C  42,C  43,H  48)          120.1208         0.356357   
    148. A(C  42,C  43,C  44)          119.7894         0.437616   
    149. A(C  45,C  44,H  47)          119.6436         0.357422   
    150. A(C  43,C  44,H  47)          119.9954         0.356528   
    151. A(C  43,C  44,C  45)          120.3608         0.439223   
    152. A(C  44,C  45,H  46)          120.5707         0.357365   
    153. A(C  40,C  45,H  46)          119.2708         0.353801   
    154. A(C  40,C  45,C  44)          120.1278         0.435725   
    155. D(C   3,N   2,C   1,C  14)   -176.5839         0.060625   
    156. D(C   3,N   2,C   1,H   0)      5.0759         0.060625   
    157. D(C   4,C   3,N   2,C   1)     43.1264         0.024851   
    158. D(C   8,C   3,N   2,C   1)   -141.2698         0.024851   
    159. D(H  13,C   4,C   3,N   2)     -1.9990         0.025558   
    160. D(H  13,C   4,C   3,C   8)   -177.5585         0.025558   
    161. D(C   5,C   4,C   3,C   8)      0.4584         0.025558   
    162. D(C   5,C   4,C   3,N   2)    176.0179         0.025558   
    163. D(H  12,C   5,C   4,C   3)   -179.4294         0.028972   
    164. D(H  12,C   5,C   4,H  13)     -1.4386         0.028972   
    165. D(C   6,C   5,C   4,C   3)      0.7638         0.028972   
    166. D(C   6,C   5,C   4,H  13)    178.7546         0.028972   
    167. D(H  11,C   6,C   5,C   4)    179.6105         0.028077   
    168. D(C   7,C   6,C   5,C   4)     -0.8638         0.028077   
    169. D(H  11,C   6,C   5,H  12)     -0.1956         0.028077   
    170. D(C   7,C   6,C   5,H  12)    179.3301         0.028077   
    171. D(H  10,C   7,C   6,H  11)     -0.1942         0.027745   
    172. D(H  10,C   7,C   6,C   5)   -179.7198         0.027745   
    173. D(C   8,C   7,C   6,H  11)    179.2513         0.027745   
    174. D(C   8,C   7,C   6,C   5)     -0.2742         0.027745   
    175. D(H   9,C   8,C   7,H  10)     -0.6394         0.029307   
    176. D(H   9,C   8,C   7,C   6)    179.9140         0.029307   
    177. D(C   3,C   8,C   7,H  10)   -179.0485         0.029307   
    178. D(C   3,C   8,C   7,C   6)      1.5049         0.029307   
    179. D(H   9,C   8,C   3,C   4)    179.9651         0.025610   
    180. D(H   9,C   8,C   3,N   2)      4.2088         0.025610   
    181. D(C   7,C   8,C   3,C   4)     -1.5893         0.025610   
    182. D(C   7,C   8,C   3,N   2)   -177.3456         0.025610   
    183. D(C  19,C  14,C   1,H   0)    179.9218         0.016734   
    184. D(N  15,C  14,C   1,N   2)   -178.6553         0.016734   
    185. D(N  15,C  14,C   1,H   0)     -0.1737         0.016734   
    186. D(C  19,C  14,C   1,N   2)      1.4402         0.016734   
    187. D(C  16,N  15,C  14,C   1)    179.6192         0.035308   
    188. D(C  16,N  15,C  14,C  19)     -0.4766         0.035308   
    189. D(H  55,C  16,N  15,C  14)    178.6296         0.041616   
    190. D(C  17,C  16,N  15,C  14)     -0.2358         0.041616   
    191. D(C  22,C  17,C  16,H  55)      1.6317         0.025162   
    192. D(C  22,C  17,C  16,N  15)   -179.5580         0.025162   
    193. D(C  18,C  17,C  16,H  55)   -178.1214         0.025162   
    194. D(C  18,C  17,C  16,N  15)      0.6889         0.025162   
    195. D(H  21,C  18,C  17,C  22)      1.1715         0.025644   
    196. D(H  21,C  18,C  17,C  16)   -179.0771         0.025644   
    197. D(C  19,C  18,C  17,C  22)    179.8151         0.025644   
    198. D(C  19,C  18,C  17,C  16)     -0.4336         0.025644   
    199. D(H  20,C  19,C  18,H  21)     -1.0449         0.029468   
    200. D(H  20,C  19,C  18,C  17)   -179.6811         0.029468   
    201. D(C  14,C  19,C  18,H  21)    178.4280         0.029468   
    202. D(C  14,C  19,C  18,C  17)     -0.2082         0.029468   
    203. D(H  20,C  19,C  14,N  15)   -179.8137         0.025412   
    204. D(H  20,C  19,C  14,C   1)      0.0851         0.025412   
    205. D(C  18,C  19,C  14,N  15)      0.6964         0.025412   
    206. D(C  18,C  19,C  14,C   1)   -179.4049         0.025412   
    207. D(C  27,C  22,C  17,C  18)     39.3086         0.015402   
    208. D(C  27,C  22,C  17,C  16)   -140.4320         0.015402   
    209. D(C  23,C  22,C  17,C  18)   -140.8936         0.015402   
    210. D(C  23,C  22,C  17,C  16)     39.3657         0.015402   
    211. D(H  54,C  23,C  22,C  27)   -179.0328         0.026116   
    212. D(H  54,C  23,C  22,C  17)      1.1649         0.026116   
    213. D(C  24,C  23,C  22,C  27)     -0.3879         0.026116   
    214. D(C  24,C  23,C  22,C  17)    179.8099         0.026116   
    215. D(H  53,C  24,C  23,C  22)    179.3756         0.029424   
    216. D(C  25,C  24,C  23,H  54)    179.4053         0.029424   
    217. D(C  25,C  24,C  23,C  22)      0.7623         0.029424   
    218. D(H  53,C  24,C  23,H  54)     -1.9814         0.029424   
    219. D(C  30,C  25,C  24,H  53)      0.7588         0.026102   
    220. D(C  30,C  25,C  24,C  23)    179.3723         0.026102   
    221. D(C  26,C  25,C  24,H  53)   -178.9770         0.026102   
    222. D(C  26,C  25,C  24,C  23)     -0.3635         0.026102   
    223. D(H  29,C  26,C  25,C  30)      1.2137         0.026128   
    224. D(H  29,C  26,C  25,C  24)   -179.0510         0.026128   
    225. D(C  27,C  26,C  25,C  30)    179.8636         0.026128   
    226. D(C  27,C  26,C  25,C  24)     -0.4011         0.026128   
    227. D(H  28,C  27,C  26,H  29)     -1.9584         0.029381   
    228. D(H  28,C  27,C  26,C  25)    179.3936         0.029381   
    229. D(C  22,C  27,C  26,H  29)    179.4238         0.029381   
    230. D(C  22,C  27,C  26,C  25)      0.7758         0.029381   
    231. D(H  28,C  27,C  22,C  23)   -178.9948         0.026112   
    232. D(H  28,C  27,C  22,C  17)      0.8073         0.026112   
    233. D(C  26,C  27,C  22,C  23)     -0.3768         0.026112   
    234. D(C  26,C  27,C  22,C  17)    179.4253         0.026112   
    235. D(C  35,C  30,C  25,C  26)   -141.0374         0.015400   
    236. D(C  35,C  30,C  25,C  24)     39.2330         0.015400   
    237. D(C  31,C  30,C  25,C  26)     39.4348         0.015400   
    238. D(C  31,C  30,C  25,C  24)   -140.2948         0.015400   
    239. D(H  52,C  31,C  30,C  35)   -178.3067         0.025179   
    240. D(H  52,C  31,C  30,C  25)      1.2435         0.025179   
    241. D(N  32,C  31,C  30,C  35)      0.4366         0.025179   
    242. D(N  32,C  31,C  30,C  25)    179.9867         0.025179   
    243. D(C  33,N  32,C  31,H  52)    178.6015         0.041572   
    244. D(C  33,N  32,C  31,C  30)     -0.2000         0.041572   
    245. D(C  38,C  33,N  32,C  31)    179.9542         0.035320   
    246. D(C  34,C  33,N  32,C  31)     -0.2599         0.035320   
    247. D(H  37,C  34,C  33,C  38)     -0.1983         0.025406   
    248. D(H  37,C  34,C  33,N  32)   -179.9723         0.025406   
    249. D(C  35,C  34,C  33,C  38)   -179.7684         0.025406   
    250. D(C  35,C  34,C  33,N  32)      0.4576         0.025406   
    251. D(H  36,C  35,C  34,H  37)     -1.0531         0.029500   
    252. D(H  36,C  35,C  34,C  33)    178.5026         0.029500   
    253. D(C  30,C  35,C  34,H  37)   -179.7545         0.029500   
    254. D(C  30,C  35,C  34,C  33)     -0.1988         0.029500   
    255. D(H  36,C  35,C  30,C  31)   -178.9241         0.025630   
    256. D(H  36,C  35,C  30,C  25)      1.5282         0.025630   
    257. D(C  34,C  35,C  30,C  31)     -0.2158         0.025630   
    258. D(C  34,C  35,C  30,C  25)   -179.7634         0.025630   
    259. D(H  51,C  38,C  33,C  34)    179.7821         0.016728   
    260. D(H  51,C  38,C  33,N  32)     -0.4313         0.016728   
    261. D(N  39,C  38,C  33,C  34)      1.1586         0.016728   
    262. D(N  39,C  38,C  33,N  32)   -179.0548         0.016728   
    263. D(C  40,N  39,C  38,H  51)      5.1379         0.060617   
    264. D(C  40,N  39,C  38,C  33)   -176.3665         0.060617   
    265. D(C  45,C  40,N  39,C  38)     43.0546         0.024875   
    266. D(C  41,C  40,N  39,C  38)   -141.4253         0.024875   
    267. D(H  50,C  41,C  40,C  45)    179.9501         0.025604   
    268. D(H  50,C  41,C  40,N  39)      4.2746         0.025604   
    269. D(C  42,C  41,C  40,C  45)     -1.5855         0.025604   
    270. D(C  42,C  41,C  40,N  39)   -177.2610         0.025604   
    271. D(H  49,C  42,C  41,H  50)     -0.6366         0.029311   
    272. D(H  49,C  42,C  41,C  40)   -179.0648         0.029311   
    273. D(C  43,C  42,C  41,H  50)    179.9325         0.029311   
    274. D(C  43,C  42,C  41,C  40)      1.5042         0.029311   
    275. D(H  48,C  43,C  42,H  49)     -0.1897         0.027744   
    276. D(H  48,C  43,C  42,C  41)    179.2402         0.027744   
    277. D(C  44,C  43,C  42,H  49)   -179.7081         0.027744   
    278. D(C  44,C  43,C  42,C  41)     -0.2783         0.027744   
    279. D(H  47,C  44,C  43,C  42)    179.3230         0.028076   
    280. D(C  45,C  44,C  43,H  48)    179.6230         0.028076   
    281. D(C  45,C  44,C  43,C  42)     -0.8584         0.028076   
    282. D(H  47,C  44,C  43,H  48)     -0.1956         0.028076   
    283. D(H  46,C  45,C  44,H  47)     -1.4475         0.028973   
    284. D(H  46,C  45,C  44,C  43)    178.7332         0.028973   
    285. D(C  40,C  45,C  44,H  47)   -179.4192         0.028973   
    286. D(C  40,C  45,C  44,C  43)      0.7616         0.028973   
    287. D(H  46,C  45,C  40,C  41)   -177.5420         0.025554   
    288. D(H  46,C  45,C  40,N  39)     -2.0674         0.025554   
    289. D(C  44,C  45,C  40,C  41)      0.4560         0.025554   
    290. D(C  44,C  45,C  40,N  39)    175.9306         0.025554   
    -----------------------------------------------------------------

Number of atoms                         .... 56
Number of degrees of freedom            .... 290

         *************************************************************
         *                GEOMETRY OPTIMIZATION CYCLE   1            *
         *************************************************************
---------------------------------
CARTESIAN COORDINATES (ANGSTROEM)
---------------------------------
  H     -7.353768   -0.910637   -1.374886
  C     -7.029811   -0.285128   -0.535647
  N     -7.822716    0.360137    0.214174
  C     -9.194701    0.267877    0.120826
  C     -9.856484   -0.951039   -0.048119
  C    -11.236934   -0.995549   -0.053375
  C    -11.975446    0.167206    0.092623
  C    -11.324686    1.379836    0.262833
  C     -9.946317    1.432753    0.293064
  H     -9.427854    2.370346    0.423527
  H    -11.898412    2.287468    0.381451
  H    -13.054468    0.128178    0.081582
  H    -11.740594   -1.943705   -0.175357
  H     -9.276916   -1.858481   -0.141676
  C     -5.591053   -0.208398   -0.347726
  N     -4.848559   -0.905061   -1.209427
  C     -3.540917   -0.866391   -1.091657
  C     -2.863179   -0.130481   -0.113399
  C     -3.647052    0.588827    0.791690
  C     -5.020885    0.550506    0.678572
  H     -5.667683    1.092320    1.349378
  H     -3.175679    1.186683    1.558935
  C     -1.400512   -0.124619   -0.045285
  C     -0.633703   -0.088591   -1.209417
  C      0.743986   -0.079129   -1.145467
  C      1.401434   -0.121291    0.083630
  C      0.634741   -0.165489    1.247489
  C     -0.743176   -0.159139    1.184054
  H     -1.319770   -0.203801    2.096430
  H      1.126255   -0.182975    2.209065
  C      2.864304   -0.124913    0.147855
  C      3.549363   -0.920987    1.072306
  N      4.858004   -0.966708    1.177210
  C      5.593817   -0.216245    0.355969
  C      5.015725    0.609842   -0.612428
  C      3.641208    0.654510   -0.712474
  H      3.163920    1.301563   -1.434825
  H      5.657458    1.195285   -1.250635
  C      7.034473   -0.308976    0.521115
  N      7.819702    0.378142   -0.199039
  C      9.192403    0.274928   -0.133802
  C      9.946874    1.445076   -0.248452
  C     11.325255    1.384905   -0.245735
  C     11.972669    0.161565   -0.160661
  C     11.230896   -1.004917   -0.072205
  C      9.850809   -0.954656   -0.050495
  H      9.268340   -1.863769   -0.002097
  H     11.731814   -1.960723   -0.016796
  H     13.051503    0.117552   -0.171167
  H     11.901454    2.295711   -0.319569
  H      9.430945    2.390877   -0.313117
  H      7.367006   -0.986540    1.315332
  H      3.006359   -1.568827    1.748878
  H      1.320620   -0.061304   -2.058716
  H     -1.125258   -0.045696   -2.170154
  H     -2.992449   -1.469462   -1.804243

----------------------------
CARTESIAN COORDINATES (A.U.)
----------------------------
  NO LB      ZA    FRAG     MASS         X           Y           Z
   0 H     1.0000    0     1.008  -13.896607   -1.720855   -2.598157
   1 C     6.0000    0    12.011  -13.284417   -0.538813   -1.012227
   2 N     7.0000    0    14.007  -14.782791    0.680561    0.404731
   3 C     6.0000    0    12.011  -17.375466    0.506214    0.228327
   4 C     6.0000    0    12.011  -18.626055   -1.797203   -0.090933
   5 C     6.0000    0    12.011  -21.234729   -1.881316   -0.100864
   6 C     6.0000    0    12.011  -22.630314    0.315973    0.175031
   7 C     6.0000    0    12.011  -21.400554    2.607512    0.496682
   8 C     6.0000    0    12.011  -18.795815    2.707511    0.553811
   9 H     1.0000    0     1.008  -17.816063    4.479305    0.800349
  10 H     1.0000    0     1.008  -22.484741    4.322687    0.720838
  11 H     1.0000    0     1.008  -24.669369    0.242221    0.154167
  12 H     1.0000    0     1.008  -22.186506   -3.673071   -0.331377
  13 H     1.0000    0     1.008  -17.530831   -3.512021   -0.267730
  14 C     6.0000    0    12.011  -10.565559   -0.393816   -0.657106
  15 N     7.0000    0    14.007   -9.162449   -1.710318   -2.285485
  16 C     6.0000    0    12.011   -6.691363   -1.637243   -2.062933
  17 C     6.0000    0    12.011   -5.410624   -0.246573   -0.214293
  18 C     6.0000    0    12.011   -6.891930    1.112722    1.496077
  19 C     6.0000    0    12.011   -9.488098    1.040305    1.282316
  20 H     1.0000    0     1.008  -10.710369    2.064185    2.549956
  21 H     1.0000    0     1.008   -6.001164    2.242505    2.945960
  22 C     6.0000    0    12.011   -2.646583   -0.235495   -0.085575
  23 C     6.0000    0    12.011   -1.197525   -0.167413   -2.285467
  24 C     6.0000    0    12.011    1.405931   -0.149531   -2.164620
  25 C     6.0000    0    12.011    2.648327   -0.229207    0.158038
  26 C     6.0000    0    12.011    1.199488   -0.312728    2.357413
  27 C     6.0000    0    12.011   -1.404400   -0.300729    2.237537
  28 H     1.0000    0     1.008   -2.494004   -0.385127    3.961678
  29 H     1.0000    0     1.008    2.128313   -0.345773    4.174527
  30 C     6.0000    0    12.011    5.412750   -0.236051    0.279406
  31 C     6.0000    0    12.011    6.707324   -1.740412    2.026365
  32 N     7.0000    0    14.007    9.180298   -1.826814    2.224605
  33 C     6.0000    0    12.011   10.570781   -0.408644    0.672684
  34 C     6.0000    0    12.011    9.478347    1.152435   -1.157322
  35 C     6.0000    0    12.011    6.880886    1.236845   -1.346381
  36 H     1.0000    0     1.008    5.978943    2.459597   -2.711427
  37 H     1.0000    0     1.008   10.691045    2.258761   -2.363357
  38 C     6.0000    0    12.011   13.293228   -0.583881    0.984765
  39 N     7.0000    0    14.007   14.777096    0.714585   -0.376129
  40 C     6.0000    0    12.011   17.371125    0.519540   -0.252849
  41 C     6.0000    0    12.011   18.796867    2.730797   -0.469506
  42 C     6.0000    0    12.011   21.401630    2.617091   -0.464373
  43 C     6.0000    0    12.011   22.625065    0.305313   -0.303604
  44 C     6.0000    0    12.011   21.223317   -1.899019   -0.136448
  45 C     6.0000    0    12.011   18.615332   -1.804039   -0.095423
  46 H     1.0000    0     1.008   17.514624   -3.522013   -0.003962
  47 H     1.0000    0     1.008   22.169916   -3.705229   -0.031740
  48 H     1.0000    0     1.008   24.663766    0.222141   -0.323458
  49 H     1.0000    0     1.008   22.490488    4.338265   -0.603898
  50 H     1.0000    0     1.008   17.821903    4.518103   -0.591705
  51 H     1.0000    0     1.008   13.921623   -1.864290    2.485617
  52 H     1.0000    0     1.008    5.681195   -2.964654    3.304900
  53 H     1.0000    0     1.008    2.495609   -0.115849   -3.890410
  54 H     1.0000    0     1.008   -2.126430   -0.086353   -4.100996
  55 H     1.0000    0     1.008   -5.654908   -2.776881   -3.409525

--------------------------------
INTERNAL COORDINATES (ANGSTROEM)
--------------------------------
 H      0   0   0     0.000000000000     0.00000000     0.00000000
 C      1   0   0     1.095687524005     0.00000000     0.00000000
 N      2   1   0     1.267792507382   123.96288253     0.00000000
 C      3   2   1     1.378248207587   123.26082236     5.07592306
 C      4   3   2     1.397231397248   122.55258084    43.12638266
 C      5   4   3     1.381177879245   120.12997820   176.01785684
 C      6   5   4     1.385176537841   120.35924029     0.76381340
 C      7   6   5     1.386698629885   119.78792825   359.13615228
 C      8   7   6     1.379715303309   120.33522991   359.72575596
 H      9   8   7     1.079307599672   121.05518485   179.91395167
 H      8   7   6     1.080290683169   119.93087221   180.28023042
 H      7   6   5     1.079783517604   120.08997468   179.61045061
 H      6   5   4     1.080533199694   119.64227682   180.57059619
 H      5   4   3     1.080788212192   119.27093590   358.00101612
 C      2   1   3     1.453005827050   114.95935510   181.56826801
 N     15   2   1     1.333853374863   116.10780117   359.82625933
 C     16  15   2     1.313504548005   118.74220580   179.61924226
 C     17  16  15     1.399243215733   124.08118840   359.76417690
 C     18  17  16     1.396799042007   116.87468751     0.68889632
 C     19  18  17     1.379014410657   119.44722790   359.56641083
 H     20  19  18     1.077910513624   122.19333426   180.31887995
 H     19  18  17     1.080874016409   120.00389128   180.92287563
 C     18  17  16     1.464264091531   121.22900509   180.44202179
 C     23  18  17     1.394452461392   120.70171425    39.36573034
 C     24  23  18     1.379204981167   120.71473238   179.80990892
 C     25  24  23     1.394523884919   120.76985175     0.76230006
 C     26  25  24     1.394395544951   118.51525890   359.63645215
 C     27  26  25     1.379391910940   120.71185181   359.59889067
 H     28  27  26     1.080224219945   119.61497699   179.39363333
 H     27  26  25     1.080054785982   119.56426397   180.94897159
 C     26  25  24     1.464282999592   120.64568830   179.37226495
 C     31  26  25     1.399159893093   121.30115260   219.70519103
 N     32  31  26     1.313635298132   124.07842702   179.98674724
 C     33  32  31     1.333810992977   118.73843748   359.80001006
 C     34  33  32     1.397999956784   122.06328603   359.74011234
 C     35  34  33     1.378877137500   118.79045302     0.45755816
 H     36  35  34     1.080865667255   120.53503758   178.50256916
 H     35  34  33     1.077901191848   119.00529360   180.02768429
 C     34  33  32     1.453053275236   116.17215612   179.95416347
 N     39  34  33     1.267808341057   120.99266305   180.94523674
 C     40  39  34     1.378120980354   123.32884948   183.63346055
 C     41  40  39     1.397002113943   118.12017309   218.57466349
 C     42  41  40     1.379696172260   120.18925064   182.73902366
 C     43  42  41     1.386702681279   120.33284558     1.50424919
 C     44  43  42     1.385182871423   119.78935012   359.72173375
 C     45  44  43     1.381171949588   120.36079474   359.14159941
 H     46  45  44     1.080786390532   120.57073741   178.73321142
 H     45  44  43     1.080533830953   119.99537122   179.32296105
 H     44  43  42     1.079782775203   120.12078537   179.24015148
 H     43  42  41     1.080288983138   119.73322860   180.93518200
 H     42  41  40     1.079307300277   118.73505799     4.27457911
 H     39  34  33     1.095650699852   115.00927560   359.56874587
 H     32  31  26     1.082728203301   120.51410048     1.24346949
 H     25  24  23     1.080206899521   119.61328842   179.37558030
 H     24  23  18     1.080038011700   119.56211218     1.16494109
 H     17  16  15     1.082723560277   115.39746606   178.62961460

---------------------------
INTERNAL COORDINATES (A.U.)
---------------------------
 H      0   0   0     0.000000000000     0.00000000     0.00000000
 C      1   0   0     2.070549348724     0.00000000     0.00000000
 N      2   1   0     2.395780633588   123.96288253     0.00000000
 C      3   2   1     2.604511656907   123.26082236     5.07592306
 C      4   3   2     2.640384686515   122.55258084    43.12638266
 C      5   4   3     2.610047934003   120.12997820   176.01785684
 C      6   5   4     2.617604303653   120.35924029     0.76381340
 C      7   6   5     2.620480640766   119.78792825   359.13615228
 C      8   7   6     2.607284066035   120.33522991   359.72575596
 H      9   8   7     2.039595777640   121.05518485   179.91395167
 H      8   7   6     2.041453536216   119.93087221   180.28023042
 H      7   6   5     2.040495132194   120.08997468   179.61045061
 H      6   5   4     2.041911826031   119.64227682   180.57059619
 H      5   4   3     2.042393729813   119.27093590   358.00101612
 C      2   1   3     2.745783084116   114.95935510   181.56826801
 N     15   2   1     2.520617581298   116.10780117   359.82625933
 C     16  15   2     2.482163871389   118.74220580   179.61924226
 C     17  16  15     2.644186472483   124.08118840   359.76417690
 C     18  17  16     2.639567653516   116.87468751     0.68889632
 C     19  18  17     2.605959570873   119.44722790   359.56641083
 H     20  19  18     2.036955667624   122.19333426   180.31887995
 H     19  18  17     2.042555876284   120.00389128   180.92287563
 C     18  17  16     2.767058120729   121.22900509   180.44202179
 C     23  18  17     2.635133258804   120.70171425    39.36573034
 C     24  23  18     2.606319696946   120.71473238   179.80990892
 C     25  24  23     2.635268229708   120.76985175     0.76230006
 C     26  25  24     2.635025702317   118.51525890   359.63645215
 C     27  26  25     2.606672943022   120.71185181   359.59889067
 H     28  27  26     2.041327938925   119.61497699   179.39363333
 H     27  26  25     2.041007755136   119.56426397   180.94897159
 C     26  25  24     2.767093851786   120.64568830   179.37226495
 C     31  26  25     2.644029015513   121.30115260   219.70519103
 N     32  31  26     2.482410953322   124.07842702   179.98674724
 C     33  32  31     2.520537491140   118.73843748   359.80001006
 C     34  33  32     2.641837053556   122.06328603   359.74011234
 C     35  34  33     2.605700162200   118.79045302     0.45755816
 H     36  35  34     2.042540098671   120.53503758   178.50256916
 H     35  34  33     2.036938052021   119.00529360   180.02768429
 C     34  33  32     2.745872748193   116.17215612   179.95416347
 N     39  34  33     2.395810554899   120.99266305   180.94523674
 C     40  39  34     2.604271232280   123.32884948   183.63346055
 C     41  40  39     2.639951403861   118.12017309   218.57466349
 C     42  41  40     2.607247913590   120.18925064   182.73902366
 C     43  42  41     2.620488296792   120.33284558     1.50424919
 C     44  43  42     2.617616272388   119.78935012   359.72173375
 C     45  44  43     2.610036728576   120.36079474   359.14159941
 H     46  45  44     2.042390287375   120.57073741   178.73321142
 H     45  44  43     2.041913018938   119.99537122   179.32296105
 H     44  43  42     2.040493729259   120.12078537   179.24015148
 H     43  42  41     2.041450323624   119.73322860   180.93518200
 H     42  41  40     2.039595211865   118.73505799     4.27457911
 H     39  34  33     2.070479761159   115.00927560   359.56874587
 H     32  31  26     2.046059781711   120.51410048     1.24346949
 H     25  24  23     2.041295208068   119.61328842   179.37558030
 H     24  23  18     2.040976056338   119.56211218     1.16494109
 H     17  16  15     2.046051007668   115.39746606   178.62961460

---------------------
BASIS SET INFORMATION
---------------------
There are 3 groups of distinct atoms

 Group   1 Type H   : 4s1p contracted to 2s1p pattern {31/1}
 Group   2 Type C   : 7s4p1d contracted to 3s2p1d pattern {511/31/1}
 Group   3 Type N   : 7s4p1d contracted to 3s2p1d pattern {511/31/1}

Atom   0H    basis set group =>   1
Atom   1C    basis set group =>   2
Atom   2N    basis set group =>   3
Atom   3C    basis set group =>   2
Atom   4C    basis set group =>   2
Atom   5C    basis set group =>   2
Atom   6C    basis set group =>   2
Atom   7C    basis set group =>   2
Atom   8C    basis set group =>   2
Atom   9H    basis set group =>   1
Atom  10H    basis set group =>   1
Atom  11H    basis set group =>   1
Atom  12H    basis set group =>   1
Atom  13H    basis set group =>   1
Atom  14C    basis set group =>   2
Atom  15N    basis set group =>   3
Atom  16C    basis set group =>   2
Atom  17C    basis set group =>   2
Atom  18C    basis set group =>   2
Atom  19C    basis set group =>   2
Atom  20H    basis set group =>   1
Atom  21H    basis set group =>   1
Atom  22C    basis set group =>   2
Atom  23C    basis set group =>   2
Atom  24C    basis set group =>   2
Atom  25C    basis set group =>   2
Atom  26C    basis set group =>   2
Atom  27C    basis set group =>   2
Atom  28H    basis set group =>   1
Atom  29H    basis set group =>   1
Atom  30C    basis set group =>   2
Atom  31C    basis set group =>   2
Atom  32N    basis set group =>   3
Atom  33C    basis set group =>   2
Atom  34C    basis set group =>   2
Atom  35C    basis set group =>   2
Atom  36H    basis set group =>   1
Atom  37H    basis set group =>   1
Atom  38C    basis set group =>   2
Atom  39N    basis set group =>   3
Atom  40C    basis set group =>   2
Atom  41C    basis set group =>   2
Atom  42C    basis set group =>   2
Atom  43C    basis set group =>   2
Atom  44C    basis set group =>   2
Atom  45C    basis set group =>   2
Atom  46H    basis set group =>   1
Atom  47H    basis set group =>   1
Atom  48H    basis set group =>   1
Atom  49H    basis set group =>   1
Atom  50H    basis set group =>   1
Atom  51H    basis set group =>   1
Atom  52H    basis set group =>   1
Atom  53H    basis set group =>   1
Atom  54H    basis set group =>   1
Atom  55H    basis set group =>   1
---------------------------------
AUXILIARY/J BASIS SET INFORMATION
---------------------------------
There are 3 groups of distinct atoms

 Group   1 Type H   : 5s2p1d contracted to 3s1p1d pattern {311/2/1}
 Group   2 Type C   : 12s5p4d2f1g contracted to 6s4p3d1f1g pattern {711111/2111/211/2/1}
 Group   3 Type N   : 12s5p4d2f1g contracted to 6s4p3d1f1g pattern {711111/2111/211/2/1}

Atom   0H    basis set group =>   1
Atom   1C    basis set group =>   2
Atom   2N    basis set group =>   3
Atom   3C    basis set group =>   2
Atom   4C    basis set group =>   2
Atom   5C    basis set group =>   2
Atom   6C    basis set group =>   2
Atom   7C    basis set group =>   2
Atom   8C    basis set group =>   2
Atom   9H    basis set group =>   1
Atom  10H    basis set group =>   1
Atom  11H    basis set group =>   1
Atom  12H    basis set group =>   1
Atom  13H    basis set group =>   1
Atom  14C    basis set group =>   2
Atom  15N    basis set group =>   3
Atom  16C    basis set group =>   2
Atom  17C    basis set group =>   2
Atom  18C    basis set group =>   2
Atom  19C    basis set group =>   2
Atom  20H    basis set group =>   1
Atom  21H    basis set group =>   1
Atom  22C    basis set group =>   2
Atom  23C    basis set group =>   2
Atom  24C    basis set group =>   2
Atom  25C    basis set group =>   2
Atom  26C    basis set group =>   2
Atom  27C    basis set group =>   2
Atom  28H    basis set group =>   1
Atom  29H    basis set group =>   1
Atom  30C    basis set group =>   2
Atom  31C    basis set group =>   2
Atom  32N    basis set group =>   3
Atom  33C    basis set group =>   2
Atom  34C    basis set group =>   2
Atom  35C    basis set group =>   2
Atom  36H    basis set group =>   1
Atom  37H    basis set group =>   1
Atom  38C    basis set group =>   2
Atom  39N    basis set group =>   3
Atom  40C    basis set group =>   2
Atom  41C    basis set group =>   2
Atom  42C    basis set group =>   2
Atom  43C    basis set group =>   2
Atom  44C    basis set group =>   2
Atom  45C    basis set group =>   2
Atom  46H    basis set group =>   1
Atom  47H    basis set group =>   1
Atom  48H    basis set group =>   1
Atom  49H    basis set group =>   1
Atom  50H    basis set group =>   1
Atom  51H    basis set group =>   1
Atom  52H    basis set group =>   1
Atom  53H    basis set group =>   1
Atom  54H    basis set group =>   1
Atom  55H    basis set group =>   1


           ************************************************************
           *        Program running with 128 parallel MPI-processes   *
           *              working on a common directory               *
           ************************************************************
------------------------------------------------------------------------------
                           ORCA GTO INTEGRAL CALCULATION
                           -- RI-GTO INTEGRALS CHOSEN --
------------------------------------------------------------------------------

                         BASIS SET STATISTICS AND STARTUP INFO

Gaussian basis set:
 # of primitive gaussian shells          ...  518
 # of primitive gaussian functions       ...  970
 # of contracted shells                  ...  270
 # of contracted basis functions         ...  586
 Highest angular momentum                ...    2
 Maximum contraction depth               ...    5
Auxiliary gaussian basis set:
 # of primitive gaussian shells          ...  992
 # of primitive gaussian functions       ... 2732
 # of contracted shells                  ...  620
 # of contracted aux-basis functions     ... 1908
 Highest angular momentum                ...    4
 Maximum contraction depth               ...    7
Ratio of auxiliary to basis functions    ...  3.26
Integral package used                  ... LIBINT
 One Electron integrals                  ... done
 Ordering auxiliary basis shells         ... done
 Integral threshhold             Thresh  ...  2.500e-11
 Primitive cut-off               TCut    ...  2.500e-12
 Pre-screening matrix                    ... done
 Shell pair data                         ... 
 Ordering of the shell pairs             ... done (   0.004 sec) 16172 of 36585 pairs
 Determination of significant pairs      ... done (   0.000 sec)
 Creation of shell pair data             ... done (   0.005 sec)
 Storage of shell pair data              ... done (   0.020 sec)
 Shell pair data done in (   0.029 sec)
 Computing two index integrals           ... done
 Cholesky decomposition of the V-matrix  ... done


Timings:
 Total evaluation time                   ...   1.164 sec (  0.019 min)
 One electron matrix time                ...   0.229 sec (  0.004 min) = 19.6%
 Schwartz matrix evaluation time         ...   0.340 sec (  0.006 min) = 29.2%
 Two index repulsion integral time       ...   0.132 sec (  0.002 min) = 11.3%
 Cholesky decomposition of V             ...   0.407 sec (  0.007 min) = 35.0%
 Three index repulsion integral time     ...   0.001 sec (  0.000 min) =  0.1%



           ************************************************************
           *        Program running with 128 parallel MPI-processes   *
           *              working on a common directory               *
           ************************************************************
-------------------------------------------------------------------------------
                                 ORCA SCF
-------------------------------------------------------------------------------

------------
SCF SETTINGS
------------
Hamiltonian:
 Density Functional     Method          .... DFT(GTOs)
 Exchange Functional    Exchange        .... PBE
   PBE kappa parameter   XKappa         ....  0.804000
   PBE mue parameter    XMuePBE         ....  0.219520
 Correlation Functional Correlation     .... PBE
   PBE beta parameter  CBetaPBE         ....  0.066725
 LDA part of GGA corr.  LDAOpt          .... PW91-LDA
 Gradients option       PostSCFGGA      .... off
 Hybrid DFT is turned on
   Fraction HF Exchange ScalHFX         ....  0.250000
   Scaling of DF-GGA-X  ScalDFX         ....  0.750000
   Scaling of DF-GGA-C  ScalDFC         ....  1.000000
   Scaling of DF-LDA-C  ScalLDAC        ....  1.000000
   Perturbative correction              ....  0.000000
   Density functional embedding theory  .... OFF
   NL short-range parameter             ....  6.900000
 RI-approximation to the Coulomb term is turned on
   Number of auxiliary basis functions  .... 1908
   RIJ-COSX (HFX calculated with COS-X)).... on


General Settings:
 Integral files         IntName         .... _longD
 Hartree-Fock type      HFTyp           .... RHF
 Total Charge           Charge          ....    0
 Multiplicity           Mult            ....    1
 Number of Electrons    NEL             ....  230
 Basis Dimension        Dim             ....  586
 Nuclear Repulsion      ENuc            ....   2673.4600900309 Eh

Convergence Acceleration:
 DIIS                   CNVDIIS         .... on
   Start iteration      DIISMaxIt       ....     0
   Startup error        DIISStart       ....  0.200000
   # of expansion vecs  DIISMaxEq       ....     5
   Bias factor          DIISBfac        ....   1.050
   Max. coefficient     DIISMaxC        ....  10.000
 Newton-Raphson         CNVNR           .... off
 SOSCF                  CNVSOSCF        .... on
   Start iteration      SOSCFMaxIt      ....   150
   Startup grad/error   SOSCFStart      ....  0.001000
 Level Shifting         CNVShift        .... on
   Level shift para.    LevelShift      ....    0.2500
   Turn off err/grad.   ShiftErr        ....    0.0000
 Zerner damping         CNVZerner       .... off
 Static damping         CNVDamp         .... on
   Fraction old density DampFac         ....    0.8500
   Max. Damping (<1)    DampMax         ....    0.9800
   Min. Damping (>=0)   DampMin         ....    0.0000
   Turn off err/grad.   DampErr         ....    0.0300
 Fernandez-Rico         CNVRico         .... off

SCF Procedure:
 Maximum # iterations   MaxIter         ....  2000
 SCF integral mode      SCFMode         .... Direct
   Integral package                     .... LIBINT
 Reset frequency        DirectResetFreq ....    20
 Integral Threshold     Thresh          ....  2.500e-11 Eh
 Primitive CutOff       TCut            ....  2.500e-12 Eh

Convergence Tolerance:
 Convergence Check Mode ConvCheckMode   .... Total+1el-Energy
 Convergence forced     ConvForced      .... 0
 Energy Change          TolE            ....  1.000e-08 Eh
 1-El. energy change                    ....  1.000e-05 Eh
 Orbital Gradient       TolG            ....  1.000e-05
 Orbital Rotation angle TolX            ....  1.000e-05
 DIIS Error             TolErr          ....  5.000e-07


Diagonalization of the overlap matrix:
Smallest eigenvalue                        ... 2.554e-04
Time for diagonalization                   ...    0.610 sec
Threshold for overlap eigenvalues          ... 1.000e-08
Number of eigenvalues below threshold      ... 0
Time for construction of square roots      ...    0.144 sec
Total time needed                          ...    0.756 sec

-------------------
DFT GRID GENERATION
-------------------

General Integration Accuracy     IntAcc      ...  5.340
Radial Grid Type                 RadialGrid  ... Gauss-Chebyshev
Angular Grid (max. acc.)         AngularGrid ... Lebedev-590
Angular grid pruning method      GridPruning ... 3 (G Style)
Weight generation scheme         WeightScheme... Becke
Basis function cutoff            BFCut       ...    1.0000e-11
Integration weight cutoff        WCut        ...    1.0000e-14
Grids for H and He will be reduced by one unit

# of grid points (after initial pruning)     ... 802588 (   0.0 sec)
# of grid points (after weights+screening)   ... 701719 (   0.7 sec)
nearest neighbour list constructed           ...    0.0 sec
Grid point re-assignment to atoms done       ...    0.2 sec
Grid point division into batches done        ...    9.0 sec
Reduced shell lists constructed in    9.3 sec

Total number of grid points                  ...   701719
Total number of batches                      ...    10994
Average number of points per batch           ...       63
Average number of grid points per atom       ...    12531
Average number of shells per batch           ...    34.61 (12.82%)
Average number of basis functions per batch  ...    64.66 (11.03%)
Average number of large shells per batch     ...    19.48 (56.29%)
Average number of large basis fcns per batch ...    36.20 (55.98%)
Maximum spatial batch extension              ...   8.35, 16.40, 15.01 au
Average spatial batch extension              ...   0.03,  0.03,  0.03 au

Time for grid setup =   10.851 sec

------------------------------
INITIAL GUESS: MODEL POTENTIAL
------------------------------
Loading Hartree-Fock densities                     ... done
Calculating cut-offs                               ... done
Setting up the integral package                    ... done
Initializing the effective Hamiltonian             ... done
Starting the Coulomb interaction                   ... done (   0.0 sec)
Reading the grid                                   ... done
Mapping shells                                     ... done
Starting the XC term evaluation                    ... done (   0.1 sec)
  promolecular density results
     # of electrons  =    229.989247020
     EX              =   -186.189414859
     EC              =     -7.708157081
     EX+EC           =   -193.897571941
Transforming the Hamiltonian                       ... done (   0.2 sec)
Diagonalizing the Hamiltonian                      ... done (   0.1 sec)
Back transforming the eigenvectors                 ... done (   0.0 sec)
Now organizing SCF variables                       ... done
                      ------------------
                      INITIAL GUESS DONE (  11.6 sec)
                      ------------------
--------------------
COSX GRID GENERATION
--------------------

General Integration Accuracy     IntAcc      ...  3.670
Radial Grid Type                 RadialGrid  ... Gauss-Chebyshev
Angular Grid (max. acc.)         AngularGrid ... Lebedev-50
Angular grid pruning method      GridPruning ... 3 (G Style)
Weight generation scheme         WeightScheme... Becke
Basis function cutoff            BFCut       ...    1.0000e-11
Integration weight cutoff        WCut        ...    1.0000e-14
Grids for H and He will be reduced by one unit

# of grid points (after initial pruning)     ...  33596 (   0.0 sec)
# of grid points (after weights+screening)   ...  30446 (   0.0 sec)
nearest neighbour list constructed           ...    0.0 sec
Grid point re-assignment to atoms done       ...    0.0 sec
Grid point division into batches done        ...    0.0 sec
Reduced shell lists constructed in    0.0 sec

Total number of grid points                  ...    30446
Total number of batches                      ...      495
Average number of points per batch           ...       61
Average number of grid points per atom       ...      544
Average number of shells per batch           ...    60.40 (22.37%)
Average number of basis functions per batch  ...   122.80 (20.96%)
Average number of large shells per batch     ...    40.80 (67.55%)
Average number of large basis fcns per batch ...    82.00 (66.78%)
Maximum spatial batch extension              ...  10.93, 13.35, 14.31 au
Average spatial batch extension              ...   0.06,  0.08,  0.08 au

Overlap Fitting                  UseSFitting ... on
Constructing numerical overlap ... done (      0.0 sec)
Inverting numerical overlap    ... done (      0.0 sec)
Obtaining analytic overlap     ... done (      0.0 sec)
Final contraction and storage  ... done (      0.1 sec)


General Integration Accuracy     IntAcc      ...  4.010
Radial Grid Type                 RadialGrid  ... Gauss-Chebyshev
Angular Grid (max. acc.)         AngularGrid ... Lebedev-110
Angular grid pruning method      GridPruning ... 3 (G Style)
Weight generation scheme         WeightScheme... Becke
Basis function cutoff            BFCut       ...    1.0000e-11
Integration weight cutoff        WCut        ...    1.0000e-14
Grids for H and He will be reduced by one unit

# of grid points (after initial pruning)     ...  64608 (   0.0 sec)
# of grid points (after weights+screening)   ...  58280 (   0.1 sec)
nearest neighbour list constructed           ...    0.0 sec
Grid point re-assignment to atoms done       ...    0.0 sec
Grid point division into batches done        ...    0.0 sec
Reduced shell lists constructed in    0.1 sec

Total number of grid points                  ...    58280
Total number of batches                      ...      933
Average number of points per batch           ...       62
Average number of grid points per atom       ...     1041
Average number of shells per batch           ...    55.56 (20.58%)
Average number of basis functions per batch  ...   109.78 (18.73%)
Average number of large shells per batch     ...    34.89 (62.80%)
Average number of large basis fcns per batch ...    69.11 (62.96%)
Maximum spatial batch extension              ...  11.26, 12.90, 17.86 au
Average spatial batch extension              ...   0.05,  0.07,  0.08 au

Overlap Fitting                  UseSFitting ... on
Constructing numerical overlap ... done (      0.0 sec)
Inverting numerical overlap    ... done (      0.0 sec)
Obtaining analytic overlap     ... done (      0.0 sec)
Final contraction and storage  ... done (      0.1 sec)


General Integration Accuracy     IntAcc      ...  4.340
Radial Grid Type                 RadialGrid  ... Gauss-Chebyshev
Angular Grid (max. acc.)         AngularGrid ... Lebedev-194
Angular grid pruning method      GridPruning ... 3 (G Style)
Weight generation scheme         WeightScheme... Becke
Basis function cutoff            BFCut       ...    1.0000e-11
Integration weight cutoff        WCut        ...    1.0000e-14
Grids for H and He will be reduced by one unit

# of grid points (after initial pruning)     ... 145216 (   0.0 sec)
# of grid points (after weights+screening)   ... 129260 (   0.1 sec)
nearest neighbour list constructed           ...    0.0 sec
Grid point re-assignment to atoms done       ...    0.0 sec
Grid point division into batches done        ...    0.2 sec
Reduced shell lists constructed in    0.3 sec

Total number of grid points                  ...   129260
Total number of batches                      ...     2050
Average number of points per batch           ...       63
Average number of grid points per atom       ...     2308
Average number of shells per batch           ...    45.94 (17.02%)
Average number of basis functions per batch  ...    90.61 (15.46%)
Average number of large shells per batch     ...    28.22 (61.43%)
Average number of large basis fcns per batch ...    55.22 (60.94%)
Maximum spatial batch extension              ...  10.25, 14.31, 14.40 au
Average spatial batch extension              ...   0.04,  0.06,  0.06 au

Overlap Fitting                  UseSFitting ... on
Constructing numerical overlap ... done (      0.1 sec)
Inverting numerical overlap    ... done (      0.0 sec)
Obtaining analytic overlap     ... done (      0.0 sec)
Final contraction and storage  ... done (      0.1 sec)

Time for X-Grid setup             =    1.686 sec
--------------
SCF ITERATIONS
--------------
ITER       Energy         Delta-E        Max-DP      RMS-DP      [F,P]     Damp
               ***  Starting incremental Fock matrix formation  ***
  0  -1372.2986363937   0.000000000000 0.03251630  0.00061970  0.1503650 0.8500
  1  -1372.4305239835  -0.131887589857 0.02763092  0.00059875  0.1121308 0.8500
                               ***Turning on DIIS***
  2  -1372.5236035449  -0.093079561353 0.01979998  0.00047654  0.0780564 0.8500
  3  -1372.5870278665  -0.063424321623 0.00988661  0.00031004  0.0535685 0.8500
  4  -1372.6341273176  -0.047099451076 0.00682088  0.00022226  0.0414684 0.8500
  5  -1372.6704644882  -0.036337170611 0.00518031  0.00017524  0.0343583 0.8500
  6  -1372.6997646303  -0.029300142145 0.02900199  0.00096751  0.0290455 0.0000
  7  -1372.8521399876  -0.152375357221 0.00301521  0.00005518  0.0017720 0.0000
  8  -1372.8522158141  -0.000075826510 0.00134800  0.00001837  0.0012717 0.0000
                      *** Initiating the SOSCF procedure ***
                           *** Shutting down DIIS ***
                      *** Re-Reading the Fockian *** 
                      *** Removing any level shift *** 
ITER      Energy       Delta-E        Grad      Rot      Max-DP    RMS-DP
  9  -1372.85224125  -0.0000254394  0.000175  0.000175  0.000275  0.000006
               *** Restarting incremental Fock matrix formation ***
 10  -1372.85211443   0.0001268215  0.000113  0.000734  0.000533  0.000009
 11  -1372.85211467  -0.0000002367  0.000070  0.000335  0.000270  0.000004
 12  -1372.85211507  -0.0000003979  0.000030  0.000189  0.000106  0.000003
 13  -1372.85211517  -0.0000001016  0.000014  0.000041  0.000059  0.000001
 14  -1372.85211520  -0.0000000285  0.000009  0.000057  0.000033  0.000001
 15  -1372.85211520   0.0000000009  0.000003  0.000009  0.000019  0.000000
 16  -1372.85211522  -0.0000000264  0.000003  0.000015  0.000020  0.000000
                  ***Gradient check signals convergence***
              ***Rediagonalizing the Fockian in SOSCF/NRSCF***

               *****************************************************
               *                     SUCCESS                       *
               *           SCF CONVERGED AFTER  17 CYCLES          *
               *****************************************************

Old exchange energy                            =    -47.420006074 Eh
New exchange energy                            =    -47.419503304 Eh
Exchange energy change after final integration =      0.000502770 Eh
Total energy after final integration           =  -1372.851612455 Eh
Final COS-X integration done in                =     1.666 sec

----------------
TOTAL SCF ENERGY
----------------

Total Energy       :        -1372.85161246 Eh          -37357.19158 eV

Components:
Nuclear Repulsion  :         2673.46009003 Eh           72748.54751 eV
Electronic Energy  :        -4046.31170249 Eh         -110105.73909 eV
One Electron Energy:        -7168.80908237 Eh         -195073.21246 eV
Two Electron Energy:         3122.49737988 Eh           84967.47337 eV

Virial components:
Potential Energy   :        -2733.01383358 Eh          -74369.08726 eV
Kinetic Energy     :         1360.16222113 Eh           37011.89569 eV
Virial Ratio       :            2.00932932


DFT components:
N(Alpha)           :      115.000002369364 electrons
N(Beta)            :      115.000002369364 electrons
N(Total)           :      230.000004738727 electrons
E(X)               :     -141.864325489512 Eh       
E(C)               :       -7.737596036847 Eh       
E(XC)              :     -149.601921526359 Eh       
DFET-embed. en.    :        0.000000000000 Eh       

---------------
SCF CONVERGENCE
---------------

  Last Energy change         ...   -3.2946e-09  Tolerance :   1.0000e-08
  Last MAX-Density change    ...    4.8850e-15  Tolerance :   1.0000e-07
  Last RMS-Density change    ...    3.8756e-17  Tolerance :   5.0000e-09
  Last Orbital Gradient      ...    6.6196e-07  Tolerance :   1.0000e-05
  Last Orbital Rotation      ...    2.1504e-06  Tolerance :   1.0000e-05

             **** THE GBW FILE WAS UPDATED (_longD.gbw) ****
             **** DENSITY FILE WAS UPDATED (_longD.scfp) ****
             **** ENERGY FILE WAS UPDATED (_longD.en.tmp) ****
             **** THE GBW FILE WAS UPDATED (_longD.gbw) ****
             **** DENSITY FILE WAS UPDATED (_longD.scfp) ****
----------------
ORBITAL ENERGIES
----------------

  NO   OCC          E(Eh)            E(eV) 
   0   2.0000     -14.396805      -391.7570 
   1   2.0000     -14.396771      -391.7561 
   2   2.0000     -14.396587      -391.7510 
   3   2.0000     -14.396585      -391.7510 
   4   2.0000     -10.283160      -279.8190 
   5   2.0000     -10.283086      -279.8170 
   6   2.0000     -10.279434      -279.7176 
   7   2.0000     -10.279423      -279.7173 
   8   2.0000     -10.277284      -279.6591 
   9   2.0000     -10.277273      -279.6588 
  10   2.0000     -10.269317      -279.4423 
  11   2.0000     -10.269277      -279.4412 
  12   2.0000     -10.265371      -279.3350 
  13   2.0000     -10.265339      -279.3341 
  14   2.0000     -10.263327      -279.2793 
  15   2.0000     -10.263244      -279.2771 
  16   2.0000     -10.263198      -279.2758 
  17   2.0000     -10.263168      -279.2750 
  18   2.0000     -10.254301      -279.0337 
  19   2.0000     -10.254205      -279.0311 
  20   2.0000     -10.253742      -279.0185 
  21   2.0000     -10.253664      -279.0164 
  22   2.0000     -10.252706      -278.9903 
  23   2.0000     -10.252617      -278.9879 
  24   2.0000     -10.238222      -278.5962 
  25   2.0000     -10.238200      -278.5956 
  26   2.0000     -10.237290      -278.5708 
  27   2.0000     -10.237265      -278.5702 
  28   2.0000     -10.237152      -278.5671 
  29   2.0000     -10.237135      -278.5666 
  30   2.0000     -10.234839      -278.5041 
  31   2.0000     -10.234821      -278.5036 
  32   2.0000     -10.233867      -278.4777 
  33   2.0000     -10.233846      -278.4771 
  34   2.0000      -0.988327       -26.8938 
  35   2.0000      -0.988222       -26.8909 
  36   2.0000      -0.964655       -26.2496 
  37   2.0000      -0.964570       -26.2473 
  38   2.0000      -0.909787       -24.7566 
  39   2.0000      -0.875284       -23.8177 
  40   2.0000      -0.874862       -23.8062 
  41   2.0000      -0.860764       -23.4226 
  42   2.0000      -0.835676       -22.7399 
  43   2.0000      -0.817689       -22.2505 
  44   2.0000      -0.809785       -22.0354 
  45   2.0000      -0.785804       -21.3828 
  46   2.0000      -0.782524       -21.2936 
  47   2.0000      -0.769224       -20.9316 
  48   2.0000      -0.768468       -20.9111 
  49   2.0000      -0.762736       -20.7551 
  50   2.0000      -0.749576       -20.3970 
  51   2.0000      -0.707013       -19.2388 
  52   2.0000      -0.681914       -18.5558 
  53   2.0000      -0.674337       -18.3497 
  54   2.0000      -0.662091       -18.0164 
  55   2.0000      -0.650425       -17.6990 
  56   2.0000      -0.636799       -17.3282 
  57   2.0000      -0.631894       -17.1947 
  58   2.0000      -0.625081       -17.0093 
  59   2.0000      -0.623616       -16.9694 
  60   2.0000      -0.612842       -16.6763 
  61   2.0000      -0.589610       -16.0441 
  62   2.0000      -0.589219       -16.0335 
  63   2.0000      -0.567251       -15.4357 
  64   2.0000      -0.556456       -15.1419 
  65   2.0000      -0.552716       -15.0402 
  66   2.0000      -0.539912       -14.6918 
  67   2.0000      -0.522140       -14.2081 
  68   2.0000      -0.520602       -14.1663 
  69   2.0000      -0.509753       -13.8711 
  70   2.0000      -0.502025       -13.6608 
  71   2.0000      -0.495547       -13.4845 
  72   2.0000      -0.488263       -13.2863 
  73   2.0000      -0.482291       -13.1238 
  74   2.0000      -0.478802       -13.0289 
  75   2.0000      -0.477832       -13.0025 
  76   2.0000      -0.466893       -12.7048 
  77   2.0000      -0.466612       -12.6972 
  78   2.0000      -0.459361       -12.4999 
  79   2.0000      -0.454430       -12.3657 
  80   2.0000      -0.453599       -12.3430 
  81   2.0000      -0.451600       -12.2887 
  82   2.0000      -0.445746       -12.1294 
  83   2.0000      -0.440384       -11.9834 
  84   2.0000      -0.439144       -11.9497 
  85   2.0000      -0.437797       -11.9131 
  86   2.0000      -0.431036       -11.7291 
  87   2.0000      -0.425981       -11.5915 
  88   2.0000      -0.423347       -11.5199 
  89   2.0000      -0.411066       -11.1857 
  90   2.0000      -0.405115       -11.0237 
  91   2.0000      -0.397302       -10.8111 
  92   2.0000      -0.393935       -10.7195 
  93   2.0000      -0.382037       -10.3958 
  94   2.0000      -0.377030       -10.2595 
  95   2.0000      -0.376733       -10.2514 
  96   2.0000      -0.371463       -10.1080 
  97   2.0000      -0.369368       -10.0510 
  98   2.0000      -0.366884        -9.9834 
  99   2.0000      -0.356792        -9.7088 
 100   2.0000      -0.353307        -9.6140 
 101   2.0000      -0.329029        -8.9533 
 102   2.0000      -0.315738        -8.5917 
 103   2.0000      -0.307476        -8.3669 
 104   2.0000      -0.305316        -8.3081 
 105   2.0000      -0.296093        -8.0571 
 106   2.0000      -0.288173        -7.8416 
 107   2.0000      -0.280107        -7.6221 
 108   2.0000      -0.276813        -7.5325 
 109   2.0000      -0.274857        -7.4792 
 110   2.0000      -0.271590        -7.3903 
 111   2.0000      -0.271028        -7.3751 
 112   2.0000      -0.254402        -6.9226 
 113   2.0000      -0.238491        -6.4897 
 114   2.0000      -0.232564        -6.3284 
 115   0.0000      -0.084540        -2.3005 
 116   0.0000      -0.068889        -1.8746 
 117   0.0000      -0.030572        -0.8319 
 118   0.0000      -0.029566        -0.8045 
 119   0.0000      -0.024212        -0.6588 
 120   0.0000      -0.021959        -0.5975 
 121   0.0000      -0.003836        -0.1044 
 122   0.0000      -0.003818        -0.1039 
 123   0.0000       0.004596         0.1251 
 124   0.0000       0.016752         0.4558 
 125   0.0000       0.046263         1.2589 
 126   0.0000       0.057909         1.5758 
 127   0.0000       0.075392         2.0515 
 128   0.0000       0.077974         2.1218 
 129   0.0000       0.078430         2.1342 
 130   0.0000       0.082865         2.2549 
 131   0.0000       0.095034         2.5860 
 132   0.0000       0.096209         2.6180 
 133   0.0000       0.107605         2.9281 
 134   0.0000       0.109811         2.9881 
 135   0.0000       0.119420         3.2496 
 136   0.0000       0.119956         3.2642 
 137   0.0000       0.124926         3.3994 
 138   0.0000       0.126200         3.4341 
 139   0.0000       0.135583         3.6894 
 140   0.0000       0.137851         3.7511 
 141   0.0000       0.142367         3.8740 
 142   0.0000       0.151860         4.1323 
 143   0.0000       0.155845         4.2407 
 144   0.0000       0.161393         4.3917 
 145   0.0000       0.163902         4.4600 
 146   0.0000       0.166909         4.5418 
 147   0.0000       0.168589         4.5875 
 148   0.0000       0.170976         4.6525 
 149   0.0000       0.171616         4.6699 
 150   0.0000       0.175620         4.7789 
 151   0.0000       0.177053         4.8179 
 152   0.0000       0.180393         4.9087 
 153   0.0000       0.190190         5.1753 
 154   0.0000       0.211588         5.7576 
 155   0.0000       0.215500         5.8640 
 156   0.0000       0.228759         6.2249 
 157   0.0000       0.233838         6.3631 
 158   0.0000       0.237107         6.4520 
 159   0.0000       0.246289         6.7019 
 160   0.0000       0.256603         6.9825 
 161   0.0000       0.273784         7.4500 
 162   0.0000       0.274418         7.4673 
 163   0.0000       0.276459         7.5228 
 164   0.0000       0.279392         7.6026 
 165   0.0000       0.279952         7.6179 
 166   0.0000       0.296214         8.0604 
 167   0.0000       0.299176         8.1410 
 168   0.0000       0.301343         8.2000 
 169   0.0000       0.303514         8.2590 
 170   0.0000       0.308536         8.3957 
 171   0.0000       0.309304         8.4166 
 172   0.0000       0.310283         8.4432 
 173   0.0000       0.312562         8.5053 
 174   0.0000       0.320612         8.7243 
 175   0.0000       0.322748         8.7824 
 176   0.0000       0.332271         9.0415 
 177   0.0000       0.332875         9.0580 
 178   0.0000       0.335558         9.1310 
 179   0.0000       0.337328         9.1791 
 180   0.0000       0.346290         9.4230 
 181   0.0000       0.352292         9.5864 
 182   0.0000       0.353484         9.6188 
 183   0.0000       0.362667         9.8687 
 184   0.0000       0.377475        10.2716 
 185   0.0000       0.380454        10.3527 
 186   0.0000       0.386361        10.5134 
 187   0.0000       0.396691        10.7945 
 188   0.0000       0.398348        10.8396 
 189   0.0000       0.398455        10.8425 
 190   0.0000       0.408486        11.1155 
 191   0.0000       0.413629        11.2554 
 192   0.0000       0.418455        11.3867 
 193   0.0000       0.424615        11.5544 
 194   0.0000       0.425921        11.5899 
 195   0.0000       0.426115        11.5952 
 196   0.0000       0.428308        11.6548 
 197   0.0000       0.435289        11.8448 
 198   0.0000       0.438781        11.9398 
 199   0.0000       0.441022        12.0008 
 200   0.0000       0.451822        12.2947 
 201   0.0000       0.456096        12.4110 
 202   0.0000       0.461211        12.5502 
 203   0.0000       0.461340        12.5537 
 204   0.0000       0.462513        12.5856 
 205   0.0000       0.477672        12.9981 
 206   0.0000       0.480119        13.0647 
 207   0.0000       0.480785        13.0828 
 208   0.0000       0.481790        13.1102 
 209   0.0000       0.484032        13.1712 
 210   0.0000       0.491351        13.3703 
 211   0.0000       0.493554        13.4303 
 212   0.0000       0.498590        13.5673 
 213   0.0000       0.500644        13.6232 
 214   0.0000       0.508912        13.8482 
 215   0.0000       0.511037        13.9060 
 216   0.0000       0.514714        14.0061 
 217   0.0000       0.514805        14.0086 
 218   0.0000       0.523996        14.2587 
 219   0.0000       0.526612        14.3298 
 220   0.0000       0.539655        14.6848 
 221   0.0000       0.549670        14.9573 
 222   0.0000       0.551139        14.9972 
 223   0.0000       0.558318        15.1926 
 224   0.0000       0.558417        15.1953 
 225   0.0000       0.562078        15.2949 
 226   0.0000       0.567023        15.4295 
 227   0.0000       0.568690        15.4748 
 228   0.0000       0.570905        15.5351 
 229   0.0000       0.574715        15.6388 
 230   0.0000       0.579339        15.7646 
 231   0.0000       0.582360        15.8468 
 232   0.0000       0.592898        16.1336 
 233   0.0000       0.599468        16.3123 
 234   0.0000       0.604658        16.4536 
 235   0.0000       0.605462        16.4755 
 236   0.0000       0.609582        16.5876 
 237   0.0000       0.613550        16.6955 
 238   0.0000       0.620704        16.8902 
 239   0.0000       0.627838        17.0843 
 240   0.0000       0.628162        17.0931 
 241   0.0000       0.636957        17.3325 
 242   0.0000       0.642379        17.4800 
 243   0.0000       0.643427        17.5085 
 244   0.0000       0.647189        17.6109 
 245   0.0000       0.649368        17.6702 
 246   0.0000       0.650551        17.7024 
 247   0.0000       0.651204        17.7202 
 248   0.0000       0.657121        17.8812 
 249   0.0000       0.658043        17.9062 
 250   0.0000       0.662683        18.0325 
 251   0.0000       0.665061        18.0972 
 252   0.0000       0.671456        18.2712 
 253   0.0000       0.673036        18.3142 
 254   0.0000       0.674235        18.3469 
 255   0.0000       0.676290        18.4028 
 256   0.0000       0.678838        18.4721 
 257   0.0000       0.679135        18.4802 
 258   0.0000       0.687754        18.7147 
 259   0.0000       0.692489        18.8436 
 260   0.0000       0.694795        18.9063 
 261   0.0000       0.697961        18.9925 
 262   0.0000       0.698591        19.0096 
[...]
      dxz     :     0.027795
      dyz     :     0.010530
      dx2y2   :     0.019094
      dxy     :     0.019992
 19 C s       :     2.864108  s :     2.864108
      pz      :     1.020546  p :     3.057228
      px      :     1.057474
      py      :     0.979208
      dz2     :     0.014696  d :     0.088951
      dxz     :     0.026623
      dyz     :     0.011012
      dx2y2   :     0.017954
      dxy     :     0.018666
 20 H s       :     0.883679  s :     0.883679
      pz      :     0.026324  p :     0.072353
      px      :     0.025325
      py      :     0.020704
 21 H s       :     0.892124  s :     0.892124
      pz      :     0.029054  p :     0.068780
      px      :     0.018122
      py      :     0.021605
 22 C s       :     2.843017  s :     2.843017
      pz      :     1.080568  p :     3.072128
      px      :     1.028743
      py      :     0.962818
      dz2     :     0.031805  d :     0.110044
      dxz     :     0.037539
      dyz     :     0.013609
      dx2y2   :     0.015407
      dxy     :     0.011684
 23 C s       :     2.858885  s :     2.858885
      pz      :     1.042211  p :     3.068050
      px      :     1.057953
      py      :     0.967887
      dz2     :     0.023421  d :     0.090365
      dxz     :     0.034687
      dyz     :     0.006073
      dx2y2   :     0.014045
      dxy     :     0.012139
 24 C s       :     2.858846  s :     2.858846
      pz      :     1.042552  p :     3.069034
      px      :     1.057627
      py      :     0.968855
      dz2     :     0.023270  d :     0.090385
      dxz     :     0.035319
      dyz     :     0.006545
      dx2y2   :     0.013623
      dxy     :     0.011629
 25 C s       :     2.843006  s :     2.843006
      pz      :     1.081061  p :     3.072111
      px      :     1.028784
      py      :     0.962266
      dz2     :     0.031725  d :     0.110050
      dxz     :     0.037596
      dyz     :     0.013649
      dx2y2   :     0.015437
      dxy     :     0.011642
 26 C s       :     2.858855  s :     2.858855
      pz      :     1.042561  p :     3.068048
      px      :     1.058014
      py      :     0.967473
      dz2     :     0.023460  d :     0.090392
      dxz     :     0.034704
      dyz     :     0.006045
      dx2y2   :     0.014044
      dxy     :     0.012139
 27 C s       :     2.858809  s :     2.858809
      pz      :     1.042185  p :     3.069013
      px      :     1.057673
      py      :     0.969155
      dz2     :     0.023246  d :     0.090419
      dxz     :     0.035340
      dyz     :     0.006548
      dx2y2   :     0.013660
      dxy     :     0.011625
 28 H s       :     0.894344  s :     0.894344
      pz      :     0.035007  p :     0.069129
      px      :     0.019677
      py      :     0.014445
 29 H s       :     0.893274  s :     0.893274
      pz      :     0.036794  p :     0.069297
      px      :     0.018134
      py      :     0.014369
 30 C s       :     2.852642  s :     2.852642
      pz      :     1.030282  p :     3.077692
      px      :     1.035610
      py      :     1.011800
      dz2     :     0.019317  d :     0.108308
      dxz     :     0.027627
      dyz     :     0.015064
      dx2y2   :     0.022959
      dxy     :     0.023340
 31 C s       :     2.857443  s :     2.857443
      pz      :     0.998172  p :     2.988119
      px      :     1.007155
      py      :     0.982792
      dz2     :     0.016342  d :     0.132754
      dxz     :     0.042788
      dyz     :     0.010120
      dx2y2   :     0.029112
      dxy     :     0.034393
 32 N s       :     3.212027  s :     3.212027
      pz      :     1.330435  p :     3.799797
      px      :     1.222813
      py      :     1.246549
      dz2     :     0.009991  d :     0.061666
      dxz     :     0.014860
      dyz     :     0.008280
      dx2y2   :     0.015600
      dxy     :     0.012935
 33 C s       :     2.850160  s :     2.850160
      pz      :     1.009190  p :     3.021778
      px      :     1.030583
      py      :     0.982005
      dz2     :     0.029824  d :     0.149766
      dxz     :     0.033144
      dyz     :     0.026164
      dx2y2   :     0.035267
      dxy     :     0.025367
 34 C s       :     2.864111  s :     2.864111
      pz      :     1.013906  p :     3.057236
      px      :     1.057314
      py      :     0.986017
      dz2     :     0.013579  d :     0.088937
      dxz     :     0.025184
      dyz     :     0.011369
      dx2y2   :     0.018807
      dxy     :     0.019998
 35 C s       :     2.861083  s :     2.861083
      pz      :     0.999421  p :     3.044681
      px      :     1.064045
      py      :     0.981215
      dz2     :     0.012988  d :     0.091641
      dxz     :     0.026420
      dyz     :     0.010816
      dx2y2   :     0.020070
      dxy     :     0.021347
 36 H s       :     0.892144  s :     0.892144
      pz      :     0.027789  p :     0.068765
      px      :     0.017882
      py      :     0.023095
 37 H s       :     0.883709  s :     0.883709
      pz      :     0.024855  p :     0.072344
      px      :     0.025602
      py      :     0.021888
 38 C s       :     2.879887  s :     2.879887
      pz      :     0.975098  p :     2.933417
      px      :     1.023716
      py      :     0.934603
      dz2     :     0.024376  d :     0.138899
      dxz     :     0.027680
      dyz     :     0.023142
      dx2y2   :     0.038571
      dxy     :     0.025130
 39 N s       :     3.204790  s :     3.204790
      pz      :     1.335027  p :     3.803353
      px      :     1.177025
      py      :     1.291301
      dz2     :     0.009622  d :     0.060141
      dxz     :     0.014609
      dyz     :     0.007967
      dx2y2   :     0.015039
      dxy     :     0.012904
 40 C s       :     2.838768  s :     2.838768
      pz      :     0.968221  p :     3.024678
      px      :     0.966909
      py      :     1.089548
      dz2     :     0.010033  d :     0.144691
      dxz     :     0.023074
      dyz     :     0.014338
      dx2y2   :     0.048837
      dxy     :     0.048408
 41 C s       :     2.866302  s :     2.866302
      pz      :     0.977261  p :     3.074241
      px      :     1.056999
      py      :     1.039981
      dz2     :     0.006206  d :     0.087770
      dxz     :     0.012743
      dyz     :     0.006783
      dx2y2   :     0.028160
      dxy     :     0.033878
 42 C s       :     2.861355  s :     2.861355
      pz      :     0.968232  p :     3.076562
      px      :     1.061446
      py      :     1.046884
      dz2     :     0.006658  d :     0.091370
      dxz     :     0.012755
      dyz     :     0.007548
      dx2y2   :     0.030453
      dxy     :     0.033956
 43 C s       :     2.862188  s :     2.862188
      pz      :     0.979182  p :     3.085265
      px      :     1.041788
      py      :     1.064295
      dz2     :     0.006658  d :     0.090291
      dxz     :     0.005097
      dyz     :     0.014122
      dx2y2   :     0.034746
      dxy     :     0.029668
 44 C s       :     2.860955  s :     2.860955
      pz      :     0.966573  p :     3.075478
      px      :     1.061815
      py      :     1.047090
      dz2     :     0.006065  d :     0.091665
      dxz     :     0.013228
      dyz     :     0.007177
      dx2y2   :     0.031740
      dxy     :     0.033454
 45 C s       :     2.864387  s :     2.864387
      pz      :     0.989535  p :     3.091387
      px      :     1.059468
      py      :     1.042383
      dz2     :     0.006755  d :     0.088382
      dxz     :     0.011765
      dyz     :     0.007160
      dx2y2   :     0.028173
      dxy     :     0.034530
 46 H s       :     0.895745  s :     0.895745
      pz      :     0.015171  p :     0.069882
      px      :     0.020278
      py      :     0.034434
 47 H s       :     0.896862  s :     0.896862
      pz      :     0.014960  p :     0.067854
      px      :     0.017773
      py      :     0.035121
 48 H s       :     0.897361  s :     0.897361
      pz      :     0.014643  p :     0.068329
      px      :     0.042443
      py      :     0.011243
 49 H s       :     0.896794  s :     0.896794
      pz      :     0.014279  p :     0.067790
      px      :     0.019927
      py      :     0.033584
 50 H s       :     0.894165  s :     0.894165
      pz      :     0.015626  p :     0.069421
      px      :     0.018662
      py      :     0.035134
 51 H s       :     0.914179  s :     0.914179
      pz      :     0.031782  p :     0.069654
      px      :     0.013016
      py      :     0.024856
 52 H s       :     0.905146  s :     0.905146
      pz      :     0.026276  p :     0.066954
      px      :     0.016819
      py      :     0.023859
 53 H s       :     0.894386  s :     0.894386
      pz      :     0.035055  p :     0.069114
      px      :     0.019671
      py      :     0.014388
 54 H s       :     0.893320  s :     0.893320
      pz      :     0.036726  p :     0.069275
      px      :     0.018127
      py      :     0.014423
 55 H s       :     0.905194  s :     0.905194
      pz      :     0.027945  p :     0.066941
      px      :     0.016555
      py      :     0.022440


                      *****************************
                      * MAYER POPULATION ANALYSIS *
                      *****************************

  NA   - Mulliken gross atomic population
  ZA   - Total nuclear charge
  QA   - Mulliken gross atomic charge
  VA   - Mayer's total valence
  BVA  - Mayer's bonded valence
  FA   - Mayer's free valence

  ATOM       NA         ZA         QA         VA         BVA        FA
  0 H      0.9819     1.0000     0.0181     1.0170     1.0170    -0.0000
  1 C      5.9164     6.0000     0.0836     3.9233     3.9233    -0.0000
  2 N      7.1425     7.0000    -0.1425     3.1037     3.1037     0.0000
  3 C      5.9523     6.0000     0.0477     3.9774     3.9774    -0.0000
  4 C      6.0269     6.0000    -0.0269     3.8487     3.8487    -0.0000
  5 C      6.0263     6.0000    -0.0263     3.8655     3.8655    -0.0000
  6 C      6.0092     6.0000    -0.0092     3.8323     3.8323    -0.0000
  7 C      6.0280     6.0000    -0.0280     3.8473     3.8473    -0.0000
  8 C      5.9926     6.0000     0.0074     3.8529     3.8529     0.0000
  9 H      0.9885     1.0000     0.0115     1.0010     1.0010     0.0000
 10 H      0.9762     1.0000     0.0238     0.9813     0.9813    -0.0000
 11 H      0.9763     1.0000     0.0237     0.9816     0.9816    -0.0000
 12 H      0.9774     1.0000     0.0226     0.9816     0.9816    -0.0000
 13 H      0.9839     1.0000     0.0161     0.9939     0.9939    -0.0000
 14 C      6.0426     6.0000    -0.0426     3.9735     3.9735     0.0000
 15 N      7.1529     7.0000    -0.1529     3.1650     3.1650     0.0000
 16 C      5.9460     6.0000     0.0540     3.9938     3.9938    -0.0000
 17 C      6.0374     6.0000    -0.0374     3.8312     3.8312     0.0000
 18 C      5.9720     6.0000     0.0280     3.8736     3.8736     0.0000
 19 C      5.9910     6.0000     0.0090     3.8743     3.8743     0.0000
 20 H      0.9633     1.0000     0.0367     1.0148     1.0148    -0.0000
 21 H      0.9715     1.0000     0.0285     0.9921     0.9921     0.0000
 22 C      5.9672     6.0000     0.0328     3.8190     3.8190    -0.0000
 23 C      6.0256     6.0000    -0.0256     3.8858     3.8858     0.0000
 24 C      6.0269     6.0000    -0.0269     3.8824     3.8824    -0.0000
 25 C      5.9668     6.0000     0.0332     3.8186     3.8186     0.0000
 26 C      6.0261     6.0000    -0.0261     3.8861     3.8861    -0.0000
 27 C      6.0269     6.0000    -0.0269     3.8829     3.8829     0.0000
 28 H      0.9805     1.0000     0.0195     0.9904     0.9904     0.0000
 29 H      0.9782     1.0000     0.0218     0.9916     0.9916     0.0000
 30 C      6.0375     6.0000    -0.0375     3.8309     3.8309    -0.0000
 31 C      5.9466     6.0000     0.0534     3.9942     3.9942    -0.0000
 32 N      7.1527     7.0000    -0.1527     3.1649     3.1649    -0.0000
 33 C      6.0425     6.0000    -0.0425     3.9736     3.9736     0.0000
 34 C      5.9905     6.0000     0.0095     3.8740     3.8740    -0.0000
 35 C      5.9722     6.0000     0.0278     3.8739     3.8739     0.0000
 36 H      0.9715     1.0000     0.0285     0.9921     0.9921    -0.0000
 37 H      0.9634     1.0000     0.0366     1.0148     1.0148    -0.0000
 38 C      5.9168     6.0000     0.0832     3.9228     3.9228    -0.0000
 39 N      7.1427     7.0000    -0.1427     3.1031     3.1031    -0.0000
 40 C      5.9520     6.0000     0.0480     3.9762     3.9762    -0.0000
 41 C      5.9924     6.0000     0.0076     3.8521     3.8521     0.0000
 42 C      6.0282     6.0000    -0.0282     3.8470     3.8470    -0.0000
 43 C      6.0091     6.0000    -0.0091     3.8315     3.8315    -0.0000
 44 C      6.0264     6.0000    -0.0264     3.8653     3.8653    -0.0000
 45 C      6.0269     6.0000    -0.0269     3.8478     3.8478    -0.0000
 46 H      0.9839     1.0000     0.0161     0.9939     0.9939     0.0000
 47 H      0.9773     1.0000     0.0227     0.9816     0.9816    -0.0000
 48 H      0.9762     1.0000     0.0238     0.9815     0.9815    -0.0000
 49 H      0.9762     1.0000     0.0238     0.9813     0.9813     0.0000
 50 H      0.9883     1.0000     0.0117     1.0012     1.0012    -0.0000
 51 H      0.9820     1.0000     0.0180     1.0171     1.0171    -0.0000
 52 H      0.9660     1.0000     0.0340     0.9959     0.9959    -0.0000
 53 H      0.9806     1.0000     0.0194     0.9904     0.9904    -0.0000
 54 H      0.9783     1.0000     0.0217     0.9915     0.9915    -0.0000
 55 H      0.9663     1.0000     0.0337     0.9959     0.9959    -0.0000

  Mayer bond orders larger than 0.100000
B(  0-H ,  1-C ) :   0.9368 B(  1-C ,  2-N ) :   1.8860 B(  1-C , 14-C ) :   1.0314 
B(  2-N ,  3-C ) :   1.1090 B(  3-C ,  4-C ) :   1.3391 B(  3-C ,  8-C ) :   1.3682 
B(  4-C ,  5-C ) :   1.3906 B(  4-C , 13-H ) :   0.9849 B(  5-C ,  6-C ) :   1.3892 
B(  5-C , 12-H ) :   0.9800 B(  6-C ,  7-C ) :   1.3797 B(  6-C , 11-H ) :   0.9875 
B(  7-C ,  8-C ) :   1.3910 B(  7-C , 10-H ) :   0.9823 B(  8-C ,  9-H ) :   0.9883 
B( 14-C , 15-N ) :   1.4830 B( 14-C , 19-C ) :   1.3553 B( 15-N , 16-C ) :   1.5431 
B( 16-C , 17-C ) :   1.3424 B( 16-C , 55-H ) :   0.9744 B( 17-C , 18-C ) :   1.3761 
B( 17-C , 22-C ) :   1.0066 B( 18-C , 19-C ) :   1.4210 B( 18-C , 21-H ) :   0.9795 
B( 19-C , 20-H ) :   0.9623 B( 22-C , 23-C ) :   1.3648 B( 22-C , 27-C ) :   1.3642 
B( 23-C , 24-C ) :   1.4052 B( 23-C , 54-H ) :   0.9827 B( 24-C , 25-C ) :   1.3641 
B( 24-C , 53-H ) :   0.9833 B( 25-C , 26-C ) :   1.3644 B( 25-C , 30-C ) :   1.0068 
B( 26-C , 27-C ) :   1.4055 B( 26-C , 29-H ) :   0.9827 B( 27-C , 28-H ) :   0.9832 
B( 30-C , 31-C ) :   1.3420 B( 30-C , 35-C ) :   1.3763 B( 31-C , 32-N ) :   1.5432 
B( 31-C , 52-H ) :   0.9745 B( 32-N , 33-C ) :   1.4830 B( 33-C , 34-C ) :   1.3550 
B( 33-C , 38-C ) :   1.0317 B( 34-C , 35-C ) :   1.4210 B( 34-C , 37-H ) :   0.9624 
B( 35-C , 36-H ) :   0.9796 B( 38-C , 39-N ) :   1.8853 B( 38-C , 51-H ) :   0.9368 
B( 39-N , 40-C ) :   1.1097 B( 40-C , 41-C ) :   1.3680 B( 40-C , 45-C ) :   1.3382 
B( 41-C , 42-C ) :   1.3905 B( 41-C , 50-H ) :   0.9885 B( 42-C , 43-C ) :   1.3799 
B( 42-C , 49-H ) :   0.9826 B( 43-C , 44-C ) :   1.3884 B( 43-C , 48-H ) :   0.9875 
B( 44-C , 45-C ) :   1.3909 B( 44-C , 47-H ) :   0.9803 B( 45-C , 46-H ) :   0.9853 


-------
TIMINGS
-------

Total SCF time: 0 days 0 hours 0 min 34 sec 

Total time                  ....      34.006 sec
Sum of individual times     ....      32.404 sec  ( 95.3%)

Fock matrix formation       ....      15.212 sec  ( 44.7%)
  Split-RI-J                ....       3.511 sec  ( 23.1% of F)
  Chain of spheres X        ....       6.597 sec  ( 43.4% of F)
  COS-X 1 center corr.      ....       0.000 sec  (  0.0% of F)
  XC integration            ....       3.395 sec  ( 22.3% of F)
    Basis function eval.    ....       0.129 sec  (  3.8% of XC)
    Density eval.           ....       0.187 sec  (  5.5% of XC)
    XC-Functional eval.     ....       0.032 sec  (  0.9% of XC)
    XC-Potential eval.      ....       0.063 sec  (  1.9% of XC)
Diagonalization             ....       0.425 sec  (  1.3%)
Density matrix formation    ....       0.095 sec  (  0.3%)
Population analysis         ....       0.592 sec  (  1.7%)
Initial guess               ....       0.413 sec  (  1.2%)
Orbital Transformation      ....       0.000 sec  (  0.0%)
Orbital Orthonormalization  ....       0.212 sec  (  0.6%)
DIIS solution               ....       0.122 sec  (  0.4%)
SOSCF solution              ....       3.030 sec  (  8.9%)
Grid generation             ....      12.514 sec  ( 36.8%)


-------------------------------------------------------------------------------
                          DFT DISPERSION CORRECTION                            
                                                                               
                                 DFTD4 V2.0                                    
-------------------------------------------------------------------------------
The PBE0 functional is recognized
Active option DFTDOPT                   ...         5   

-------------------------   ----------------
Dispersion correction           -0.067559772
-------------------------   ----------------


-------------------------   --------------------
FINAL SINGLE POINT ENERGY     -1372.925926188376
-------------------------   --------------------

                                *** OPTIMIZATION RUN DONE ***

                            ***************************************
                            *     ORCA property calculations      *
                            ***************************************

                                    ---------------------
                                    Active property flags
                                    ---------------------
   (+) Dipole Moment


------------------------------------------------------------------------------
                       ORCA ELECTRIC PROPERTIES CALCULATION
------------------------------------------------------------------------------

Dipole Moment Calculation                       ... on
Quadrupole Moment Calculation                   ... off
Polarizability Calculation                      ... off
GBWName                                         ... _longD.gbw
Electron density file                           ... _longD.scfp
The origin for moment calculation is the CENTER OF MASS  = (-0.000508,  0.001246 -0.008012)

-------------
DIPOLE MOMENT
-------------
                                X             Y             Z
Electronic contribution:      0.00169      -0.98785      -0.16272
Nuclear contribution   :      0.00626       1.20467       0.17144
                        -----------------------------------------
Total Dipole Moment    :      0.00794       0.21683       0.00872
                        -----------------------------------------
Magnitude (a.u.)       :      0.21715
Magnitude (Debye)      :      0.55194



--------------------
Rotational spectrum 
--------------------
 
Rotational constants in cm-1:     0.035131     0.000699     0.000698 
Rotational constants in MHz :  1053.196442    20.960518    20.929379 

 Dipole components along the rotational axes: 
x,y,z [a.u.] :     0.007862     0.216988     0.002604 
x,y,z [Debye]:     0.019985     0.551540     0.006620 

 

Timings for individual modules:

Sum of individual times         ...      369.260 sec (=   6.154 min)
GTO integral calculation        ...       25.274 sec (=   0.421 min)   6.8 %
SCF iterations                  ...      294.749 sec (=   4.912 min)  79.8 %
SCF Gradient evaluation         ...       39.812 sec (=   0.664 min)  10.8 %
Geometry relaxation             ...        9.425 sec (=   0.157 min)   2.6 %
                             ****ORCA TERMINATED NORMALLY****
TOTAL RUN TIME: 0 days 0 hours 7 minutes 4 seconds 611 msec
