Job execution start: Sun Apr 11 08:37:23 BST 2021
Shared library path: /work/e05/e05/atarzia/orca_4_2_1_linux_x86-64_openmpi314:/work/e05/e05/atarzia/openmpi-3.1.4/lib:/opt/cray/pe/papi/6.0.0.4/lib64:/opt/cray/libfabric/1.11.0.0.233/lib64
Slurm Job ID is: 195008
Slurm Job name is: longC
nid001171

                                 *****************
                                 * O   R   C   A *
                                 *****************

           --- An Ab Initio, DFT and Semiempirical electronic structure package ---

                  #######################################################
                  #                        -***-                        #
                  #          Department of theory and spectroscopy      #
                  #               Directorship: Frank Neese             #
                  #        Max Planck Institute fuer Kohlenforschung    #
                  #                Kaiser Wilhelm Platz 1               #
                  #                 D-45470 Muelheim/Ruhr               #
                  #                      Germany                        #
                  #                                                     #
                  #                  All rights reserved                #
                  #                        -***-                        #
                  #######################################################


                         Program Version 4.2.1 -  RELEASE  -


 With contributions from (in alphabetic order):
   Daniel Aravena         : Magnetic Suceptibility
   Michael Atanasov       : Ab Initio Ligand Field Theory (pilot matlab implementation)
   Alexander A. Auer      : GIAO ZORA, VPT2
   Ute Becker             : Parallelization
   Giovanni Bistoni       : ED, misc. LED, open-shell LED, HFLD
   Martin Brehm           : Molecular dynamics
   Dmytro Bykov           : SCF Hessian
   Vijay G. Chilkuri      : MRCI spin determinant printing, contributions to CSF-ICE
   Dipayan Datta          : RHF DLPNO-CCSD density
   Achintya Kumar Dutta   : EOM-CC, STEOM-CC
   Dmitry Ganyushin       : Spin-Orbit,Spin-Spin,Magnetic field MRCI
   Miquel Garcia          : C-PCM Hessian, Gaussian charge scheme
   Yang Guo               : DLPNO-NEVPT2, CIM, IAO-localization
   Andreas Hansen         : Spin unrestricted coupled pair/coupled cluster methods
   Benjamin Helmich-Paris : CASSCF linear response (MC-RPA)
   Lee Huntington         : MR-EOM, pCC
   Robert Izsak           : Overlap fitted RIJCOSX, COSX-SCS-MP3, EOM
   Christian Kollmar      : KDIIS, OOCD, Brueckner-CCSD(T), CCSD density
   Simone Kossmann        : Meta GGA functionals, TD-DFT gradient, OOMP2, MP2 Hessian
   Martin Krupicka        : AUTO-CI
   Lucas Lang             : DCDCAS
   Dagmar Lenk            : GEPOL surface, SMD
   Dimitrios Liakos       : Extrapolation schemes; Compound Job, initial MDCI parallelization
   Dimitrios Manganas     : Further ROCIS development; embedding schemes
   Dimitrios Pantazis     : SARC Basis sets
   Taras Petrenko         : DFT Hessian,TD-DFT gradient, ASA, ECA, R-Raman, ABS, FL, XAS/XES, NRVS
   Peter Pinski           : DLPNO-MP2, DLPNO-MP2 Gradient
   Christoph Reimann      : Effective Core Potentials
   Marius Retegan         : Local ZFS, SOC
   Christoph Riplinger    : Optimizer, TS searches, QM/MM, DLPNO-CCSD(T), (RO)-DLPNO pert. Triples
   Tobias Risthaus        : Range-separated hybrids, TD-DFT gradient, RPA, STAB
   Michael Roemelt        : Original ROCIS implementation
   Masaaki Saitow         : Open-shell DLPNO-CCSD energy and density
   Barbara Sandhoefer     : DKH picture change effects
   Avijit Sen             : IP-ROCIS
   Kantharuban Sivalingam : CASSCF convergence, NEVPT2, FIC-MRCI
   Bernardo de Souza      : ESD, SOC TD-DFT
   Georgi Stoychev        : AutoAux, RI-MP2 NMR
   Willem Van den Heuvel  : Paramagnetic NMR
   Boris Wezisla          : Elementary symmetry handling
   Frank Wennmohs         : Technical directorship


 We gratefully acknowledge several colleagues who have allowed us to
 interface, adapt or use parts of their codes:
   Stefan Grimme, W. Hujo, H. Kruse,             : VdW corrections, initial TS optimization,
                  C. Bannwarth                     DFT functionals, gCP, sTDA/sTD-DF
   Ed Valeev, F. Pavosevic, A. Kumar             : LibInt (2-el integral package), F12 methods
   Garnet Chan, S. Sharma, J. Yang, R. Olivares  : DMRG
   Ulf Ekstrom                                   : XCFun DFT Library
   Mihaly Kallay                                 : mrcc  (arbitrary order and MRCC methods)
   Andreas Klamt, Michael Diedenhofen            : otool_cosmo (COSMO solvation model)
   Jiri Pittner, Ondrej Demel                    : Mk-CCSD
   Frank Weinhold                                : gennbo (NPA and NBO analysis)
   Christopher J. Cramer and Donald G. Truhlar   : smd solvation model
   Lars Goerigk                                  : TD-DFT with DH, B97 family of functionals
   V. Asgeirsson, H. Jonsson                     : NEB implementation
   FAccTs GmbH                                   : IRC, NEB, NEB-TS, Multilevel, MM, QM/MM, CI optimization
   S Lehtola, MJT Oliveira, MAL Marques          : LibXC Library


 Your calculation uses the libint2 library for the computation of 2-el integrals
 For citations please refer to: http://libint.valeyev.net

 Your ORCA version has been built with support for libXC version: 4.2.3
 For citations please refer to: https://tddft.org/programs/libxc/

 This ORCA versions uses:
   CBLAS   interface :  Fast vector & matrix operations
   LAPACKE interface :  Fast linear algebra routines
   SCALAPACK package :  Parallel linear algebra routines




***************************************
The coordinates will be read from file: longC_opt.xyz
***************************************


Your calculation utilizes the atom-pairwise dispersion correction
based on tight binding partial charges (D4)
Cite in your paper:
E.Caldeweyher, C.Bannwarth, S.Grimme, J.Chem.Phys., (2017), 147, 034112.
E.Caldeweyher, S.Ehlert, A.Hansen, H.Neugebauer, S.Grimme, J.Chem.Phys., (2018), in progress.
   

----- Orbital basis set information -----
Your calculation utilizes the basis: def2-SVP
   F. Weigend and R. Ahlrichs, Phys. Chem. Chem. Phys. 7, 3297 (2005).

----- AuxJ basis set information -----
Your calculation utilizes the auxiliary basis: def2/J
   F. Weigend, Phys. Chem. Chem. Phys. 8, 1057 (2006).

================================================================================
                                        WARNINGS
                       Please study these warnings very carefully!
================================================================================


WARNING: Geometry Optimization
  ===> : Switching off AutoStart
         For restart on a previous wavefunction, please use MOREAD

INFO   : the flag for use of LIBINT has been found!

================================================================================
                                       INPUT FILE
================================================================================
NAME = longC.in
|  1> # closed shell KS, PBE0/def2-SVP/D4
|  2> ! DFT OPT RKS PBE0 RIJCOSX GridX6 def2-SVP def2/J D4 Grid6 NOFINALGRID SlowConv TightSCF XYZFILE PDBFILE
|  3> 
|  4> %base "_longC" 
|  5> 
|  6> %scf
|  7>    MaxIter 2000
|  8> end
|  9> 
| 10> %geom
| 11>    MaxIter 1000
| 12> end
| 13> 
| 14> %pal
| 15>    nprocs 128
| 16> end
| 17> 
| 18> * xyzfile 0 1 longC_opt.xyz
| 19> 
| 20>                          ****END OF INPUT****
================================================================================

                       *****************************
                       * Geometry Optimization Run *
                       *****************************

Geometry optimization settings:
Update method            Update   .... BFGS
Choice of coordinates    CoordSys .... Z-matrix Internals
Initial Hessian          InHess   .... Almoef's Model

Convergence Tolerances:
Energy Change            TolE     ....  5.0000e-06 Eh
Max. Gradient            TolMAXG  ....  3.0000e-04 Eh/bohr
RMS Gradient             TolRMSG  ....  1.0000e-04 Eh/bohr
Max. Displacement        TolMAXD  ....  4.0000e-03 bohr
RMS Displacement         TolRMSD  ....  2.0000e-03 bohr
Strict Convergence                ....  False
------------------------------------------------------------------------------
                        ORCA OPTIMIZATION COORDINATE SETUP
------------------------------------------------------------------------------

The optimization will be done in new redundant internal coordinates
Making redundant internal coordinates   ...  (new redundants) done
Evaluating the initial hessian          ...  (Almloef) done
Evaluating the coordinates              ...  done
Calculating the B-matrix                .... done
Calculating the G-matrix                .... done
Diagonalizing the G-matrix              .... done
Small eigenvalue found = 7.772e-04
Small eigenvalue found = 1.343e-03
Small eigenvalue found = 5.301e-03
Small eigenvalue found = 6.701e-03
Small eigenvalue found = 9.773e-03
Small eigenvalue found = 1.101e-02
Small eigenvalue found = 1.993e-02
Small eigenvalue found = 2.703e-02
Small eigenvalue found = 2.706e-02
The first mode is                       ....  101
The number of degrees of freedom        ....  132

    -----------------------------------------------------------------
                    Redundant Internal Coordinates


    -----------------------------------------------------------------
         Definition                    Initial Value    Approx d2E/dq
    -----------------------------------------------------------------
      1. B(C   1,H   0)                  1.0956         0.352829   
      2. B(N   2,C   1)                  1.2678         0.876559   
      3. B(C   3,N   2)                  1.3781         0.584681   
      4. B(C   4,C   3)                  1.3971         0.608788   
      5. B(C   5,C   4)                  1.3797         0.648904   
      6. B(C   6,C   5)                  1.3867         0.632354   
      7. B(C   7,C   6)                  1.3852         0.635831   
      8. B(C   8,C   7)                  1.3811         0.645467   
      9. B(C   8,C   3)                  1.3973         0.608222   
     10. B(H   9,C   8)                  1.0808         0.372538   
     11. B(H  10,C   7)                  1.0805         0.372903   
     12. B(H  11,C   6)                  1.0798         0.373915   
     13. B(H  12,C   5)                  1.0802         0.373246   
     14. B(H  13,C   4)                  1.0793         0.374576   
     15. B(C  14,C   1)                  1.4531         0.495472   
     16. B(N  15,C  14)                  1.3338         0.688012   
     17. B(C  16,N  15)                  1.3131         0.742150   
     18. B(C  17,C  16)                  1.3996         0.603178   
     19. B(C  18,C  17)                  1.3974         0.607964   
     20. B(C  19,C  18)                  1.3787         0.651259   
     21. B(C  19,C  14)                  1.3984         0.605769   
     22. B(H  20,C  19)                  1.0778         0.376582   
     23. B(H  21,C  18)                  1.0807         0.372652   
     24. B(C  22,C  17)                  1.4607         0.481953   
     25. B(C  23,C  22)                  1.3996         0.603156   
     26. B(N  24,C  23)                  1.3131         0.742211   
     27. B(C  25,N  24)                  1.3338         0.687972   
     28. B(C  26,C  25)                  1.3984         0.605782   
     29. B(C  27,C  26)                  1.3787         0.651203   
     30. B(C  27,C  22)                  1.3974         0.607983   
     31. B(H  28,C  27)                  1.0807         0.372648   
     32. B(H  29,C  26)                  1.0778         0.376581   
     33. B(C  30,C  25)                  1.4531         0.495509   
     34. B(N  31,C  30)                  1.2678         0.876513   
     35. B(C  32,N  31)                  1.3781         0.584583   
     36. B(C  33,C  32)                  1.3971         0.608785   
     37. B(C  34,C  33)                  1.3797         0.648903   
     38. B(C  35,C  34)                  1.3867         0.632351   
     39. B(C  36,C  35)                  1.3852         0.635829   
     40. B(C  37,C  36)                  1.3811         0.645461   
     41. B(C  37,C  32)                  1.3973         0.608214   
     42. B(H  38,C  37)                  1.0808         0.372542   
     43. B(H  39,C  36)                  1.0805         0.372903   
     44. B(H  40,C  35)                  1.0798         0.373913   
     45. B(H  41,C  34)                  1.0802         0.373246   
     46. B(H  42,C  33)                  1.0793         0.374578   
     47. B(H  43,C  30)                  1.0956         0.352820   
     48. B(H  44,C  23)                  1.0828         0.369812   
     49. B(H  45,C  16)                  1.0828         0.369813   
     50. A(H   0,C   1,C  14)          114.9964         0.338695   
     51. A(N   2,C   1,C  14)          120.9547         0.440814   
     52. A(H   0,C   1,N   2)          124.0318         0.370773   
     53. A(C   1,N   2,C   3)          123.3108         0.451242   
     54. A(N   2,C   3,C   4)          118.0690         0.425321   
     55. A(C   4,C   3,C   8)          119.1910         0.431155   
     56. A(N   2,C   3,C   8)          122.5969         0.425251   
     57. A(C   3,C   4,H  13)          118.7357         0.354176   
     58. A(C   5,C   4,H  13)          121.0642         0.358034   
     59. A(C   3,C   4,C   5)          120.1810         0.436206   
     60. A(C   6,C   5,H  12)          119.9345         0.356250   
     61. A(C   4,C   5,H  12)          119.7355         0.357818   
     62. A(C   4,C   5,C   6)          120.3275         0.439203   
     63. A(C   5,C   6,H  11)          120.1167         0.356358   
     64. A(C   5,C   6,C   7)          119.8006         0.437594   
     65. A(C   7,C   6,H  11)          120.0809         0.356691   
     66. A(C   8,C   7,H  10)          119.6444         0.357439   
     67. A(C   6,C   7,C   8)          120.3580         0.439217   
     68. A(C   6,C   7,H  10)          119.9974         0.356526   
     69. A(C   7,C   8,H   9)          120.5618         0.357379   
     70. A(C   3,C   8,H   9)          119.2882         0.353793   
     71. A(C   3,C   8,C   7)          120.1179         0.435716   
     72. A(C   1,C  14,C  19)          121.7825         0.415273   
     73. A(C   1,C  14,N  15)          116.1448         0.422047   
     74. A(N  15,C  14,C  19)          122.0725         0.437548   
     75. A(C  14,N  15,C  16)          118.7838         0.450938   
     76. A(N  15,C  16,H  45)          115.4422         0.363258   
     77. A(C  17,C  16,H  45)          120.5728         0.352856   
     78. A(N  15,C  16,C  17)          123.9753         0.443231   
     79. A(C  16,C  17,C  18)          117.0037         0.430406   
     80. A(C  18,C  17,C  22)          121.8346         0.413502   
     81. A(C  16,C  17,C  22)          121.1582         0.412922   
     82. A(C  17,C  18,C  19)          119.3387         0.436384   
     83. A(C  19,C  18,H  21)          120.6460         0.357941   
     84. A(C  17,C  18,H  21)          120.0009         0.353786   
     85. A(C  14,C  19,H  20)          118.9913         0.354198   
     86. A(C  14,C  19,C  18)          118.8186         0.436100   
     87. A(C  18,C  19,H  20)          122.1877         0.358580   
     88. A(C  23,C  22,C  27)          117.0033         0.430406   
     89. A(C  17,C  22,C  27)          121.8468         0.413504   
     90. A(C  17,C  22,C  23)          121.1465         0.412919   
     91. A(C  22,C  23,N  24)          123.9756         0.443235   
     92. A(N  24,C  23,H  44)          115.4420         0.363263   
     93. A(C  22,C  23,H  44)          120.5726         0.352853   
     94. A(C  23,N  24,C  25)          118.7848         0.450940   
     95. A(C  26,C  25,C  30)          121.7982         0.415280   
     96. A(N  24,C  25,C  30)          116.1303         0.422049   
     97. A(N  24,C  25,C  26)          122.0715         0.437545   
     98. A(C  27,C  26,H  29)          122.1857         0.358575   
     99. A(C  25,C  26,H  29)          118.9933         0.354199   
    100. A(C  25,C  26,C  27)          118.8185         0.436095   
    101. A(C  26,C  27,H  28)          120.6459         0.357935   
    102. A(C  22,C  27,H  28)          120.0008         0.353787   
    103. A(C  22,C  27,C  26)          119.3388         0.436380   
    104. A(C  25,C  30,N  31)          120.9696         0.440816   
    105. A(N  31,C  30,H  43)          124.0292         0.370768   
    106. A(C  25,C  30,H  43)          114.9842         0.338698   
    107. A(C  30,N  31,C  32)          123.2909         0.451224   
    108. A(C  33,C  32,C  37)          119.1904         0.431154   
    109. A(N  31,C  32,C  37)          122.6079         0.425237   
    110. A(N  31,C  32,C  33)          118.0601         0.425308   
    111. A(C  32,C  33,C  34)          120.1818         0.436206   
    112. A(C  34,C  33,H  42)          121.0653         0.358034   
    113. A(C  32,C  33,H  42)          118.7338         0.354176   
    114. A(C  33,C  34,C  35)          120.3269         0.439203   
    115. A(C  35,C  34,H  41)          119.9342         0.356250   
    116. A(C  33,C  34,H  41)          119.7364         0.357817   
    117. A(C  34,C  35,C  36)          119.8009         0.437593   
    118. A(C  36,C  35,H  40)          120.0807         0.356690   
    119. A(C  34,C  35,H  40)          120.1167         0.356358   
    120. A(C  35,C  36,H  39)          119.9971         0.356526   
    121. A(C  35,C  36,C  37)          120.3580         0.439216   
    122. A(C  37,C  36,H  39)          119.6446         0.357438   
    123. A(C  36,C  37,H  38)          120.5583         0.357379   
    124. A(C  32,C  37,H  38)          119.2919         0.353793   
    125. A(C  32,C  37,C  36)          120.1180         0.435714   
    126. D(C   3,N   2,C   1,C  14)    176.5178         0.060603   
    127. D(C   3,N   2,C   1,H   0)     -5.0644         0.060603   
    128. D(C   4,C   3,N   2,C   1)    141.7708         0.024886   
    129. D(C   8,C   3,N   2,C   1)    -42.6171         0.024886   
    130. D(H  13,C   4,C   3,N   2)     -4.1886         0.025591   
    131. D(H  13,C   4,C   3,C   8)   -179.9544         0.025591   
    132. D(C   5,C   4,C   3,C   8)      1.6169         0.025591   
    133. D(C   5,C   4,C   3,N   2)    177.3828         0.025591   
    134. D(C   6,C   5,C   4,C   3)     -1.5268         0.029311   
    135. D(H  12,C   5,C   4,H  13)      0.6531         0.029311   
    136. D(C   6,C   5,C   4,H  13)   -179.9182         0.029311   
    137. D(H  12,C   5,C   4,C   3)    179.0445         0.029311   
    138. D(H  11,C   6,C   5,C   4)   -179.2337         0.027739   
    139. D(C   7,C   6,C   5,H  12)    179.7013         0.027739   
    140. D(H  11,C   6,C   5,H  12)      0.1939         0.027739   
    141. D(C   7,C   6,C   5,C   4)      0.2738         0.027739   
    142. D(H  10,C   7,C   6,H  11)      0.2093         0.028064   
    143. D(C   8,C   7,C   6,H  11)   -179.6110         0.028064   
    144. D(H  10,C   7,C   6,C   5)   -179.2983         0.028064   
    145. D(C   8,C   7,C   6,C   5)      0.8814         0.028064   
    146. D(H   9,C   8,C   7,H  10)      1.4768         0.028980   
    147. D(H   9,C   8,C   7,C   6)   -178.7022         0.028980   
    148. D(C   3,C   8,C   7,C   6)     -0.7754         0.028980   
    149. D(H   9,C   8,C   3,C   4)    177.4840         0.025541   
    150. D(H   9,C   8,C   3,N   2)      1.9191         0.025541   
    151. D(C   3,C   8,C   7,H  10)    179.4036         0.028980   
    152. D(C   7,C   8,C   3,C   4)     -0.4692         0.025541   
    153. D(C   7,C   8,C   3,N   2)   -176.0341         0.025541   
    154. D(C  19,C  14,C   1,H   0)   -179.9059         0.016718   
    155. D(N  15,C  14,C   1,N   2)    178.7825         0.016718   
    156. D(N  15,C  14,C   1,H   0)      0.2292         0.016718   
    157. D(C  19,C  14,C   1,N   2)     -1.3526         0.016718   
    158. D(C  16,N  15,C  14,C  19)      0.5019         0.035333   
    159. D(C  16,N  15,C  14,C   1)   -179.6336         0.035333   
    160. D(H  45,C  16,N  15,C  14)   -178.5310         0.041737   
    161. D(C  17,C  16,N  15,C  14)      0.3356         0.041737   
    162. D(C  22,C  17,C  16,H  45)     -1.3264         0.025096   
    163. D(C  22,C  17,C  16,N  15)    179.8622         0.025096   
    164. D(C  18,C  17,C  16,H  45)    178.0034         0.025096   
    165. D(C  18,C  17,C  16,N  15)     -0.8079         0.025096   
    166. D(H  21,C  18,C  17,C  22)     -1.5977         0.025518   
    167. D(H  21,C  18,C  17,C  16)    179.0774         0.025518   
    168. D(C  19,C  18,C  17,C  22)    179.7710         0.025518   
    169. D(C  19,C  18,C  17,C  16)      0.4461         0.025518   
    170. D(H  20,C  19,C  18,H  21)      1.1136         0.029539   
    171. D(H  20,C  19,C  18,C  17)    179.7359         0.029539   
    172. D(C  14,C  19,C  18,H  21)   -178.3125         0.029539   
    173. D(C  14,C  19,C  18,C  17)      0.3098         0.029539   
    174. D(H  20,C  19,C  14,N  15)    179.7331         0.025324   
    175. D(H  20,C  19,C  14,C   1)     -0.1238         0.025324   
    176. D(C  18,C  19,C  14,N  15)     -0.8221         0.025324   
    177. D(C  18,C  19,C  14,C   1)    179.3209         0.025324   
    178. D(C  27,C  22,C  17,C  18)    141.9711         0.015815   
    179. D(C  27,C  22,C  17,C  16)    -38.7318         0.015815   
    180. D(C  23,C  22,C  17,C  18)    -38.7234         0.015815   
    181. D(C  23,C  22,C  17,C  16)    140.5738         0.015815   
    182. D(H  44,C  23,C  22,C  27)    177.9893         0.025094   
    183. D(H  44,C  23,C  22,C  17)     -1.3486         0.025094   
    184. D(N  24,C  23,C  22,C  27)     -0.8168         0.025094   
    185. D(N  24,C  23,C  22,C  17)    179.8453         0.025094   
    186. D(C  25,N  24,C  23,H  44)   -178.5165         0.041745   
    187. D(C  25,N  24,C  23,C  22)      0.3451         0.041745   
    188. D(C  26,C  25,N  24,C  23)      0.4993         0.035328   
    189. D(C  30,C  25,N  24,C  23)   -179.6208         0.035328   
    190. D(H  29,C  26,C  25,C  30)     -0.1359         0.025325   
    191. D(H  29,C  26,C  25,N  24)    179.7373         0.025325   
    192. D(C  27,C  26,C  25,C  30)    179.3002         0.025325   
    193. D(C  27,C  26,C  25,N  24)     -0.8267         0.025325   
    194. D(H  28,C  27,C  26,H  29)      1.1123         0.029534   
    195. D(H  28,C  27,C  26,C  25)   -178.3049         0.029534   
    196. D(C  22,C  27,C  26,H  29)    179.7319         0.029534   
    197. D(C  22,C  27,C  26,C  25)      0.3147         0.029534   
    198. D(H  28,C  27,C  22,C  23)    179.0759         0.025520   
    199. D(H  28,C  27,C  22,C  17)     -1.5912         0.025520   
    200. D(C  26,C  27,C  22,C  23)      0.4473         0.025520   
    201. D(C  26,C  27,C  22,C  17)    179.7802         0.025520   
    202. D(H  43,C  30,C  25,C  26)   -179.7791         0.016721   
    203. D(H  43,C  30,C  25,N  24)      0.3406         0.016721   
    204. D(N  31,C  30,C  25,C  26)     -1.2206         0.016721   
    205. D(N  31,C  30,C  25,N  24)    178.8991         0.016721   
    206. D(C  32,N  31,C  30,H  43)     -5.0324         0.060596   
    207. D(C  32,N  31,C  30,C  25)    176.5442         0.060596   
    208. D(C  37,C  32,N  31,C  30)    -42.5254         0.024877   
    209. D(C  33,C  32,N  31,C  30)    141.8383         0.024877   
    210. D(H  42,C  33,C  32,C  37)   -179.9455         0.025591   
    211. D(H  42,C  33,C  32,N  31)     -4.1559         0.025591   
    212. D(C  34,C  33,C  32,C  37)      1.6267         0.025591   
    213. D(C  34,C  33,C  32,N  31)    177.4164         0.025591   
    214. D(H  41,C  34,C  33,H  42)      0.6515         0.029311   
    215. D(H  41,C  34,C  33,C  32)    179.0420         0.029311   
    216. D(C  35,C  34,C  33,H  42)   -179.9144         0.029311   
    217. D(C  35,C  34,C  33,C  32)     -1.5239         0.029311   
    218. D(H  40,C  35,C  34,H  41)      0.1866         0.027738   
    219. D(H  40,C  35,C  34,C  33)   -179.2464         0.027738   
    220. D(C  36,C  35,C  34,H  41)    179.6973         0.027738   
    221. D(C  36,C  35,C  34,C  33)      0.2643         0.027738   
    222. D(H  39,C  36,C  35,H  40)      0.2136         0.028064   
    223. D(H  39,C  36,C  35,C  34)   -179.2973         0.028064   
    224. D(C  37,C  36,C  35,H  40)   -179.6046         0.028064   
    225. D(C  37,C  36,C  35,C  34)      0.8846         0.028064   
    226. D(H  38,C  37,C  36,H  39)      1.4818         0.028980   
    227. D(H  38,C  37,C  36,C  35)   -178.6994         0.028980   
    228. D(C  32,C  37,C  36,H  39)    179.4154         0.028980   
    229. D(C  32,C  37,C  36,C  35)     -0.7658         0.028980   
    230. D(H  38,C  37,C  32,C  33)    177.4745         0.025540   
    231. D(H  38,C  37,C  32,N  31)      1.8856         0.025540   
    232. D(C  36,C  37,C  32,C  33)     -0.4852         0.025540   
    233. D(C  36,C  37,C  32,N  31)   -176.0741         0.025540   
    -----------------------------------------------------------------

Number of atoms                         .... 46
Number of degrees of freedom            .... 233

         *************************************************************
         *                GEOMETRY OPTIMIZATION CYCLE   1            *
         *************************************************************
---------------------------------
CARTESIAN COORDINATES (ANGSTROEM)
---------------------------------
  H     -5.175274    1.607192    0.482151
  C     -4.880456    0.607469    0.144700
  N     -5.699764   -0.288102   -0.221490
  C     -7.067604   -0.140713   -0.141804
  C     -7.846353   -0.661183   -1.178362
  C     -9.222628   -0.585929   -1.117029
  C     -9.844573   -0.022336   -0.013145
  C     -9.079387    0.472441    1.030196
  C     -7.700472    0.423849    0.968712
  H     -7.100547    0.789837    1.789796
  H     -9.560897    0.901948    1.896874
  H    -10.922188    0.023625    0.036841
  H     -9.817344   -0.976804   -1.929707
  H     -7.349906   -1.096177   -2.032263
  C     -3.447409    0.369503    0.108187
  N     -2.672959    1.385747    0.490814
  C     -1.369285    1.229562    0.470985
  C     -0.728505    0.053982    0.063244
  C     -1.544794   -1.011064   -0.326845
  C     -2.914598   -0.856567   -0.302228
  H     -3.586791   -1.645772   -0.597188
  H     -1.100817   -1.936573   -0.664739
  C      0.728338   -0.051557    0.062877
  C      1.368886   -1.229832    0.463169
  N      2.672498   -1.386501    0.481738
  C      3.447184   -0.368057    0.105438
  C      2.914634    0.860730   -0.297093
  C      1.544843    1.015716   -0.320589
  H      1.101056    1.943429   -0.652645
  H      3.586959    1.651614   -0.587222
  C      4.880079   -0.607110    0.139995
  N      5.700159    0.290897   -0.218466
  C      7.067863    0.141104   -0.140156
  C      7.847131    0.671029   -1.171522
  C      9.223306    0.593043   -1.111380
  C      9.844687    0.017097   -0.013570
  C      9.079037   -0.487109    1.024906
  C      7.700181   -0.435656    0.964395
  H      7.099987   -0.809043    1.781938
  H      9.560134   -0.926286    1.886955
  H     10.922241   -0.031215    0.035532
  H      9.818403    0.991319   -1.920178
  H      7.351089    1.115540   -2.020743
  H      5.174109   -1.609863    0.469060
  H      0.793136   -2.081640    0.802718
  H     -0.793695    2.079437    0.815609

----------------------------
CARTESIAN COORDINATES (A.U.)
----------------------------
  NO LB      ZA    FRAG     MASS         X           Y           Z
   0 H     1.0000    0     1.008   -9.779850    3.037152    0.911133
   1 C     6.0000    0    12.011   -9.222726    1.147950    0.273444
   2 N     7.0000    0    14.007  -10.770993   -0.544433   -0.418556
   3 C     6.0000    0    12.011  -13.355836   -0.265910   -0.267971
   4 C     6.0000    0    12.011  -14.827458   -1.249454   -2.226782
   5 C     6.0000    0    12.011  -17.428240   -1.107246   -2.110878
   6 C     6.0000    0    12.011  -18.603547   -0.042209   -0.024841
   7 C     6.0000    0    12.011  -17.157555    0.892784    1.946788
   8 C     6.0000    0    12.011  -14.551784    0.800958    1.830601
   9 H     1.0000    0     1.008  -13.418090    1.492575    3.382223
  10 H     1.0000    0     1.008  -18.067476    1.704434    3.584572
  11 H     1.0000    0     1.008  -20.639944    0.044644    0.069620
  12 H     1.0000    0     1.008  -18.552092   -1.845892   -3.646619
  13 H     1.0000    0     1.008  -13.889309   -2.071475   -3.840421
  14 C     6.0000    0    12.011   -6.514658    0.698259    0.204444
  15 N     7.0000    0    14.007   -5.051160    2.618681    0.927505
  16 C     6.0000    0    12.011   -2.587574    2.323536    0.890032
  17 C     6.0000    0    12.011   -1.376674    0.102012    0.119514
  18 C     6.0000    0    12.011   -2.919238   -1.910634   -0.617648
  19 C     6.0000    0    12.011   -5.507791   -1.618676   -0.571128
  20 H     1.0000    0     1.008   -6.778052   -3.110058   -1.128522
  21 H     1.0000    0     1.008   -2.080243   -3.659593   -1.256175
  22 C     6.0000    0    12.011    1.376359   -0.097429    0.118820
  23 C     6.0000    0    12.011    2.586820   -2.324046    0.875262
  24 N     7.0000    0    14.007    5.050289   -2.620107    0.910352
  25 C     6.0000    0    12.011    6.514234   -0.695527    0.199250
  26 C     6.0000    0    12.011    5.507861    1.626544   -0.561425
  27 C     6.0000    0    12.011    2.919330    1.919425   -0.605825
  28 H     1.0000    0     1.008    2.080694    3.672549   -1.233321
  29 H     1.0000    0     1.008    6.778369    3.121099   -1.109690
  30 C     6.0000    0    12.011    9.222012   -1.147272    0.264553
  31 N     7.0000    0    14.007   10.771739    0.549716   -0.412841
  32 C     6.0000    0    12.011   13.356325    0.266647   -0.264856
  33 C     6.0000    0    12.011   14.828928    1.268062   -2.213856
  34 C     6.0000    0    12.011   17.429523    1.120689   -2.100204
  35 C     6.0000    0    12.011   18.603763    0.032309   -0.025644
  36 C     6.0000    0    12.011   17.156894   -0.920502    1.936792
  37 C     6.0000    0    12.011   14.551233   -0.823271    1.822442
  38 H     1.0000    0     1.008   13.417030   -1.528869    3.367375
  39 H     1.0000    0     1.008   18.066035   -1.750427    3.565827
  40 H     1.0000    0     1.008   20.640044   -0.058987    0.067146
  41 H     1.0000    0     1.008   18.554093    1.873321   -3.628611
  42 H     1.0000    0     1.008   13.891545    2.108066   -3.818651
  43 H     1.0000    0     1.008    9.777648   -3.042200    0.886395
  44 H     1.0000    0     1.008    1.498810   -3.933730    1.516918
  45 H     1.0000    0     1.008   -1.499866    3.929566    1.541278

--------------------------------
INTERNAL COORDINATES (ANGSTROEM)
--------------------------------
 H      0   0   0     0.000000000000     0.00000000     0.00000000
 C      1   0   0     1.095552709288     0.00000000     0.00000000
 N      2   1   0     1.267835623194   124.03179129     0.00000000
 C      3   2   1     1.378063634484   123.31078787   354.93559040
 C      4   3   2     1.397065325793   118.06897365   141.77080328
 C      5   4   3     1.379694456754   120.18098580   177.38275086
 C      6   5   4     1.386727158517   120.32750838   358.47323164
 C      7   6   5     1.385234606985   119.80060833     0.27375136
 C      8   7   6     1.381140047735   120.35799927     0.88135963
 H      9   8   7     1.080756836554   120.56184593   181.29778926
 H      8   7   6     1.080489847775   119.99739103   180.70168770
 H      7   6   5     1.079752248157   120.11669530   180.76630112
 H      6   5   4     1.080239556580   119.73551434   179.04453688
 H      5   4   3     1.079271205616   118.73573819   355.81136926
 C      2   1   3     1.453129942578   114.99639501   178.50297561
 N     15   2   1     1.333764347482   116.14479914     0.22915837
 C     16  15   2     1.313145613250   118.78375270   180.36640278
 C     17  16  15     1.399585694588   123.97530353     0.33563900
 C     18  17  16     1.397434075138   117.00367726   359.19205427
 C     19  18  17     1.378708376979   119.33874379     0.44606555
 H     20  19  18     1.077817329014   122.18766394   179.73587222
 H     19  18  17     1.080673345937   120.00086967   179.07736001
 C     18  17  16     1.460660184012   121.15819086   179.86221804
 C     23  18  17     1.399595623314   121.14647011   140.57375749
 N     24  23  18     1.313123169572   123.97558498   179.84533045
 C     25  24  23     1.333779881468   118.78478637     0.34513307
 C     26  25  24     1.398413059394   122.07145198     0.49933927
 C     27  26  25     1.378731636759   118.81851688   359.17331424
 H     28  27  26     1.080675979226   120.64593081   181.69514160
 H     27  26  25     1.077818445088   118.99330294   179.73727790
 C     26  25  24     1.453109311139   116.13027061   180.37924152
 N     31  26  25     1.267849646501   120.96959737   178.89912940
 C     32  31  26     1.378109556313   123.29089086   176.54420706
 C     33  32  31     1.397066758091   118.06012231   141.83831412
 C     34  33  32     1.379694792369   120.18177639   177.41637216
 C     35  34  33     1.386728368079   120.32692678   358.47614880
 C     36  35  34     1.385235197094   119.80086035     0.26425978
 C     37  36  35     1.381142617229   120.35804965     0.88455659
 H     38  37  36     1.080753317374   120.55834951   181.30061400
 H     37  36  35     1.080489548767   119.99711044   180.70270658
 H     36  35  34     1.079753278119   120.11667579   180.75356057
 H     35  34  33     1.080239732128   119.73643190   179.04198200
 H     34  33  32     1.079269990849   118.73378589   355.84412408
 H     31  26  25     1.095559406346   114.98419705     0.34063864
 H     24  23  18     1.082755444495   120.57256229   358.65139214
 H     17  16  15     1.082754595288   115.44215120   181.46895458

---------------------------
INTERNAL COORDINATES (A.U.)
---------------------------
 H      0   0   0     0.000000000000     0.00000000     0.00000000
 C      1   0   0     2.070294585830     0.00000000     0.00000000
 N      2   1   0     2.395862110665   124.03179129     0.00000000
 C      3   2   1     2.604162864290   123.31078787   354.93559040
 C      4   3   2     2.640070856946   118.06897365   141.77080328
 C      5   4   3     2.607244671754   120.18098580   177.38275086
 C      6   5   4     2.620534552068   120.32750838   358.47323164
 C      7   6   5     2.617714038432   119.80060833     0.27375136
 C      8   7   6     2.609976442810   120.35799927     0.88135963
 H      9   8   7     2.042334438449   120.56184593   181.29778926
 H      8   7   6     2.041829902777   119.99739103   180.70168770
 H      7   6   5     2.040436041502   120.11669530   180.76630112
 H      6   5   4     2.041356920964   119.73551434   179.04453688
 H      5   4   3     2.039527002840   118.73573819   355.81136926
 C      2   1   3     2.746017628474   114.99639501   178.50297561
 N     15   2   1     2.520449343929   116.14479914     0.22915837
 C     16  15   2     2.481485583002   118.78375270   180.36640278
 C     17  16  15     2.644833663724   123.97530353     0.33563900
 C     18  17  16     2.640767692220   117.00367726   359.19205427
 C     19  18  17     2.605381251033   119.33874379     0.44606555
 H     20  19  18     2.036779574231   122.18766394   179.73587222
 H     19  18  17     2.042176664049   120.00086967   179.07736001
 C     18  17  16     2.760247722505   121.15819086   179.86221804
 C     23  18  17     2.644852426299   121.14647011   140.57375749
 N     24  23  18     2.481443170598   123.97558498   179.84533045
 C     25  24  23     2.520478698908   118.78478637     0.34513307
 C     26  25  24     2.642617704353   122.07145198     0.49933927
 C     27  26  25     2.605425205648   118.81851688   359.17331424
 H     28  27  26     2.042181640245   120.64593081   181.69514160
 H     27  26  25     2.036781683306   118.99330294   179.73727790
 C     26  25  24     2.745978640703   116.13027061   180.37924152
 N     31  26  25     2.395888610876   120.96959737   178.89912940
 C     32  31  26     2.604249643972   123.29089086   176.54420706
 C     33  32  31     2.640073563596   118.06012231   141.83831412
 C     34  33  32     2.607245305975   120.18177639   177.41637216
 C     35  34  33     2.620536837808   120.32692678   358.47614880
 C     36  35  34     2.617715153576   119.80086035     0.26425978
 C     37  36  35     2.609981298451   120.35804965     0.88455659
 H     38  37  36     2.042327788165   120.55834951   181.30061400
 H     37  36  35     2.041829337734   119.99711044   180.70270658
 H     36  35  34     2.040437987849   120.11667579   180.75356057
 H     35  34  33     2.041357252702   119.73643190   179.04198200
 H     34  33  32     2.039524707264   118.73378589   355.84412408
 H     31  26  25     2.070307241436   114.98419705     0.34063864
 H     24  23  18     2.046111260108   120.57256229   358.65139214
 H     17  16  15     2.046109655339   115.44215120   181.46895458

---------------------
BASIS SET INFORMATION
---------------------
There are 3 groups of distinct atoms

 Group   1 Type H   : 4s1p contracted to 2s1p pattern {31/1}
 Group   2 Type C   : 7s4p1d contracted to 3s2p1d pattern {511/31/1}
 Group   3 Type N   : 7s4p1d contracted to 3s2p1d pattern {511/31/1}

Atom   0H    basis set group =>   1
Atom   1C    basis set group =>   2
Atom   2N    basis set group =>   3
Atom   3C    basis set group =>   2
Atom   4C    basis set group =>   2
Atom   5C    basis set group =>   2
Atom   6C    basis set group =>   2
Atom   7C    basis set group =>   2
Atom   8C    basis set group =>   2
Atom   9H    basis set group =>   1
Atom  10H    basis set group =>   1
Atom  11H    basis set group =>   1
Atom  12H    basis set group =>   1
Atom  13H    basis set group =>   1
Atom  14C    basis set group =>   2
Atom  15N    basis set group =>   3
Atom  16C    basis set group =>   2
Atom  17C    basis set group =>   2
Atom  18C    basis set group =>   2
Atom  19C    basis set group =>   2
Atom  20H    basis set group =>   1
Atom  21H    basis set group =>   1
Atom  22C    basis set group =>   2
Atom  23C    basis set group =>   2
Atom  24N    basis set group =>   3
Atom  25C    basis set group =>   2
Atom  26C    basis set group =>   2
Atom  27C    basis set group =>   2
Atom  28H    basis set group =>   1
Atom  29H    basis set group =>   1
Atom  30C    basis set group =>   2
Atom  31N    basis set group =>   3
Atom  32C    basis set group =>   2
Atom  33C    basis set group =>   2
Atom  34C    basis set group =>   2
Atom  35C    basis set group =>   2
Atom  36C    basis set group =>   2
Atom  37C    basis set group =>   2
Atom  38H    basis set group =>   1
Atom  39H    basis set group =>   1
Atom  40H    basis set group =>   1
Atom  41H    basis set group =>   1
Atom  42H    basis set group =>   1
Atom  43H    basis set group =>   1
Atom  44H    basis set group =>   1
Atom  45H    basis set group =>   1
---------------------------------
AUXILIARY/J BASIS SET INFORMATION
---------------------------------
There are 3 groups of distinct atoms

 Group   1 Type H   : 5s2p1d contracted to 3s1p1d pattern {311/2/1}
 Group   2 Type C   : 12s5p4d2f1g contracted to 6s4p3d1f1g pattern {711111/2111/211/2/1}
 Group   3 Type N   : 12s5p4d2f1g contracted to 6s4p3d1f1g pattern {711111/2111/211/2/1}

Atom   0H    basis set group =>   1
Atom   1C    basis set group =>   2
Atom   2N    basis set group =>   3
Atom   3C    basis set group =>   2
Atom   4C    basis set group =>   2
Atom   5C    basis set group =>   2
Atom   6C    basis set group =>   2
Atom   7C    basis set group =>   2
Atom   8C    basis set group =>   2
Atom   9H    basis set group =>   1
Atom  10H    basis set group =>   1
Atom  11H    basis set group =>   1
Atom  12H    basis set group =>   1
Atom  13H    basis set group =>   1
Atom  14C    basis set group =>   2
Atom  15N    basis set group =>   3
Atom  16C    basis set group =>   2
Atom  17C    basis set group =>   2
Atom  18C    basis set group =>   2
Atom  19C    basis set group =>   2
Atom  20H    basis set group =>   1
Atom  21H    basis set group =>   1
Atom  22C    basis set group =>   2
Atom  23C    basis set group =>   2
Atom  24N    basis set group =>   3
Atom  25C    basis set group =>   2
Atom  26C    basis set group =>   2
Atom  27C    basis set group =>   2
Atom  28H    basis set group =>   1
Atom  29H    basis set group =>   1
Atom  30C    basis set group =>   2
Atom  31N    basis set group =>   3
Atom  32C    basis set group =>   2
Atom  33C    basis set group =>   2
Atom  34C    basis set group =>   2
Atom  35C    basis set group =>   2
Atom  36C    basis set group =>   2
Atom  37C    basis set group =>   2
Atom  38H    basis set group =>   1
Atom  39H    basis set group =>   1
Atom  40H    basis set group =>   1
Atom  41H    basis set group =>   1
Atom  42H    basis set group =>   1
Atom  43H    basis set group =>   1
Atom  44H    basis set group =>   1
Atom  45H    basis set group =>   1


           ************************************************************
           *        Program running with 128 parallel MPI-processes   *
           *              working on a common directory               *
           ************************************************************
------------------------------------------------------------------------------
                           ORCA GTO INTEGRAL CALCULATION
                           -- RI-GTO INTEGRALS CHOSEN --
------------------------------------------------------------------------------

                         BASIS SET STATISTICS AND STARTUP INFO

Gaussian basis set:
 # of primitive gaussian shells          ...  426
 # of primitive gaussian functions       ...  798
 # of contracted shells                  ...  222
 # of contracted basis functions         ...  482
 Highest angular momentum                ...    2
 Maximum contraction depth               ...    5
Auxiliary gaussian basis set:
 # of primitive gaussian shells          ...  816
 # of primitive gaussian functions       ... 2248
 # of contracted shells                  ...  510
 # of contracted aux-basis functions     ... 1570
 Highest angular momentum                ...    4
 Maximum contraction depth               ...    7
Ratio of auxiliary to basis functions    ...  3.26
Integral package used                  ... LIBINT
 One Electron integrals                  ... done
 Ordering auxiliary basis shells         ... done
 Integral threshhold             Thresh  ...  2.500e-11
 Primitive cut-off               TCut    ...  2.500e-12
 Pre-screening matrix                    ... done
 Shell pair data                         ... 
 Ordering of the shell pairs             ... done (   0.002 sec) 12539 of 24753 pairs
 Determination of significant pairs      ... done (   0.000 sec)
 Creation of shell pair data             ... done (   0.002 sec)
 Storage of shell pair data              ... done (   0.006 sec)
 Shell pair data done in (   0.010 sec)
 Computing two index integrals           ... done
 Cholesky decomposition of the V-matrix  ... done


Timings:
 Total evaluation time                   ...   1.148 sec (  0.019 min)
 One electron matrix time                ...   0.199 sec (  0.003 min) = 17.4%
 Schwartz matrix evaluation time         ...   0.282 sec (  0.005 min) = 24.6%
 Two index repulsion integral time       ...   0.164 sec (  0.003 min) = 14.3%
 Cholesky decomposition of V             ...   0.466 sec (  0.008 min) = 40.6%
 Three index repulsion integral time     ...   0.000 sec (  0.000 min) =  0.0%



           ************************************************************
           *        Program running with 128 parallel MPI-processes   *
           *              working on a common directory               *
           ************************************************************
-------------------------------------------------------------------------------
                                 ORCA SCF
-------------------------------------------------------------------------------

------------
SCF SETTINGS
------------
Hamiltonian:
 Density Functional     Method          .... DFT(GTOs)
 Exchange Functional    Exchange        .... PBE
   PBE kappa parameter   XKappa         ....  0.804000
   PBE mue parameter    XMuePBE         ....  0.219520
 Correlation Functional Correlation     .... PBE
   PBE beta parameter  CBetaPBE         ....  0.066725
 LDA part of GGA corr.  LDAOpt          .... PW91-LDA
 Gradients option       PostSCFGGA      .... off
 Hybrid DFT is turned on
   Fraction HF Exchange ScalHFX         ....  0.250000
   Scaling of DF-GGA-X  ScalDFX         ....  0.750000
   Scaling of DF-GGA-C  ScalDFC         ....  1.000000
   Scaling of DF-LDA-C  ScalLDAC        ....  1.000000
   Perturbative correction              ....  0.000000
   Density functional embedding theory  .... OFF
   NL short-range parameter             ....  6.900000
 RI-approximation to the Coulomb term is turned on
   Number of auxiliary basis functions  .... 1570
   RIJ-COSX (HFX calculated with COS-X)).... on


General Settings:
 Integral files         IntName         .... _longC
 Hartree-Fock type      HFTyp           .... RHF
 Total Charge           Charge          ....    0
 Multiplicity           Mult            ....    1
 Number of Electrons    NEL             ....  190
 Basis Dimension        Dim             ....  482
 Nuclear Repulsion      ENuc            ....   2036.8683928587 Eh

Convergence Acceleration:
 DIIS                   CNVDIIS         .... on
   Start iteration      DIISMaxIt       ....     0
   Startup error        DIISStart       ....  0.200000
   # of expansion vecs  DIISMaxEq       ....     5
   Bias factor          DIISBfac        ....   1.050
   Max. coefficient     DIISMaxC        ....  10.000
 Newton-Raphson         CNVNR           .... off
 SOSCF                  CNVSOSCF        .... on
   Start iteration      SOSCFMaxIt      ....   150
   Startup grad/error   SOSCFStart      ....  0.001000
 Level Shifting         CNVShift        .... on
   Level shift para.    LevelShift      ....    0.2500
   Turn off err/grad.   ShiftErr        ....    0.0000
 Zerner damping         CNVZerner       .... off
 Static damping         CNVDamp         .... on
   Fraction old density DampFac         ....    0.8500
   Max. Damping (<1)    DampMax         ....    0.9800
   Min. Damping (>=0)   DampMin         ....    0.0000
   Turn off err/grad.   DampErr         ....    0.0300
 Fernandez-Rico         CNVRico         .... off

SCF Procedure:
 Maximum # iterations   MaxIter         ....  2000
 SCF integral mode      SCFMode         .... Direct
   Integral package                     .... LIBINT
 Reset frequency        DirectResetFreq ....    20
 Integral Threshold     Thresh          ....  2.500e-11 Eh
 Primitive CutOff       TCut            ....  2.500e-12 Eh

Convergence Tolerance:
 Convergence Check Mode ConvCheckMode   .... Total+1el-Energy
 Convergence forced     ConvForced      .... 0
 Energy Change          TolE            ....  1.000e-08 Eh
 1-El. energy change                    ....  1.000e-05 Eh
 Orbital Gradient       TolG            ....  1.000e-05
 Orbital Rotation angle TolX            ....  1.000e-05
 DIIS Error             TolErr          ....  5.000e-07


Diagonalization of the overlap matrix:
Smallest eigenvalue                        ... 2.671e-04
Time for diagonalization                   ...    0.575 sec
Threshold for overlap eigenvalues          ... 1.000e-08
Number of eigenvalues below threshold      ... 0
Time for construction of square roots      ...    0.191 sec
Total time needed                          ...    0.767 sec

-------------------
DFT GRID GENERATION
-------------------

General Integration Accuracy     IntAcc      ...  5.340
Radial Grid Type                 RadialGrid  ... Gauss-Chebyshev
Angular Grid (max. acc.)         AngularGrid ... Lebedev-590
Angular grid pruning method      GridPruning ... 3 (G Style)
Weight generation scheme         WeightScheme... Becke
Basis function cutoff            BFCut       ...    1.0000e-11
Integration weight cutoff        WCut        ...    1.0000e-14
Grids for H and He will be reduced by one unit

# of grid points (after initial pruning)     ... 659476 (   0.0 sec)
# of grid points (after weights+screening)   ... 580609 (   0.5 sec)
nearest neighbour list constructed           ...    0.0 sec
Grid point re-assignment to atoms done       ...    0.2 sec
Grid point division into batches done        ...    7.7 sec
Reduced shell lists constructed in    8.0 sec

Total number of grid points                  ...   580609
Total number of batches                      ...     9095
Average number of points per batch           ...       63
Average number of grid points per atom       ...    12622
Average number of shells per batch           ...    29.16 (13.14%)
Average number of basis functions per batch  ...    53.44 (11.09%)
Average number of large shells per batch     ...    15.90 (54.53%)
Average number of large basis fcns per batch ...    28.64 (53.60%)
Maximum spatial batch extension              ...   7.59, 12.76, 17.10 au
Average spatial batch extension              ...   0.03,  0.04,  0.04 au

Time for grid setup =    9.011 sec

------------------------------
INITIAL GUESS: MODEL POTENTIAL
------------------------------
Loading Hartree-Fock densities                     ... done
Calculating cut-offs                               ... done
Setting up the integral package                    ... done
Initializing the effective Hamiltonian             ... done
Starting the Coulomb interaction                   ... done (   0.0 sec)
Reading the grid                                   ... done
Mapping shells                                     ... done
Starting the XC term evaluation                    ... done (   0.1 sec)
  promolecular density results
     # of electrons  =    189.991188235
     EX              =   -154.288135783
     EC              =     -6.363272211
     EX+EC           =   -160.651407994
Transforming the Hamiltonian                       ... done (   0.1 sec)
Diagonalizing the Hamiltonian                      ... done (   0.1 sec)
Back transforming the eigenvectors                 ... done (   0.0 sec)
Now organizing SCF variables                       ... done
                      ------------------
                      INITIAL GUESS DONE (   9.8 sec)
                      ------------------
--------------------
COSX GRID GENERATION
--------------------

General Integration Accuracy     IntAcc      ...  3.670
Radial Grid Type                 RadialGrid  ... Gauss-Chebyshev
Angular Grid (max. acc.)         AngularGrid ... Lebedev-50
Angular grid pruning method      GridPruning ... 3 (G Style)
Weight generation scheme         WeightScheme... Becke
Basis function cutoff            BFCut       ...    1.0000e-11
Integration weight cutoff        WCut        ...    1.0000e-14
Grids for H and He will be reduced by one unit

# of grid points (after initial pruning)     ...  27616 (   0.0 sec)
# of grid points (after weights+screening)   ...  25216 (   0.0 sec)
nearest neighbour list constructed           ...    0.0 sec
Grid point re-assignment to atoms done       ...    0.0 sec
Grid point division into batches done        ...    0.0 sec
Reduced shell lists constructed in    0.0 sec

Total number of grid points                  ...    25216
Total number of batches                      ...      408
Average number of points per batch           ...       61
Average number of grid points per atom       ...      548
Average number of shells per batch           ...    61.20 (27.57%)
Average number of basis functions per batch  ...   124.00 (25.73%)
Average number of large shells per batch     ...    39.40 (64.38%)
Average number of large basis fcns per batch ...    79.80 (64.35%)
Maximum spatial batch extension              ...  10.42, 14.59, 15.04 au
Average spatial batch extension              ...   0.07,  0.10,  0.10 au

Overlap Fitting                  UseSFitting ... on
Constructing numerical overlap ... done (      0.0 sec)
Inverting numerical overlap    ... done (      0.1 sec)
Obtaining analytic overlap     ... done (      0.0 sec)
Final contraction and storage  ... done (      0.1 sec)


General Integration Accuracy     IntAcc      ...  4.010
Radial Grid Type                 RadialGrid  ... Gauss-Chebyshev
Angular Grid (max. acc.)         AngularGrid ... Lebedev-110
Angular grid pruning method      GridPruning ... 3 (G Style)
Weight generation scheme         WeightScheme... Becke
Basis function cutoff            BFCut       ...    1.0000e-11
Integration weight cutoff        WCut        ...    1.0000e-14
Grids for H and He will be reduced by one unit

# of grid points (after initial pruning)     ...  53128 (   0.0 sec)
# of grid points (after weights+screening)   ...  48220 (   0.0 sec)
nearest neighbour list constructed           ...    0.0 sec
Grid point re-assignment to atoms done       ...    0.0 sec
Grid point division into batches done        ...    0.0 sec
Reduced shell lists constructed in    0.1 sec

Total number of grid points                  ...    48220
Total number of batches                      ...      770
Average number of points per batch           ...       62
Average number of grid points per atom       ...     1048
Average number of shells per batch           ...    53.12 (23.93%)
Average number of basis functions per batch  ...   106.38 (22.07%)
Average number of large shells per batch     ...    32.12 (60.47%)
Average number of large basis fcns per batch ...    63.12 (59.34%)
Maximum spatial batch extension              ...  10.16, 15.56, 18.19 au
Average spatial batch extension              ...   0.06,  0.08,  0.09 au

Overlap Fitting                  UseSFitting ... on
Constructing numerical overlap ... done (      0.0 sec)
Inverting numerical overlap    ... done (      0.0 sec)
Obtaining analytic overlap     ... done (      0.0 sec)
Final contraction and storage  ... done (      0.1 sec)


General Integration Accuracy     IntAcc      ...  4.340
Radial Grid Type                 RadialGrid  ... Gauss-Chebyshev
Angular Grid (max. acc.)         AngularGrid ... Lebedev-194
Angular grid pruning method      GridPruning ... 3 (G Style)
Weight generation scheme         WeightScheme... Becke
Basis function cutoff            BFCut       ...    1.0000e-11
Integration weight cutoff        WCut        ...    1.0000e-14
Grids for H and He will be reduced by one unit

# of grid points (after initial pruning)     ... 119452 (   0.0 sec)
# of grid points (after weights+screening)   ... 106946 (   0.1 sec)
nearest neighbour list constructed           ...    0.0 sec
Grid point re-assignment to atoms done       ...    0.0 sec
Grid point division into batches done        ...    0.2 sec
Reduced shell lists constructed in    0.2 sec

Total number of grid points                  ...   106946
Total number of batches                      ...     1696
Average number of points per batch           ...       63
Average number of grid points per atom       ...     2325
Average number of shells per batch           ...    43.00 (19.37%)
Average number of basis functions per batch  ...    82.87 (17.19%)
Average number of large shells per batch     ...    26.07 (60.62%)
Average number of large basis fcns per batch ...    50.33 (60.74%)
Maximum spatial batch extension              ...  10.91, 14.96, 16.21 au
Average spatial batch extension              ...   0.05,  0.06,  0.06 au

Overlap Fitting                  UseSFitting ... on
Constructing numerical overlap ... done (      0.1 sec)
Inverting numerical overlap    ... done (      0.0 sec)
Obtaining analytic overlap     ... done (      0.0 sec)
Final contraction and storage  ... done (      0.1 sec)

Time for X-Grid setup             =    1.450 sec
--------------
SCF ITERATIONS
--------------
ITER       Energy         Delta-E        Max-DP      RMS-DP      [F,P]     Damp
               ***  Starting incremental Fock matrix formation  ***
  0  -1141.7656589633   0.000000000000 0.03247599  0.00068255  0.1534590 0.8500
  1  -1141.8773734205  -0.111714457224 0.02804293  0.00066369  0.1161333 0.8500
                               ***Turning on DIIS***
  2  -1141.9556039858  -0.078230565284 0.02151712  0.00052649  0.0819509 0.8500
  3  -1142.0084831581  -0.052879172263 0.01108412  0.00033787  0.0568125 0.8500
  4  -1142.0476697502  -0.039186592062 0.00682800  0.00024011  0.0442224 0.8500
  5  -1142.0778854762  -0.030215725995 0.00512785  0.00018843  0.0367117 0.8500
  6  -1142.1022591555  -0.024373679387 0.00437838  0.00015575  0.0310529 0.8500
  7  -1142.1223855681  -0.020126412590 0.02677200  0.00088638  0.0263448 0.0000
  8  -1142.2292762813  -0.106890713218 0.00363026  0.00005168  0.0031498 0.0000
  9  -1142.2293196735  -0.000043392132 0.00132049  0.00001699  0.0025929 0.0000
                      *** Initiating the SOSCF procedure ***
                           *** Shutting down DIIS ***
                      *** Re-Reading the Fockian *** 
                      *** Removing any level shift *** 
ITER      Energy       Delta-E        Grad      Rot      Max-DP    RMS-DP
 10  -1142.22935436  -0.0000346876  0.000112  0.000112  0.000274  0.000006
               *** Restarting incremental Fock matrix formation ***
 11  -1142.22928732   0.0000670444  0.000100  0.000548  0.000419  0.000009
 12  -1142.22928730   0.0000000157  0.000094  0.000249  0.000222  0.000004
 13  -1142.22928780  -0.0000004977  0.000022  0.000170  0.000091  0.000003
 14  -1142.22928782  -0.0000000234  0.000010  0.000026  0.000026  0.000001
 15  -1142.22928783  -0.0000000096  0.000004  0.000040  0.000022  0.000001
                 **** Energy Check signals convergence ****
              ***Rediagonalizing the Fockian in SOSCF/NRSCF***

               *****************************************************
               *                     SUCCESS                       *
               *           SCF CONVERGED AFTER  16 CYCLES          *
               *****************************************************

Old exchange energy                            =    -39.286706759 Eh
New exchange energy                            =    -39.286602263 Eh
Exchange energy change after final integration =      0.000104496 Eh
Total energy after final integration           =  -1142.229183329 Eh
Final COS-X integration done in                =     1.226 sec

----------------
TOTAL SCF ENERGY
----------------

Total Energy       :        -1142.22918333 Eh          -31081.63624 eV

Components:
Nuclear Repulsion  :         2036.86839286 Eh           55426.00677 eV
Electronic Energy  :        -3179.09757619 Eh          -86507.64301 eV
One Electron Energy:        -5590.27522141 Eh         -152119.12236 eV
Two Electron Energy:         2411.17764522 Eh           65611.47935 eV

Virial components:
Potential Energy   :        -2273.98397053 Eh          -61878.24967 eV
Kinetic Energy     :         1131.75478720 Eh           30796.61343 eV
Virial Ratio       :            2.00925500


DFT components:
N(Alpha)           :       94.999998116786 electrons
N(Beta)            :       94.999998116786 electrons
N(Total)           :      189.999996233572 electrons
E(X)               :     -117.550162643460 Eh       
E(C)               :       -6.390170893649 Eh       
E(XC)              :     -123.940333537109 Eh       
DFET-embed. en.    :        0.000000000000 Eh       

---------------
SCF CONVERGENCE
---------------

  Last Energy change         ...    6.0554e-09  Tolerance :   1.0000e-08
  Last MAX-Density change    ...    4.8850e-15  Tolerance :   1.0000e-07
  Last RMS-Density change    ...    4.5641e-17  Tolerance :   5.0000e-09
  Last Orbital Gradient      ...    2.9860e-06  Tolerance :   1.0000e-05
  Last Orbital Rotation      ...    9.6228e-06  Tolerance :   1.0000e-05

             **** THE GBW FILE WAS UPDATED (_longC.gbw) ****
             **** DENSITY FILE WAS UPDATED (_longC.scfp) ****
             **** ENERGY FILE WAS UPDATED (_longC.en.tmp) ****
             **** THE GBW FILE WAS UPDATED (_longC.gbw) ****
             **** DENSITY FILE WAS UPDATED (_longC.scfp) ****
----------------
ORBITAL ENERGIES
----------------

  NO   OCC          E(Eh)            E(eV) 
   0   2.0000     -14.399988      -391.8436 
   1   2.0000     -14.399982      -391.8434 
   2   2.0000     -14.399241      -391.8233 
   3   2.0000     -14.399229      -391.8230 
   4   2.0000     -10.285278      -279.8766 
   5   2.0000     -10.285249      -279.8759 
   6   2.0000     -10.283172      -279.8193 
   7   2.0000     -10.283170      -279.8193 
   8   2.0000     -10.281822      -279.7826 
   9   2.0000     -10.281807      -279.7822 
  10   2.0000     -10.270932      -279.4863 
  11   2.0000     -10.270925      -279.4861 
  12   2.0000     -10.270201      -279.4664 
  13   2.0000     -10.270046      -279.4622 
  14   2.0000     -10.267252      -279.3861 
  15   2.0000     -10.267241      -279.3858 
  16   2.0000     -10.255786      -279.0741 
  17   2.0000     -10.255773      -279.0738 
  18   2.0000     -10.239684      -278.6360 
  19   2.0000     -10.239673      -278.6357 
  20   2.0000     -10.238910      -278.6149 
  21   2.0000     -10.238899      -278.6146 
  22   2.0000     -10.238543      -278.6049 
  23   2.0000     -10.238535      -278.6047 
  24   2.0000     -10.236411      -278.5469 
  25   2.0000     -10.236393      -278.5464 
  26   2.0000     -10.235480      -278.5216 
  27   2.0000     -10.235472      -278.5214 
  28   2.0000      -0.993234       -27.0273 
  29   2.0000      -0.990189       -26.9444 
  30   2.0000      -0.967603       -26.3298 
  31   2.0000      -0.966407       -26.2973 
  32   2.0000      -0.878008       -23.8918 
  33   2.0000      -0.876501       -23.8508 
  34   2.0000      -0.869436       -23.6586 
  35   2.0000      -0.831705       -22.6319 
  36   2.0000      -0.817018       -22.2322 
  37   2.0000      -0.802074       -21.8255 
  38   2.0000      -0.771917       -21.0049 
  39   2.0000      -0.770268       -20.9601 
  40   2.0000      -0.767602       -20.8875 
  41   2.0000      -0.756434       -20.5836 
  42   2.0000      -0.713188       -19.4068 
  43   2.0000      -0.683096       -18.5880 
  44   2.0000      -0.671458       -18.2713 
  45   2.0000      -0.658663       -17.9231 
  46   2.0000      -0.640708       -17.4346 
  47   2.0000      -0.634195       -17.2573 
  48   2.0000      -0.625061       -17.0088 
  49   2.0000      -0.624870       -17.0036 
  50   2.0000      -0.593026       -16.1371 
  51   2.0000      -0.590617       -16.0715 
  52   2.0000      -0.560649       -15.2560 
  53   2.0000      -0.560483       -15.2515 
  54   2.0000      -0.547344       -14.8940 
  55   2.0000      -0.534398       -14.5417 
  56   2.0000      -0.515852       -14.0371 
  57   2.0000      -0.513535       -13.9740 
  58   2.0000      -0.501505       -13.6466 
  59   2.0000      -0.492983       -13.4148 
  60   2.0000      -0.486272       -13.2321 
  61   2.0000      -0.481263       -13.0958 
  62   2.0000      -0.480519       -13.0756 
  63   2.0000      -0.468589       -12.7510 
  64   2.0000      -0.460679       -12.5357 
  65   2.0000      -0.455313       -12.3897 
  66   2.0000      -0.454106       -12.3568 
  67   2.0000      -0.448911       -12.2155 
  68   2.0000      -0.442205       -12.0330 
  69   2.0000      -0.440443       -11.9851 
  70   2.0000      -0.440246       -11.9797 
  71   2.0000      -0.433177       -11.7874 
  72   2.0000      -0.428320       -11.6552 
  73   2.0000      -0.425059       -11.5664 
  74   2.0000      -0.405039       -11.0217 
  75   2.0000      -0.398421       -10.8416 
  76   2.0000      -0.389963       -10.6114 
  77   2.0000      -0.379005       -10.3132 
  78   2.0000      -0.378328       -10.2948 
  79   2.0000      -0.372782       -10.1439 
  80   2.0000      -0.369100       -10.0437 
  81   2.0000      -0.360528        -9.8105 
  82   2.0000      -0.353810        -9.6277 
  83   2.0000      -0.331258        -9.0140 
  84   2.0000      -0.315109        -8.5745 
  85   2.0000      -0.308936        -8.4066 
  86   2.0000      -0.306350        -8.3362 
  87   2.0000      -0.290397        -7.9021 
  88   2.0000      -0.286933        -7.8078 
  89   2.0000      -0.274611        -7.4726 
  90   2.0000      -0.273407        -7.4398 
  91   2.0000      -0.272464        -7.4141 
  92   2.0000      -0.265239        -7.2175 
  93   2.0000      -0.242241        -6.5917 
  94   2.0000      -0.235306        -6.4030 
  95   0.0000      -0.089895        -2.4462 
  96   0.0000      -0.061323        -1.6687 
  97   0.0000      -0.034953        -0.9511 
  98   0.0000      -0.031027        -0.8443 
  99   0.0000      -0.006668        -0.1814 
 100   0.0000      -0.005273        -0.1435 
 101   0.0000      -0.005262        -0.1432 
 102   0.0000       0.010946         0.2979 
 103   0.0000       0.038307         1.0424 
 104   0.0000       0.058195         1.5836 
 105   0.0000       0.076775         2.0891 
 106   0.0000       0.077464         2.1079 
 107   0.0000       0.083353         2.2681 
 108   0.0000       0.087309         2.3758 
 109   0.0000       0.104956         2.8560 
 110   0.0000       0.108779         2.9600 
 111   0.0000       0.116056         3.1580 
 112   0.0000       0.122112         3.3228 
 113   0.0000       0.123750         3.3674 
 114   0.0000       0.125379         3.4117 
 115   0.0000       0.135222         3.6796 
 116   0.0000       0.141687         3.8555 
 117   0.0000       0.144909         3.9432 
 118   0.0000       0.154657         4.2084 
 119   0.0000       0.162457         4.4207 
 120   0.0000       0.164586         4.4786 
 121   0.0000       0.167610         4.5609 
 122   0.0000       0.168311         4.5800 
 123   0.0000       0.172854         4.7036 
 124   0.0000       0.173657         4.7254 
 125   0.0000       0.178089         4.8461 
 126   0.0000       0.182405         4.9635 
 127   0.0000       0.198067         5.3897 
 128   0.0000       0.226773         6.1708 
 129   0.0000       0.230151         6.2627 
 130   0.0000       0.232191         6.3182 
 131   0.0000       0.246814         6.7161 
 132   0.0000       0.248802         6.7703 
 133   0.0000       0.271464         7.3869 
 134   0.0000       0.274643         7.4734 
 135   0.0000       0.275633         7.5003 
 136   0.0000       0.285906         7.7799 
 137   0.0000       0.298101         8.1117 
 138   0.0000       0.300495         8.1769 
 139   0.0000       0.300521         8.1776 
 140   0.0000       0.306690         8.3455 
 141   0.0000       0.307431         8.3656 
 142   0.0000       0.310584         8.4514 
 143   0.0000       0.311099         8.4654 
 144   0.0000       0.320530         8.7221 
 145   0.0000       0.325227         8.8499 
 146   0.0000       0.333417         9.0727 
 147   0.0000       0.334694         9.1075 
 148   0.0000       0.337499         9.1838 
 149   0.0000       0.346491         9.4285 
 150   0.0000       0.362110         9.8535 
 151   0.0000       0.366565         9.9747 
 152   0.0000       0.383061        10.4236 
 153   0.0000       0.387109        10.5338 
 154   0.0000       0.396356        10.7854 
 155   0.0000       0.396924        10.8009 
 156   0.0000       0.408186        11.1073 
 157   0.0000       0.409214        11.1353 
 158   0.0000       0.424296        11.5457 
 159   0.0000       0.424649        11.5553 
 160   0.0000       0.425347        11.5743 
 161   0.0000       0.426035        11.5930 
 162   0.0000       0.431239        11.7346 
 163   0.0000       0.437432        11.9031 
 164   0.0000       0.443122        12.0580 
 165   0.0000       0.453789        12.3482 
 166   0.0000       0.456367        12.4184 
 167   0.0000       0.465371        12.6634 
 168   0.0000       0.474575        12.9138 
 169   0.0000       0.477206        12.9854 
 170   0.0000       0.478945        13.0328 
 171   0.0000       0.485576        13.2132 
 172   0.0000       0.489414        13.3176 
 173   0.0000       0.494624        13.4594 
 174   0.0000       0.500844        13.6287 
 175   0.0000       0.504272        13.7220 
 176   0.0000       0.509292        13.8585 
 177   0.0000       0.512411        13.9434 
 178   0.0000       0.512791        13.9538 
 179   0.0000       0.517116        14.0714 
 180   0.0000       0.525035        14.2869 
 181   0.0000       0.543990        14.8027 
 182   0.0000       0.547849        14.9077 
 183   0.0000       0.551290        15.0014 
 184   0.0000       0.559087        15.2135 
 185   0.0000       0.562048        15.2941 
 186   0.0000       0.565713        15.3938 
 187   0.0000       0.566503        15.4153 
 188   0.0000       0.567025        15.4295 
 189   0.0000       0.572482        15.5780 
 190   0.0000       0.584188        15.8966 
 191   0.0000       0.590592        16.0708 
 192   0.0000       0.594653        16.1813 
 193   0.0000       0.598264        16.2796 
 194   0.0000       0.605078        16.4650 
 195   0.0000       0.610816        16.6211 
 196   0.0000       0.625001        17.0072 
 197   0.0000       0.625182        17.0121 
 198   0.0000       0.631456        17.1828 
 199   0.0000       0.634870        17.2757 
 200   0.0000       0.643026        17.4976 
 201   0.0000       0.647339        17.6150 
 202   0.0000       0.647960        17.6319 
 203   0.0000       0.651601        17.7310 
 204   0.0000       0.657156        17.8821 
 205   0.0000       0.657509        17.8917 
 206   0.0000       0.664640        18.0858 
 207   0.0000       0.669826        18.2269 
 208   0.0000       0.674079        18.3426 
 209   0.0000       0.675145        18.3716 
 210   0.0000       0.678419        18.4607 
 211   0.0000       0.679046        18.4778 
 212   0.0000       0.687185        18.6993 
 213   0.0000       0.692316        18.8389 
 214   0.0000       0.694439        18.8966 
 215   0.0000       0.696427        18.9507 
 216   0.0000       0.700130        19.0515 
 217   0.0000       0.701937        19.1007 
 218   0.0000       0.705153        19.1882 
 219   0.0000       0.710481        19.3332 
 220   0.0000       0.725448        19.7405 
 221   0.0000       0.726143        19.7594 
 222   0.0000       0.735315        20.0089 
 223   0.0000       0.735625        20.0174 
 224   0.0000       0.742202        20.1963 
 225   0.0000       0.748607        20.3706 
 226   0.0000       0.749226        20.3875 
 227   0.0000       0.754967        20.5437 
 228   0.0000       0.756350        20.5813 
 229   0.0000       0.761733        20.7278 
 230   0.0000       0.766805        20.8658 
 231   0.0000       0.770185        20.9578 
 232   0.0000       0.772708        21.0265 
 233   0.0000       0.781649        21.2698 
 234   0.0000       0.790333        21.5061 
 235   0.0000       0.791680        21.5427 
 236   0.0000       0.800245        21.7758 
 237   0.0000       0.803572        21.8663 
 238   0.0000       0.815147        22.1813 
 239   0.0000       0.818655        22.2767 
 240   0.0000       0.824824        22.4446 
 241   0.0000       0.829501        22.5719 
 242   0.0000       0.854841        23.2614 
 243   0.0000       0.857799        23.3419 
 244   0.0000       0.863808        23.5054 
 245   0.0000       0.864638        23.5280 
 246   0.0000       0.890494        24.2316 
 247   0.0000       0.891483        24.2585 
 248   0.0000       0.904317        24.6077 
 249   0.0000       0.909755        24.7557 
 250   0.0000       0.931364        25.3437 
 251   0.0000       0.932895        25.3854 
 252   0.0000       0.935674        25.4610 
 253   0.0000       0.944156        25.6918 
 254   0.0000       0.949711        25.8429 
 255   0.0000       0.950160        25.8552 
 256   0.0000       0.969989        26.3947 
 257   0.0000       0.993503        27.0346 
 258   0.0000       1.024696        27.8834 
 259   0.0000       1.037369        28.2283 
 260   0.0000       1.046528        28.4775 
 261   0.0000       1.052886        28.6505 
 262   0.0000       1.059792        28.8384 
 263   0.0000       1.069027        29.0897 
 264   0.0000       1.078150        29.3379 
 265   0.0000       1.082560        29.4579 
 266   0.0000       1.093890        29.7663 
 267   0.0000       1.104522        30.0556 
 268   0.0000       1.123687        30.5771 
 269   0.0000       1.148558        31.2539 
 270   0.0000       1.165587        31.7172 
 271   0.0000       1.165850        31.7244 
 272   0.0000       1.175353        31.9830 
 273   0.0000       1.197935        32.5975 
 274   0.0000       1.203001        32.7353 
 275   0.0000       1.208616        32.8881 
 276   0.0000       1.219705        33.1899 
 277   0.0000       1.224409        33.3179 
 278   0.0000       1.228634        33.4328 
 279   0.0000       1.230653        33.4878 
 280   0.0000       1.243673        33.8421 
 281   0.0000       1.251151        34.0455 
 282   0.0000       1.256319        34.1862 
 283   0.0000       1.265399        34.4333 
 284   0.0000       1.270184        34.5635 
 285   0.0000       1.271439        34.5976 
 286   0.0000       1.273778        34.6613 
 287   0.0000       1.281336        34.8669 
 288   0.0000       1.286835        35.0165 
 289   0.0000       1.288300        35.0564 
 290   0.0000       1.293822        35.2067 
 291   0.0000       1.294149        35.2156 
 292   0.0000       1.298511        35.3343 
 293   0.0000       1.302635        35.4465 
 294   0.0000       1.319135        35.8955 
 295   0.0000       1.325993        36.0821 
 296   0.0000       1.327788        36.1309 
 297   0.0000       1.335071        36.3291 
 298   0.0000       1.336621        36.3713 
 299   0.0000       1.353653        36.8348 
 300   0.0000       1.379902        37.5490 
 301   0.0000       1.384374        37.6707 
 302   0.0000       1.394720        37.9523 
 303   0.0000       1.413772        38.4707 
 304   0.0000       1.437774        39.1238 
 305   0.0000       1.453336        39.5473 
 306   0.0000       1.494732        40.6737 
 307   0.0000       1.494957        40.6799 
 308   0.0000       1.536529        41.8111 
 309   0.0000       1.539811        41.9004 
 310   0.0000       1.550697        42.1966 
 311   0.0000       1.567463        42.6528 
 312   0.0000       1.579023        42.9674 
 313   0.0000       1.650546        44.9136 
 314   0.0000       1.666159        45.3385 
 315   0.0000       1.671482        45.4833 
 316   0.0000       1.672208        45.5031 
 317   0.0000       1.677009        45.6337 
 318   0.0000       1.679709        45.7072 
 319   0.0000       1.680987        45.7420 
 320   0.0000       1.705348        46.4049 
 321   0.0000       1.708497        46.4906 
 322   0.0000       1.709426        46.5159 
 323   0.0000       1.725112        46.9427 
 324   0.0000       1.726180        46.9717 
 325   0.0000       1.732666        47.1482 
 326   0.0000       1.740241        47.3544 
 327   0.0000       1.746265        47.5183 
 328   0.0000       1.755375        47.7662 
 329   0.0000       1.759537        47.8794 
 330   0.0000       1.761369        47.9293 
 331   0.0000       1.770571        48.1797 
 332   0.0000       1.770677        48.1826 
 333   0.0000       1.774144        48.2769 
 334   0.0000       1.774245        48.2797 
 335   0.0000       1.780450        48.4485 
 336   0.0000       1.782021        48.4913 
 337   0.0000       1.789233        48.6875 
 338   0.0000       1.799290        48.9612 
 339   0.0000       1.804515        49.1034 
 340   0.0000       1.808426        49.2098 
 341   0.0000       1.810178        49.2575 
 342   0.0000       1.814907        49.3861 
 343   0.0000       1.818858        49.4936 
 344   0.0000       1.823246        49.6130 
 345   0.0000       1.825090        49.6632 
 346   0.0000       1.827007        49.7154 
 347   0.0000       1.840088        50.0713 
 348   0.0000       1.840741        50.0891 
 349   0.0000       1.843328        50.1595 
 350   0.0000       1.849331        50.3229 
 351   0.0000       1.886455        51.3331 
 352   0.0000       1.887974        51.3744 
 353   0.0000       1.899065        51.6762 
 354   0.0000       1.909925        51.9717 
 355   0.0000       1.925234        52.3883 
 356   0.0000       1.927154        52.4405 
 357   0.0000       1.930495        52.5314 
 358   0.0000       1.946860        52.9768 
 359   0.0000       1.952003        53.1167 
 360   0.0000       1.958778        53.3011 
 361   0.0000       1.963166        53.4205 
 362   0.0000       1.964275        53.4506 
 363   0.0000       1.967574        53.5404 
 364   0.0000       1.981247        53.9125 
 365   0.0000       1.981490        53.9191 
 366   0.0000       1.997276        54.3486 
 367   0.0000       1.997401        54.3520 
 368   0.0000       2.011511        54.7360 
 369   0.0000       2.011733        54.7420 
 370   0.0000       2.021613        55.0109 
 371   0.0000       2.025815        55.1252 
 372   0.0000       2.051366        55.8205 
 373   0.0000       2.057219        55.9798 
 374   0.0000       2.076765        56.5116 
 375   0.0000       2.081758        56.6475 
 376   0.0000       2.086233        56.7693 
 377   0.0000       2.092780        56.9474 
 378   0.0000       2.109262        57.3959 
 379   0.0000       2.123424        57.7813 
 380   0.0000       2.125091        57.8267 
 381   0.0000       2.135081        58.0985 
 382   0.0000       2.150777        58.5256 
 383   0.0000       2.152836        58.5816 
 384   0.0000       2.171463        59.0885 
 385   0.0000       2.171599        59.0922 
 386   0.0000       2.173721        59.1500 
 387   0.0000       2.201552        59.9073 
 388   0.0000       2.204788        59.9953 
 389   0.0000       2.216648        60.3180 
 390   0.0000       2.227523        60.6140 
 391   0.0000       2.228872        60.6507 
 392   0.0000       2.233933        60.7884 
 393   0.0000       2.237000        60.8719 
 394   0.0000       2.260133        61.5013 
 395   0.0000       2.265087        61.6362 
 396   0.0000       2.271423        61.8086 
 397   0.0000       2.274129        61.8822 
 398   0.0000       2.282196        62.1017 
 399   0.0000       2.294922        62.4480 
 400   0.0000       2.303271        62.6752 
 401   0.0000       2.303291        62.6757 
 402   0.0000       2.320801        63.1522 
 403   0.0000       2.326061        63.2953 
 404   0.0000       2.327428        63.3325 
 405   0.0000       2.339158        63.6517 
 406   0.0000       2.350795        63.9684 
 407   0.0000       2.363539        64.3152 
 408   0.0000       2.364288        64.3355 
 409   0.0000       2.375363        64.6369 
 410   0.0000       2.377180        64.6864 
 411   0.0000       2.390491        65.0486 
 412   0.0000       2.402911        65.3865 
 413   0.0000       2.405240        65.4499 
 414   0.0000       2.411694        65.6255 
 415   0.0000       2.420373        65.8617 
 416   0.0000       2.432484        66.1913 
 417   0.0000       2.478751        67.4502 
 418   0.0000       2.480994        67.5113 
 419   0.0000       2.508886        68.2702 
 420   0.0000       2.536695        69.0270 
 421   0.0000       2.560259        69.6682 
[...]
      dx2y2   :     0.018088
      dxy     :     0.021276
  5 C s       :     2.861357  s :     2.861357
      pz      :     1.016832  p :     3.076592
      px      :     1.060775
      py      :     0.998984
      dz2     :     0.014063  d :     0.091277
      dxz     :     0.026000
      dyz     :     0.011193
      dx2y2   :     0.019413
      dxy     :     0.020608
  6 C s       :     2.862351  s :     2.862351
      pz      :     1.030656  p :     3.083191
      px      :     1.042365
      py      :     1.010171
      dz2     :     0.019892  d :     0.090280
      dxz     :     0.020676
      dyz     :     0.015812
      dx2y2   :     0.019662
      dxy     :     0.014238
  7 C s       :     2.860912  s :     2.860912
      pz      :     1.017828  p :     3.075436
      px      :     1.062967
      py      :     0.994640
      dz2     :     0.014297  d :     0.091628
      dxz     :     0.026692
      dyz     :     0.010975
      dx2y2   :     0.019736
      dxy     :     0.019927
  8 C s       :     2.864335  s :     2.864335
      pz      :     1.034380  p :     3.089941
      px      :     1.059432
      py      :     0.996129
      dz2     :     0.013271  d :     0.088383
      dxz     :     0.026395
      dyz     :     0.010803
      dx2y2   :     0.018293
      dxy     :     0.019621
  9 H s       :     0.895380  s :     0.895380
      pz      :     0.028220  p :     0.069978
      px      :     0.021575
      py      :     0.020184
 10 H s       :     0.896485  s :     0.896485
      pz      :     0.028067  p :     0.067862
      px      :     0.016696
      py      :     0.023099
 11 H s       :     0.897019  s :     0.897019
      pz      :     0.012367  p :     0.068319
      px      :     0.042398
      py      :     0.013554
 12 H s       :     0.896358  s :     0.896358
      pz      :     0.026427  p :     0.067818
      px      :     0.021198
      py      :     0.020194
 13 H s       :     0.893799  s :     0.893799
      pz      :     0.027707  p :     0.069410
      px      :     0.017523
      py      :     0.024180
 14 C s       :     2.850511  s :     2.850511
      pz      :     0.948231  p :     3.018333
      px      :     1.029417
      py      :     1.040685
      dz2     :     0.011361  d :     0.149736
      dxz     :     0.014961
      dyz     :     0.020280
      dx2y2   :     0.059005
      dxy     :     0.044129
 15 N s       :     3.211871  s :     3.211871
      pz      :     1.131207  p :     3.799417
      px      :     1.211969
      py      :     1.456241
      dz2     :     0.006731  d :     0.061657
      dxz     :     0.010442
      dyz     :     0.006395
      dx2y2   :     0.019804
      dxy     :     0.018284
 16 C s       :     2.857035  s :     2.857035
      pz      :     0.944473  p :     2.986541
      px      :     1.007684
      py      :     1.034383
      dz2     :     0.009007  d :     0.132918
      dxz     :     0.020883
      dyz     :     0.008180
      dx2y2   :     0.038248
      dxy     :     0.056599
 17 C s       :     2.850979  s :     2.850979
      pz      :     0.977342  p :     3.082900
      px      :     1.033468
      py      :     1.072091
      dz2     :     0.008829  d :     0.108592
      dxz     :     0.014863
      dyz     :     0.012741
      dx2y2   :     0.036254
      dxy     :     0.035905
 18 C s       :     2.860930  s :     2.860930
      pz      :     0.945124  p :     3.042556
      px      :     1.064680
      py      :     1.032752
      dz2     :     0.006562  d :     0.091517
      dxz     :     0.014270
      dyz     :     0.007630
      dx2y2   :     0.029649
      dxy     :     0.033407
 19 C s       :     2.864128  s :     2.864128
      pz      :     0.948296  p :     3.056159
      px      :     1.057109
      py      :     1.050754
      dz2     :     0.006611  d :     0.088788
      dxz     :     0.012165
      dyz     :     0.008272
      dx2y2   :     0.029148
      dxy     :     0.032591
 20 H s       :     0.882917  s :     0.882917
      pz      :     0.014997  p :     0.072389
      px      :     0.026681
      py      :     0.030710
 21 H s       :     0.890788  s :     0.890788
      pz      :     0.015639  p :     0.068970
      px      :     0.017058
      py      :     0.036273
 22 C s       :     2.850980  s :     2.850980
      pz      :     0.976636  p :     3.082896
      px      :     1.033470
      py      :     1.072790
      dz2     :     0.008759  d :     0.108593
      dxz     :     0.014717
      dyz     :     0.012681
      dx2y2   :     0.036385
      dxy     :     0.036052
 23 C s       :     2.857035  s :     2.857035
      pz      :     0.943802  p :     2.986540
      px      :     1.007684
      py      :     1.035053
      dz2     :     0.008956  d :     0.132918
      dxz     :     0.020648
      dyz     :     0.008118
      dx2y2   :     0.038362
      dxy     :     0.056835
 24 N s       :     3.211868  s :     3.211868
      pz      :     1.129219  p :     3.799408
      px      :     1.211930
      py      :     1.458259
      dz2     :     0.006716  d :     0.061657
      dxz     :     0.010397
      dyz     :     0.006349
      dx2y2   :     0.019862
      dxy     :     0.018333
 25 C s       :     2.850512  s :     2.850512
      pz      :     0.947703  p :     3.018340
      px      :     1.029412
      py      :     1.041226
      dz2     :     0.011249  d :     0.149736
      dxz     :     0.014781
      dyz     :     0.020128
      dx2y2   :     0.059267
      dxy     :     0.044312
 26 C s       :     2.864128  s :     2.864128
      pz      :     0.947652  p :     3.056158
      px      :     1.057110
      py      :     1.051396
      dz2     :     0.006588  d :     0.088789
      dxz     :     0.012035
      dyz     :     0.008185
      dx2y2   :     0.029260
      dxy     :     0.032720
 27 C s       :     2.860931  s :     2.860931
      pz      :     0.944479  p :     3.042549
      px      :     1.064681
      py      :     1.033389
      dz2     :     0.006530  d :     0.091517
      dxz     :     0.014144
      dyz     :     0.007539
      dx2y2   :     0.029773
      dxy     :     0.033532
 28 H s       :     0.890787  s :     0.890787
      pz      :     0.015500  p :     0.068971
      px      :     0.017055
      py      :     0.036415
 29 H s       :     0.882914  s :     0.882914
      pz      :     0.014884  p :     0.072386
      px      :     0.026683
      py      :     0.030819
 30 C s       :     2.879239  s :     2.879239
      pz      :     0.881586  p :     2.935305
      px      :     1.022651
      py      :     1.031068
      dz2     :     0.009260  d :     0.138765
      dxz     :     0.017354
      dyz     :     0.013919
      dx2y2   :     0.062757
      dxy     :     0.035474
 31 N s       :     3.204858  s :     3.204858
      pz      :     1.142892  p :     3.802041
      px      :     1.169132
      py      :     1.490018
      dz2     :     0.006648  d :     0.060221
      dxz     :     0.009679
      dyz     :     0.006775
      dx2y2   :     0.018157
      dxy     :     0.018962
 32 C s       :     2.838557  s :     2.838557
      pz      :     1.049382  p :     3.025925
      px      :     0.966616
      py      :     1.009927
      dz2     :     0.024332  d :     0.144686
      dxz     :     0.034731
      dyz     :     0.015128
      dx2y2   :     0.033432
      dxy     :     0.037062
 33 C s       :     2.866764  s :     2.866764
      pz      :     1.016682  p :     3.072112
      px      :     1.057930
      py      :     0.997500
      dz2     :     0.012549  d :     0.087712
      dxz     :     0.025368
      dyz     :     0.010164
      dx2y2   :     0.018188
      dxy     :     0.021443
 34 C s       :     2.861357  s :     2.861357
      pz      :     1.016173  p :     3.076584
      px      :     1.060748
      py      :     0.999663
      dz2     :     0.013903  d :     0.091278
      dxz     :     0.025818
      dyz     :     0.011228
      dx2y2   :     0.019543
      dxy     :     0.020786
 35 C s       :     2.862345  s :     2.862345
      pz      :     1.029967  p :     3.083224
      px      :     1.042352
      py      :     1.010905
      dz2     :     0.019702  d :     0.090280
      dxz     :     0.020478
      dyz     :     0.015830
      dx2y2   :     0.019833
      dxy     :     0.014436
 36 C s       :     2.860916  s :     2.860916
      pz      :     1.017227  p :     3.075430
      px      :     1.062948
      py      :     0.995255
      dz2     :     0.014142  d :     0.091628
      dxz     :     0.026545
      dyz     :     0.011016
      dx2y2   :     0.019856
      dxy     :     0.020068
 37 C s       :     2.864337  s :     2.864337
      pz      :     1.034054  p :     3.089963
      px      :     1.059422
      py      :     0.996486
      dz2     :     0.013125  d :     0.088384
      dxz     :     0.026208
      dyz     :     0.010837
      dx2y2   :     0.018411
      dxy     :     0.019803
 38 H s       :     0.895378  s :     0.895378
      pz      :     0.028112  p :     0.069977
      px      :     0.021572
      py      :     0.020293
 39 H s       :     0.896485  s :     0.896485
      pz      :     0.027876  p :     0.067861
      px      :     0.016696
      py      :     0.023289
 40 H s       :     0.897021  s :     0.897021
      pz      :     0.012388  p :     0.068319
      px      :     0.042392
      py      :     0.013538
 41 H s       :     0.896359  s :     0.896359
      pz      :     0.026314  p :     0.067818
      px      :     0.021197
      py      :     0.020307
 42 H s       :     0.893800  s :     0.893800
      pz      :     0.027515  p :     0.069410
      px      :     0.017521
      py      :     0.024373
 43 H s       :     0.914230  s :     0.914230
      pz      :     0.013475  p :     0.069779
      px      :     0.012285
      py      :     0.044018
 44 H s       :     0.905123  s :     0.905123
      pz      :     0.015678  p :     0.066926
      px      :     0.017612
      py      :     0.033636
 45 H s       :     0.905127  s :     0.905127
      pz      :     0.015823  p :     0.066927
      px      :     0.017608
      py      :     0.033496


                      *****************************
                      * MAYER POPULATION ANALYSIS *
                      *****************************

  NA   - Mulliken gross atomic population
  ZA   - Total nuclear charge
  QA   - Mulliken gross atomic charge
  VA   - Mayer's total valence
  BVA  - Mayer's bonded valence
  FA   - Mayer's free valence

  ATOM       NA         ZA         QA         VA         BVA        FA
  0 H      0.9827     1.0000     0.0173     1.0174     1.0174    -0.0000
  1 C      5.9166     6.0000     0.0834     3.9227     3.9227     0.0000
  2 N      7.1407     7.0000    -0.1407     3.1043     3.1043    -0.0000
  3 C      5.9528     6.0000     0.0472     3.9759     3.9759    -0.0000
  4 C      5.9925     6.0000     0.0075     3.8498     3.8498    -0.0000
  5 C      6.0275     6.0000    -0.0275     3.8468     3.8468    -0.0000
  6 C      6.0078     6.0000    -0.0078     3.8324     3.8324    -0.0000
  7 C      6.0275     6.0000    -0.0275     3.8697     3.8697    -0.0000
  8 C      6.0264     6.0000    -0.0264     3.8459     3.8459    -0.0000
  9 H      0.9826     1.0000     0.0174     0.9937     0.9937    -0.0000
 10 H      0.9763     1.0000     0.0237     0.9816     0.9816    -0.0000
 11 H      0.9755     1.0000     0.0245     0.9816     0.9816    -0.0000
 12 H      0.9752     1.0000     0.0248     0.9814     0.9814    -0.0000
 13 H      0.9872     1.0000     0.0128     1.0014     1.0014    -0.0000
 14 C      6.0397     6.0000    -0.0397     3.9744     3.9744    -0.0000
 15 N      7.1527     7.0000    -0.1527     3.1672     3.1672    -0.0000
 16 C      5.9458     6.0000     0.0542     3.9949     3.9949    -0.0000
 17 C      6.0319     6.0000    -0.0319     3.8323     3.8323    -0.0000
 18 C      5.9712     6.0000     0.0288     3.8753     3.8753    -0.0000
 19 C      5.9906     6.0000     0.0094     3.8780     3.8780    -0.0000
 20 H      0.9622     1.0000     0.0378     1.0152     1.0152     0.0000
 21 H      0.9684     1.0000     0.0316     0.9922     0.9922    -0.0000
 22 C      6.0319     6.0000    -0.0319     3.8322     3.8322    -0.0000
 23 C      5.9458     6.0000     0.0542     3.9949     3.9949    -0.0000
 24 N      7.1527     7.0000    -0.1527     3.1672     3.1672     0.0000
 25 C      6.0397     6.0000    -0.0397     3.9744     3.9744    -0.0000
 26 C      5.9905     6.0000     0.0095     3.8779     3.8779    -0.0000
 27 C      5.9713     6.0000     0.0287     3.8753     3.8753    -0.0000
 28 H      0.9684     1.0000     0.0316     0.9922     0.9922    -0.0000
 29 H      0.9622     1.0000     0.0378     1.0152     1.0152     0.0000
 30 C      5.9166     6.0000     0.0834     3.9227     3.9227     0.0000
 31 N      7.1407     7.0000    -0.1407     3.1042     3.1042     0.0000
 32 C      5.9529     6.0000     0.0471     3.9758     3.9758    -0.0000
 33 C      5.9925     6.0000     0.0075     3.8499     3.8499    -0.0000
 34 C      6.0275     6.0000    -0.0275     3.8468     3.8468    -0.0000
 35 C      6.0078     6.0000    -0.0078     3.8323     3.8323    -0.0000
 36 C      6.0275     6.0000    -0.0275     3.8696     3.8696    -0.0000
 37 C      6.0263     6.0000    -0.0263     3.8459     3.8459    -0.0000
 38 H      0.9826     1.0000     0.0174     0.9937     0.9937    -0.0000
 39 H      0.9763     1.0000     0.0237     0.9816     0.9816    -0.0000
 40 H      0.9755     1.0000     0.0245     0.9816     0.9816    -0.0000
 41 H      0.9752     1.0000     0.0248     0.9814     0.9814    -0.0000
 42 H      0.9872     1.0000     0.0128     1.0014     1.0014    -0.0000
 43 H      0.9827     1.0000     0.0173     1.0174     1.0174    -0.0000
 44 H      0.9662     1.0000     0.0338     0.9950     0.9950     0.0000
 45 H      0.9662     1.0000     0.0338     0.9950     0.9950     0.0000

  Mayer bond orders larger than 0.100000
B(  0-H ,  1-C ) :   0.9360 B(  1-C ,  2-N ) :   1.8827 B(  1-C , 14-C ) :   1.0318 
B(  2-N ,  3-C ) :   1.1158 B(  3-C ,  4-C ) :   1.3672 B(  3-C ,  8-C ) :   1.3344 
B(  4-C ,  5-C ) :   1.3897 B(  4-C , 13-H ) :   0.9886 B(  5-C ,  6-C ) :   1.3807 
B(  5-C , 12-H ) :   0.9825 B(  6-C ,  7-C ) :   1.3872 B(  6-C , 11-H ) :   0.9869 
B(  7-C ,  8-C ) :   1.3952 B(  7-C , 10-H ) :   0.9802 B(  8-C ,  9-H ) :   0.9843 
B( 14-C , 15-N ) :   1.4810 B( 14-C , 19-C ) :   1.3553 B( 15-N , 16-C ) :   1.5471 
B( 16-C , 17-C ) :   1.3390 B( 16-C , 45-H ) :   0.9742 B( 17-C , 18-C ) :   1.3716 
B( 17-C , 22-C ) :   1.0116 B( 18-C , 19-C ) :   1.4240 B( 18-C , 21-H ) :   0.9782 
B( 19-C , 20-H ) :   0.9618 B( 22-C , 23-C ) :   1.3390 B( 22-C , 27-C ) :   1.3716 
B( 23-C , 24-N ) :   1.5470 B( 23-C , 44-H ) :   0.9742 B( 24-N , 25-C ) :   1.4810 
B( 25-C , 26-C ) :   1.3552 B( 25-C , 30-C ) :   1.0318 B( 26-C , 27-C ) :   1.4240 
B( 26-C , 29-H ) :   0.9618 B( 27-C , 28-H ) :   0.9783 B( 30-C , 31-N ) :   1.8828 
B( 30-C , 43-H ) :   0.9360 B( 31-N , 32-C ) :   1.1156 B( 32-C , 33-C ) :   1.3672 
B( 32-C , 37-C ) :   1.3344 B( 33-C , 34-C ) :   1.3897 B( 33-C , 42-H ) :   0.9886 
B( 34-C , 35-C ) :   1.3807 B( 34-C , 41-H ) :   0.9825 B( 35-C , 36-C ) :   1.3872 
B( 35-C , 40-H ) :   0.9869 B( 36-C , 37-C ) :   1.3951 B( 36-C , 39-H ) :   0.9802 
B( 37-C , 38-H ) :   0.9843 

-------
TIMINGS
-------

Total SCF time: 0 days 0 hours 0 min 29 sec 

Total time                  ....      29.627 sec
Sum of individual times     ....      28.229 sec  ( 95.3%)

Fock matrix formation       ....      14.318 sec  ( 48.3%)
  Split-RI-J                ....       3.300 sec  ( 23.0% of F)
  Chain of spheres X        ....       5.169 sec  ( 36.1% of F)
  COS-X 1 center corr.      ....       0.000 sec  (  0.0% of F)
  XC integration            ....       3.660 sec  ( 25.6% of F)
    Basis function eval.    ....       0.116 sec  (  3.2% of XC)
    Density eval.           ....       0.168 sec  (  4.6% of XC)
    XC-Functional eval.     ....       0.044 sec  (  1.2% of XC)
    XC-Potential eval.      ....       0.071 sec  (  1.9% of XC)
Diagonalization             ....       0.312 sec  (  1.1%)
Density matrix formation    ....       0.188 sec  (  0.6%)
Population analysis         ....       0.414 sec  (  1.4%)
Initial guess               ....       0.245 sec  (  0.8%)
Orbital Transformation      ....       0.000 sec  (  0.0%)
Orbital Orthonormalization  ....       0.197 sec  (  0.7%)
DIIS solution               ....       0.125 sec  (  0.4%)
SOSCF solution              ....       2.321 sec  (  7.8%)
Grid generation             ....      10.306 sec  ( 34.8%)


-------------------------------------------------------------------------------
                          DFT DISPERSION CORRECTION                            
                                                                               
                                 DFTD4 V2.0                                    
-------------------------------------------------------------------------------
The PBE0 functional is recognized
Active option DFTDOPT                   ...         5   

-------------------------   ----------------
Dispersion correction           -0.053497368
-------------------------   ----------------


-------------------------   --------------------
FINAL SINGLE POINT ENERGY     -1142.288303732979
-------------------------   --------------------

                                *** OPTIMIZATION RUN DONE ***

                            ***************************************
                            *     ORCA property calculations      *
                            ***************************************

                                    ---------------------
                                    Active property flags
                                    ---------------------
   (+) Dipole Moment


------------------------------------------------------------------------------
                       ORCA ELECTRIC PROPERTIES CALCULATION
------------------------------------------------------------------------------

Dipole Moment Calculation                       ... on
Quadrupole Moment Calculation                   ... off
Polarizability Calculation                      ... off
GBWName                                         ... _longC.gbw
Electron density file                           ... _longC.scfp
The origin for moment calculation is the CENTER OF MASS  = (-0.000000, -0.000222 -0.000718)

-------------
DIPOLE MOMENT
-------------
                                X             Y             Z
Electronic contribution:     -0.00046       0.00388       0.26389
Nuclear contribution   :     -0.00030      -0.00369      -0.37126
                        -----------------------------------------
Total Dipole Moment    :     -0.00076       0.00020      -0.10737
                        -----------------------------------------
Magnitude (a.u.)       :      0.10737
Magnitude (Debye)      :      0.27292



--------------------
Rotational spectrum 
--------------------
 
Rotational constants in cm-1:     0.045136     0.001207     0.001197 
Rotational constants in MHz :  1353.141055    36.187842    35.881069 

 Dipole components along the rotational axes: 
x,y,z [a.u.] :    -0.000764    -0.000338    -0.107371 
x,y,z [Debye]:    -0.001941    -0.000859    -0.272914 

 

Timings for individual modules:

Sum of individual times         ...      408.627 sec (=   6.810 min)
GTO integral calculation        ...       28.893 sec (=   0.482 min)   7.1 %
SCF iterations                  ...      316.294 sec (=   5.272 min)  77.4 %
SCF Gradient evaluation         ...       54.290 sec (=   0.905 min)  13.3 %
Geometry relaxation             ...        9.150 sec (=   0.153 min)   2.2 %
                             ****ORCA TERMINATED NORMALLY****
TOTAL RUN TIME: 0 days 0 hours 7 minutes 44 seconds 70 msec
