 Entering Gaussian System, Link 0=g16
 Initial command:
 /apps/gaussian/g16-c01-avx/g16/l1.exe "/rds/general/ephemeral/user/atarzia/ephemeral/unsymm/single_point_dft/s_4b3_b/Gau-2921005.inp" -scrdir="/rds/general/ephemeral/user/atarzia/ephemeral/unsymm/single_point_dft/s_4b3_b/"
 Entering Link 1 = /apps/gaussian/g16-c01-avx/g16/l1.exe PID=   2921006.
  
 Copyright (c) 1988-2019, Gaussian, Inc.  All Rights Reserved.
  
 This is part of the Gaussian(R) 16 program.  It is based on
 the Gaussian(R) 09 system (copyright 2009, Gaussian, Inc.),
 the Gaussian(R) 03 system (copyright 2003, Gaussian, Inc.),
 the Gaussian(R) 98 system (copyright 1998, Gaussian, Inc.),
 the Gaussian(R) 94 system (copyright 1995, Gaussian, Inc.),
 the Gaussian 92(TM) system (copyright 1992, Gaussian, Inc.),
 the Gaussian 90(TM) system (copyright 1990, Gaussian, Inc.),
 the Gaussian 88(TM) system (copyright 1988, Gaussian, Inc.),
 the Gaussian 86(TM) system (copyright 1986, Carnegie Mellon
 University), and the Gaussian 82(TM) system (copyright 1983,
 Carnegie Mellon University). Gaussian is a federally registered
 trademark of Gaussian, Inc.
  
 This software contains proprietary and confidential information,
 including trade secrets, belonging to Gaussian, Inc.
  
 This software is provided under written license and may be
 used, copied, transmitted, or stored only in accord with that
 written license.
  
 The following legend is applicable only to US Government
 contracts under FAR:
  
                    RESTRICTED RIGHTS LEGEND
  
 Use, reproduction and disclosure by the US Government is
 subject to restrictions as set forth in subparagraphs (a)
 and (c) of the Commercial Computer Software - Restricted
 Rights clause in FAR 52.227-19.
  
 Gaussian, Inc.
 340 Quinnipiac St., Bldg. 40, Wallingford CT 06492
  
  
 ---------------------------------------------------------------
 Warning -- This program may not be used in any manner that
 competes with the business of Gaussian, Inc. or will provide
 assistance to any competitor of Gaussian, Inc.  The licensee
 of this program is prohibited from giving any competitor of
 Gaussian, Inc. access to this program.  By using this program,
 the user acknowledges that Gaussian, Inc. is engaged in the
 business of creating and licensing software in the field of
 computational chemistry and represents and warrants to the
 licensee that it is not a competitor of Gaussian, Inc. and that
 it will not use this program in any manner prohibited above.
 ---------------------------------------------------------------
  

 Cite this work as:
 Gaussian 16, Revision C.01,
 M. J. Frisch, G. W. Trucks, H. B. Schlegel, G. E. Scuseria, 
 M. A. Robb, J. R. Cheeseman, G. Scalmani, V. Barone, 
 G. A. Petersson, H. Nakatsuji, X. Li, M. Caricato, A. V. Marenich, 
 J. Bloino, B. G. Janesko, R. Gomperts, B. Mennucci, H. P. Hratchian, 
 J. V. Ortiz, A. F. Izmaylov, J. L. Sonnenberg, D. Williams-Young, 
 F. Ding, F. Lipparini, F. Egidi, J. Goings, B. Peng, A. Petrone, 
 T. Henderson, D. Ranasinghe, V. G. Zakrzewski, J. Gao, N. Rega, 
 G. Zheng, W. Liang, M. Hada, M. Ehara, K. Toyota, R. Fukuda, 
 J. Hasegawa, M. Ishida, T. Nakajima, Y. Honda, O. Kitao, H. Nakai, 
 T. Vreven, K. Throssell, J. A. Montgomery, Jr., J. E. Peralta, 
 F. Ogliaro, M. J. Bearpark, J. J. Heyd, E. N. Brothers, K. N. Kudin, 
 V. N. Staroverov, T. A. Keith, R. Kobayashi, J. Normand, 
 K. Raghavachari, A. P. Rendell, J. C. Burant, S. S. Iyengar, 
 J. Tomasi, M. Cossi, J. M. Millam, M. Klene, C. Adamo, R. Cammi, 
 J. W. Ochterski, R. L. Martin, K. Morokuma, O. Farkas, 
 J. B. Foresman, and D. J. Fox, Gaussian, Inc., Wallingford CT, 2019.
 
 ******************************************
 Gaussian 16:  ES64L-G16RevC.01  3-Jul-2019
                26-Feb-2021 
 ******************************************
 %chk=_s_4b3_b.chk
 %mem=60000mb
 %nprocshared=32
 Will use up to   32 processors via shared memory.
 ----------------------------------------------------------------------
 #P PBE1PBE/Def2SVP SP SCF=(YQC,MaxCycle=900) int=(Grid=Superfinegrid) 
 EmpiricalDispersion=GD3BJ SCRF=(PCM,Solvent=DiMethylSulfoxide)
 ----------------------------------------------------------------------
 1/38=1,172=1/1;
 2/12=2,17=6,18=5,40=1/2;
 3/5=43,7=101,11=2,25=1,30=1,70=2201,72=21,74=-13,75=-7,124=41/1,2,3;
 4//1;
 5/5=2,7=900,8=4,13=1,38=1,53=21/8,2,8;
 6/7=2,8=2,9=2,10=2,28=1/1;
 99/5=1,9=1/99;
 Leave Link    1 at Fri Feb 26 10:27:02 2021, MaxMem=  7864320000 cpu:               5.0 elap:               0.2
 (Enter /apps/gaussian/g16-c01-avx/g16/l101.exe)
 --------
 _s_4b3_b
 --------
 Symbolic Z-matrix:
 Charge =  4 Multiplicity = 1
 Pd                   -0.7812    6.4605    0.7711 
 Pd                    2.9713   -6.9176   -0.2942 
 C                     6.5996   -2.4276    1.2508 
 C                     7.0992   -3.5282    1.1919 
 C                     7.7131   -4.7931    1.1348 
 C                     9.0597   -4.9295    1.4199 
 C                     9.6821   -6.1815    1.3736 
 C                     8.977    -7.3124    1.0434 
 C                     7.6059   -7.2226    0.7411 
 C                     6.8206   -8.3447    0.3898 
 C                     5.4952   -8.1857    0.1031 
 N                     4.896    -6.9699    0.1418 
 C                     5.5931   -5.9003    0.4672 
 C                     6.9589   -5.9535    0.7832 
 H                     9.6369   -4.0569    1.6849 
 H                     10.7343  -6.251     1.6037 
 H                     9.4621   -8.2753    1.011 
 H                     7.2795   -9.3197    0.351 
 H                     4.857    -9.0255   -0.1709 
 H                     5.0702   -4.9461    0.4825 
 C                     6.0061   -1.1514    1.3025 
 C                     4.6129   -1.0216    1.3474 
 C                     4.0323    0.2262    1.3787 
 C                     4.8335    1.374     1.366 
 C                     6.2269    1.2462    1.3344 
 C                     6.8069   -0.0033    1.3029 
 H                     4.0004   -1.9093    1.3633 
 H                     2.959     0.3305    1.4149 
 H                     6.8452    2.131     1.3307 
 H                     7.8813   -0.1041    1.2743 
 C                     4.2378    2.6495    1.3812 
 C                     3.7011    3.7332    1.3851 
 C                     3.108     5.0098    1.3974 
 C                     3.8693    6.1603    1.6512 
 C                     3.243     7.3928    1.6563 
 C                     1.8802    7.4622    1.4065 
 N                     1.1593    6.3665    1.1611 
 C                     1.7401    5.1666    1.1552 
 H                     4.9279    6.074     1.8407 
 H                     3.8014    8.2941    1.8509 
 H                     1.3513    8.4108    1.4019 
 H                     1.0959    4.3103    0.9514 
 C                    -1.2181    1.759     4.9737 
 C                    -1.5842    2.8912    5.1936 
 C                    -1.9803    4.1742    5.6176 
 C                    -2.4999    4.3228    6.8921 
 C                    -2.8308    5.5838    7.3962 
 C                    -2.6338    6.7154    6.6444 
 C                    -2.1244    6.6097    5.3382 
 C                    -1.893     7.7376    4.5186 
 C                    -1.4307    7.5679    3.2477 
 N                    -1.2043    6.3366    2.7179 
 C                    -1.3763    5.2627    3.4617 
 C                    -1.8142    5.3282    4.7959 
 H                    -2.6359    3.4492    7.5111 
 H                    -3.2309    5.6611    8.3955 
 H                    -2.8661    7.6908    7.0418 
 H                    -2.0865    8.7241    4.9086 
 H                    -1.2219    8.4212    2.6001 
 H                    -1.1749    4.3012    2.9992 
 C                    -0.7621    0.4461    4.7405 
 C                     0.4792    0.2275    4.1324 
 C                     0.9374   -1.0571    3.9415 
 C                     0.1621   -2.1491    4.3499 
 C                    -1.0747   -1.9306    4.9661 
 C                    -1.5318   -0.645     5.1597 
 H                     1.0791    1.0729    3.8338 
 H                     1.9009   -1.2306    3.488 
 H                    -1.6691   -2.7729    5.2859 
 H                    -2.4851   -0.4727    5.6357 
 C                     0.6161   -3.4581    4.0967 
 C                     0.9993   -4.5748    3.834 
 C                     1.4209   -5.8397    3.3805 
 C                     1.1211   -7.0381    4.0434 
 C                     1.5181   -8.2345    3.4733 
 C                     2.1712   -8.2274    2.2478 
 N                     2.4595   -7.0854    1.6225 
 C                     2.1222   -5.9199    2.1754 
 H                     0.5849   -7.0186    4.9794 
 H                     1.3078   -9.1718    3.9626 
 H                     2.4725   -9.1439    1.7522 
 H                     2.4101   -5.0133    1.6397 
 C                    -4.3417    1.751    -0.5058 
 C                    -4.8199    2.8619   -0.4625 
 C                    -5.4703    4.1086   -0.4343 
 C                    -6.8298    4.1679   -0.6882 
 C                    -7.5173    5.3851   -0.6672 
 C                    -6.8622    6.5599   -0.3937 
 C                    -5.4801    6.5489   -0.1321 
 C                    -4.7489    7.7228    0.1543 
 C                    -3.4088    7.6459    0.3976 
 N                    -2.737     6.4696    0.3734 
 C                    -3.3848    5.3499    0.1105 
 C                    -4.7637    5.3164   -0.1507 
 H                    -7.3668    3.2569   -0.9039 
 H                    -8.5774    5.3922   -0.8693 
 H                    -7.3935    7.4984   -0.3767 
 H                    -5.2584    8.6727    0.1781 
 H                    -2.8238    8.5329    0.6217 
 H                    -2.8019    4.4304    0.1001 
 C                    -3.7992    0.4538   -0.5722 
 C                    -4.5854   -0.5942   -1.0684 
 C                    -4.0707   -1.8692   -1.1511 
 C                    -2.7575   -2.1214   -0.7391 
 C                    -1.9741   -1.0755   -0.2349 
 C                    -2.4888    0.1985   -0.1519 
 H                    -5.5969   -0.3945   -1.3883 
 H                    -4.6759   -2.6759   -1.5362 
 H                    -0.9662   -1.2812    0.087 
 H                    -1.8901    1.0053    0.2396 
 C                    -2.2064   -3.4128   -0.8314 
 C                    -1.7035   -4.51     -0.9086 
 C                    -1.0376   -5.7474   -0.9739 
 C                    -1.6798   -6.9488   -1.3031 
 C                    -0.9385   -8.117    -1.3372 
 C                     0.4167   -8.0756   -1.0455 
 N                     1.0256   -6.9273   -0.734 
 C                     0.3314   -5.7929   -0.6975 
 H                    -2.7358   -6.9542   -1.524 
 H                    -1.4052   -9.0562   -1.5868 
 H                     1.0388   -8.9671   -1.0576 
 H                     0.8724   -4.8846   -0.4422 
 C                     0.8858    3.0567   -4.3354 
 C                     0.5899    4.2301   -4.3636 
 C                     0.3419    5.6021   -4.5516 
 C                     0.4384    6.1207   -5.8327 
 C                     0.2743    7.4864   -6.077 
 C                     0.0286    8.3592   -5.0461 
 C                    -0.0883    7.876    -3.7312 
 C                    -0.3265    8.7283   -2.6293 
 C                    -0.4539    8.1998   -1.3797 
 N                    -0.3871    6.8617   -1.1478 
 C                    -0.1405    6.0375   -2.1462 
 C                     0.0429    6.4809   -3.4676 
 H                     0.6564    5.4558   -6.6543 
 H                     0.357     7.8531   -7.0886 
 H                    -0.0765    9.4168   -5.2299 
 H                    -0.4036    9.7918   -2.7897 
 H                    -0.6155    8.8376   -0.5086 
 H                    -0.0894    4.9785   -1.9138 
 C                     1.2642    1.7011   -4.3022 
 C                     1.5631    1.0701   -3.0893 
 C                     1.9654   -0.2456   -3.0785 
 C                     2.075    -0.9622   -4.2774 
 C                     1.7752   -0.3333   -5.4903 
 C                     1.3747    0.9853   -5.5014 
 H                     1.4859    1.6265   -2.1694 
 H                     2.2044   -0.7375   -2.1498 
 H                     1.8602   -0.8833   -6.4153 
 H                     1.1452    1.4744   -6.436 
 C                     2.4674   -2.3127   -4.2239 
 C                     2.7871   -3.4742   -4.1142 
 C                     3.0751   -4.829    -3.8648 
 C                     3.2156   -5.792    -4.8741 
 C                     3.4236   -7.1116   -4.5143 
 C                     3.4597   -7.459    -3.1703 
 N                     3.3361   -6.5391   -2.2126 
 C                     3.1722   -5.2568   -2.5379 
 H                     3.1539   -5.5014   -5.9113 
 H                     3.5394   -7.8739   -5.2677 
 H                     3.5909   -8.4859   -2.8465 
 H                     3.1116   -4.5372   -1.7192 
 
 ITRead=  0  0  0  0  0  0  0  0  0  0  0  0  0  0  0  0  0  0  0  0
 ITRead=  0  0  0  0  0  0  0  0  0  0  0  0  0  0  0  0  0  0  0  0
 ITRead=  0  0  0  0  0  0  0  0  0  0  0  0  0  0  0  0  0  0  0  0
 ITRead=  0  0  0  0  0  0  0  0  0  0  0  0  0  0  0  0  0  0  0  0
 ITRead=  0  0  0  0  0  0  0  0  0  0  0  0  0  0  0  0  0  0  0  0
 ITRead=  0  0  0  0  0  0  0  0  0  0  0  0  0  0  0  0  0  0  0  0
 ITRead=  0  0  0  0  0  0  0  0  0  0  0  0  0  0  0  0  0  0  0  0
 ITRead=  0  0  0  0  0  0  0  0  0  0  0  0  0  0  0  0  0  0  0  0
 ITRead=  0  0
 MicOpt= -1 -1 -1 -1 -1 -1 -1 -1 -1 -1 -1 -1 -1 -1 -1 -1 -1 -1 -1 -1
 MicOpt= -1 -1 -1 -1 -1 -1 -1 -1 -1 -1 -1 -1 -1 -1 -1 -1 -1 -1 -1 -1
 MicOpt= -1 -1 -1 -1 -1 -1 -1 -1 -1 -1 -1 -1 -1 -1 -1 -1 -1 -1 -1 -1
 MicOpt= -1 -1 -1 -1 -1 -1 -1 -1 -1 -1 -1 -1 -1 -1 -1 -1 -1 -1 -1 -1
 MicOpt= -1 -1 -1 -1 -1 -1 -1 -1 -1 -1 -1 -1 -1 -1 -1 -1 -1 -1 -1 -1
 MicOpt= -1 -1 -1 -1 -1 -1 -1 -1 -1 -1 -1 -1 -1 -1 -1 -1 -1 -1 -1 -1
 MicOpt= -1 -1 -1 -1 -1 -1 -1 -1 -1 -1 -1 -1 -1 -1 -1 -1 -1 -1 -1 -1
 MicOpt= -1 -1 -1 -1 -1 -1 -1 -1 -1 -1 -1 -1 -1 -1 -1 -1 -1 -1 -1 -1
 MicOpt= -1 -1
 NAtoms=    162 NQM=      162 NQMF=       0 NMMI=      0 NMMIF=      0
                NMic=       0 NMicF=      0.
                    Isotopes and Nuclear Properties:
 (Nuclear quadrupole moments (NQMom) in fm**2, nuclear magnetic moments (NMagM)
  in nuclear magnetons)

  Atom         1           2           3           4           5           6           7           8           9          10
 IAtWgt=         106         106          12          12          12          12          12          12          12          12
 AtmWgt= 105.9032000 105.9032000  12.0000000  12.0000000  12.0000000  12.0000000  12.0000000  12.0000000  12.0000000  12.0000000
 NucSpn=           0           0           0           0           0           0           0           0           0           0
 AtZEff=  -0.0000000  -0.0000000  -0.0000000  -0.0000000  -0.0000000  -0.0000000  -0.0000000  -0.0000000  -0.0000000  -0.0000000
 NQMom=    0.0000000   0.0000000   0.0000000   0.0000000   0.0000000   0.0000000   0.0000000   0.0000000   0.0000000   0.0000000
 NMagM=    0.0000000   0.0000000   0.0000000   0.0000000   0.0000000   0.0000000   0.0000000   0.0000000   0.0000000   0.0000000
 AtZNuc=  46.0000000  46.0000000   6.0000000   6.0000000   6.0000000   6.0000000   6.0000000   6.0000000   6.0000000   6.0000000

  Atom        11          12          13          14          15          16          17          18          19          20
 IAtWgt=          12          14          12          12           1           1           1           1           1           1
 AtmWgt=  12.0000000  14.0030740  12.0000000  12.0000000   1.0078250   1.0078250   1.0078250   1.0078250   1.0078250   1.0078250
 NucSpn=           0           2           0           0           1           1           1           1           1           1
 AtZEff=  -0.0000000  -0.0000000  -0.0000000  -0.0000000  -0.0000000  -0.0000000  -0.0000000  -0.0000000  -0.0000000  -0.0000000
 NQMom=    0.0000000   2.0440000   0.0000000   0.0000000   0.0000000   0.0000000   0.0000000   0.0000000   0.0000000   0.0000000
 NMagM=    0.0000000   0.4037610   0.0000000   0.0000000   2.7928460   2.7928460   2.7928460   2.7928460   2.7928460   2.7928460
 AtZNuc=   6.0000000   7.0000000   6.0000000   6.0000000   1.0000000   1.0000000   1.0000000   1.0000000   1.0000000   1.0000000

  Atom        21          22          23          24          25          26          27          28          29          30
 IAtWgt=          12          12          12          12          12          12           1           1           1           1
 AtmWgt=  12.0000000  12.0000000  12.0000000  12.0000000  12.0000000  12.0000000   1.0078250   1.0078250   1.0078250   1.0078250
 NucSpn=           0           0           0           0           0           0           1           1           1           1
 AtZEff=  -0.0000000  -0.0000000  -0.0000000  -0.0000000  -0.0000000  -0.0000000  -0.0000000  -0.0000000  -0.0000000  -0.0000000
 NQMom=    0.0000000   0.0000000   0.0000000   0.0000000   0.0000000   0.0000000   0.0000000   0.0000000   0.0000000   0.0000000
 NMagM=    0.0000000   0.0000000   0.0000000   0.0000000   0.0000000   0.0000000   2.7928460   2.7928460   2.7928460   2.7928460
 AtZNuc=   6.0000000   6.0000000   6.0000000   6.0000000   6.0000000   6.0000000   1.0000000   1.0000000   1.0000000   1.0000000

  Atom        31          32          33          34          35          36          37          38          39          40
 IAtWgt=          12          12          12          12          12          12          14          12           1           1
 AtmWgt=  12.0000000  12.0000000  12.0000000  12.0000000  12.0000000  12.0000000  14.0030740  12.0000000   1.0078250   1.0078250
 NucSpn=           0           0           0           0           0           0           2           0           1           1
 AtZEff=  -0.0000000  -0.0000000  -0.0000000  -0.0000000  -0.0000000  -0.0000000  -0.0000000  -0.0000000  -0.0000000  -0.0000000
 NQMom=    0.0000000   0.0000000   0.0000000   0.0000000   0.0000000   0.0000000   2.0440000   0.0000000   0.0000000   0.0000000
 NMagM=    0.0000000   0.0000000   0.0000000   0.0000000   0.0000000   0.0000000   0.4037610   0.0000000   2.7928460   2.7928460
 AtZNuc=   6.0000000   6.0000000   6.0000000   6.0000000   6.0000000   6.0000000   7.0000000   6.0000000   1.0000000   1.0000000

  Atom        41          42          43          44          45          46          47          48          49          50
 IAtWgt=           1           1          12          12          12          12          12          12          12          12
 AtmWgt=   1.0078250   1.0078250  12.0000000  12.0000000  12.0000000  12.0000000  12.0000000  12.0000000  12.0000000  12.0000000
 NucSpn=           1           1           0           0           0           0           0           0           0           0
 AtZEff=  -0.0000000  -0.0000000  -0.0000000  -0.0000000  -0.0000000  -0.0000000  -0.0000000  -0.0000000  -0.0000000  -0.0000000
 NQMom=    0.0000000   0.0000000   0.0000000   0.0000000   0.0000000   0.0000000   0.0000000   0.0000000   0.0000000   0.0000000
 NMagM=    2.7928460   2.7928460   0.0000000   0.0000000   0.0000000   0.0000000   0.0000000   0.0000000   0.0000000   0.0000000
 AtZNuc=   1.0000000   1.0000000   6.0000000   6.0000000   6.0000000   6.0000000   6.0000000   6.0000000   6.0000000   6.0000000

  Atom        51          52          53          54          55          56          57          58          59          60
 IAtWgt=          12          14          12          12           1           1           1           1           1           1
 AtmWgt=  12.0000000  14.0030740  12.0000000  12.0000000   1.0078250   1.0078250   1.0078250   1.0078250   1.0078250   1.0078250
 NucSpn=           0           2           0           0           1           1           1           1           1           1
 AtZEff=  -0.0000000  -0.0000000  -0.0000000  -0.0000000  -0.0000000  -0.0000000  -0.0000000  -0.0000000  -0.0000000  -0.0000000
 NQMom=    0.0000000   2.0440000   0.0000000   0.0000000   0.0000000   0.0000000   0.0000000   0.0000000   0.0000000   0.0000000
 NMagM=    0.0000000   0.4037610   0.0000000   0.0000000   2.7928460   2.7928460   2.7928460   2.7928460   2.7928460   2.7928460
 AtZNuc=   6.0000000   7.0000000   6.0000000   6.0000000   1.0000000   1.0000000   1.0000000   1.0000000   1.0000000   1.0000000

  Atom        61          62          63          64          65          66          67          68          69          70
 IAtWgt=          12          12          12          12          12          12           1           1           1           1
 AtmWgt=  12.0000000  12.0000000  12.0000000  12.0000000  12.0000000  12.0000000   1.0078250   1.0078250   1.0078250   1.0078250
 NucSpn=           0           0           0           0           0           0           1           1           1           1
 AtZEff=  -0.0000000  -0.0000000  -0.0000000  -0.0000000  -0.0000000  -0.0000000  -0.0000000  -0.0000000  -0.0000000  -0.0000000
 NQMom=    0.0000000   0.0000000   0.0000000   0.0000000   0.0000000   0.0000000   0.0000000   0.0000000   0.0000000   0.0000000
 NMagM=    0.0000000   0.0000000   0.0000000   0.0000000   0.0000000   0.0000000   2.7928460   2.7928460   2.7928460   2.7928460
 AtZNuc=   6.0000000   6.0000000   6.0000000   6.0000000   6.0000000   6.0000000   1.0000000   1.0000000   1.0000000   1.0000000

  Atom        71          72          73          74          75          76          77          78          79          80
 IAtWgt=          12          12          12          12          12          12          14          12           1           1
 AtmWgt=  12.0000000  12.0000000  12.0000000  12.0000000  12.0000000  12.0000000  14.0030740  12.0000000   1.0078250   1.0078250
 NucSpn=           0           0           0           0           0           0           2           0           1           1
 AtZEff=  -0.0000000  -0.0000000  -0.0000000  -0.0000000  -0.0000000  -0.0000000  -0.0000000  -0.0000000  -0.0000000  -0.0000000
 NQMom=    0.0000000   0.0000000   0.0000000   0.0000000   0.0000000   0.0000000   2.0440000   0.0000000   0.0000000   0.0000000
 NMagM=    0.0000000   0.0000000   0.0000000   0.0000000   0.0000000   0.0000000   0.4037610   0.0000000   2.7928460   2.7928460
 AtZNuc=   6.0000000   6.0000000   6.0000000   6.0000000   6.0000000   6.0000000   7.0000000   6.0000000   1.0000000   1.0000000

  Atom        81          82          83          84          85          86          87          88          89          90
 IAtWgt=           1           1          12          12          12          12          12          12          12          12
 AtmWgt=   1.0078250   1.0078250  12.0000000  12.0000000  12.0000000  12.0000000  12.0000000  12.0000000  12.0000000  12.0000000
 NucSpn=           1           1           0           0           0           0           0           0           0           0
 AtZEff=  -0.0000000  -0.0000000  -0.0000000  -0.0000000  -0.0000000  -0.0000000  -0.0000000  -0.0000000  -0.0000000  -0.0000000
 NQMom=    0.0000000   0.0000000   0.0000000   0.0000000   0.0000000   0.0000000   0.0000000   0.0000000   0.0000000   0.0000000
 NMagM=    2.7928460   2.7928460   0.0000000   0.0000000   0.0000000   0.0000000   0.0000000   0.0000000   0.0000000   0.0000000
 AtZNuc=   1.0000000   1.0000000   6.0000000   6.0000000   6.0000000   6.0000000   6.0000000   6.0000000   6.0000000   6.0000000

  Atom        91          92          93          94          95          96          97          98          99         100
 IAtWgt=          12          14          12          12           1           1           1           1           1           1
 AtmWgt=  12.0000000  14.0030740  12.0000000  12.0000000   1.0078250   1.0078250   1.0078250   1.0078250   1.0078250   1.0078250
 NucSpn=           0           2           0           0           1           1           1           1           1           1
 AtZEff=  -0.0000000  -0.0000000  -0.0000000  -0.0000000  -0.0000000  -0.0000000  -0.0000000  -0.0000000  -0.0000000  -0.0000000
 NQMom=    0.0000000   2.0440000   0.0000000   0.0000000   0.0000000   0.0000000   0.0000000   0.0000000   0.0000000   0.0000000
 NMagM=    0.0000000   0.4037610   0.0000000   0.0000000   2.7928460   2.7928460   2.7928460   2.7928460   2.7928460   2.7928460
 AtZNuc=   6.0000000   7.0000000   6.0000000   6.0000000   1.0000000   1.0000000   1.0000000   1.0000000   1.0000000   1.0000000

  Atom       101         102         103         104         105         106         107         108         109         110
 IAtWgt=          12          12          12          12          12          12           1           1           1           1
 AtmWgt=  12.0000000  12.0000000  12.0000000  12.0000000  12.0000000  12.0000000   1.0078250   1.0078250   1.0078250   1.0078250
 NucSpn=           0           0           0           0           0           0           1           1           1           1
 AtZEff=  -0.0000000  -0.0000000  -0.0000000  -0.0000000  -0.0000000  -0.0000000  -0.0000000  -0.0000000  -0.0000000  -0.0000000
 NQMom=    0.0000000   0.0000000   0.0000000   0.0000000   0.0000000   0.0000000   0.0000000   0.0000000   0.0000000   0.0000000
 NMagM=    0.0000000   0.0000000   0.0000000   0.0000000   0.0000000   0.0000000   2.7928460   2.7928460   2.7928460   2.7928460
 AtZNuc=   6.0000000   6.0000000   6.0000000   6.0000000   6.0000000   6.0000000   1.0000000   1.0000000   1.0000000   1.0000000

  Atom       111         112         113         114         115         116         117         118         119         120
 IAtWgt=          12          12          12          12          12          12          14          12           1           1
 AtmWgt=  12.0000000  12.0000000  12.0000000  12.0000000  12.0000000  12.0000000  14.0030740  12.0000000   1.0078250   1.0078250
 NucSpn=           0           0           0           0           0           0           2           0           1           1
 AtZEff=  -0.0000000  -0.0000000  -0.0000000  -0.0000000  -0.0000000  -0.0000000  -0.0000000  -0.0000000  -0.0000000  -0.0000000
 NQMom=    0.0000000   0.0000000   0.0000000   0.0000000   0.0000000   0.0000000   2.0440000   0.0000000   0.0000000   0.0000000
 NMagM=    0.0000000   0.0000000   0.0000000   0.0000000   0.0000000   0.0000000   0.4037610   0.0000000   2.7928460   2.7928460
 AtZNuc=   6.0000000   6.0000000   6.0000000   6.0000000   6.0000000   6.0000000   7.0000000   6.0000000   1.0000000   1.0000000

  Atom       121         122         123         124         125         126         127         128         129         130
 IAtWgt=           1           1          12          12          12          12          12          12          12          12
 AtmWgt=   1.0078250   1.0078250  12.0000000  12.0000000  12.0000000  12.0000000  12.0000000  12.0000000  12.0000000  12.0000000
 NucSpn=           1           1           0           0           0           0           0           0           0           0
 AtZEff=  -0.0000000  -0.0000000  -0.0000000  -0.0000000  -0.0000000  -0.0000000  -0.0000000  -0.0000000  -0.0000000  -0.0000000
 NQMom=    0.0000000   0.0000000   0.0000000   0.0000000   0.0000000   0.0000000   0.0000000   0.0000000   0.0000000   0.0000000
 NMagM=    2.7928460   2.7928460   0.0000000   0.0000000   0.0000000   0.0000000   0.0000000   0.0000000   0.0000000   0.0000000
 AtZNuc=   1.0000000   1.0000000   6.0000000   6.0000000   6.0000000   6.0000000   6.0000000   6.0000000   6.0000000   6.0000000

  Atom       131         132         133         134         135         136         137         138         139         140
 IAtWgt=          12          14          12          12           1           1           1           1           1           1
 AtmWgt=  12.0000000  14.0030740  12.0000000  12.0000000   1.0078250   1.0078250   1.0078250   1.0078250   1.0078250   1.0078250
 NucSpn=           0           2           0           0           1           1           1           1           1           1
 AtZEff=  -0.0000000  -0.0000000  -0.0000000  -0.0000000  -0.0000000  -0.0000000  -0.0000000  -0.0000000  -0.0000000  -0.0000000
 NQMom=    0.0000000   2.0440000   0.0000000   0.0000000   0.0000000   0.0000000   0.0000000   0.0000000   0.0000000   0.0000000
 NMagM=    0.0000000   0.4037610   0.0000000   0.0000000   2.7928460   2.7928460   2.7928460   2.7928460   2.7928460   2.7928460
 AtZNuc=   6.0000000   7.0000000   6.0000000   6.0000000   1.0000000   1.0000000   1.0000000   1.0000000   1.0000000   1.0000000

  Atom       141         142         143         144         145         146         147         148         149         150
 IAtWgt=          12          12          12          12          12          12           1           1           1           1
 AtmWgt=  12.0000000  12.0000000  12.0000000  12.0000000  12.0000000  12.0000000   1.0078250   1.0078250   1.0078250   1.0078250
 NucSpn=           0           0           0           0           0           0           1           1           1           1
 AtZEff=  -0.0000000  -0.0000000  -0.0000000  -0.0000000  -0.0000000  -0.0000000  -0.0000000  -0.0000000  -0.0000000  -0.0000000
 NQMom=    0.0000000   0.0000000   0.0000000   0.0000000   0.0000000   0.0000000   0.0000000   0.0000000   0.0000000   0.0000000
 NMagM=    0.0000000   0.0000000   0.0000000   0.0000000   0.0000000   0.0000000   2.7928460   2.7928460   2.7928460   2.7928460
 AtZNuc=   6.0000000   6.0000000   6.0000000   6.0000000   6.0000000   6.0000000   1.0000000   1.0000000   1.0000000   1.0000000

  Atom       151         152         153         154         155         156         157         158         159         160
 IAtWgt=          12          12          12          12          12          12          14          12           1           1
 AtmWgt=  12.0000000  12.0000000  12.0000000  12.0000000  12.0000000  12.0000000  14.0030740  12.0000000   1.0078250   1.0078250
 NucSpn=           0           0           0           0           0           0           2           0           1           1
 AtZEff=  -0.0000000  -0.0000000  -0.0000000  -0.0000000  -0.0000000  -0.0000000  -0.0000000  -0.0000000  -0.0000000  -0.0000000
 NQMom=    0.0000000   0.0000000   0.0000000   0.0000000   0.0000000   0.0000000   2.0440000   0.0000000   0.0000000   0.0000000
 NMagM=    0.0000000   0.0000000   0.0000000   0.0000000   0.0000000   0.0000000   0.4037610   0.0000000   2.7928460   2.7928460
 AtZNuc=   6.0000000   6.0000000   6.0000000   6.0000000   6.0000000   6.0000000   7.0000000   6.0000000   1.0000000   1.0000000

  Atom       161         162
 IAtWgt=           1           1
 AtmWgt=   1.0078250   1.0078250
 NucSpn=           1           1
 AtZEff=  -0.0000000  -0.0000000
 NQMom=    0.0000000   0.0000000
 NMagM=    2.7928460   2.7928460
 AtZNuc=   1.0000000   1.0000000
 Leave Link  101 at Fri Feb 26 10:27:03 2021, MaxMem=  7864320000 cpu:               5.5 elap:               0.2
 (Enter /apps/gaussian/g16-c01-avx/g16/l202.exe)
 Stoichiometry    C96H56N8Pd2(4+)
 Framework group  C1[X(C96H56N8Pd2)]
 Deg. of freedom   480
 Full point group                 C1      NOp   1
 Largest Abelian subgroup         C1      NOp   1
 Largest concise Abelian subgroup C1      NOp   1
                         Standard orientation:                         
 ---------------------------------------------------------------------
 Center     Atomic      Atomic             Coordinates (Angstroms)
 Number     Number       Type             X           Y           Z
 ---------------------------------------------------------------------
      1         46           0       -6.366213    0.196872    1.090051
      2         46           0        7.414415   -0.127125   -0.954205
      3          6           0        4.725284    0.544662    4.340033
      4          6           0        5.935338    0.556236    4.344986
      5          6           0        7.341725    0.573244    4.388491
      6          6           0        8.001353    0.740821    5.592662
      7          6           0        9.398969    0.753249    5.652210
      8          6           0       10.158630    0.600523    4.518754
      9          6           0        9.532303    0.431506    3.270351
     10          6           0       10.252232    0.272724    2.063824
     11          6           0        9.580649    0.118159    0.885159
     12          7           0        8.225817    0.113620    0.829322
     13          6           0        7.519064    0.256248    1.932062
     14          6           0        8.109260    0.417902    3.194454
     15          1           0        7.428240    0.860488    6.499324
     16          1           0        9.880234    0.884581    6.609308
     17          1           0       11.235996    0.609302    4.571243
     18          1           0       11.330267    0.276186    2.087242
     19          1           0       10.099419   -0.007577   -0.064950
     20          1           0        6.434997    0.248729    1.837735
     21          6           0        3.317091    0.541717    4.315815
     22          6           0        2.630880    0.053183    3.197638
     23          6           0        1.254698    0.067926    3.166236
     24          6           0        0.532856    0.572250    4.254412
     25          6           0        1.216771    1.048989    5.378634
     26          6           0        2.594270    1.033900    5.408838
     27          1           0        3.191797   -0.340033    2.364467
     28          1           0        0.722056   -0.309086    2.306982
     29          1           0        0.660352    1.432378    6.220413
     30          1           0        3.123848    1.404960    6.273230
     31          6           0       -0.874078    0.602037    4.213927
     32          6           0       -2.081494    0.625283    4.150087
     33          6           0       -3.488256    0.658833    4.111079
     34          6           0       -4.239816    0.904738    5.269669
     35          6           0       -5.619506    0.925172    5.183822
     36          6           0       -6.226017    0.706693    3.955468
     37          7           0       -5.508421    0.477300    2.854145
     38          6           0       -4.176936    0.448461    2.912806
     39          1           0       -3.738932    1.072391    6.210413
     40          1           0       -6.223537    1.108826    6.057572
     41          1           0       -7.306584    0.714387    3.846320
     42          1           0       -3.648452    0.252867    1.978876
     43          6           0       -2.426059   -4.726899    0.655881
     44          6           0       -3.617412   -4.835402    0.838001
     45          6           0       -4.967070   -5.112980    1.128061
     46          6           0       -5.366594   -6.434130    1.234632
     47          6           0       -6.673008   -6.767611    1.603151
     48          6           0       -7.594824   -5.790558    1.886265
     49          6           0       -7.237290   -4.435409    1.774194
     50          6           0       -8.138946   -3.384974    2.058887
     51          6           0       -7.743582   -2.090622    1.897491
     52          7           0       -6.505658   -1.763172    1.441019
     53          6           0       -5.626029   -2.713271    1.196791
     54          6           0       -5.918986   -4.077715    1.365921
     55          1           0       -4.650016   -7.218521    1.044682
     56          1           0       -6.947502   -7.808566    1.678792
     57          1           0       -8.596054   -6.047373    2.194290
     58          1           0       -9.134243   -3.619686    2.400967
     59          1           0       -8.410875   -1.259131    2.130827
     60          1           0       -4.647339   -2.404302    0.842312
     61          6           0       -1.032687   -4.610484    0.479848
     62          6           0       -0.303763   -3.671894    1.218844
     63          6           0        1.062915   -3.588235    1.071263
     64          6           0        1.727935   -4.437428    0.178534
     65          6           0        1.000594   -5.381971   -0.553539
     66          6           0       -0.366662   -5.467550   -0.403618
     67          1           0       -0.819464   -3.030760    1.916515
     68          1           0        1.631430   -2.877480    1.650672
     69          1           0        1.514820   -6.040166   -1.237209
     70          1           0       -0.930871   -6.195799   -0.966081
     71          6           0        3.117764   -4.302522   -0.005544
     72          6           0        4.303687   -4.145823   -0.184163
     73          6           0        5.648401   -3.828950   -0.457503
     74          6           0        6.593129   -4.771845   -0.886361
     75          6           0        7.870155   -4.342740   -1.201115
     76          6           0        8.179738   -2.991476   -1.119352
     77          7           0        7.280266   -2.097969   -0.705981
     78          6           0        6.056408   -2.496952   -0.358354
     79          1           0        6.318745   -5.811768   -0.971561
     80          1           0        8.620081   -5.045143   -1.527323
     81          1           0        9.159296   -2.609500   -1.385684
     82          1           0        5.367948   -1.731433    0.004670
     83          6           0       -3.460285   -0.741105   -4.121743
     84          6           0       -4.670403   -0.729076   -4.110875
     85          6           0       -6.073802   -0.735347   -4.203109
     86          6           0       -6.669582   -0.950878   -5.433887
     87          6           0       -8.060822   -0.968775   -5.571015
     88          6           0       -8.878516   -0.772325   -4.486166
     89          6           0       -8.317967   -0.546922   -3.215837
     90          6           0       -9.104465   -0.336732   -2.061731
     91          6           0       -8.500059   -0.121405   -0.857861
     92          7           0       -7.152399   -0.098005   -0.720574
     93          6           0       -6.382478   -0.291129   -1.775284
     94          6           0       -6.901122   -0.524387   -3.058761
     95          1           0       -6.047131   -1.109717   -6.301147
     96          1           0       -8.489494   -1.140589   -6.546426
     97          1           0       -9.951733   -0.787280   -4.592614
     98          1           0      -10.179517   -0.348365   -2.142940
     99          1           0       -9.081454    0.041344    0.044750
    100          1           0       -5.305921   -0.261103   -1.615649
    101          6           0       -2.053027   -0.745953   -4.154062
    102          6           0       -1.395100   -0.757331   -5.390845
    103          6           0       -0.018723   -0.752315   -5.445083
    104          6           0        0.727789   -0.735224   -4.261752
    105          6           0        0.070310   -0.732566   -3.025001
    106          6           0       -1.305166   -0.738051   -2.971007
    107          1           0       -1.974966   -0.767095   -6.301344
    108          1           0        0.487840   -0.758180   -6.398337
    109          1           0        0.654109   -0.727020   -2.118942
    110          1           0       -1.814725   -0.740263   -2.020752
    111          6           0        2.134319   -0.712189   -4.294725
    112          6           0        3.343369   -0.681989   -4.292840
    113          6           0        4.746112   -0.634509   -4.198486
    114          6           0        5.595636   -0.780417   -5.303554
    115          6           0        6.964540   -0.722785   -5.108209
    116          6           0        7.465081   -0.524124   -3.830178
    117          7           0        6.651239   -0.383430   -2.779345
    118          6           0        5.332220   -0.433820   -2.945957
    119          1           0        5.180819   -0.935936   -6.287273
    120          1           0        7.642693   -0.832011   -5.939103
    121          1           0        8.532071   -0.473854   -3.627857
    122          1           0        4.712216   -0.310613   -2.060924
    123          6           0       -2.370262    4.808736   -0.699967
    124          6           0       -3.560427    4.960432   -0.539610
    125          6           0       -4.905808    5.313774   -0.329056
    126          6           0       -5.286916    6.626117   -0.557063
    127          6           0       -6.590135    7.058527   -0.299399
    128          6           0       -7.529409    6.194027    0.205880
    129          6           0       -7.190303    4.850462    0.442419
    130          6           0       -8.110760    3.919173    0.974205
    131          6           0       -7.731858    2.623458    1.160215
    132          7           0       -6.492840    2.174806    0.825109
    133          6           0       -5.598912    3.019044    0.350686
    134          6           0       -5.874408    4.383466    0.153734
    135          1           0       -4.557353    7.328532   -0.929880
    136          1           0       -6.849357    8.088756   -0.489333
    137          1           0       -8.529920    6.531375    0.426155
    138          1           0       -9.106254    4.245598    1.229435
    139          1           0       -8.415828    1.889354    1.590327
    140          1           0       -4.621071    2.618369    0.102920
    141          6           0       -0.980472    4.645302   -0.853961
    142          6           0       -0.333335    3.508124   -0.357304
    143          6           0        1.030667    3.381103   -0.485336
    144          6           0        1.779038    4.384271   -1.115005
    145          6           0        1.133453    5.520740   -1.613181
    146          6           0       -0.232453    5.649205   -1.482694
    147          1           0       -0.910741    2.742007    0.134046
    148          1           0        1.538277    2.512131   -0.099602
    149          1           0        1.708396    6.295429   -2.097585
    150          1           0       -0.733404    6.526291   -1.863662
    151          6           0        3.169017    4.207870   -1.247414
    152          6           0        4.354607    3.991480   -1.351698
    153          6           0        5.697988    3.598466   -1.498316
    154          6           0        6.675979    4.390046   -2.116967
    155          6           0        7.950157    3.875033   -2.276011
    156          6           0        8.226233    2.582683   -1.849467
    157          7           0        7.296589    1.836046   -1.251990
    158          6           0        6.072942    2.327051   -1.055576
    159          1           0        6.428637    5.380251   -2.466760
    160          1           0        8.724296    4.461245   -2.744184
    161          1           0        9.203516    2.131170   -1.982274
    162          1           0        5.357495    1.691189   -0.530618
 ---------------------------------------------------------------------
 Rotational constants (GHZ):           0.0203758           0.0075542           0.0074169
 Leave Link  202 at Fri Feb 26 10:27:03 2021, MaxMem=  7864320000 cpu:               1.4 elap:               0.1
 (Enter /apps/gaussian/g16-c01-avx/g16/l301.exe)
 Standard basis: def2SVP (5D, 7F)
 Ernie: Thresh=  0.10000D-02 Tol=  0.10000D-05 Strict=F.
 There are  1912 symmetry adapted cartesian basis functions of A   symmetry.
 There are  1798 symmetry adapted basis functions of A   symmetry.
  1798 basis functions,  3122 primitive gaussians,  1912 cartesian basis functions
   360 alpha electrons      360 beta electrons
       nuclear repulsion energy     19437.2739427928 Hartrees.
 IExCor= 1009 DFT=T Ex+Corr=PBE1PBE ExCW=0 ScaHFX=  0.250000
 ScaDFX=  0.750000  0.750000  1.000000  1.000000 ScalE2=  1.000000  1.000000
 IRadAn=      7 IRanWt=     -1 IRanGd=            0 ICorTp=0 IEmpDi=141
 NAtoms=  162 NActive=  162 NUniq=  162 SFac= 1.00D+00 NAtFMM=   60 NAOKFM=T Big=T
 Integral buffers will be    131072 words long.
 Raffenetti 2 integral format.
 Two-electron integral symmetry is turned on.
 R6Disp:  Grimme-D3(BJ) Dispersion energy=       -0.2569170512 Hartrees.
 Nuclear repulsion after empirical dispersion term =    19437.0170257416 Hartrees.
 ------------------------------------------------------------------------------
 Polarizable Continuum Model (PCM)
 =================================
 Model                : PCM.
 Atomic radii         : UFF (Universal Force Field).
 Polarization charges : Total charges.
 Charge compensation  : None.
 Solution method      : On-the-fly selection.
 Cavity type          : Scaled VdW (van der Waals Surface) (Alpha=1.100).
 Cavity algorithm     : GePol (No added spheres)
                        Default sphere list used, NSphG=  162.
                        Lebedev-Laikov grids with approx.  5.0 points / Ang**2.
                        Smoothing algorithm: York/Karplus (Gamma=1.0000).
                        Polarization charges: spherical gaussians, with
                                              point-specific exponents (IZeta= 3).
                        Self-potential: point-specific (ISelfS= 7).
                        Self-field    : sphere-specific E.n sum rule (ISelfD= 2).
 Solvent              : DiMethylSulfoxide, Eps=  46.826000 Eps(inf)=   2.007889
 ------------------------------------------------------------------------------
 GePol: Number of generator spheres                  =     162
 GePol: Total number of spheres                      =     162
 GePol: Number of exposed spheres                    =     162 (100.00%)
 GePol: Number of points                             =   12453
 GePol: Average weight of points                     =       0.12
 GePol: Minimum weight of points                     =   0.64D-11
 GePol: Maximum weight of points                     =    0.20577
 GePol: Number of points with low weight             =     866
 GePol: Fraction of low-weight points (<1% of avg)   =       6.95%
 GePol: Cavity surface area                          =   1544.311 Ang**2
 GePol: Cavity volume                                =   1822.663 Ang**3
 Leave Link  301 at Fri Feb 26 10:27:03 2021, MaxMem=  7864320000 cpu:               4.4 elap:               0.2
 (Enter /apps/gaussian/g16-c01-avx/g16/l302.exe)
 NPDir=0 NMtPBC=     1 NCelOv=     1 NCel=       1 NClECP=     1 NCelD=      1
         NCelK=      1 NCelE2=     1 NClLst=     1 CellRange=     0.0.
 One-electron integrals computed using PRISM.
 One-electron integral symmetry used in STVInt
   1 Symmetry operations used in ECPInt.
 ECPInt:  NShTT=  331705 NPrTT= 1228511 LenC2=  178853 LenP2D=  376323.
 LDataN:  DoStor=T MaxTD1= 7 Len=  274
 NBasis=  1798 RedAO= T EigKep=  2.44D-04  NBF=  1798
 NBsUse=  1798 1.00D-06 EigRej= -1.00D+00 NBFU=  1798
 Precomputing XC quadrature grid using
 IXCGrd= 4 IRadAn=           7 IRanWt=          -1 IRanGd=           0 AccXCQ= 0.00D+00.
 Generated NRdTot=       0 NPtTot=           0 NUsed=           0 NTot=          32
 NSgBfM=  1673  1637  1653  1668  1673 MxSgAt=   162 MxSgA2=   162.
 Leave Link  302 at Fri Feb 26 10:27:20 2021, MaxMem=  7864320000 cpu:             532.3 elap:              16.8
 (Enter /apps/gaussian/g16-c01-avx/g16/l303.exe)
 DipDrv:  MaxL=1.
 Leave Link  303 at Fri Feb 26 10:27:20 2021, MaxMem=  7864320000 cpu:              18.1 elap:               0.7
 (Enter /apps/gaussian/g16-c01-avx/g16/l401.exe)
 ExpMin= 3.70D-02 ExpMax= 1.71D+03 ExpMxC= 2.58D+02 IAcc=3 IRadAn=         7 AccDes= 0.00D+00
 Harris functional with IExCor= 1009 and IRadAn=       7 diagonalized for initial guess.
 HarFok:  IExCor= 1009 AccDes= 0.00D+00 IRadAn=         7 IDoV= 1 UseB2=F ITyADJ=14
 ICtDFT=  3500011 ScaDFX=  1.000000  1.000000  1.000000  1.000000
 FoFCou: FMM=F IPFlag=           0 FMFlag=      100000 FMFlg1=        2001
         NFxFlg=           0 DoJE=T BraDBF=F KetDBF=T FulRan=T
         wScrn=  0.000000 ICntrl=       500 IOpCl=  0 I1Cent=   200000004 NGrid=           0
         NMat0=    1 NMatS0=      1 NMatT0=    0 NMatD0=    1 NMtDS0=    0 NMtDT0=    0
 Petite list used in FoFCou.
 Harris En= -4379.37248349652    
 JPrj=0 DoOrth=F DoCkMO=F.
 Leave Link  401 at Fri Feb 26 10:27:50 2021, MaxMem=  7864320000 cpu:             948.7 elap:              29.9
 (Enter /apps/gaussian/g16-c01-avx/g16/l508.exe)
 Integral symmetry usage will be decided dynamically.
 Tight linear equation convergence will be used.
 RPBE1PBE wavefunction.
 Linear searches until partial convergence.
 Full line searches.
 Fock matrices will be formed incrementally for  20 cycles.
 Inv3:  Mode=1 IEnd=   465231627.
 Iteration    1 A*A^-1 deviation from unit magnitude is 2.02D-14 for  12452.
 Iteration    1 A*A^-1 deviation from orthogonality  is 5.54D-15 for  12449  12394.
 Iteration    1 A^-1*A deviation from unit magnitude is 2.03D-14 for  12452.
 Iteration    1 A^-1*A deviation from orthogonality  is 1.28D-14 for   8685   8657.
 FoFJK:  IHMeth= 1 ICntrl=       0 DoSepK=F KAlg= 0 I1Cent=           0 FoldK=F
 IRaf= 530000000 NMat=       1 IRICut=       1 DoRegI=T DoRafI=F ISym2E= 1 IDoP0=0 IntGTp=1.
 Iteration   1 EE= -4350.06888406999                                    Grad=5.604D+00 Max rot=   42.2751 deg.
 Gradient too large for Newton-Raphson -- use scaled steepest descent instead.
 Alpha Gap=     0.117 HL deriv= 5.79D-03
     ILin= 1 X=0.000D+00 Y=-4.350068884070D+03 DE= 0.00D+00 F= -8.83D+01
 RMSU=  2.40D-03    CP:  9.57D-01
     ILin= 2 X=3.000D-01 Y=-4.364338017642D+03 DE=-1.43D+01 F= -5.62D-01 OKLS=F
 RMSU=  7.56D-04    CP:  9.44D-01  1.27D+00
     ILin= 3 X=4.000D-01 Y=-4.363634747766D+03 DE=-1.36D+01 F=  1.18D+01
     An  expanding polynomial of degree  3 produced  0.3242
     Minimum is close to point  2 DX=  2.42D-02 DF= -8.02D-02 DXR=  7.48D-02 DFR=  5.62D-03 which will be used.
 Iteration   2 EE= -4364.33801764238     Delta-E=      -14.269133572387 Grad=3.677D+00 Max rot=   28.7306 deg.
 Gradient too large for Newton-Raphson -- use scaled steepest descent instead.
 Alpha Gap=     0.275 HL deriv= 1.13D-01
     ILin= 1 X=0.000D+00 Y=-4.364338017642D+03 DE= 0.00D+00 F= -5.57D+01
 RMSU=  1.89D-03    CP:  9.39D-01  9.38D-01  4.99D-01
     ILin= 2 X=3.000D-01 Y=-4.369885123866D+03 DE=-5.55D+00 F=  9.20D+00 OKLS=T
     Accept linear search using points  1 and  2.
     An  expanding polynomial of degree  2 produced  0.1304
 RMSU=  4.40D-04    CP:  9.49D-01  9.89D-01  5.61D-02  4.25D-01
 Iteration   3 EE= -4369.38977109411     Delta-E=       -5.051753451724 Grad=2.228D+00 Max rot=   27.8016 deg.
 Gradient too large for Newton-Raphson -- use scaled steepest descent instead.
 Alpha Gap=     0.350 HL deriv= 5.56D-02
     ILin= 1 X=0.000D+00 Y=-4.369389771094D+03 DE= 0.00D+00 F= -1.83D+01
 RMSU=  1.01D-03    CP:  9.35D-01  9.36D-01  1.33D-01  6.70D-01  8.33D-01
     ILin= 2 X=3.000D-01 Y=-4.372731707074D+03 DE=-3.34D+00 F= -3.13D+00 OKLS=F
 RMSU=  5.30D-04    CP:  9.26D-01  8.85D-01  2.26D-01  8.00D-01  4.36D-01
                    CP:  1.45D+00
     ILin= 3 X=5.000D-01 Y=-4.372660947903D+03 DE=-3.27D+00 F=  2.75D+00
     An  expanding polynomial of degree  3 produced  0.3923
 RMSU=  2.85D-05    CP:  9.31D-01  9.13D-01  1.75D-01  7.35D-01  6.64D-01
                    CP:  1.25D+00  3.86D-01
 Iteration   4 EE= -4372.84575701045     Delta-E=       -3.455985916346 Grad=1.113D+00 Max rot=   12.5229 deg.
 Gradient too large for Newton-Raphson -- use scaled steepest descent instead.
 Alpha Gap=     0.201 HL deriv= 6.84D-02
     ILin= 1 X=0.000D+00 Y=-4.372845757010D+03 DE= 0.00D+00 F= -7.22D+00
 RMSU=  5.32D-04    CP:  9.26D-01  8.40D-01  9.12D-02  6.96D-01  6.43D-01
                    CP:  1.24D+00  3.83D-01 -3.12D-01
     ILin= 2 X=2.000D-01 Y=-4.373960439717D+03 DE=-1.11D+00 F= -4.00D+00 OKLS=F
 RMSU=  1.21D-04    CP:  9.24D-01  8.01D-01  5.50D-02  6.70D-01  6.10D-01
                    CP:  1.21D+00  4.05D-01 -1.14D+00  1.43D+00
     ILin= 3 X=3.000D-01 Y=-4.374296561696D+03 DE=-1.45D+00 F= -2.77D+00
 RMSU=  1.91D-04    CP:  9.20D-01  7.24D-01 -7.57D-03  6.12D-01  5.33D-01
                    CP:  1.11D+00  4.65D-01 -2.93D+00  1.97D+00  3.00D+00
     ILin= 4 X=5.000D-01 Y=-4.374653686340D+03 DE=-1.81D+00 F= -8.16D-01
 RMSU=  2.97D-05    CP:  9.18D-01  6.87D-01 -3.39D-02  5.83D-01  5.01D-01
                    CP:  1.05D+00  4.92D-01 -3.00D+00  2.06D+00  3.00D+00
                    CP:  2.30D+00
     ILin= 5 X=6.000D-01 Y=-4.374683404676D+03 DE=-1.84D+00 F=  2.33D-01
     Accept linear search using points  4 and  5.
     An  expanding polynomial of degree  5 produced  0.5395
 RMSU=  7.28D-06    CP:  9.19D-01  7.09D-01 -1.84D-02  6.00D-01  5.19D-01
                    CP:  1.08D+00  4.76D-01 -3.00D+00  2.02D+00  3.00D+00
                    CP:  1.50D+00  4.52D-01
 Iteration   5 EE= -4374.67796831682     Delta-E=       -1.832211306373 Grad=8.560D-01 Max rot=    6.2778 deg.
 Gradient too large for Newton-Raphson -- use scaled steepest descent instead.
 Alpha Gap=     0.155 HL deriv= 4.26D-02
     ILin= 1 X=0.000D+00 Y=-4.374677968317D+03 DE= 0.00D+00 F= -3.21D+00
 RMSU=  7.21D-04    CP:  9.16D-01  5.76D-01 -1.96D-01  5.01D-01  4.38D-01
                    CP:  9.54D-01  4.45D-01 -7.29D-01  2.05D+00  2.54D+00
                    CP:  1.04D+00 -1.09D+00 -3.00D+00
     ILin= 2 X=5.000D-01 Y=-4.375862060212D+03 DE=-1.18D+00 F= -1.23D+00 OKLS=F
 RMSU=  1.31D-04    CP:  9.14D-01  5.24D-01 -2.52D-01  4.60D-01  4.06D-01
                    CP:  8.91D-01  4.28D-01  1.39D-01  1.91D+00  1.82D+00
                    CP:  1.34D+00 -8.36D-01 -3.00D+00  1.33D+00
     ILin= 3 X=7.000D-01 Y=-4.375977215451D+03 DE=-1.30D+00 F=  1.35D-01
 RMSU=  3.78D-05    CP:  9.13D-01  4.73D-01 -2.96D-01  4.20D-01  3.78D-01
                    CP:  8.27D-01  4.07D-01  8.81D-01  1.71D+00  1.38D+00
                    CP:  1.65D+00 -7.34D-01 -3.00D+00  1.59D+00  2.44D+00
     ILin= 4 X=9.000D-01 Y=-4.375784761396D+03 DE=-1.11D+00 F=  1.84D+00
     An  expanding polynomial of degree  4 produced  0.6821
     Minimum is close to point  3 DX= -1.79D-02 DF= -1.21D-03 DXR=  2.62D-02 DFR=  9.34D-04 which will be used.
 Iteration   6 EE= -4375.97721545112     Delta-E=       -1.299247134299 Grad=5.579D-01 Max rot=    4.0321 deg.
 Gradient too large for Newton-Raphson -- use scaled steepest descent instead.
 Alpha Gap=     0.350 HL deriv= 1.58D-02
     ILin= 1 X=0.000D+00 Y=-4.375977215451D+03 DE= 0.00D+00 F= -1.51D+00
 RMSU=  5.86D-04    CP:  9.10D-01  5.13D-01 -2.49D-01  4.67D-01  4.31D-01
                    CP:  8.86D-01  4.47D-01 -1.21D+00  2.07D+00  2.17D+00
                    CP:  1.52D+00 -9.85D-01 -3.00D+00  1.18D+00  1.68D+00
                    CP:  1.50D+00
     ILin= 2 X=6.000D-01 Y=-4.376250163298D+03 DE=-2.73D-01 F=  4.92D-01 OKLS=T
     Accept linear search using points  1 and  2.
     An  expanding polynomial of degree  2 produced  0.3519
 RMSU=  5.84D-05    CP:  9.12D-01  5.18D-01 -2.50D-01  4.65D-01  4.21D-01
                    CP:  8.92D-01  4.43D-01 -6.84D-01  2.02D+00  2.01D+00
                    CP:  1.46D+00 -1.11D+00 -3.00D+00  1.27D+00  1.32D+00
                    CP:  6.46D-01  5.96D-01
 Iteration   7 EE= -4376.28467781779     Delta-E=       -0.307462366665 Grad=3.472D-01 Max rot=    2.2061 deg.
 Gradient too large for Newton-Raphson -- use scaled steepest descent instead.
 Alpha Gap=     0.288 HL deriv= 1.66D-02
     ILin= 1 X=0.000D+00 Y=-4.376284677818D+03 DE= 0.00D+00 F= -5.59D-01
 RMSU=  2.21D-04    CP:  9.11D-01  4.73D-01 -2.83D-01  4.30D-01  3.91D-01
                    CP:  8.34D-01  4.13D-01 -9.21D-02  1.98D+00  2.02D+00
                    CP:  1.39D+00 -5.04D-01 -3.00D+00  1.36D+00  1.86D+00
                    CP:  2.34D+00  7.09D-01  2.94D-01
     ILin= 2 X=5.000D-01 Y=-4.376475585694D+03 DE=-1.91D-01 F= -1.87D-01 OKLS=F
 RMSU=  1.85D-05    CP:  9.10D-01  4.55D-01 -2.93D-01  4.16D-01  3.78D-01
                    CP:  8.11D-01  4.02D-01  1.08D-01  1.96D+00  2.03D+00
                    CP:  1.37D+00 -2.46D-01 -3.00D+00  1.38D+00  2.08D+00
                    CP:  3.00D+00  7.42D-01 -2.84D-01  1.38D+00
     ILin= 3 X=7.000D-01 Y=-4.376495585809D+03 DE=-2.11D-01 F= -1.13D-02
 Restarting incremental Fock formation.
     ILin= 4 X=1.000D+00 Y=-4.376457204390D+03 DE=-1.73D-01 F=  2.70D-01
     An  expanding polynomial of degree  4 produced  0.7133
     Minimum is close to point  3 DX=  1.33D-02 DF= -8.01D-05 DXR=  1.87D-02 DFR=  3.80D-04 which will be used.
 Iteration   8 EE= -4376.49558580867     Delta-E=       -0.210907990877 Grad=3.321D-01 Max rot=    1.6354 deg.
 Gradient too large for Newton-Raphson -- use scaled steepest descent instead.
 Alpha Gap=     0.397 HL deriv= 3.26D-03
     ILin= 1 X=0.000D+00 Y=-4.376495585809D+03 DE= 0.00D+00 F= -4.73D-01
 RMSU=  3.74D-04    CP:  1.00D+00
     ILin= 2 X=5.000D-01 Y=-4.376571385842D+03 DE=-7.58D-02 F=  1.59D-01 OKLS=T
     Accept linear search using points  1 and  2.
     An  expanding polynomial of degree  2 produced  0.2809
 RMSU=  7.19D-05    CP:  1.00D+00  6.69D-01
 Iteration   9 EE= -4376.57753510074     Delta-E=       -0.081949292071 Grad=1.649D-01 Max rot=    1.3011 deg.
 Gradient too large for Newton-Raphson -- use scaled steepest descent instead.
 Alpha Gap=     0.341 HL deriv= 5.01D-03
     ILin= 1 X=0.000D+00 Y=-4.376577535101D+03 DE= 0.00D+00 F= -1.76D-01
 RMSU=  1.77D-04    CP:  1.00D+00  7.20D-01 -1.88D+00
     ILin= 2 X=7.000D-01 Y=-4.376700092372D+03 DE=-1.23D-01 F= -1.67D-01 OKLS=F
 RMSU=  4.28D-05    CP:  1.00D+00  7.31D-01 -3.00D+00  1.39D+00
     ILin= 3 X=1.000D+00 Y=-4.376747834923D+03 DE=-1.70D-01 F= -1.50D-01
 RMSU=  9.39D-05    CP:  9.99D-01  7.28D-01 -3.00D+00  1.81D+00  3.00D+00
     ILin= 4 X=1.400D+00 Y=-4.376800968106D+03 DE=-2.23D-01 F= -1.14D-01
 RMSU=  1.81D-04    CP:  9.97D-01  6.75D-01 -3.00D+00  2.14D+00  3.00D+00
                    CP:  2.44D+00
     ILin= 5 X=2.000D+00 Y=-4.376848069194D+03 DE=-2.71D-01 F= -3.97D-02
 RMSU=  9.46D-05    CP:  9.94D-01  4.82D-01 -3.00D+00  1.84D+00  3.00D+00
                    CP:  3.00D+00  2.70D+00
     ILin= 6 X=2.900D+00 Y=-4.376822980753D+03 DE=-2.45D-01 F=  9.95D-02
     Reject polynomial IMin12=  5  6 Big=T Turn=T Min=-7.640D+00 FVal=-4.379249671366D+03 Lims=  1.40D+00  2.90D+00
     Accept linear search using points  5 and  6.
     An  expanding polynomial of degree  6 produced  2.2975
 RMSU=  8.06D-06    CP:  9.96D-01  6.25D-01 -3.00D+00  2.14D+00  3.00D+00
                    CP:  2.96D+00  1.57D+00  1.15D-01
 Iteration  10 EE= -4376.85354060138     Delta-E=       -0.276005500644 Grad=2.589D-01 Max rot=    2.7501 deg.
 Gradient too large for Newton-Raphson -- use scaled steepest descent instead.
 Alpha Gap=     0.309 HL deriv= 3.71D-04
     ILin= 1 X=0.000D+00 Y=-4.376853540601D+03 DE= 0.00D+00 F= -4.85D-01
 RMSU=  4.71D-04    CP:  9.95D-01  7.74D-01 -3.00D+00  1.28D+00  3.00D+00
                    CP:  2.14D+00  1.88D+00 -9.23D-02 -7.50D-01
     ILin= 2 X=8.000D-01 Y=-4.376923474653D+03 DE=-6.99D-02 F=  2.79D-01 OKLS=T
     Accept linear search using points  1 and  2.
     An  expanding polynomial of degree  2 produced  0.4571
 RMSU=  6.32D-05    CP:  9.95D-01  7.44D-01 -3.00D+00  1.80D+00  3.00D+00
                    CP:  2.61D+00  1.77D+00 -9.04D-02 -7.10D-01  5.92D-01
 Iteration  11 EE= -4376.96899388839     Delta-E=       -0.115453287013 Grad=1.817D-01 Max rot=    0.9025 deg.
 Gradient too large for Newton-Raphson -- use scaled steepest descent instead.
 Alpha Gap=     0.309 HL deriv= 4.13D-04
     ILin= 1 X=0.000D+00 Y=-4.376968993888D+03 DE= 0.00D+00 F= -1.51D-01
 RMSU=  3.26D-04    CP:  9.94D-01  5.09D-01 -3.00D+00  1.81D+00  3.00D+00
                    CP:  2.11D+00  2.10D+00  2.09D-01  1.77D+00  6.35D-01
                    CP:  8.89D-01
     ILin= 2 X=1.000D+00 Y=-4.377018843935D+03 DE=-4.99D-02 F=  5.45D-02 OKLS=T
     Accept linear search using points  1 and  2.
     An  expanding polynomial of degree  2 produced  0.7441
 RMSU=  1.34D-05    CP:  9.94D-01  5.71D-01 -3.00D+00  1.84D+00  3.00D+00
                    CP:  2.25D+00  2.02D+00  1.24D-01  1.11D+00  6.29D-01
                    CP:  9.49D-01  7.46D-01
 Iteration  12 EE= -4377.02587783783     Delta-E=       -0.056883949441 Grad=2.229D-01 Max rot=    2.1551 deg.
 Gradient too large for Newton-Raphson -- use scaled steepest descent instead.
 Alpha Gap=     0.303 HL deriv= 1.28D-04
     ILin= 1 X=0.000D+00 Y=-4.377025877838D+03 DE= 0.00D+00 F= -2.75D-01
 RMSU=  2.53D-04    CP:  9.93D-01  6.86D-01 -3.00D+00  1.45D+00  3.00D+00
                    CP:  2.27D+00  2.10D+00  5.35D-02  1.54D-02  9.07D-01
                    CP:  4.77D-01  9.29D-01 -3.00D+00
     ILin= 2 X=6.000D-01 Y=-4.377124076594D+03 DE=-9.82D-02 F= -5.13D-02 OKLS=F
 RMSU=  5.18D-05    CP:  9.93D-01  7.15D-01 -3.00D+00  1.31D+00  3.00D+00
                    CP:  2.25D+00  2.12D+00  3.09D-02 -3.96D-01  9.77D-01
                    CP:  2.50D-01  9.45D-01 -3.00D+00  1.32D+00
     ILin= 3 X=8.000D-01 Y=-4.377127506090D+03 DE=-1.02D-01 F=  1.54D-02
     Accept linear search using points  2 and  3.
     An  expanding polynomial of degree  3 produced  0.6874
 RMSU=  8.39D-07    CP:  9.93D-01  6.99D-01 -3.00D+00  1.39D+00  3.00D+00
                    CP:  2.26D+00  2.11D+00  4.33D-02 -1.65D-01  9.39D-01
                    CP:  3.80D-01  9.40D-01 -3.00D+00  1.15D+00  3.97D-01
 Iteration  13 EE= -4377.12722192503     Delta-E=       -0.101344087194 Grad=3.095D-01 Max rot=    2.3762 deg.
 Gradient too large for Newton-Raphson -- use scaled steepest descent instead.
 Alpha Gap=     0.284 HL deriv= 2.26D-03
     ILin= 1 X=0.000D+00 Y=-4.377127221925D+03 DE= 0.00D+00 F= -4.21D-01
 RMSU=  2.38D-04    CP:  9.91D-01  4.83D-01 -3.00D+00  1.35D+00  3.00D+00
                    CP:  2.46D+00  2.20D+00  2.06D-01  4.86D-01  7.66D-01
                    CP:  4.35D-01  1.56D+00 -3.00D+00  1.07D+00  3.00D+00
                    CP:  3.00D+00
     ILin= 2 X=7.000D-01 Y=-4.377253870719D+03 DE=-1.27D-01 F=  6.13D-02 OKLS=T
     Accept linear search using points  1 and  2.
     An  expanding polynomial of degree  2 produced  0.5316
 RMSU=  3.96D-05    CP:  9.92D-01  5.34D-01 -3.00D+00  1.38D+00  3.00D+00
                    CP:  2.42D+00  2.18D+00  1.80D-01  4.46D-01  8.16D-01
                    CP:  4.08D-01  1.45D+00 -3.00D+00  1.13D+00  3.00D+00
                    CP:  3.00D+00  6.92D-01
 Iteration  14 EE= -4377.25448731081     Delta-E=       -0.127265385785 Grad=2.229D-01 Max rot=    1.8159 deg.
 Gradient too large for Newton-Raphson -- use scaled steepest descent instead.
 Alpha Gap=     0.262 HL deriv= 1.39D-03
     ILin= 1 X=0.000D+00 Y=-4.377254487311D+03 DE= 0.00D+00 F= -2.17D-01
 RMSU=  1.20D-04    CP:  9.91D-01  5.60D-01 -3.00D+00  1.24D+00  3.00D+00
                    CP:  2.50D+00  2.19D+00  1.27D-01 -3.00D-01  8.54D-01
                    CP:  2.02D-01  1.24D+00 -3.00D+00  1.53D+00  3.00D+00
                    CP:  3.00D+00  8.87D-01 -2.41D+00
     ILin= 2 X=6.000D-01 Y=-4.377325647388D+03 DE=-7.12D-02 F= -2.19D-02 OKLS=T
     Reject lnstep IMin12=  1  2 Big=T Turn=F Min= 8.987D-01 FVal=-4.377333896356D+03 Lims=  0.00D+00  6.00D-01
 RMSU=  5.18D-05    CP:  9.90D-01  5.66D-01 -3.00D+00  1.18D+00  3.00D+00
                    CP:  2.50D+00  2.19D+00  1.06D-01 -5.78D-01  8.61D-01
                    CP:  1.27D-01  1.09D+00 -3.00D+00  1.65D+00  3.00D+00
                    CP:  3.00D+00  9.39D-01 -3.00D+00  1.51D+00
     ILin= 3 X=9.000D-01 Y=-4.377318326545D+03 DE=-6.38D-02 F=  6.99D-02
     An  expanding polynomial of degree  3 produced  0.6732
 Restarting incremental Fock formation.
 Iteration  15 EE= -4377.32641495015     Delta-E=       -0.071927639336 Grad=1.986D-01 Max rot=    1.1386 deg.
 Gradient too large for Newton-Raphson -- use scaled steepest descent instead.
 Alpha Gap=     0.281 HL deriv= 2.14D-03
     ILin= 1 X=0.000D+00 Y=-4.377326414950D+03 DE= 0.00D+00 F= -1.35D-01
 RMSU=  1.73D-04    CP:  9.99D-01
     ILin= 2 X=6.000D-01 Y=-4.377357371082D+03 DE=-3.10D-02 F=  3.11D-02 OKLS=T
     Accept linear search using points  1 and  2.
     An  expanding polynomial of degree  2 produced  0.3878
 RMSU=  3.65D-06    CP:  1.00D+00  6.47D-01
 Iteration  16 EE= -4377.35779697894     Delta-E=       -0.031382028792 Grad=7.442D-02 Max rot=    0.8034 deg.
 Gradient too large for Newton-Raphson -- use scaled steepest descent instead.
 Alpha Gap=     0.269 HL deriv= 1.73D-03
     ILin= 1 X=0.000D+00 Y=-4.377357796979D+03 DE= 0.00D+00 F= -2.99D-02
 RMSU=  6.04D-05    CP:  9.99D-01  8.07D-01 -6.31D-01
     ILin= 2 X=5.000D-01 Y=-4.377369849658D+03 DE=-1.21D-02 F= -1.81D-02 OKLS=F
 RMSU=  3.97D-06    CP:  9.99D-01  9.32D-01 -3.00D+00  1.79D+00
     ILin= 3 X=9.000D-01 Y=-4.377375121471D+03 DE=-1.73D-02 F= -8.13D-03
 RMSU=  2.18D-05    CP:  9.99D-01  1.11D+00 -3.00D+00  2.92D+00  3.00D+00
     ILin= 4 X=1.500D+00 Y=-4.377375258788D+03 DE=-1.75D-02 F=  7.86D-03
     Accept linear search using points  3 and  4.
     An  expanding polynomial of degree  4 produced  1.2052
 RMSU=  3.48D-06    CP:  9.99D-01  1.02D+00 -3.00D+00  2.37D+00  3.00D+00
                    CP:  3.20D-01
 Iteration  17 EE= -4377.37639042906     Delta-E=       -0.018593450121 Grad=7.482D-02 Max rot=    0.3064 deg.
 Gradient too large for Newton-Raphson -- use scaled steepest descent instead.
 Alpha Gap=     0.282 HL deriv= 3.83D-04
     ILin= 1 X=0.000D+00 Y=-4.377376390429D+03 DE= 0.00D+00 F= -1.72D-02
 RMSU=  4.08D-05    CP:  9.99D-01  1.30D+00 -3.00D+00  2.03D+00  3.00D+00
                    CP:  7.49D-01  1.72D+00
     ILin= 2 X=7.000D-01 Y=-4.377376632758D+03 DE=-2.42D-04 F=  1.64D-02 OKLS=T
     Accept linear search using points  1 and  2.
     An  expanding polynomial of degree  2 produced  0.3536
 RMSU=  2.28D-07    CP:  9.99D-01  1.16D+00 -3.00D+00  2.20D+00  3.00D+00
                    CP:  5.28D-01  1.35D+00  5.06D-01
 Iteration  18 EE= -4377.37945511171     Delta-E=       -0.003064682649 Grad=1.766D-02 Max rot=    0.1339 deg.
 Gradient too large for Newton-Raphson -- use scaled steepest descent instead.
 Alpha Gap=     0.273 HL deriv= 5.76D-04
     ILin= 1 X=0.000D+00 Y=-4.377379455112D+03 DE= 0.00D+00 F= -1.36D-03
 RMSU=  1.15D-05    CP:  9.99D-01  1.20D+00 -3.00D+00  2.41D+00  3.00D+00
                    CP:  8.44D-01  1.04D+00  5.78D-01  1.82D+00
     ILin= 2 X=7.000D-01 Y=-4.377380076710D+03 DE=-6.22D-04 F= -4.13D-04 OKLS=T
     Reject lnstep IMin12=  1  2 Big=T Turn=F Min= 1.071D+00 FVal=-4.377380228500D+03 Lims=  0.00D+00  7.00D-01
 RMSU=  2.44D-07    CP:  9.99D-01  1.23D+00 -3.00D+00  2.60D+00  3.00D+00
                    CP:  1.13D+00  7.41D-01  6.40D-01  2.02D+00  1.86D+00
     ILin= 3 X=1.300D+00 Y=-4.377380079506D+03 DE=-6.24D-04 F=  4.04D-04
     Accept linear search using points  2 and  3.
     An  expanding polynomial of degree  3 produced  1.0014
 RMSU=  4.22D-10    CP:  9.99D-01  1.22D+00 -3.00D+00  2.51D+00  3.00D+00
                    CP:  9.87D-01  8.93D-01  6.09D-01  1.98D+00  1.43D+00
                    CP:  3.87D-01
 Iteration  19 EE= -4377.38013934397     Delta-E=       -0.000684232262 Grad=1.905D-02 Max rot=    0.0844 deg.
 Gradient too large for Newton-Raphson -- use scaled steepest descent instead.
 Alpha Gap=     0.273 HL deriv= 2.76D-04
     ILin= 1 X=0.000D+00 Y=-4.377380139344D+03 DE= 0.00D+00 F= -1.21D-03
 RMSU=  7.26D-06    CP:  9.99D-01  1.25D+00 -3.00D+00  2.50D+00  3.00D+00
                    CP:  1.11D+00  9.07D-01  8.30D-01  1.59D+00  1.19D+00
                    CP:  1.69D+00  3.00D+00
     ILin= 2 X=6.000D-01 Y=-4.377380249664D+03 DE=-1.10D-04 F=  8.45D-04 OKLS=T
     Accept linear search using points  1 and  2.
     An  expanding polynomial of degree  2 produced  0.3217
 RMSU=  7.01D-09    CP:  9.99D-01  1.23D+00 -3.00D+00  2.50D+00  3.00D+00
                    CP:  1.05D+00  9.01D-01  7.28D-01  1.80D+00  1.30D+00
                    CP:  1.07D+00  3.00D+00  5.36D-01
 Iteration  20 EE= -4377.38035200133     Delta-E=       -0.000212657356 Grad=5.294D-03 Max rot=    0.0447 deg.
 SCF Done:  E(RPBE1PBE) =  -4377.38035200     a.u. after   20 cycles
            Convg  =    0.5294D-02                    54 Fock formations.
              S**2 =  0.0000                  -V/T =  2.0479
 Leave Link  508 at Fri Feb 26 11:54:49 2021, MaxMem=  7864320000 cpu:          163084.1 elap:            5218.5
 (Enter /apps/gaussian/g16-c01-avx/g16/l502.exe)
 Integral symmetry usage will be decided dynamically.
 Closed shell SCF:
 Using DIIS extrapolation, IDIIS=  1040.
 NGot=  7864320000 LenX=  7856924330 LenY=  7853266674
 Requested convergence on RMS density matrix=1.00D-08 within 128 cycles.
 Requested convergence on MAX density matrix=1.00D-06.
 Requested convergence on             energy=1.00D-06.
 No special actions if energy rises.
 Fock matrices will be formed incrementally for  20 cycles.

 Cycle   1  Pass 1  IDiag  1:
 FoFJK:  IHMeth= 1 ICntrl=       0 DoSepK=F KAlg= 0 I1Cent=           0 FoldK=F
 IRaf= 530000000 NMat=       1 IRICut=       1 DoRegI=T DoRafI=F ISym2E= 0 IDoP0=0 IntGTp=1.
 FoFCou: FMM=T IPFlag=           0 FMFlag=      100000 FMFlg1=        2001
         NFxFlg=           0 DoJE=F BraDBF=F KetDBF=F FulRan=T
         wScrn=  0.000000 ICntrl=         0 IOpCl=  0 I1Cent=           0 NGrid=           0
         NMat0=    1 NMatS0=      1 NMatT0=    0 NMatD0=    1 NMtDS0=    0 NMtDT0=    0
 Symmetry not used in FoFCou.
 FMM levels:  10  Number of levels for PrismC:   9
 E= -4377.38035200144    
 DIIS: error= 1.82D-04 at cycle   1 NSaved=   1.
 NSaved= 1 IEnMin= 1 EnMin= -4377.38035200144     IErMin= 1 ErrMin= 1.82D-04
 ErrMax= 1.82D-04  0.00D+00 EMaxC= 1.00D-01 BMatC= 1.40D-05 BMatP= 1.40D-05
 IDIUse=3 WtCom= 9.98D-01 WtEn= 1.82D-03
 Coeff-Com:  0.100D+01
 Coeff-En:   0.100D+01
 Coeff:      0.100D+01
 Gap=     0.273 Goal=   None    Shift=    0.000
 RMSDP=1.33D-05 MaxDP=1.82D-03              OVMax= 9.96D-03

 Cycle   2  Pass 1  IDiag  1:
 RMSU=  1.33D-05    CP:  1.00D+00
 E= -4377.38045563429     Delta-E=       -0.000103632847 Rises=F Damp=F
 DIIS: error= 3.14D-05 at cycle   2 NSaved=   2.
 NSaved= 2 IEnMin= 2 EnMin= -4377.38045563429     IErMin= 2 ErrMin= 3.14D-05
 ErrMax= 3.14D-05  0.00D+00 EMaxC= 1.00D-01 BMatC= 3.56D-06 BMatP= 1.40D-05
 IDIUse=1 WtCom= 1.00D+00 WtEn= 0.00D+00
 Coeff-Com:  0.167D+00 0.833D+00
 Coeff:      0.167D+00 0.833D+00
 Gap=     0.132 Goal=   None    Shift=    0.000
 RMSDP=3.06D-06 MaxDP=4.54D-04 DE=-1.04D-04 OVMax= 1.41D-03

 Cycle   3  Pass 1  IDiag  1:
 RMSU=  2.76D-06    CP:  1.00D+00  1.10D+00
 E= -4377.38045360636     Delta-E=        0.000002027929 Rises=F Damp=F
 DIIS: error= 6.42D-05 at cycle   3 NSaved=   3.
 NSaved= 3 IEnMin= 2 EnMin= -4377.38045563429     IErMin= 2 ErrMin= 3.14D-05
 ErrMax= 6.42D-05  0.00D+00 EMaxC= 1.00D-01 BMatC= 7.88D-06 BMatP= 3.56D-06
 IDIUse=1 WtCom= 1.00D+00 WtEn= 0.00D+00
 Coeff-Com: -0.111D+00 0.664D+00 0.448D+00
 Coeff:     -0.111D+00 0.664D+00 0.448D+00
 Gap=     0.132 Goal=   None    Shift=    0.000
 RMSDP=1.78D-06 MaxDP=2.85D-04 DE= 2.03D-06 OVMax= 5.51D-04

 Cycle   4  Pass 1  IDiag  1:
 RMSU=  1.02D-06    CP:  1.00D+00  1.16D+00  5.63D-01
 E= -4377.38046205400     Delta-E=       -0.000008447634 Rises=F Damp=F
 DIIS: error= 6.00D-06 at cycle   4 NSaved=   4.
 NSaved= 4 IEnMin= 4 EnMin= -4377.38046205400     IErMin= 4 ErrMin= 6.00D-06
 ErrMax= 6.00D-06  0.00D+00 EMaxC= 1.00D-01 BMatC= 1.18D-07 BMatP= 3.56D-06
 IDIUse=1 WtCom= 1.00D+00 WtEn= 0.00D+00
 Coeff-Com: -0.492D-01 0.225D+00 0.187D+00 0.637D+00
 Coeff:     -0.492D-01 0.225D+00 0.187D+00 0.637D+00
 Gap=     0.132 Goal=   None    Shift=    0.000
 RMSDP=3.44D-07 MaxDP=5.56D-05 DE=-8.45D-06 OVMax= 1.39D-04

 Cycle   5  Pass 1  IDiag  1:
 RMSU=  3.21D-07    CP:  1.00D+00  1.17D+00  5.87D-01  9.39D-01
 E= -4377.38046218847     Delta-E=       -0.000000134474 Rises=F Damp=F
 DIIS: error= 1.82D-06 at cycle   5 NSaved=   5.
 NSaved= 5 IEnMin= 5 EnMin= -4377.38046218847     IErMin= 5 ErrMin= 1.82D-06
 ErrMax= 1.82D-06  0.00D+00 EMaxC= 1.00D-01 BMatC= 2.04D-08 BMatP= 1.18D-07
 IDIUse=1 WtCom= 1.00D+00 WtEn= 0.00D+00
 Coeff-Com: -0.492D-02-0.760D-02 0.134D-01 0.299D+00 0.700D+00
 Coeff:     -0.492D-02-0.760D-02 0.134D-01 0.299D+00 0.700D+00
 Gap=     0.132 Goal=   None    Shift=    0.000
 RMSDP=1.36D-07 MaxDP=2.37D-05 DE=-1.34D-07 OVMax= 4.63D-05

 Cycle   6  Pass 1  IDiag  1:
 RMSU=  9.73D-08    CP:  1.00D+00  1.17D+00  5.97D-01  1.01D+00  8.74D-01
 E= -4377.38046220990     Delta-E=       -0.000000021431 Rises=F Damp=F
 DIIS: error= 9.49D-07 at cycle   6 NSaved=   6.
 NSaved= 6 IEnMin= 6 EnMin= -4377.38046220990     IErMin= 6 ErrMin= 9.49D-07
 ErrMax= 9.49D-07  0.00D+00 EMaxC= 1.00D-01 BMatC= 3.69D-09 BMatP= 2.04D-08
 IDIUse=1 WtCom= 1.00D+00 WtEn= 0.00D+00
 Coeff-Com:  0.295D-02-0.288D-01-0.118D-01 0.108D+00 0.385D+00 0.544D+00
 Coeff:      0.295D-02-0.288D-01-0.118D-01 0.108D+00 0.385D+00 0.544D+00
 Gap=     0.132 Goal=   None    Shift=    0.000
 RMSDP=5.15D-08 MaxDP=9.20D-06 DE=-2.14D-08 OVMax= 1.39D-05

 Cycle   7  Pass 1  IDiag  1:
 RMSU=  4.11D-08    CP:  1.00D+00  1.17D+00  6.01D-01  1.03D+00  9.10D-01
                    CP:  7.61D-01
 E= -4377.38046221379     Delta-E=       -0.000000003889 Rises=F Damp=F
 DIIS: error= 3.32D-07 at cycle   7 NSaved=   7.
 NSaved= 7 IEnMin= 7 EnMin= -4377.38046221379     IErMin= 7 ErrMin= 3.32D-07
 ErrMax= 3.32D-07  0.00D+00 EMaxC= 1.00D-01 BMatC= 3.72D-10 BMatP= 3.69D-09
 IDIUse=1 WtCom= 1.00D+00 WtEn= 0.00D+00
 Coeff-Com:  0.202D-02-0.147D-01-0.762D-02 0.264D-01 0.116D+00 0.280D+00
 Coeff-Com:  0.598D+00
 Coeff:      0.202D-02-0.147D-01-0.762D-02 0.264D-01 0.116D+00 0.280D+00
 Coeff:      0.598D+00
 Gap=     0.132 Goal=   None    Shift=    0.000
 RMSDP=1.84D-08 MaxDP=4.72D-06 DE=-3.89D-09 OVMax= 5.86D-06

 Cycle   8  Pass 1  IDiag  1:
 RMSU=  1.53D-08    CP:  1.00D+00  1.17D+00  6.01D-01  1.03D+00  9.19D-01
                    CP:  8.29D-01  9.38D-01
 E= -4377.38046221432     Delta-E=       -0.000000000528 Rises=F Damp=F
 DIIS: error= 2.14D-07 at cycle   8 NSaved=   8.
 NSaved= 8 IEnMin= 8 EnMin= -4377.38046221432     IErMin= 8 ErrMin= 2.14D-07
 ErrMax= 2.14D-07  0.00D+00 EMaxC= 1.00D-01 BMatC= 8.70D-11 BMatP= 3.72D-10
 IDIUse=1 WtCom= 1.00D+00 WtEn= 0.00D+00
 Coeff-Com:  0.539D-03-0.241D-02-0.199D-02-0.916D-02-0.245D-01 0.443D-01
 Coeff-Com:  0.360D+00 0.633D+00
 Coeff:      0.539D-03-0.241D-02-0.199D-02-0.916D-02-0.245D-01 0.443D-01
 Coeff:      0.360D+00 0.633D+00
 Gap=     0.132 Goal=   None    Shift=    0.000
 RMSDP=9.38D-09 MaxDP=3.08D-06 DE=-5.28D-10 OVMax= 3.78D-06

 Cycle   9  Pass 1  IDiag  1:
 RMSU=  6.52D-09    CP:  1.00D+00  1.17D+00  6.02D-01  1.04D+00  9.24D-01
                    CP:  8.68D-01  1.04D+00  8.92D-01
 E= -4377.38046221451     Delta-E=       -0.000000000196 Rises=F Damp=F
 DIIS: error= 7.41D-08 at cycle   9 NSaved=   9.
 NSaved= 9 IEnMin= 9 EnMin= -4377.38046221451     IErMin= 9 ErrMin= 7.41D-08
 ErrMax= 7.41D-08  0.00D+00 EMaxC= 1.00D-01 BMatC= 1.31D-11 BMatP= 8.70D-11
 IDIUse=1 WtCom= 1.00D+00 WtEn= 0.00D+00
 Coeff-Com:  0.459D-05 0.933D-03 0.505D-04-0.926D-02-0.324D-01-0.191D-01
 Coeff-Com:  0.112D+00 0.357D+00 0.591D+00
 Coeff:      0.459D-05 0.933D-03 0.505D-04-0.926D-02-0.324D-01-0.191D-01
 Coeff:      0.112D+00 0.357D+00 0.591D+00
 Gap=     0.132 Goal=   None    Shift=    0.000
 RMSDP=3.61D-09 MaxDP=8.59D-07 DE=-1.96D-10 OVMax= 1.38D-06

 Error on total polarization charges =  0.02675
 SCF Done:  E(RPBE1PBE) =  -4377.38046221     A.U. after    9 cycles
            NFock=  9  Conv=0.36D-08     -V/T= 2.0479
 KE= 4.177296793705D+03 PE=-4.876276761974D+04 EE= 2.077107333808D+04
 Leave Link  502 at Fri Feb 26 12:06:53 2021, MaxMem=  7864320000 cpu:           22833.4 elap:             723.6
 (Enter /apps/gaussian/g16-c01-avx/g16/l508.exe)
 QCSCF skips out because SCF is already converged.
 Leave Link  508 at Fri Feb 26 12:06:54 2021, MaxMem=  7864320000 cpu:               0.5 elap:               0.3
 (Enter /apps/gaussian/g16-c01-avx/g16/l601.exe)
 Copying SCF densities to generalized density rwf, IOpCl= 0 IROHF=0.
 Hyperfine terms turned off by default for NAtoms > 100.

 **********************************************************************

            Population analysis using the SCF Density.

 **********************************************************************

 Orbital symmetries:
       Occupied  (A) (A) (A) (A) (A) (A) (A) (A) (A) (A) (A) (A)
                 (A) (A) (A) (A) (A) (A) (A) (A) (A) (A) (A) (A)
                 (A) (A) (A) (A) (A) (A) (A) (A) (A) (A) (A) (A)
                 (A) (A) (A) (A) (A) (A) (A) (A) (A) (A) (A) (A)
                 (A) (A) (A) (A) (A) (A) (A) (A) (A) (A) (A) (A)
                 (A) (A) (A) (A) (A) (A) (A) (A) (A) (A) (A) (A)
                 (A) (A) (A) (A) (A) (A) (A) (A) (A) (A) (A) (A)
                 (A) (A) (A) (A) (A) (A) (A) (A) (A) (A) (A) (A)
                 (A) (A) (A) (A) (A) (A) (A) (A) (A) (A) (A) (A)
                 (A) (A) (A) (A) (A) (A) (A) (A) (A) (A) (A) (A)
                 (A) (A) (A) (A) (A) (A) (A) (A) (A) (A) (A) (A)
                 (A) (A) (A) (A) (A) (A) (A) (A) (A) (A) (A) (A)
                 (A) (A) (A) (A) (A) (A) (A) (A) (A) (A) (A) (A)
                 (A) (A) (A) (A) (A) (A) (A) (A) (A) (A) (A) (A)
                 (A) (A) (A) (A) (A) (A) (A) (A) (A) (A) (A) (A)
                 (A) (A) (A) (A) (A) (A) (A) (A) (A) (A) (A) (A)
                 (A) (A) (A) (A) (A) (A) (A) (A) (A) (A) (A) (A)
                 (A) (A) (A) (A) (A) (A) (A) (A) (A) (A) (A) (A)
                 (A) (A) (A) (A) (A) (A) (A) (A) (A) (A) (A) (A)
                 (A) (A) (A) (A) (A) (A) (A) (A) (A) (A) (A) (A)
                 (A) (A) (A) (A) (A) (A) (A) (A) (A) (A) (A) (A)
                 (A) (A) (A) (A) (A) (A) (A) (A) (A) (A) (A) (A)
                 (A) (A) (A) (A) (A) (A) (A) (A) (A) (A) (A) (A)
                 (A) (A) (A) (A) (A) (A) (A) (A) (A) (A) (A) (A)
                 (A) (A) (A) (A) (A) (A) (A) (A) (A) (A) (A) (A)
                 (A) (A) (A) (A) (A) (A) (A) (A) (A) (A) (A) (A)
                 (A) (A) (A) (A) (A) (A) (A) (A) (A) (A) (A) (A)
                 (A) (A) (A) (A) (A) (A) (A) (A) (A) (A) (A) (A)
                 (A) (A) (A) (A) (A) (A) (A) (A) (A) (A) (A) (A)
                 (A) (A) (A) (A) (A) (A) (A) (A) (A) (A) (A) (A)
       Virtual   (A) (A) (A) (A) (A) (A) (A) (A) (A) (A) (A) (A)
                 (A) (A) (A) (A) (A) (A) (A) (A) (A) (A) (A) (A)
                 (A) (A) (A) (A) (A) (A) (A) (A) (A) (A) (A) (A)
                 (A) (A) (A) (A) (A) (A) (A) (A) (A) (A) (A) (A)
                 (A) (A) (A) (A) (A) (A) (A) (A) (A) (A) (A) (A)
                 (A) (A) (A) (A) (A) (A) (A) (A) (A) (A) (A) (A)
                 (A) (A) (A) (A) (A) (A) (A) (A) (A) (A) (A) (A)
                 (A) (A) (A) (A) (A) (A) (A) (A) (A) (A) (A) (A)
                 (A) (A) (A) (A) (A) (A) (A) (A) (A) (A) (A) (A)
                 (A) (A) (A) (A) (A) (A) (A) (A) (A) (A) (A) (A)
                 (A) (A) (A) (A) (A) (A) (A) (A) (A) (A) (A) (A)
                 (A) (A) (A) (A) (A) (A) (A) (A) (A) (A) (A) (A)
                 (A) (A) (A) (A) (A) (A) (A) (A) (A) (A) (A) (A)
                 (A) (A) (A) (A) (A) (A) (A) (A) (A) (A) (A) (A)
                 (A) (A) (A) (A) (A) (A) (A) (A) (A) (A) (A) (A)
                 (A) (A) (A) (A) (A) (A) (A) (A) (A) (A) (A) (A)
                 (A) (A) (A) (A) (A) (A) (A) (A) (A) (A) (A) (A)
                 (A) (A) (A) (A) (A) (A) (A) (A) (A) (A) (A) (A)
                 (A) (A) (A) (A) (A) (A) (A) (A) (A) (A) (A) (A)
                 (A) (A) (A) (A) (A) (A) (A) (A) (A) (A) (A) (A)
                 (A) (A) (A) (A) (A) (A) (A) (A) (A) (A) (A) (A)
                 (A) (A) (A) (A) (A) (A) (A) (A) (A) (A) (A) (A)
                 (A) (A) (A) (A) (A) (A) (A) (A) (A) (A) (A) (A)
[...]
 Alpha virt. eigenvalues --    1.94919   1.95052   1.95327   1.95423   1.95567
 Alpha virt. eigenvalues --    1.95727   1.96036   1.96132   1.96266   1.96477
 Alpha virt. eigenvalues --    1.96513   1.96552   1.96672   1.96733   1.96978
 Alpha virt. eigenvalues --    1.97300   1.97481   1.97598   1.97648   1.97681
 Alpha virt. eigenvalues --    1.97727   1.97921   1.98112   1.98387   1.98457
 Alpha virt. eigenvalues --    1.98735   1.99009   1.99184   1.99221   1.99460
 Alpha virt. eigenvalues --    1.99649   2.00542   2.00843   2.01095   2.01405
 Alpha virt. eigenvalues --    2.01774   2.01806   2.01950   2.02203   2.02255
 Alpha virt. eigenvalues --    2.02461   2.02771   2.02908   2.03012   2.03299
 Alpha virt. eigenvalues --    2.03525   2.04402   2.04773   2.04876   2.04988
 Alpha virt. eigenvalues --    2.05438   2.05564   2.05597   2.05925   2.06063
 Alpha virt. eigenvalues --    2.06307   2.06512   2.06662   2.07092   2.07183
 Alpha virt. eigenvalues --    2.07517   2.07996   2.08638   2.08734   2.09385
 Alpha virt. eigenvalues --    2.09513   2.09611   2.09787   2.09939   2.10079
 Alpha virt. eigenvalues --    2.10221   2.10313   2.10599   2.10952   2.12015
 Alpha virt. eigenvalues --    2.12149   2.12218   2.12262   2.12362   2.12515
 Alpha virt. eigenvalues --    2.12605   2.12718   2.12885   2.12963   2.13140
 Alpha virt. eigenvalues --    2.13199   2.13365   2.13537   2.13718   2.13789
 Alpha virt. eigenvalues --    2.13945   2.14265   2.14354   2.14607   2.15176
 Alpha virt. eigenvalues --    2.15661   2.16271   2.16631   2.16689   2.16967
 Alpha virt. eigenvalues --    2.17229   2.17443   2.17514   2.17651   2.18122
 Alpha virt. eigenvalues --    2.18903   2.19911   2.20315   2.20731   2.20915
 Alpha virt. eigenvalues --    2.21351   2.21771   2.21844   2.21979   2.22783
 Alpha virt. eigenvalues --    2.23109   2.23283   2.23476   2.23533   2.23651
 Alpha virt. eigenvalues --    2.24124   2.24217   2.24705   2.24970   2.25049
 Alpha virt. eigenvalues --    2.25135   2.25325   2.25634   2.26143   2.26420
 Alpha virt. eigenvalues --    2.26717   2.26900   2.26990   2.27021   2.27208
 Alpha virt. eigenvalues --    2.27266   2.27502   2.27776   2.27977   2.28182
 Alpha virt. eigenvalues --    2.28612   2.28895   2.28942   2.28946   2.29077
 Alpha virt. eigenvalues --    2.29317   2.29516   2.29625   2.29759   2.29822
 Alpha virt. eigenvalues --    2.29891   2.30120   2.30378   2.30731   2.30975
 Alpha virt. eigenvalues --    2.31008   2.31587   2.31704   2.32301   2.32499
 Alpha virt. eigenvalues --    2.32730   2.32890   2.33172   2.33278   2.33434
 Alpha virt. eigenvalues --    2.33511   2.33610   2.33735   2.34066   2.34199
 Alpha virt. eigenvalues --    2.34680   2.34983   2.35223   2.35271   2.35285
 Alpha virt. eigenvalues --    2.35295   2.35338   2.35612   2.35769   2.36153
 Alpha virt. eigenvalues --    2.36347   2.36510   2.36668   2.36906   2.37012
 Alpha virt. eigenvalues --    2.37240   2.37277   2.37614   2.37882   2.38067
 Alpha virt. eigenvalues --    2.38171   2.38308   2.38559   2.38734   2.38895
 Alpha virt. eigenvalues --    2.39001   2.39125   2.39235   2.39327   2.39605
 Alpha virt. eigenvalues --    2.39691   2.39889   2.40261   2.40851   2.41811
 Alpha virt. eigenvalues --    2.43170   2.43857   2.44369   2.44565   2.45231
 Alpha virt. eigenvalues --    2.45717   2.46060   2.46422   2.47000   2.47087
 Alpha virt. eigenvalues --    2.47333   2.47612   2.48031   2.48715   2.49390
 Alpha virt. eigenvalues --    2.49573   2.50601   2.50697   2.50815   2.50956
 Alpha virt. eigenvalues --    2.51618   2.51988   2.52478   2.53228   2.53744
 Alpha virt. eigenvalues --    2.54200   2.54502   2.55218   2.55899   2.56118
 Alpha virt. eigenvalues --    2.56871   2.57152   2.57559   2.58512   2.58801
 Alpha virt. eigenvalues --    2.58889   2.59126   2.59356   2.59673   2.60242
 Alpha virt. eigenvalues --    2.60463   2.60538   2.60649   2.60956   2.61031
 Alpha virt. eigenvalues --    2.61205   2.61619   2.61692   2.62423   2.63004
 Alpha virt. eigenvalues --    2.63566   2.64224   2.64297   2.64323   2.64430
 Alpha virt. eigenvalues --    2.64492   2.64550   2.64735   2.65073   2.65127
 Alpha virt. eigenvalues --    2.65295   2.65546   2.65608   2.65776   2.66231
 Alpha virt. eigenvalues --    2.66605   2.67245   2.67299   2.67510   2.67778
 Alpha virt. eigenvalues --    2.68319   2.68625   2.69599   2.70038   2.70087
 Alpha virt. eigenvalues --    2.70989   2.71166   2.71413   2.71915   2.72082
 Alpha virt. eigenvalues --    2.72142   2.72406   2.72882   2.72955   2.73350
 Alpha virt. eigenvalues --    2.73485   2.73759   2.74118   2.74515   2.74580
 Alpha virt. eigenvalues --    2.75115   2.75556   2.75633   2.75829   2.76037
 Alpha virt. eigenvalues --    2.76218   2.76272   2.76346   2.76475   2.76592
 Alpha virt. eigenvalues --    2.76679   2.76806   2.76856   2.76928   2.77013
 Alpha virt. eigenvalues --    2.77261   2.77305   2.77379   2.77471   2.79445
 Alpha virt. eigenvalues --    2.79770   2.80152   2.80391   2.81773   2.82423
 Alpha virt. eigenvalues --    2.82644   2.82847   2.84090   2.86471   2.87010
 Alpha virt. eigenvalues --    2.87363   2.87548   2.87651   2.87863   2.88333
 Alpha virt. eigenvalues --    2.88422   2.89313   2.90234   2.90954   2.91078
 Alpha virt. eigenvalues --    2.91153   2.91276   2.91308   2.91792   2.92318
 Alpha virt. eigenvalues --    2.92652   2.92979   2.93699   2.94128   2.94243
 Alpha virt. eigenvalues --    2.94287   2.94739   2.95602   2.95867   2.96086
 Alpha virt. eigenvalues --    2.96748   2.97040   2.97203   2.97540   2.97688
 Alpha virt. eigenvalues --    2.98115   2.98177   2.98765   2.99099   2.99519
 Alpha virt. eigenvalues --    2.99825   2.99983   3.00548   3.01244   3.01432
 Alpha virt. eigenvalues --    3.01604   3.02433   3.03123   3.03607   3.05151
 Alpha virt. eigenvalues --    3.05616   3.06222   3.06366   3.07675   3.08878
 Alpha virt. eigenvalues --    3.09532   3.10015   3.10655   3.10953   3.11355
 Alpha virt. eigenvalues --    3.11681   3.11850   3.12248   3.12392   3.12951
 Alpha virt. eigenvalues --    3.13373   3.14496   3.14956   3.15028   3.15455
 Alpha virt. eigenvalues --    3.16048   3.16502   3.17799   3.17919   3.18205
 Alpha virt. eigenvalues --    3.18540   3.19977   3.20252   3.20471   3.23251
 Alpha virt. eigenvalues --    3.26506   3.26738   3.27659   3.29886   3.34212
 Alpha virt. eigenvalues --    3.34950   3.34994   3.36149   3.41247   3.42586
 Alpha virt. eigenvalues --    3.42620   3.42924   3.46086   3.46224   3.46358
 Alpha virt. eigenvalues --    3.46473   3.53334   3.53421   3.53488   3.53665
 Alpha virt. eigenvalues --    3.59089   3.59239   3.59673   3.60011   3.65172
 Alpha virt. eigenvalues --    3.65390   3.65462   3.65825   3.75378   3.75631
 Alpha virt. eigenvalues --    3.75807   3.76025   3.83406   3.83670   3.83921
 Alpha virt. eigenvalues --    3.84057  51.71277  51.71401
          Condensed to atoms (all electrons):
 Mulliken charges:
               1
     1  Pd   0.503444
     2  Pd   0.495180
     3  C    0.014400
     4  C   -0.062304
     5  C   -0.008146
     6  C    0.005948
     7  C    0.014824
     8  C    0.007394
     9  C    0.032421
    10  C   -0.015091
    11  C    0.144446
    12  N   -0.315640
    13  C    0.184921
    14  C   -0.016989
    15  H    0.042637
    16  H    0.056428
    17  H    0.041992
    18  H    0.054127
    19  H    0.107905
    20  H    0.080884
    21  C   -0.069680
    22  C    0.008266
    23  C    0.014287
    24  C   -0.074516
    25  C    0.019162
    26  C    0.015605
    27  H    0.040798
    28  H    0.036505
    29  H    0.040561
    30  H    0.040421
    31  C    0.009314
    32  C   -0.003437
    33  C   -0.119695
    34  C    0.108286
    35  C   -0.035751
    36  C    0.157148
    37  N   -0.310130
    38  C    0.187778
    39  H    0.064692
    40  H    0.072255
    41  H    0.103806
    42  H    0.099483
    43  C    0.027804
    44  C   -0.073881
    45  C   -0.017026
    46  C    0.008236
    47  C    0.014893
    48  C    0.007798
    49  C    0.028816
    50  C   -0.011428
    51  C    0.133447
    52  N   -0.322867
    53  C    0.181317
    54  C   -0.008731
    55  H    0.042636
    56  H    0.056334
    57  H    0.042086
    58  H    0.054106
    59  H    0.106873
    60  H    0.078803
    61  C   -0.077035
    62  C    0.017190
    63  C    0.013710
    64  C   -0.076339
    65  C    0.019566
    66  C    0.016561
    67  H    0.036089
    68  H    0.032678
    69  H    0.040075
    70  H    0.040131
    71  C    0.021844
    72  C   -0.010971
    73  C   -0.117362
    74  C    0.115472
    75  C   -0.038345
    76  C    0.159178
    77  N   -0.313624
    78  C    0.166507
    79  H    0.064741
    80  H    0.073202
    81  H    0.104654
    82  H    0.102059
    83  C    0.020163
    84  C   -0.068317
    85  C   -0.011749
    86  C    0.004420
    87  C    0.015807
    88  C    0.007692
    89  C    0.029907
    90  C   -0.017676
    91  C    0.146724
    92  N   -0.318259
    93  C    0.179345
    94  C   -0.004902
    95  H    0.042503
    96  H    0.056209
    97  H    0.041938
    98  H    0.053677
    99  H    0.084249
   100  H    0.090581
   101  C   -0.071090
   102  C    0.013178
   103  C    0.020825
   104  C   -0.077628
   105  C    0.017624
   106  C    0.013651
   107  H    0.040511
   108  H    0.040241
   109  H    0.033916
   110  H    0.036756
   111  C    0.012601
   112  C   -0.000612
   113  C   -0.119725
   114  C    0.112187
   115  C   -0.032562
   116  C    0.153701
   117  N   -0.316077
   118  C    0.181671
   119  H    0.064545
   120  H    0.072247
   121  H    0.117432
   122  H    0.081366
   123  C    0.027799
   124  C   -0.075930
   125  C   -0.013777
   126  C    0.004869
   127  C    0.015755
   128  C    0.007125
   129  C    0.028841
   130  C   -0.010984
   131  C    0.131786
   132  N   -0.323265
   133  C    0.182065
   134  C   -0.008832
   135  H    0.042548
   136  H    0.056081
   137  H    0.042084
   138  H    0.053898
   139  H    0.106315
   140  H    0.079974
   141  C   -0.071763
   142  C    0.016737
   143  C    0.015470
   144  C   -0.075941
   145  C    0.021181
   146  C    0.013115
   147  H    0.034649
   148  H    0.033722
   149  H    0.040057
   150  H    0.040513
   151  C    0.019807
   152  C   -0.011194
   153  C   -0.115439
   154  C    0.114257
   155  C   -0.038822
   156  C    0.158594
   157  N   -0.313395
   158  C    0.167510
   159  H    0.064420
   160  H    0.073013
   161  H    0.104153
   162  H    0.102792
 Sum of Mulliken charges =   4.00000
 Mulliken charges with hydrogens summed into heavy atoms:
               1
     1  Pd   0.503444
     2  Pd   0.495180
     3  C    0.014400
     4  C   -0.062304
     5  C   -0.008146
     6  C    0.048584
     7  C    0.071251
     8  C    0.049386
     9  C    0.032421
    10  C    0.039036
    11  C    0.252352
    12  N   -0.315640
    13  C    0.265805
    14  C   -0.016989
    21  C   -0.069680
    22  C    0.049064
    23  C    0.050792
    24  C   -0.074516
    25  C    0.059723
    26  C    0.056026
    31  C    0.009314
    32  C   -0.003437
    33  C   -0.119695
    34  C    0.172978
    35  C    0.036505
    36  C    0.260954
    37  N   -0.310130
    38  C    0.287260
    43  C    0.027804
    44  C   -0.073881
    45  C   -0.017026
    46  C    0.050872
    47  C    0.071226
    48  C    0.049883
    49  C    0.028816
    50  C    0.042678
    51  C    0.240320
    52  N   -0.322867
    53  C    0.260119
    54  C   -0.008731
    61  C   -0.077035
    62  C    0.053279
    63  C    0.046388
    64  C   -0.076339
    65  C    0.059641
    66  C    0.056692
    71  C    0.021844
    72  C   -0.010971
    73  C   -0.117362
    74  C    0.180212
    75  C    0.034857
    76  C    0.263832
    77  N   -0.313624
    78  C    0.268567
    83  C    0.020163
    84  C   -0.068317
    85  C   -0.011749
    86  C    0.046923
    87  C    0.072016
    88  C    0.049629
    89  C    0.029907
    90  C    0.036001
    91  C    0.230973
    92  N   -0.318259
    93  C    0.269926
    94  C   -0.004902
   101  C   -0.071090
   102  C    0.053689
   103  C    0.061066
   104  C   -0.077628
   105  C    0.051541
   106  C    0.050407
   111  C    0.012601
   112  C   -0.000612
   113  C   -0.119725
   114  C    0.176733
   115  C    0.039685
   116  C    0.271133
   117  N   -0.316077
   118  C    0.263037
   123  C    0.027799
   124  C   -0.075930
   125  C   -0.013777
   126  C    0.047416
   127  C    0.071837
   128  C    0.049210
   129  C    0.028841
   130  C    0.042914
   131  C    0.238102
   132  N   -0.323265
   133  C    0.262039
   134  C   -0.008832
   141  C   -0.071763
   142  C    0.051386
   143  C    0.049192
   144  C   -0.075941
   145  C    0.061238
   146  C    0.053628
   151  C    0.019807
   152  C   -0.011194
   153  C   -0.115439
   154  C    0.178677
   155  C    0.034191
   156  C    0.262747
   157  N   -0.313395
   158  C    0.270302
 Electronic spatial extent (au):  <R**2>=         137439.2692
 Charge=              4.0000 electrons
 Dipole moment (field-independent basis, Debye):
    X=              6.2885    Y=              0.1447    Z=             -1.0487  Tot=              6.3770
 Quadrupole moment (field-independent basis, Debye-Ang):
   XX=            456.9045   YY=           -425.0438   ZZ=           -409.1845
   XY=            -13.2158   XZ=            -90.4534   YZ=             10.0286
 Traceless Quadrupole moment (field-independent basis, Debye-Ang):
   XX=            582.6791   YY=           -299.2692   ZZ=           -283.4099
   XY=            -13.2158   XZ=            -90.4534   YZ=             10.0286
 Octapole moment (field-independent basis, Debye-Ang**2):
  XXX=           1172.3597  YYY=             45.5565  ZZZ=             -0.9467  XYY=           -341.3020
  XXY=              7.6161  XXZ=            -26.8793  XZZ=            184.2694  YZZ=             41.8145
  YYZ=           -120.4325  XYZ=             56.6245
 Hexadecapole moment (field-independent basis, Debye-Ang**3):
 XXXX=         -47143.2115 YYYY=         -26349.0232 ZZZZ=         -23866.1265 XXXY=           -305.0486
 XXXZ=          -2811.4994 YYYX=           -966.9893 YYYZ=          -1117.7205 ZZZX=           -335.2039
 ZZZY=           1411.7486 XXYY=         -18063.8206 XXZZ=         -15922.5247 YYZZ=         -10881.3180
 XXYZ=            409.4245 YYXZ=          -2179.9129 ZZXY=            594.2753
 N-N= 1.943701702574D+04 E-N=-4.876276755420D+04  KE= 4.177296793705D+03
 Leave Link  601 at Fri Feb 26 12:06:56 2021, MaxMem=  7864320000 cpu:              74.7 elap:               2.8
 (Enter /apps/gaussian/g16-c01-avx/g16/l9999.exe)
 Unable to Open any file for archive entry.
 1\1\GINC-CX3-3-9\SP\RPBE1PBE\def2SVP\C96H56N8Pd2(4+)\ATARZIA\26-Feb-20
 21\0\\#P PBE1PBE/Def2SVP SP SCF=(YQC,MaxCycle=900) int=(Grid=Superfine
 grid) EmpiricalDispersion=GD3BJ SCRF=(PCM,Solvent=DiMethylSulfoxide)\\
 _s_4b3_b\\4,1\Pd,0,-0.7812,6.4605,0.7711\Pd,0,2.9713,-6.9176,-0.2942\C
 ,0,6.5996,-2.4276,1.2508\C,0,7.0992,-3.5282,1.1919\C,0,7.7131,-4.7931,
 1.1348\C,0,9.0597,-4.9295,1.4199\C,0,9.6821,-6.1815,1.3736\C,0,8.977,-
 7.3124,1.0434\C,0,7.6059,-7.2226,0.7411\C,0,6.8206,-8.3447,0.3898\C,0,
 5.4952,-8.1857,0.1031\N,0,4.896,-6.9699,0.1418\C,0,5.5931,-5.9003,0.46
 72\C,0,6.9589,-5.9535,0.7832\H,0,9.6369,-4.0569,1.6849\H,0,10.7343,-6.
 251,1.6037\H,0,9.4621,-8.2753,1.011\H,0,7.2795,-9.3197,0.351\H,0,4.857
 ,-9.0255,-0.1709\H,0,5.0702,-4.9461,0.4825\C,0,6.0061,-1.1514,1.3025\C
 ,0,4.6129,-1.0216,1.3474\C,0,4.0323,0.2262,1.3787\C,0,4.8335,1.374,1.3
 66\C,0,6.2269,1.2462,1.3344\C,0,6.8069,-0.0033,1.3029\H,0,4.0004,-1.90
 93,1.3633\H,0,2.959,0.3305,1.4149\H,0,6.8452,2.131,1.3307\H,0,7.8813,-
 0.1041,1.2743\C,0,4.2378,2.6495,1.3812\C,0,3.7011,3.7332,1.3851\C,0,3.
 108,5.0098,1.3974\C,0,3.8693,6.1603,1.6512\C,0,3.243,7.3928,1.6563\C,0
 ,1.8802,7.4622,1.4065\N,0,1.1593,6.3665,1.1611\C,0,1.7401,5.1666,1.155
 2\H,0,4.9279,6.074,1.8407\H,0,3.8014,8.2941,1.8509\H,0,1.3513,8.4108,1
 .4019\H,0,1.0959,4.3103,0.9514\C,0,-1.2181,1.759,4.9737\C,0,-1.5842,2.
 8912,5.1936\C,0,-1.9803,4.1742,5.6176\C,0,-2.4999,4.3228,6.8921\C,0,-2
 .8308,5.5838,7.3962\C,0,-2.6338,6.7154,6.6444\C,0,-2.1244,6.6097,5.338
 2\C,0,-1.893,7.7376,4.5186\C,0,-1.4307,7.5679,3.2477\N,0,-1.2043,6.336
 6,2.7179\C,0,-1.3763,5.2627,3.4617\C,0,-1.8142,5.3282,4.7959\H,0,-2.63
 59,3.4492,7.5111\H,0,-3.2309,5.6611,8.3955\H,0,-2.8661,7.6908,7.0418\H
 ,0,-2.0865,8.7241,4.9086\H,0,-1.2219,8.4212,2.6001\H,0,-1.1749,4.3012,
 2.9992\C,0,-0.7621,0.4461,4.7405\C,0,0.4792,0.2275,4.1324\C,0,0.9374,-
 1.0571,3.9415\C,0,0.1621,-2.1491,4.3499\C,0,-1.0747,-1.9306,4.9661\C,0
 ,-1.5318,-0.645,5.1597\H,0,1.0791,1.0729,3.8338\H,0,1.9009,-1.2306,3.4
 88\H,0,-1.6691,-2.7729,5.2859\H,0,-2.4851,-0.4727,5.6357\C,0,0.6161,-3
 .4581,4.0967\C,0,0.9993,-4.5748,3.834\C,0,1.4209,-5.8397,3.3805\C,0,1.
 1211,-7.0381,4.0434\C,0,1.5181,-8.2345,3.4733\C,0,2.1712,-8.2274,2.247
 8\N,0,2.4595,-7.0854,1.6225\C,0,2.1222,-5.9199,2.1754\H,0,0.5849,-7.01
 86,4.9794\H,0,1.3078,-9.1718,3.9626\H,0,2.4725,-9.1439,1.7522\H,0,2.41
 01,-5.0133,1.6397\C,0,-4.3417,1.751,-0.5058\C,0,-4.8199,2.8619,-0.4625
 \C,0,-5.4703,4.1086,-0.4343\C,0,-6.8298,4.1679,-0.6882\C,0,-7.5173,5.3
 851,-0.6672\C,0,-6.8622,6.5599,-0.3937\C,0,-5.4801,6.5489,-0.1321\C,0,
 -4.7489,7.7228,0.1543\C,0,-3.4088,7.6459,0.3976\N,0,-2.737,6.4696,0.37
 34\C,0,-3.3848,5.3499,0.1105\C,0,-4.7637,5.3164,-0.1507\H,0,-7.3668,3.
 2569,-0.9039\H,0,-8.5774,5.3922,-0.8693\H,0,-7.3935,7.4984,-0.3767\H,0
 ,-5.2584,8.6727,0.1781\H,0,-2.8238,8.5329,0.6217\H,0,-2.8019,4.4304,0.
 1001\C,0,-3.7992,0.4538,-0.5722\C,0,-4.5854,-0.5942,-1.0684\C,0,-4.070
 7,-1.8692,-1.1511\C,0,-2.7575,-2.1214,-0.7391\C,0,-1.9741,-1.0755,-0.2
 349\C,0,-2.4888,0.1985,-0.1519\H,0,-5.5969,-0.3945,-1.3883\H,0,-4.6759
 ,-2.6759,-1.5362\H,0,-0.9662,-1.2812,0.087\H,0,-1.8901,1.0053,0.2396\C
 ,0,-2.2064,-3.4128,-0.8314\C,0,-1.7035,-4.51,-0.9086\C,0,-1.0376,-5.74
 74,-0.9739\C,0,-1.6798,-6.9488,-1.3031\C,0,-0.9385,-8.117,-1.3372\C,0,
 0.4167,-8.0756,-1.0455\N,0,1.0256,-6.9273,-0.734\C,0,0.3314,-5.7929,-0
 .6975\H,0,-2.7358,-6.9542,-1.524\H,0,-1.4052,-9.0562,-1.5868\H,0,1.038
 8,-8.9671,-1.0576\H,0,0.8724,-4.8846,-0.4422\C,0,0.8858,3.0567,-4.3354
 \C,0,0.5899,4.2301,-4.3636\C,0,0.3419,5.6021,-4.5516\C,0,0.4384,6.1207
 ,-5.8327\C,0,0.2743,7.4864,-6.077\C,0,0.0286,8.3592,-5.0461\C,0,-0.088
 3,7.876,-3.7312\C,0,-0.3265,8.7283,-2.6293\C,0,-0.4539,8.1998,-1.3797\
 N,0,-0.3871,6.8617,-1.1478\C,0,-0.1405,6.0375,-2.1462\C,0,0.0429,6.480
 9,-3.4676\H,0,0.6564,5.4558,-6.6543\H,0,0.357,7.8531,-7.0886\H,0,-0.07
 65,9.4168,-5.2299\H,0,-0.4036,9.7918,-2.7897\H,0,-0.6155,8.8376,-0.508
 6\H,0,-0.0894,4.9785,-1.9138\C,0,1.2642,1.7011,-4.3022\C,0,1.5631,1.07
 01,-3.0893\C,0,1.9654,-0.2456,-3.0785\C,0,2.075,-0.9622,-4.2774\C,0,1.
 7752,-0.3333,-5.4903\C,0,1.3747,0.9853,-5.5014\H,0,1.4859,1.6265,-2.16
 94\H,0,2.2044,-0.7375,-2.1498\H,0,1.8602,-0.8833,-6.4153\H,0,1.1452,1.
 4744,-6.436\C,0,2.4674,-2.3127,-4.2239\C,0,2.7871,-3.4742,-4.1142\C,0,
 3.0751,-4.829,-3.8648\C,0,3.2156,-5.792,-4.8741\C,0,3.4236,-7.1116,-4.
 5143\C,0,3.4597,-7.459,-3.1703\N,0,3.3361,-6.5391,-2.2126\C,0,3.1722,-
 5.2568,-2.5379\H,0,3.1539,-5.5014,-5.9113\H,0,3.5394,-7.8739,-5.2677\H
 ,0,3.5909,-8.4859,-2.8465\H,0,3.1116,-4.5372,-1.7192\\Version=ES64L-G1
 6RevC.01\State=1-A\HF=-4377.3804622\RMSD=3.605e-09\Dipole=0.6740315,-2
 .3960536,-0.3149164\Quadrupole=-150.6143744,374.1271458,-223.5127714,-
 192.8479898,-16.4174376,41.1617499\PG=C01 [X(C96H56N8Pd2)]\\@
 The archive entry for this job was punched.


 A leading authority is anyone who has guessed right more than once.
 -- Frank A. Clark
 Job cpu time:       2 days  4 hours  5 minutes 26.4 seconds.
 Elapsed time:       0 days  1 hours 39 minutes 54.0 seconds.
 File lengths (MBytes):  RWF=   4432 Int=      0 D2E=      0 Chk=    192 Scr=      2
 Normal termination of Gaussian 16 at Fri Feb 26 12:06:57 2021.
