      -----------------------------------------------------------      
     |                   =====================                   |     
     |                           x T B                           |     
     |                   =====================                   |     
     |                         S. Grimme                         |     
     |          Mulliken Center for Theoretical Chemistry        |     
     |                    University of Bonn                     |     
     |                Version 6.2 RC2 (SAW190805)                |     
      -----------------------------------------------------------      

   This program is distributed in the hope that it will be useful,
   but WITHOUT ANY WARRANTY; without even the implied warranty of
   MERCHANTABILITY or FITNESS FOR A PARTICULAR PURPOSE.
   
   FOR NON-COMMERCIAL, ACADEMIA USE ONLY.
   
   Cite this work as:
   * S. Grimme, C. Bannwarth, P. Shushkov, J. Chem. Theory Comput., 2017,
     13, 1989-2009. DOI: 10.1021/acs.jctc.7b00118
   * C. Bannwarth, S. Ehlert and S. Grimme., J. Chem. Theory Comput., 2019,
     15, 1652-1671. DOI: 10.1021/acs.jctc.8b01176
   * P. Pracht, E. Caldeweyher, S. Ehlert, S. Grimme, ChemRxiv, 2019, preprint.
     DOI: 10.26434/chemrxiv.8326202.v1
   
   for DFT-D4:
   * E. Caldeweyher, C. Bannwarth and S. Grimme, J. Chem. Phys., 2017,
     147, 034112. DOI: 10.1063/1.4993215
   * E. Caldeweyher, S. Ehlert, A. Hansen, H. Neugebauer, S. Spicher,
     C. Bannwarth and S. Grimme, J. Chem. Phys., 2019, 150, 154122.
     DOI: 10.1063/1.5090222
   
   for sTDA-xTB:
   * S. Grimme and C. Bannwarth, J. Chem. Phys., 2016, 145, 054103.
     DOI: 10.1063/1.4959605
   
   in the mass-spec context:
   * V. Asgeirsson, C. Bauer and S. Grimme, Chem. Sci., 2017, 8, 4879.
     DOI: 10.1039/c7sc00601b
   
   for metadynamics refer to:
   * S. Grimme, J. Chem. Theory Comput., 2019, 155, 2847-2862
     DOI: 10.1021/acs.jctc.9b00143
   
   with help from (in alphabetical order)
   C. Bannwarth, F. Bohle, G. Brandenburg, E. Caldeweyher, M. Checinski,
   S. Dohm, S. Ehlert, S. Ehrlich, F. März, H. Neugebauer, J. Pisarek,
   P. Pracht, P. Shushkov, and S. Spicher.
   
 * started run on 2021/06/21 at 14:59:50.854     

           -------------------------------------------------
          |                Calculation Setup                |
           -------------------------------------------------

          program call               : /home/atarzia/software/xtb-190806/bin/xtb /data/atarzia/projects/unsymm/screening/production/free_energy_calculations/fe_5d1_a/input_structure.xyz --gfn 2 --hess --parallel 6 --etemp 300 --gbsa dmso --chrg 4 --uhf 0 -I det_control.in
          coordinate file            : /data/atarzia/projects/unsymm/screening/production/free_energy_calculations/fe_5d1_a/input_structure.xyz
          omp threads                :                     6
          number of atoms            :                   154
          number of electrons        :                   464
          charge                     :                     4
          spin                       :                   0.0
          first test random number   :      0.73135474192218


########################################################################
# WARNING! Please study the warnings concerning your input carefully
#  - XTBHOME is not set, using HOME instead
#  - XTBPATH is not set, using XTBHOME instead
#  - Process number higher than OMP_NUM_THREADS, I hope you know what you are doing.
########################################################################

           ------------------------------------------------- 
          |                 G F N 2 - x T B                 |
          | Geometry, Frequencies, Noncovalent interactions |
          |            JCTC 2019 parametrisation            |
           ------------------------------------------------- 
             k(s)              :                1.8500
             k(p)              :                2.2300
             k(d)              :                2.2300
             k(f)              :                2.0000
             kEN (H0ij)        :               -2.0000
             D4 a1             :                0.5200
             D4 a2             :                5.0000
             D4 s6             :                1.0000
             D4 s8             :                2.7000
             D4 s9             :                5.0000
             alphaj            :                2.0000

  Z AO/shell   Hii/eV     exponent
  1     Wed Apr 25 08:07:45 CEST 2018   EN: 2.200 GM2: 0.406  GM3: 0.0800  RAES: 1.40
     1s    -10.707211    1.230000
  6     Wed Apr 25 08:07:45 CEST 2018   EN: 2.550 GM2: 0.538  GM3: 0.1500  RAES: 3.00
     2s    -13.970922    2.096432
     2p    -10.063292    1.800000
  7     Wed Apr 25 08:07:45 CEST 2018   EN: 3.040 GM2: 0.461  GM3:-0.0640  RAES: 1.90
     2s    -16.686243    2.339881
     2p    -12.523956    2.014332
 46     Wed Apr 25 16:26:58 CEST 2018   EN: 2.200 GM2: 0.273  GM3: 0.0800  RAES: 5.00
     4d    -11.963518    2.353691
     5s     -9.714059    1.828354
     5p     -2.035281    1.333352

 Solvent             : dmso
 Using internal parameter file: .param_gbsa2_dmso
 Gsolv ref. state (COSMO-RS): gsolv [1 M gas/solution]
 temperature (mdtemp)       :    298.150000000000     
 dielectric constant        :    46.6800000000000     
 rho                        :    1.10000000000000     
 mass                       :    78.1300000000000     
 surface tension            :    15.5689454083859     
 probe radius               :   0.949087640000000     
 vdW radii scaling          :    1.00000000000000     
 Gshift (Eh)                :   5.161738145414381E-003
 c1                         :    1.63948621000000     
 soset                      :   1.179665000000000E-002
 HB correction              :  T
           ------------------------------------------------- 
          |        Self-Consistent Charge Iterations        |
           ------------------------------------------------- 

          ...................................................
          :                      SETUP                      :
          :.................................................:
          :  # basis functions                 460          :
          :  # atomic orbitals                 458          :
          :  # shells                          254          :
          :  # electrons                       464          :
          :  max. iterations                   250          :
          :  Hamiltonian                  GFN2-xTB          :
          :  restarted?                      false          :
          :  GBSA solvation                   true          :
          :  PC potential                    false          :
          :  electronic temp.          300.0000000     K    :
          :  accuracy                    1.0000000          :
          :  -> integral cutoff          0.2500000E+02      :
          :  -> integral neglect         0.1000000E-07      :
          :  -> SCF convergence          0.1000000E-05 Eh   :
          :  -> wf. convergence          0.1000000E-03 e    :
          :  Broyden damping             0.4000000          :
          ...................................................

 iter      E             dE          RMSdq      gap      omega  full diag
   1   -252.0238324 -0.252024E+03  0.583E+00    2.23       0.0  T
   2   -252.4705743 -0.446742E+00  0.381E+00    1.46       1.0  T
   3   -252.3059287  0.164646E+00  0.210E+00    1.80       1.0  T
   4   -252.7018039 -0.395875E+00  0.947E-01    2.20       1.0  T
   5   -252.7745468 -0.727429E-01  0.424E-01    2.14       1.0  T
   6   -252.7960989 -0.215520E-01  0.162E-01    2.19       1.0  T
   7   -252.7977878 -0.168891E-02  0.770E-02    2.20       1.0  T
   8   -252.7978943 -0.106539E-03  0.287E-02    2.20       1.0  T
   9   -252.7979355 -0.412379E-04  0.123E-02    2.20       1.0  T
  10   -252.7979446 -0.908870E-05  0.526E-03    2.20       1.5  T
  11   -252.7979451 -0.466018E-06  0.297E-03    2.20       2.7  T
  12   -252.7979457 -0.646548E-06  0.103E-03    2.20       7.8  T
  13   -252.7979458 -0.373066E-07  0.494E-04    2.20      16.3  T
  14   -252.7979458 -0.176871E-07  0.276E-04    2.20      29.2  T

   *** convergence criteria satisfied after 14 iterations ***

         #    Occupation            Energy/Eh            Energy/eV
      -------------------------------------------------------------
         1        2.0000           -0.7346956             -19.9921
       ...           ...                  ...                  ...
       226        2.0000           -0.4190688             -11.4034
       227        2.0000           -0.4184390             -11.3863
       228        2.0000           -0.4178063             -11.3691
       229        2.0000           -0.4007158             -10.9040
       230        2.0000           -0.4006996             -10.9036
       231        2.0000           -0.4005432             -10.8993
       232        2.0000           -0.4004780             -10.8976 (HOMO)
       233                         -0.3194882              -8.6937 (LUMO)
       234                         -0.3193387              -8.6896
       235                         -0.3192588              -8.6875
       236                         -0.3182415              -8.6598
       237                         -0.3125042              -8.5037
       ...                                ...                  ...
       458                          1.4509359              39.4820
      -------------------------------------------------------------
                  HL-Gap            0.0809898 Eh            2.2038 eV
             Fermi-level           -0.3599831 Eh           -9.7956 eV

 SCC (total)                   0 d,  0 h,  0 min,  2.114 sec
 SCC setup                      ...        0 min,  0.104 sec (  4.925%)
 Dispersion                     ...        0 min,  0.027 sec (  1.259%)
 integral evaluation            ...        0 min,  0.353 sec ( 16.679%)
 zeroth order Hamiltonian       ...        0 min,  0.004 sec (  0.172%)
 iterations                     ...        0 min,  1.304 sec ( 61.654%)
 molecular gradient             ...        0 min,  0.313 sec ( 14.810%)
 printout                       ...        0 min,  0.011 sec (  0.497%)

         :::::::::::::::::::::::::::::::::::::::::::::::::::::
         ::                     SUMMARY                     ::
         :::::::::::::::::::::::::::::::::::::::::::::::::::::
         :: total energy            -248.230634976489 Eh    ::
         :: total w/o Gsasa/hb      -248.120214002785 Eh    ::
         :: gradient norm              0.000624672184 Eh/a0 ::
         :: HOMO-LUMO gap              2.203844367915 eV    ::
         ::.................................................::
         :: SCC energy              -252.893815588984 Eh    ::
         :: -> isotropic ES            0.652605738841 Eh    ::
         :: -> anisotropic ES         -0.087044000188 Eh    ::
         :: -> anisotropic XC          0.175569778135 Eh    ::
         :: -> dispersion             -0.227834547199 Eh    ::
         :: -> Gsolv                  -0.675049395312 Eh    ::
         ::    -> Gborn               -0.564628421608 Eh    ::
         ::    -> Gsasa               -0.101031522473 Eh    ::
         ::    -> Ghb                 -0.014551189376 Eh    ::
         ::    -> Gshift               0.005161738145 Eh    ::
         :: repulsion energy           4.657704182586 Eh    ::
         :: add. restraining           0.000000000000 Eh    ::
         :::::::::::::::::::::::::::::::::::::::::::::::::::::

           ------------------------------------------------- 
          |                Numerical Hessian                |
           ------------------------------------------------- 
step length          :   0.00500
SCC accuracy         :   0.30000
Hessian scale factor :   1.00000
frozen atoms in %    :   0.00000    0
RMS gradient         :   0.00062
estimated CPU  time     75.34 min
estimated wall time     20.65 min

writing file <hessian>.

 projected vibrational frequencies (cm-1)
eigval :       -0.00    -0.00    -0.00     0.00     0.00     0.00
eigval :        5.73     7.15     7.79    10.52    17.90    18.30
eigval :       18.42    21.54    26.02    26.16    26.91    32.70
eigval :       42.80    45.28    45.68    48.09    48.90    61.56
eigval :       62.01    63.60    63.96    70.57    70.90    77.04
eigval :       79.31    88.30    88.49    92.95    99.10    99.90
eigval :      100.25   105.28   110.81   111.09   115.06   115.26
eigval :      118.34   122.34   122.52   122.85   126.89   135.21
eigval :      141.34   141.37   142.86   160.90   171.14   172.64
eigval :      174.69   176.44   179.11   179.87   184.89   187.98
eigval :      194.60   197.24   201.38   220.47   223.27   223.33
eigval :      223.37   224.83   232.26   235.64   251.74   251.94
eigval :      257.38   257.71   259.28   264.67   269.28   269.69
eigval :      278.57   282.07   290.59   290.71   312.87   313.26
eigval :      313.33   314.02   327.20   327.54   329.59   330.28
eigval :      336.00   337.00   337.73   338.13   350.34   350.70
eigval :      353.58   357.30   377.38   387.13   392.35   392.95
eigval :      393.11   393.87   395.42   395.56   428.85   428.88
eigval :      430.21   430.34   441.04   449.20   452.23   452.59
eigval :      464.32   465.58   466.75   466.93   479.96   480.72
eigval :      480.80   481.10   488.12   489.63   490.03   490.21
eigval :      519.35   519.52   521.24   521.33   527.21   528.40
eigval :      529.02   529.11   540.70   542.65   543.74   543.83
eigval :      570.40   574.38   574.88   575.13   590.19   590.84
eigval :      592.96   593.06   600.10   600.60   600.63   600.72
eigval :      612.13   615.55   617.97   618.37   618.52   618.71
eigval :      624.86   624.99   660.24   660.57   661.02   661.06
eigval :      669.39   670.53   670.60   670.66   680.39   680.58
eigval :      681.11   681.20   724.25   725.02   725.28   725.32
eigval :      741.31   742.90   743.30   743.34   776.07   776.51
eigval :      776.73   776.99   779.87   780.28   780.55   780.73
eigval :      795.00   798.18   800.57   800.65   801.95   802.44
eigval :      802.65   803.57   816.41   818.19   819.11   821.13
eigval :      853.36   854.83   856.64   856.65   862.72   863.38
eigval :      863.48   863.51   863.81   864.30   864.57   866.25
eigval :      872.11   872.58   872.87   873.67   892.80   893.22
eigval :      893.39   893.75   895.64   897.37   897.50   897.58
eigval :      897.70   898.12   898.38   898.58   899.46   900.82
eigval :      901.20   901.41   905.90   906.16   906.24   907.02
eigval :      934.83   935.26   935.29   935.32   935.39   935.44
eigval :      935.57   935.64   941.22   941.25   941.40   941.45
eigval :      975.65   976.02   976.93   976.94   994.64   997.16
eigval :      998.24   998.36  1041.58  1042.33  1042.42  1043.02
eigval :     1067.64  1068.05  1068.22  1068.74  1080.61  1080.82
eigval :     1080.95  1082.00  1083.30  1083.41  1083.42  1083.52
eigval :     1104.76  1105.01  1105.07  1105.85  1128.77  1128.91
eigval :     1128.98  1129.21  1136.33  1136.84  1136.98  1138.43
eigval :     1161.13  1164.28  1164.53  1167.58  1171.98  1172.84
eigval :     1172.92  1175.92  1175.92  1177.24  1177.47  1180.83
eigval :     1188.73  1189.68  1189.80  1190.65  1194.65  1197.03
eigval :     1197.20  1202.38  1209.05  1210.61  1210.90  1214.05
eigval :     1221.67  1221.70  1221.90  1223.40  1230.19  1232.52
eigval :     1232.91  1237.52  1242.00  1242.17  1242.25  1242.48
eigval :     1264.66  1264.96  1265.06  1265.09  1287.54  1287.76
eigval :     1289.42  1290.12  1297.77  1297.96  1298.01  1301.34
eigval :     1310.95  1311.06  1311.11  1311.19  1318.23  1318.37
eigval :     1318.46  1318.61  1345.04  1345.06  1346.91  1348.42
eigval :     1369.68  1369.86  1370.48  1370.67  1379.90  1380.71
eigval :     1380.86  1380.97  1400.86  1401.22  1401.34  1401.91
eigval :     1402.81  1402.85  1402.96  1403.23  1424.36  1424.93
eigval :     1425.14  1425.20  1445.98  1446.05  1446.14  1446.42
eigval :     1460.18  1460.19  1460.79  1461.18  1469.62  1469.64
eigval :     1469.75  1470.00  1535.15  1536.74  1536.98  1536.99
eigval :     1538.47  1538.50  1538.74  1539.04  1545.49  1547.01
eigval :     1547.16  1547.26  1557.14  1558.37  1558.41  1558.45
eigval :     1558.52  1558.84  1559.15  1559.20  1569.81  1570.21
eigval :     1570.49  1570.50  1578.53  1578.64  1578.76  1578.77
eigval :     2301.54  2301.58  2301.70  2302.24  2963.93  2966.00
eigval :     2970.76  2972.73  2986.11  2987.69  2990.22  2991.66
eigval :     3026.67  3026.92  3027.43  3027.66  3028.22  3028.57
eigval :     3029.17  3030.32  3087.80  3087.82  3087.97  3088.16
eigval :     3093.46  3093.79  3093.80  3094.10  3097.68  3098.05
eigval :     3098.15  3098.16  3102.43  3102.49  3102.86  3103.07
eigval :     3103.52  3103.85  3103.89  3103.98  3104.49  3104.55
eigval :     3104.65  3104.70  3107.67  3107.71  3108.11  3108.16
eigval :     3109.77  3109.91  3109.98  3110.30  3117.25  3117.30
eigval :     3117.34  3117.57  3118.85  3119.39  3119.41  3119.47
           -------------------------------------------------
          |                Property Printout                |
           -------------------------------------------------

    * Orbital Energies and Occupations

         #    Occupation            Energy/Eh            Energy/eV
      -------------------------------------------------------------
         1        2.0000           -0.7346940             -19.9920
       ...           ...                  ...                  ...
       220        2.0000           -0.4243473             -11.5471
       221        2.0000           -0.4241182             -11.5408
       222        2.0000           -0.4234160             -11.5217
       223        2.0000           -0.4226049             -11.4997
       224        2.0000           -0.4219689             -11.4824
       225        2.0000           -0.4192927             -11.4095
       226        2.0000           -0.4190678             -11.4034
       227        2.0000           -0.4184375             -11.3863
       228        2.0000           -0.4178045             -11.3690
       229        2.0000           -0.4007143             -10.9040
       230        2.0000           -0.4006982             -10.9036
       231        2.0000           -0.4005418             -10.8993
       232        2.0000           -0.4004765             -10.8975 (HOMO)
       233                         -0.3194869              -8.6937 (LUMO)
       234                         -0.3193379              -8.6896
       235                         -0.3192579              -8.6874
       236                         -0.3182402              -8.6598
       237                         -0.3125018              -8.5036
       238                         -0.3122403              -8.4965
       239                         -0.3120264              -8.4907
       240                         -0.3118934              -8.4871
       241                         -0.2983226              -8.1178
       242                         -0.2950125              -8.0277
       243                         -0.2946510              -8.0179
       ...                                ...                  ...
       458                          1.4509373              39.4820
      -------------------------------------------------------------
                  HL-Gap            0.0809896 Eh            2.2038 eV
             Fermi-level           -0.3599817 Eh           -9.7956 eV

     #   Z        covCN         q      C6AA      α(0)
     1  46 Pd     3.559    -0.070   273.798    34.123
     2  46 Pd     3.460    -0.039   272.366    34.036
     3   6 C      1.983    -0.022    31.636     9.083
     4   6 C      1.981    -0.031    31.869     9.117
     5   6 C      2.966     0.044    27.013     8.525
     6   6 C      2.919    -0.017    28.426     8.743
     7   6 C      2.914    -0.018    28.467     8.749
     8   6 C      2.913    -0.029    28.731     8.790
     9   6 C      2.981     0.005    27.904     8.665
    10   6 C      2.887     0.065    26.534     8.445
    11   7 N      2.661    -0.107    23.349     7.177
    12   6 C      2.934     0.033    27.253     8.562
    13   6 C      2.911    -0.031    28.768     8.795
    14   6 C      3.004     0.012    27.744     8.640
    15   1 H      0.926     0.062     2.179     2.309
    16   1 H      0.926     0.057     2.230     2.335
    17   1 H      0.926     0.070     2.081     2.256
    18   1 H      0.925     0.123     1.590     1.972
    19   1 H      0.925     0.131     1.530     1.935
    20   1 H      0.926     0.105     1.743     2.064
    21   6 C      2.971     0.040    27.103     8.539
    22   6 C      2.925    -0.023    28.580     8.767
    23   6 C      2.916    -0.025    28.631     8.774
    24   6 C      2.925    -0.029    28.726     8.789
    25   6 C      2.974    -0.002    28.081     8.692
    26   6 C      2.929    -0.040    28.994     8.831
    27   1 H      0.926     0.046     2.370     2.408
    28   1 H      0.926     0.043     2.409     2.427
    29   1 H      0.926     0.056     2.251     2.346
    30   1 H      0.926     0.082     1.957     2.188
    31   6 C      2.971     0.009    27.818     8.651
    32   6 C      2.932    -0.002    28.075     8.690
    33   6 C      2.910    -0.027    28.684     8.782
    34   6 C      2.922     0.054    26.795     8.489
    35   7 N      2.654    -0.108    23.361     7.178
    36   6 C      2.890     0.048    26.916     8.506
    37   1 H      0.926     0.088     1.900     2.156
    38   1 H      0.926     0.100     1.785     2.089
    39   1 H      0.925     0.120     1.613     1.986
    40   1 H      0.925     0.146     1.421     1.864
    41   6 C      1.983    -0.022    31.637     9.083
    42   6 C      1.981    -0.031    31.869     9.117
    43   6 C      2.966     0.044    27.013     8.525
    44   6 C      2.919    -0.017    28.426     8.743
    45   6 C      2.914    -0.018    28.468     8.749
    46   6 C      2.913    -0.029    28.732     8.790
    47   6 C      2.981     0.005    27.905     8.665
    48   6 C      2.888     0.065    26.538     8.446
    49   7 N      2.661    -0.107    23.340     7.175
    50   6 C      2.932     0.033    27.252     8.561
    51   6 C      2.911    -0.031    28.769     8.795
    52   6 C      3.004     0.011    27.744     8.640
    53   1 H      0.926     0.062     2.180     2.309
    54   1 H      0.926     0.057     2.230     2.335
    55   1 H      0.926     0.070     2.081     2.256
    56   1 H      0.925     0.123     1.590     1.972
    57   1 H      0.925     0.130     1.533     1.936
    58   1 H      0.926     0.105     1.743     2.065
    59   6 C      2.971     0.040    27.103     8.539
    60   6 C      2.925    -0.023    28.580     8.767
    61   6 C      2.916    -0.025    28.630     8.774
    62   6 C      2.925    -0.029    28.725     8.789
    63   6 C      2.974    -0.002    28.080     8.692
    64   6 C      2.929    -0.040    28.994     8.831
    65   1 H      0.926     0.046     2.371     2.408
    66   1 H      0.926     0.043     2.410     2.427
    67   1 H      0.926     0.056     2.251     2.346
    68   1 H      0.926     0.082     1.956     2.187
    69   6 C      2.971     0.009    27.818     8.651
    70   6 C      2.932    -0.002    28.075     8.690
    71   6 C      2.910    -0.027    28.684     8.782
    72   6 C      2.924     0.054    26.797     8.489
    73   7 N      2.654    -0.108    23.373     7.180
    74   6 C      2.890     0.048    26.913     8.505
    75   1 H      0.926     0.088     1.899     2.155
    76   1 H      0.926     0.100     1.784     2.089
    77   1 H      0.925     0.120     1.609     1.984
    78   1 H      0.925     0.146     1.419     1.863
    79   6 C      1.983    -0.022    31.638     9.084
    80   6 C      1.981    -0.031    31.871     9.117
    81   6 C      2.966     0.044    27.013     8.525
    82   6 C      2.919    -0.017    28.426     8.743
    83   6 C      2.914    -0.018    28.468     8.749
    84   6 C      2.913    -0.029    28.731     8.790
    85   6 C      2.981     0.005    27.900     8.664
    86   6 C      2.887     0.065    26.536     8.445
    87   7 N      2.661    -0.106    23.323     7.173
    88   6 C      2.934     0.033    27.258     8.562
    89   6 C      2.911    -0.031    28.767     8.795
    90   6 C      3.004     0.012    27.742     8.640
    91   1 H      0.926     0.062     2.180     2.309
    92   1 H      0.926     0.057     2.231     2.336
    93   1 H      0.926     0.070     2.081     2.256
    94   1 H      0.925     0.123     1.589     1.971
    95   1 H      0.925     0.131     1.528     1.933
    96   1 H      0.926     0.104     1.745     2.065
    97   6 C      2.971     0.040    27.104     8.540
    98   6 C      2.925    -0.023    28.580     8.767
    99   6 C      2.916    -0.025    28.631     8.774
   100   6 C      2.925    -0.029    28.727     8.790
   101   6 C      2.974    -0.002    28.082     8.692
   102   6 C      2.929    -0.040    28.992     8.830
   103   1 H      0.926     0.046     2.370     2.408
   104   1 H      0.926     0.043     2.408     2.427
   105   1 H      0.926     0.056     2.250     2.346
   106   1 H      0.926     0.082     1.959     2.189
   107   6 C      2.971     0.009    27.820     8.652
   108   6 C      2.932    -0.002    28.075     8.690
   109   6 C      2.910    -0.027    28.685     8.782
   110   6 C      2.922     0.054    26.795     8.489
   111   7 N      2.653    -0.107    23.344     7.176
   112   6 C      2.890     0.048    26.921     8.507
   113   1 H      0.926     0.088     1.901     2.156
   114   1 H      0.926     0.100     1.786     2.090
   115   1 H      0.925     0.120     1.613     1.986
   116   1 H      0.925     0.146     1.421     1.864
   117   6 C      1.983    -0.022    31.639     9.084
   118   6 C      1.981    -0.031    31.869     9.117
   119   6 C      2.966     0.044    27.015     8.525
   120   6 C      2.919    -0.017    28.428     8.743
   121   6 C      2.914    -0.018    28.469     8.749
   122   6 C      2.913    -0.029    28.733     8.790
   123   6 C      2.981     0.005    27.905     8.665
   124   6 C      2.888     0.065    26.545     8.447
   125   7 N      2.661    -0.105    23.307     7.170
   126   6 C      2.933     0.033    27.256     8.562
   127   6 C      2.911    -0.031    28.773     8.796
   128   6 C      3.004     0.012    27.744     8.640
   129   1 H      0.926     0.062     2.180     2.309
   130   1 H      0.926     0.057     2.232     2.336
   131   1 H      0.926     0.070     2.083     2.257
   132   1 H      0.925     0.123     1.590     1.972
   133   1 H      0.925     0.130     1.532     1.936
   134   1 H      0.926     0.105     1.744     2.065
   135   6 C      2.971     0.040    27.103     8.539
   136   6 C      2.925    -0.023    28.580     8.767
   137   6 C      2.916    -0.025    28.631     8.774
   138   6 C      2.925    -0.029    28.727     8.790
   139   6 C      2.974    -0.002    28.079     8.692
   140   6 C      2.929    -0.040    28.994     8.831
   141   1 H      0.926     0.046     2.372     2.408
   142   1 H      0.926     0.043     2.411     2.428
   143   1 H      0.926     0.056     2.252     2.347
   144   1 H      0.926     0.082     1.955     2.186
   145   6 C      2.971     0.009    27.816     8.651
   146   6 C      2.932    -0.002    28.076     8.690
   147   6 C      2.910    -0.027    28.685     8.782
   148   6 C      2.924     0.054    26.800     8.490
   149   7 N      2.654    -0.107    23.358     7.178
   150   6 C      2.889     0.048    26.913     8.505
   151   1 H      0.926     0.088     1.900     2.156
   152   1 H      0.926     0.100     1.785     2.089
   153   1 H      0.925     0.121     1.609     1.984
   154   1 H      0.925     0.146     1.417     1.862

 Mol. C6AA /au·bohr⁶  :     380239.138462
 Mol. C8AA /au·bohr⁸  :   10755264.002409
 Mol. α(0) /au        :       1013.408212


Wiberg/Mayer (AO) data.
largest (>0.10) Wiberg bond orders for each atom
          total WBO             WBO to atom ...
     1  Pd  3.490        N   87 0.596    N  125 0.595    N   49 0.595    N   11 0.594
     2  Pd  3.413        N  111 0.591    N  149 0.591    N   35 0.590    N   73 0.590
     3  C   3.944        C    4 2.645    C   21 1.125
     4  C   3.951        C    3 2.645    C    5 1.135
     5  C   3.988        C    6 1.447    C   14 1.214    C    4 1.135
     6  C   3.968        C    5 1.447    C    7 1.345    H   15 0.968
     7  C   3.987        C    8 1.534    C    6 1.345    H   16 0.968
     8  C   3.945        C    7 1.534    C    9 1.273    H   17 0.965
     9  C   3.987        C   10 1.283    C    8 1.273    C   14 1.239
    10  C   3.960        N   11 1.457    C    9 1.283    H   18 0.923    C   13 0.100
    11  N   3.525        C   10 1.457    C   12 1.225    Pd   1 0.594
    12  C   3.965        C   13 1.554    N   11 1.225    H   19 0.894
    13  C   3.980        C   12 1.554    C   14 1.286    H   20 0.953    C   10 0.100
    14  C   3.983        C   13 1.286    C    9 1.239    C    5 1.214
    15  H   0.996        C    6 0.968
    16  H   0.995        C    7 0.968
    17  H   0.994        C    8 0.965
    18  H   0.984        C   10 0.923
    19  H   0.982        C   12 0.894
    20  H   0.988        C   13 0.953
    21  C   3.988        C   26 1.360    C   22 1.355    C    3 1.125
    22  C   3.971        C   23 1.448    C   21 1.355    H   27 0.970
    23  C   3.990        C   22 1.448    C   24 1.443    H   28 0.969    C   26 0.101
    24  C   3.954        C   23 1.443    C   25 1.371    H   29 0.966
    25  C   3.984        C   26 1.407    C   24 1.371    C   31 1.044
    26  C   3.974        C   25 1.407    C   21 1.360    H   30 0.963    C   23 0.101
    27  H   0.997        C   22 0.970
    28  H   0.996        C   23 0.969
    29  H   0.997        C   24 0.966
    30  H   0.993        C   26 0.963
    31  C   3.983        C   36 1.387    C   32 1.375    C   25 1.044
    32  C   3.978        C   33 1.441    C   31 1.375    H   37 0.961
    33  C   3.980        C   32 1.441    C   34 1.436    H   38 0.960
    34  C   3.967        C   33 1.436    N   35 1.341    H   39 0.908
    35  N   3.526        C   36 1.360    C   34 1.341    Pd   2 0.590
    36  C   3.960        C   31 1.387    N   35 1.360    H   40 0.917
    37  H   0.990        C   32 0.961
    38  H   0.989        C   33 0.960
    39  H   0.984        C   34 0.908
    40  H   0.978        C   36 0.917
    41  C   3.944        C   42 2.645    C   59 1.125
    42  C   3.951        C   41 2.645    C   43 1.135
    43  C   3.988        C   44 1.447    C   52 1.214    C   42 1.135
    44  C   3.968        C   43 1.447    C   45 1.345    H   53 0.968
    45  C   3.987        C   46 1.534    C   44 1.345    H   54 0.968
    46  C   3.945        C   45 1.534    C   47 1.273    H   55 0.965
    47  C   3.987        C   48 1.284    C   46 1.273    C   52 1.239
    48  C   3.960        N   49 1.457    C   47 1.284    H   56 0.923    C   51 0.100
    49  N   3.525        C   48 1.457    C   50 1.226    Pd   1 0.595
    50  C   3.965        C   51 1.554    N   49 1.226    H   57 0.895
    51  C   3.980        C   50 1.554    C   52 1.286    H   58 0.953    C   48 0.100
    52  C   3.983        C   51 1.286    C   47 1.239    C   43 1.214
    53  H   0.996        C   44 0.968
    54  H   0.995        C   45 0.968
    55  H   0.994        C   46 0.965
    56  H   0.984        C   48 0.923
    57  H   0.982        C   50 0.895
    58  H   0.988        C   51 0.953
    59  C   3.988        C   64 1.361    C   60 1.355    C   41 1.125
    60  C   3.971        C   61 1.448    C   59 1.355    H   65 0.970
    61  C   3.990        C   60 1.448    C   62 1.443    H   66 0.969    C   64 0.101
    62  C   3.954        C   61 1.443    C   63 1.371    H   67 0.966
    63  C   3.984        C   64 1.407    C   62 1.371    C   69 1.044
    64  C   3.974        C   63 1.407    C   59 1.361    H   68 0.963    C   61 0.101
    65  H   0.997        C   60 0.970
    66  H   0.996        C   61 0.969
    67  H   0.997        C   62 0.966
    68  H   0.993        C   64 0.963
    69  C   3.983        C   74 1.386    C   70 1.375    C   63 1.044
    70  C   3.978        C   71 1.441    C   69 1.375    H   75 0.961
    71  C   3.980        C   70 1.441    C   72 1.436    H   76 0.960
    72  C   3.967        C   71 1.436    N   73 1.340    H   77 0.907
    73  N   3.526        C   74 1.360    C   72 1.340    Pd   2 0.590
    74  C   3.960        C   69 1.386    N   73 1.360    H   78 0.917
    75  H   0.990        C   70 0.961
    76  H   0.989        C   71 0.960
    77  H   0.984        C   72 0.907
    78  H   0.978        C   74 0.917
    79  C   3.944        C   80 2.645    C   97 1.126
    80  C   3.951        C   79 2.645    C   81 1.135
    81  C   3.988        C   82 1.447    C   90 1.214    C   80 1.135
    82  C   3.968        C   81 1.447    C   83 1.345    H   91 0.968
    83  C   3.987        C   84 1.534    C   82 1.345    H   92 0.968
    84  C   3.945        C   83 1.534    C   85 1.273    H   93 0.965
    85  C   3.987        C   86 1.283    C   84 1.273    C   90 1.239
    86  C   3.960        N   87 1.458    C   85 1.283    H   94 0.923    C   89 0.100
    87  N   3.527        C   86 1.458    C   88 1.225    Pd   1 0.596
    88  C   3.965        C   89 1.554    N   87 1.225    H   95 0.894
    89  C   3.980        C   88 1.554    C   90 1.286    H   96 0.953    C   86 0.100
    90  C   3.983        C   89 1.286    C   85 1.239    C   81 1.214
    91  H   0.996        C   82 0.968
    92  H   0.995        C   83 0.968
    93  H   0.994        C   84 0.965
    94  H   0.984        C   86 0.923
    95  H   0.982        C   88 0.894
    96  H   0.988        C   89 0.953
    97  C   3.988        C  102 1.360    C   98 1.355    C   79 1.126
    98  C   3.971        C   99 1.448    C   97 1.355    H  103 0.970
    99  C   3.990        C   98 1.448    C  100 1.443    H  104 0.969    C  102 0.101
   100  C   3.954        C   99 1.443    C  101 1.371    H  105 0.966
   101  C   3.984        C  102 1.407    C  100 1.371    C  107 1.044
   102  C   3.974        C  101 1.407    C   97 1.360    H  106 0.963    C   99 0.101
   103  H   0.997        C   98 0.970
   104  H   0.996        C   99 0.969
   105  H   0.997        C  100 0.966
   106  H   0.993        C  102 0.963
   107  C   3.983        C  112 1.387    C  108 1.375    C  101 1.044
   108  C   3.978        C  109 1.441    C  107 1.375    H  113 0.961
   109  C   3.980        C  108 1.441    C  110 1.435    H  114 0.960
   110  C   3.967        C  109 1.435    N  111 1.341    H  115 0.908
   111  N   3.526        C  112 1.360    C  110 1.341    Pd   2 0.591
   112  C   3.960        C  107 1.387    N  111 1.360    H  116 0.917
   113  H   0.990        C  108 0.961
   114  H   0.989        C  109 0.960
   115  H   0.984        C  110 0.908
   116  H   0.978        C  112 0.917
   117  C   3.944        C  118 2.645    C  135 1.125
   118  C   3.951        C  117 2.645    C  119 1.135
   119  C   3.988        C  120 1.447    C  128 1.214    C  118 1.135
   120  C   3.968        C  119 1.447    C  121 1.344    H  129 0.968
   121  C   3.987        C  122 1.535    C  120 1.344    H  130 0.968
   122  C   3.945        C  121 1.535    C  123 1.273    H  131 0.965
   123  C   3.987        C  124 1.284    C  122 1.273    C  128 1.239
   124  C   3.960        N  125 1.457    C  123 1.284    H  132 0.923    C  127 0.100
   125  N   3.526        C  124 1.457    C  126 1.225    Pd   1 0.595
   126  C   3.965        C  127 1.554    N  125 1.225    H  133 0.895
   127  C   3.980        C  126 1.554    C  128 1.286    H  134 0.953    C  124 0.100
   128  C   3.983        C  127 1.286    C  123 1.239    C  119 1.214
   129  H   0.996        C  120 0.968
   130  H   0.995        C  121 0.968
   131  H   0.994        C  122 0.965
   132  H   0.984        C  124 0.923
   133  H   0.982        C  126 0.895
   134  H   0.988        C  127 0.953
   135  C   3.988        C  140 1.361    C  136 1.355    C  117 1.125
   136  C   3.971        C  137 1.448    C  135 1.355    H  141 0.970
   137  C   3.990        C  136 1.448    C  138 1.443    H  142 0.969    C  140 0.101
   138  C   3.955        C  137 1.443    C  139 1.371    H  143 0.966
   139  C   3.984        C  140 1.407    C  138 1.371    C  145 1.044
   140  C   3.974        C  139 1.407    C  135 1.361    H  144 0.963    C  137 0.101
   141  H   0.997        C  136 0.970
   142  H   0.996        C  137 0.969
   143  H   0.997        C  138 0.966
   144  H   0.993        C  140 0.963
   145  C   3.983        C  150 1.386    C  146 1.375    C  139 1.044
   146  C   3.978        C  147 1.441    C  145 1.375    H  151 0.961
   147  C   3.980        C  146 1.441    C  148 1.436    H  152 0.960
   148  C   3.967        C  147 1.436    N  149 1.340    H  153 0.907
   149  N   3.526        C  150 1.360    C  148 1.340    Pd   2 0.591
   150  C   3.960        C  145 1.386    N  149 1.360    H  154 0.918
   151  H   0.990        C  146 0.961
   152  H   0.989        C  147 0.960
   153  H   0.984        C  148 0.907
   154  H   0.978        C  150 0.918

molecular dipole:
                 x           y           z       tot (Debye)
 q only:       -3.508      -0.533      -1.802
   full:       -3.515      -0.327      -1.802      10.075
molecular quadrupole (traceless):
                xx          xy          yy          xz          yz          zz
 q only:      -83.914     -14.372     172.220      -0.373      -8.595     -88.307
  q+dip:      -97.344     -16.966     199.037      -1.297     -10.064    -101.693
   full:      -86.144     -15.019     176.588      -0.773      -8.952     -90.444

           -------------------------------------------------
          |               Frequency Printout                |
           -------------------------------------------------
 projected vibrational frequencies (cm-1)
eigval :       -0.00    -0.00    -0.00     0.00     0.00     0.00
eigval :        5.73     7.15     7.79    10.52    17.90    18.30
eigval :       18.42    21.54    26.02    26.16    26.91    32.70
eigval :       42.80    45.28    45.68    48.09    48.90    61.56
eigval :       62.01    63.60    63.96    70.57    70.90    77.04
eigval :       79.31    88.30    88.49    92.95    99.10    99.90
eigval :      100.25   105.28   110.81   111.09   115.06   115.26
eigval :      118.34   122.34   122.52   122.85   126.89   135.21
eigval :      141.34   141.37   142.86   160.90   171.14   172.64
eigval :      174.69   176.44   179.11   179.87   184.89   187.98
eigval :      194.60   197.24   201.38   220.47   223.27   223.33
eigval :      223.37   224.83   232.26   235.64   251.74   251.94
eigval :      257.38   257.71   259.28   264.67   269.28   269.69
eigval :      278.57   282.07   290.59   290.71   312.87   313.26
eigval :      313.33   314.02   327.20   327.54   329.59   330.28
eigval :      336.00   337.00   337.73   338.13   350.34   350.70
eigval :      353.58   357.30   377.38   387.13   392.35   392.95
eigval :      393.11   393.87   395.42   395.56   428.85   428.88
eigval :      430.21   430.34   441.04   449.20   452.23   452.59
eigval :      464.32   465.58   466.75   466.93   479.96   480.72
eigval :      480.80   481.10   488.12   489.63   490.03   490.21
eigval :      519.35   519.52   521.24   521.33   527.21   528.40
eigval :      529.02   529.11   540.70   542.65   543.74   543.83
eigval :      570.40   574.38   574.88   575.13   590.19   590.84
eigval :      592.96   593.06   600.10   600.60   600.63   600.72
eigval :      612.13   615.55   617.97   618.37   618.52   618.71
eigval :      624.86   624.99   660.24   660.57   661.02   661.06
eigval :      669.39   670.53   670.60   670.66   680.39   680.58
eigval :      681.11   681.20   724.25   725.02   725.28   725.32
eigval :      741.31   742.90   743.30   743.34   776.07   776.51
eigval :      776.73   776.99   779.87   780.28   780.55   780.73
eigval :      795.00   798.18   800.57   800.65   801.95   802.44
eigval :      802.65   803.57   816.41   818.19   819.11   821.13
eigval :      853.36   854.83   856.64   856.65   862.72   863.38
eigval :      863.48   863.51   863.81   864.30   864.57   866.25
eigval :      872.11   872.58   872.87   873.67   892.80   893.22
eigval :      893.39   893.75   895.64   897.37   897.50   897.58
eigval :      897.70   898.12   898.38   898.58   899.46   900.82
eigval :      901.20   901.41   905.90   906.16   906.24   907.02
eigval :      934.83   935.26   935.29   935.32   935.39   935.44
eigval :      935.57   935.64   941.22   941.25   941.40   941.45
eigval :      975.65   976.02   976.93   976.94   994.64   997.16
eigval :      998.24   998.36  1041.58  1042.33  1042.42  1043.02
eigval :     1067.64  1068.05  1068.22  1068.74  1080.61  1080.82
eigval :     1080.95  1082.00  1083.30  1083.41  1083.42  1083.52
eigval :     1104.76  1105.01  1105.07  1105.85  1128.77  1128.91
eigval :     1128.98  1129.21  1136.33  1136.84  1136.98  1138.43
eigval :     1161.13  1164.28  1164.53  1167.58  1171.98  1172.84
eigval :     1172.92  1175.92  1175.92  1177.24  1177.47  1180.83
eigval :     1188.73  1189.68  1189.80  1190.65  1194.65  1197.03
eigval :     1197.20  1202.38  1209.05  1210.61  1210.90  1214.05
eigval :     1221.67  1221.70  1221.90  1223.40  1230.19  1232.52
eigval :     1232.91  1237.52  1242.00  1242.17  1242.25  1242.48
eigval :     1264.66  1264.96  1265.06  1265.09  1287.54  1287.76
eigval :     1289.42  1290.12  1297.77  1297.96  1298.01  1301.34
eigval :     1310.95  1311.06  1311.11  1311.19  1318.23  1318.37
eigval :     1318.46  1318.61  1345.04  1345.06  1346.91  1348.42
eigval :     1369.68  1369.86  1370.48  1370.67  1379.90  1380.71
eigval :     1380.86  1380.97  1400.86  1401.22  1401.34  1401.91
eigval :     1402.81  1402.85  1402.96  1403.23  1424.36  1424.93
eigval :     1425.14  1425.20  1445.98  1446.05  1446.14  1446.42
eigval :     1460.18  1460.19  1460.79  1461.18  1469.62  1469.64
eigval :     1469.75  1470.00  1535.15  1536.74  1536.98  1536.99
eigval :     1538.47  1538.50  1538.74  1539.04  1545.49  1547.01
eigval :     1547.16  1547.26  1557.14  1558.37  1558.41  1558.45
eigval :     1558.52  1558.84  1559.15  1559.20  1569.81  1570.21
eigval :     1570.49  1570.50  1578.53  1578.64  1578.76  1578.77
eigval :     2301.54  2301.58  2301.70  2302.24  2963.93  2966.00
eigval :     2970.76  2972.73  2986.11  2987.69  2990.22  2991.66
eigval :     3026.67  3026.92  3027.43  3027.66  3028.22  3028.57
eigval :     3029.17  3030.32  3087.80  3087.82  3087.97  3088.16
eigval :     3093.46  3093.79  3093.80  3094.10  3097.68  3098.05
eigval :     3098.15  3098.16  3102.43  3102.49  3102.86  3103.07
eigval :     3103.52  3103.85  3103.89  3103.98  3104.49  3104.55
eigval :     3104.65  3104.70  3107.67  3107.71  3108.11  3108.16
eigval :     3109.77  3109.91  3109.98  3110.30  3117.25  3117.30
eigval :     3117.34  3117.57  3118.85  3119.39  3119.41  3119.47
 reduced masses (amu)
   1: 24.09   2: 21.61   3: 21.34   4: 24.16   5: 18.09   6: 22.02   7: 11.57   8: 17.24
   9: 17.28  10: 12.70  11: 11.18  12: 13.48  13: 13.17  14: 36.84  15: 19.76  16: 19.87
  17: 11.41  18: 11.64  19: 16.14  20: 11.61  21: 11.61  22: 10.78  23: 18.60  24: 31.77
  25: 14.61  26: 13.48  27: 13.76  28: 14.79  29: 14.57  30: 10.96  31: 12.80  32: 11.01
  33: 10.99  34: 11.05  35: 11.76  36: 11.79  37: 13.03  38: 11.09  39: 11.64  40: 11.33
  41: 14.03  42: 13.72  43: 10.96  44: 12.56  45: 12.23  46: 12.37  47: 10.70  48: 14.67
  49: 14.17  50: 14.10  51: 16.68  52: 11.51  53: 18.09  54: 17.85  55: 12.22  56: 11.05
  57: 12.68  58: 12.95  59: 10.46  60: 14.74  61: 36.59  62: 37.28  63: 11.00  64: 24.94
  65: 12.65  66: 50.77  67: 12.94  68: 11.20  69: 29.37  70: 11.26  71: 37.09  72: 37.42
  73: 28.47  74: 28.64  75: 10.26  76: 19.81  77: 31.38  78: 30.68  79: 10.66  80: 10.59
  81: 26.40  82: 27.05  83: 11.25  84: 14.06  85: 14.08  86: 12.32  87: 11.85  88: 11.80
  89: 11.50  90: 10.92  91: 10.98  92: 10.30  93: 11.64  94: 11.60  95: 12.96  96: 12.95
  97: 11.16  98: 14.39  99: 10.13 100:  9.95 101:  9.59 102:  9.68 103:  9.72 104:  9.46
 105: 12.85 106: 12.93 107: 10.29 108: 10.29 109: 10.43 110: 10.20 111: 10.39 112: 10.28
 113: 11.20 114: 11.19 115: 11.22 116: 11.23 117: 11.50 118: 11.50 119: 11.38 120: 11.96
 121: 11.98 122: 11.45 123: 11.56 124: 11.62 125: 12.07 126: 12.09 127: 11.36 128: 11.34
 129: 11.77 130: 11.77 131: 11.20 132: 11.09 133: 11.55 134: 11.54 135: 10.87 136: 10.91
 137: 11.19 138: 11.18 139: 11.61 140: 11.64 141: 12.25 142: 12.26 143: 11.30 144: 11.35
 145: 11.50 146: 11.50 147: 11.45 148: 11.45 149: 11.46 150: 11.45 151: 10.64 152: 11.64
 153: 10.90 154: 10.91 155: 10.89 156: 11.80 157: 12.58 158: 12.60 159:  9.56 160:  9.56
 161:  9.62 162:  9.62 163: 11.25 164: 11.35 165: 11.35 166: 11.29 167:  8.73 168:  8.86
 169:  8.80 170:  8.82 171: 10.65 172: 10.71 173: 10.76 174: 10.77 175: 11.41 176: 11.43
 177: 11.53 178: 11.53 179:  4.53 180:  4.54 181:  4.52 182:  4.40 183:  4.59 184:  4.54
 185:  4.52 186:  4.46 187: 10.75 188: 10.85 189: 10.72 190: 10.79 191:  4.88 192:  5.11
 193:  5.09 194:  4.84 195:  3.88 196:  3.88 197:  3.87 198:  4.00 199: 10.89 200: 10.63
 201: 10.73 202: 10.72 203:  4.52 204:  4.10 205:  4.04 206:  4.12 207:  4.10 208:  4.59
 209:  4.57 210:  4.43 211:  3.91 212:  3.94 213:  3.90 214:  3.92 215:  5.48 216:  4.19
 217:  6.95 218:  4.53 219:  6.98 220:  4.30 221:  3.71 222:  4.07 223:  4.14 224:  4.14
 225:  3.72 226:  3.74 227:  7.84 228:  4.48 229: 10.68 230: 10.49 231:  3.93 232:  3.96
 233:  3.96 234:  3.86 235:  3.70 236:  3.65 237:  3.65 238:  3.66 239:  3.65 240:  3.69
 241:  3.69 242:  3.69 243:  3.74 244:  3.74 245:  3.75 246:  3.75 247: 11.21 248: 11.21
 249: 11.23 250: 11.23 251: 10.80 252: 10.78 253: 10.93 254: 10.93 255:  9.99 256: 10.12
 257: 10.12 258:  9.94 259:  7.55 260:  7.59 261:  7.55 262:  7.56 263:  5.03 264:  5.77
 265:  5.09 266:  6.03 267:  8.42 268:  8.70 269:  8.82 270:  7.92 271:  6.00 272:  6.00
 273:  6.00 274:  6.03 275:  3.84 276:  3.86 277:  3.85 278:  3.89 279:  4.19 280:  4.18
 281:  4.20 282:  4.13 283:  4.54 284:  5.26 285:  5.31 286:  6.10 287:  3.14 288:  2.61
 289:  2.57 290:  1.88 291:  2.02 292:  1.97 293:  1.98 294:  2.04 295:  1.99 296:  1.85
 297:  1.85 298:  1.93 299:  3.58 300:  3.60 301:  3.59 302:  3.16 303:  4.43 304:  4.70
 305:  4.74 306:  5.53 307:  6.63 308:  6.64 309:  6.59 310:  6.14 311:  3.23 312:  3.18
 313:  3.18 314:  3.24 315:  4.82 316:  4.78 317:  4.80 318:  4.79 319:  6.76 320:  6.85
 321:  6.80 322:  6.82 323: 12.15 324: 12.16 325: 12.13 326: 12.02 327:  7.95 328:  7.80
 329:  7.80 330:  7.69 331: 11.47 332: 11.48 333: 11.48 334: 11.45 335: 10.33 336: 10.30
 337: 10.37 338: 10.31 339:  9.61 340:  9.61 341:  9.64 342:  9.45 343:  9.97 344:  9.96
 345: 10.09 346: 10.07 347: 10.05 348: 10.21 349: 10.22 350: 10.23 351: 11.23 352: 10.89
 353: 10.78 354: 10.36 355:  9.77 356:  9.95 357: 10.10 358: 10.58 359:  9.85 360:  9.82
 361:  9.82 362:  9.82 363: 10.78 364: 10.76 365: 10.76 366: 10.77 367: 10.69 368: 10.69
 369: 10.69 370: 10.64 371: 10.76 372: 10.76 373: 10.81 374: 10.83 375: 11.54 376: 11.55
 377: 11.61 378: 11.61 379: 11.69 380: 11.69 381: 11.76 382: 11.75 383: 11.68 384: 11.69
 385: 11.68 386: 11.67 387: 11.64 388: 11.49 389: 11.47 390: 11.47 391: 11.46 392: 11.60
 393: 11.62 394: 11.62 395: 11.51 396: 11.54 397: 11.55 398: 11.55 399: 11.54 400: 11.55
 401: 11.55 402: 11.55 403: 12.01 404: 12.01 405: 12.01 406: 12.01 407:  1.85 408:  1.85
 409:  1.85 410:  1.84 411:  1.85 412:  1.85 413:  1.85 414:  1.85 415:  1.85 416:  1.85
 417:  1.85 418:  1.84 419:  1.85 420:  1.85 421:  1.84 422:  1.84 423:  1.77 424:  1.77
 425:  1.77 426:  1.77 427:  1.78 428:  1.78 429:  1.78 430:  1.78 431:  1.83 432:  1.83
 433:  1.83 434:  1.83 435:  1.84 436:  1.84 437:  1.84 438:  1.84 439:  1.84 440:  1.84
 441:  1.84 442:  1.84 443:  1.90 444:  1.90 445:  1.90 446:  1.90 447:  1.82 448:  1.82
 449:  1.82 450:  1.82 451:  1.90 452:  1.90 453:  1.90 454:  1.90 455:  1.85 456:  1.85
 457:  1.85 458:  1.85 459:  1.90 460:  1.90 461:  1.90 462:  1.90
 IR intensities (amu)
   1:  0.79   2:  0.37   3:  0.38   4:  0.72   5:  0.33   6:  0.35   7:  0.10   8:  0.52
   9:  0.53  10:  0.06  11:  0.04  12:  0.16  13:  0.15  14:  0.05  15:  0.14  16:  0.14
  17:  0.01  18:  0.10  19:  0.04  20:  0.11  21:  0.11  22:  0.00  23:  0.01  24:  0.05
  25:  0.03  26:  0.10  27:  0.12  28:  0.32  29:  0.32  30:  0.01  31:  0.09  32:  0.02
  33:  0.03  34:  0.01  35:  0.27  36:  0.27  37:  0.08  38:  0.01  39:  0.11  40:  0.04
  41:  0.37  42:  0.35  43:  0.02  44:  0.23  45:  0.22  46:  0.04  47:  0.01  48:  0.02
  49:  0.24  50:  0.24  51:  0.03  52:  0.00  53:  0.63  54:  0.63  55:  0.03  56:  0.04
  57:  0.35  58:  0.40  59:  0.04  60:  0.07  61:  0.96  62:  1.00  63:  0.00  64:  0.01
  65:  0.07  66:  0.19  67:  0.08  68:  0.01  69:  0.10  70:  0.02  71:  0.97  72:  0.98
  73:  0.82  74:  0.83  75:  0.05  76:  0.09  77:  0.45  78:  0.43  79:  0.10  80:  0.01
  81:  0.87  82:  0.88  83:  0.03  84:  0.54  85:  0.54  86:  0.06  87:  0.05  88:  0.04
  89:  0.15  90:  0.02  91:  0.07  92:  0.05  93:  0.21  94:  0.21  95:  0.20  96:  0.20
  97:  0.01  98:  0.13  99:  0.11 100:  0.01 101:  0.03 102:  0.06 103:  0.06 104:  0.01
 105:  0.36 106:  0.37 107:  0.17 108:  0.18 109:  0.05 110:  0.01 111:  0.07 112:  0.01
 113:  0.18 114:  0.17 115:  0.03 116:  0.01 117:  0.13 118:  0.13 119:  0.02 120:  0.26
 121:  0.26 122:  0.18 123:  0.01 124:  0.56 125:  0.32 126:  0.32 127:  0.09 128:  0.14
 129:  0.21 130:  0.22 131:  0.10 132:  0.01 133:  0.11 134:  0.12 135:  0.01 136:  0.01
 137:  0.07 138:  0.08 139:  0.01 140:  0.20 141:  0.63 142:  0.63 143:  0.06 144:  0.00
 145:  0.29 146:  0.29 147:  0.01 148:  0.18 149:  0.18 150:  0.18 151:  0.12 152:  0.01
 153:  0.29 154:  0.26 155:  0.18 156:  0.13 157:  0.44 158:  0.44 159:  0.10 160:  0.01
 161:  0.10 162:  0.10 163:  0.00 164:  0.17 165:  0.18 166:  0.19 167:  0.04 168:  0.24
 169:  0.26 170:  0.26 171:  0.04 172:  0.02 173:  0.15 174:  0.15 175:  0.01 176:  0.46
 177:  0.11 178:  0.11 179:  0.06 180:  0.29 181:  0.30 182:  0.08 183:  0.15 184:  0.15
 185:  0.10 186:  0.09 187:  0.00 188:  0.02 189:  0.08 190:  0.08 191:  0.03 192:  0.09
 193:  0.09 194:  0.15 195:  0.38 196:  0.35 197:  0.23 198:  0.12 199:  0.01 200:  0.19
 201:  0.71 202:  0.72 203:  0.02 204:  0.07 205:  0.02 206:  0.07 207:  0.11 208:  0.12
 209:  0.12 210:  0.02 211:  0.13 212:  0.27 213:  0.25 214:  0.09 215:  0.07 216:  0.07
 217:  0.03 218:  0.06 219:  0.01 220:  0.05 221:  0.01 222:  0.03 223:  0.03 224:  0.02
 225:  0.02 226:  0.02 227:  0.07 228:  0.09 229:  0.02 230:  0.03 231:  0.02 232:  0.09
 233:  0.09 234:  0.10 235:  0.03 236:  0.03 237:  0.05 238:  0.05 239:  0.04 240:  0.03
 241:  0.03 242:  0.03 243:  0.08 244:  0.08 245:  0.08 246:  0.07 247:  0.01 248:  0.10
 249:  0.41 250:  0.42 251:  0.01 252:  0.25 253:  0.24 254:  0.24 255:  0.01 256:  0.14
 257:  0.14 258:  0.07 259:  0.73 260:  0.12 261:  0.70 262:  0.16 263:  0.28 264:  0.03
 265:  0.24 266:  0.23 267:  0.30 268:  0.68 269:  0.73 270:  0.21 271:  0.11 272:  0.31
 273:  0.30 274:  0.42 275:  0.08 276:  0.31 277:  0.30 278:  0.13 279:  0.01 280:  0.13
 281:  0.12 282:  0.18 283:  0.03 284:  0.29 285:  0.28 286:  0.87 287:  0.01 288:  0.24
 289:  0.24 290:  0.03 291:  0.22 292:  0.15 293:  0.15 294:  0.16 295:  0.01 296:  0.09
 297:  0.09 298:  0.01 299:  0.01 300:  0.06 301:  0.07 302:  0.22 303:  0.01 304:  0.16
 305:  0.16 306:  0.04 307:  0.07 308:  0.03 309:  0.07 310:  0.22 311:  0.01 312:  0.14
 313:  0.15 314:  0.22 315:  0.22 316:  0.38 317:  0.32 318:  0.24 319:  0.13 320:  0.39
 321:  0.68 322:  0.57 323:  0.24 324:  0.24 325:  0.09 326:  0.46 327:  0.04 328:  0.36
 329:  0.36 330:  0.38 331:  0.09 332:  0.09 333:  0.12 334:  0.13 335:  0.35 336:  0.36
 337:  0.22 338:  0.63 339:  0.08 340:  0.08 341:  0.00 342:  0.09 343:  0.32 344:  0.28
 345:  0.79 346:  0.78 347:  0.76 348:  0.10 349:  0.32 350:  0.32 351:  0.25 352:  1.49
 353:  1.45 354:  0.18 355:  0.39 356:  0.78 357:  0.95 358:  0.55 359:  0.20 360:  0.05
 361:  0.41 362:  0.42 363:  1.14 364:  0.37 365:  0.52 366:  0.17 367:  0.16 368:  0.14
 369:  0.94 370:  0.05 371:  0.67 372:  0.69 373:  0.41 374:  0.06 375:  0.45 376:  0.08
 377:  0.55 378:  0.55 379:  0.45 380:  0.44 381:  0.83 382:  0.06 383:  1.28 384:  0.06
 385:  0.38 386:  0.38 387:  0.62 388:  0.17 389:  0.29 390:  0.28 391:  0.18 392:  0.16
 393:  0.86 394:  0.81 395:  0.80 396:  0.09 397:  0.65 398:  0.64 399:  0.45 400:  0.06
 401:  0.18 402:  0.18 403:  0.74 404:  0.98 405:  1.33 406:  1.16 407:  0.12 408:  0.05
 409:  0.11 410:  0.06 411:  0.08 412:  0.03 413:  0.09 414:  0.02 415:  0.10 416:  0.02
 417:  0.09 418:  0.03 419:  0.12 420:  0.22 421:  0.06 422:  0.08 423:  0.15 424:  0.15
 425:  0.14 426:  0.14 427:  0.15 428:  0.14 429:  0.15 430:  0.15 431:  0.19 432:  0.18
 433:  0.17 434:  0.20 435:  0.17 436:  0.18 437:  0.18 438:  0.16 439:  0.08 440:  0.10
 441:  0.15 442:  0.15 443:  0.31 444:  0.19 445:  0.50 446:  0.49 447:  0.09 448:  0.09
 449:  0.09 450:  0.08 451:  0.20 452:  0.32 453:  0.37 454:  0.34 455:  0.03 456:  0.10
 457:  0.10 458:  0.08 459:  0.00 460:  0.00 461:  0.01 462:  0.00
 Raman intensities (amu)
   1:  0.00   2:  0.00   3:  0.00   4:  0.00   5:  0.00   6:  0.00   7:  0.00   8:  0.00
   9:  0.00  10:  0.00  11:  0.00  12:  0.00  13:  0.00  14:  0.00  15:  0.00  16:  0.00
  17:  0.00  18:  0.00  19:  0.00  20:  0.00  21:  0.00  22:  0.00  23:  0.00  24:  0.00
  25:  0.00  26:  0.00  27:  0.00  28:  0.00  29:  0.00  30:  0.00  31:  0.00  32:  0.00
  33:  0.00  34:  0.00  35:  0.00  36:  0.00  37:  0.00  38:  0.00  39:  0.00  40:  0.00
  41:  0.00  42:  0.00  43:  0.00  44:  0.00  45:  0.00  46:  0.00  47:  0.00  48:  0.00
  49:  0.00  50:  0.00  51:  0.00  52:  0.00  53:  0.00  54:  0.00  55:  0.00  56:  0.00
  57:  0.00  58:  0.00  59:  0.00  60:  0.00  61:  0.00  62:  0.00  63:  0.00  64:  0.00
  65:  0.00  66:  0.00  67:  0.00  68:  0.00  69:  0.00  70:  0.00  71:  0.00  72:  0.00
  73:  0.00  74:  0.00  75:  0.00  76:  0.00  77:  0.00  78:  0.00  79:  0.00  80:  0.00
  81:  0.00  82:  0.00  83:  0.00  84:  0.00  85:  0.00  86:  0.00  87:  0.00  88:  0.00
  89:  0.00  90:  0.00  91:  0.00  92:  0.00  93:  0.00  94:  0.00  95:  0.00  96:  0.00
  97:  0.00  98:  0.00  99:  0.00 100:  0.00 101:  0.00 102:  0.00 103:  0.00 104:  0.00
 105:  0.00 106:  0.00 107:  0.00 108:  0.00 109:  0.00 110:  0.00 111:  0.00 112:  0.00
 113:  0.00 114:  0.00 115:  0.00 116:  0.00 117:  0.00 118:  0.00 119:  0.00 120:  0.00
 121:  0.00 122:  0.00 123:  0.00 124:  0.00 125:  0.00 126:  0.00 127:  0.00 128:  0.00
 129:  0.00 130:  0.00 131:  0.00 132:  0.00 133:  0.00 134:  0.00 135:  0.00 136:  0.00
 137:  0.00 138:  0.00 139:  0.00 140:  0.00 141:  0.00 142:  0.00 143:  0.00 144:  0.00
 145:  0.00 146:  0.00 147:  0.00 148:  0.00 149:  0.00 150:  0.00 151:  0.00 152:  0.00
 153:  0.00 154:  0.00 155:  0.00 156:  0.00 157:  0.00 158:  0.00 159:  0.00 160:  0.00
 161:  0.00 162:  0.00 163:  0.00 164:  0.00 165:  0.00 166:  0.00 167:  0.00 168:  0.00
 169:  0.00 170:  0.00 171:  0.00 172:  0.00 173:  0.00 174:  0.00 175:  0.00 176:  0.00
 177:  0.00 178:  0.00 179:  0.00 180:  0.00 181:  0.00 182:  0.00 183:  0.00 184:  0.00
 185:  0.00 186:  0.00 187:  0.00 188:  0.00 189:  0.00 190:  0.00 191:  0.00 192:  0.00
 193:  0.00 194:  0.00 195:  0.00 196:  0.00 197:  0.00 198:  0.00 199:  0.00 200:  0.00
 201:  0.00 202:  0.00 203:  0.00 204:  0.00 205:  0.00 206:  0.00 207:  0.00 208:  0.00
 209:  0.00 210:  0.00 211:  0.00 212:  0.00 213:  0.00 214:  0.00 215:  0.00 216:  0.00
 217:  0.00 218:  0.00 219:  0.00 220:  0.00 221:  0.00 222:  0.00 223:  0.00 224:  0.00
 225:  0.00 226:  0.00 227:  0.00 228:  0.00 229:  0.00 230:  0.00 231:  0.00 232:  0.00
 233:  0.00 234:  0.00 235:  0.00 236:  0.00 237:  0.00 238:  0.00 239:  0.00 240:  0.00
 241:  0.00 242:  0.00 243:  0.00 244:  0.00 245:  0.00 246:  0.00 247:  0.00 248:  0.00
 249:  0.00 250:  0.00 251:  0.00 252:  0.00 253:  0.00 254:  0.00 255:  0.00 256:  0.00
 257:  0.00 258:  0.00 259:  0.00 260:  0.00 261:  0.00 262:  0.00 263:  0.00 264:  0.00
 265:  0.00 266:  0.00 267:  0.00 268:  0.00 269:  0.00 270:  0.00 271:  0.00 272:  0.00
 273:  0.00 274:  0.00 275:  0.00 276:  0.00 277:  0.00 278:  0.00 279:  0.00 280:  0.00
 281:  0.00 282:  0.00 283:  0.00 284:  0.00 285:  0.00 286:  0.00 287:  0.00 288:  0.00
 289:  0.00 290:  0.00 291:  0.00 292:  0.00 293:  0.00 294:  0.00 295:  0.00 296:  0.00
 297:  0.00 298:  0.00 299:  0.00 300:  0.00 301:  0.00 302:  0.00 303:  0.00 304:  0.00
 305:  0.00 306:  0.00 307:  0.00 308:  0.00 309:  0.00 310:  0.00 311:  0.00 312:  0.00
 313:  0.00 314:  0.00 315:  0.00 316:  0.00 317:  0.00 318:  0.00 319:  0.00 320:  0.00
 321:  0.00 322:  0.00 323:  0.00 324:  0.00 325:  0.00 326:  0.00 327:  0.00 328:  0.00
 329:  0.00 330:  0.00 331:  0.00 332:  0.00 333:  0.00 334:  0.00 335:  0.00 336:  0.00
 337:  0.00 338:  0.00 339:  0.00 340:  0.00 341:  0.00 342:  0.00 343:  0.00 344:  0.00
 345:  0.00 346:  0.00 347:  0.00 348:  0.00 349:  0.00 350:  0.00 351:  0.00 352:  0.00
 353:  0.00 354:  0.00 355:  0.00 356:  0.00 357:  0.00 358:  0.00 359:  0.00 360:  0.00
 361:  0.00 362:  0.00 363:  0.00 364:  0.00 365:  0.00 366:  0.00 367:  0.00 368:  0.00
 369:  0.00 370:  0.00 371:  0.00 372:  0.00 373:  0.00 374:  0.00 375:  0.00 376:  0.00
 377:  0.00 378:  0.00 379:  0.00 380:  0.00 381:  0.00 382:  0.00 383:  0.00 384:  0.00
 385:  0.00 386:  0.00 387:  0.00 388:  0.00 389:  0.00 390:  0.00 391:  0.00 392:  0.00
 393:  0.00 394:  0.00 395:  0.00 396:  0.00 397:  0.00 398:  0.00 399:  0.00 400:  0.00
 401:  0.00 402:  0.00 403:  0.00 404:  0.00 405:  0.00 406:  0.00 407:  0.00 408:  0.00
 409:  0.00 410:  0.00 411:  0.00 412:  0.00 413:  0.00 414:  0.00 415:  0.00 416:  0.00
 417:  0.00 418:  0.00 419:  0.00 420:  0.00 421:  0.00 422:  0.00 423:  0.00 424:  0.00
 425:  0.00 426:  0.00 427:  0.00 428:  0.00 429:  0.00 430:  0.00 431:  0.00 432:  0.00
 433:  0.00 434:  0.00 435:  0.00 436:  0.00 437:  0.00 438:  0.00 439:  0.00 440:  0.00
 441:  0.00 442:  0.00 443:  0.00 444:  0.00 445:  0.00 446:  0.00 447:  0.00 448:  0.00
 449:  0.00 450:  0.00 451:  0.00 452:  0.00 453:  0.00 454:  0.00 455:  0.00 456:  0.00
 457:  0.00 458:  0.00 459:  0.00 460:  0.00 461:  0.00 462:  0.00
 output can be read by thermo (or use thermo option).
 writing <g98.out> molden fake output.
 recommended (thermochemical) frequency scaling factor: 1.0
           -------------------------------------------------
          |             Thermodynamic Functions             |
           -------------------------------------------------

Molecule has no symmetry elements
It seems to be the C1 point group
c1  symmetry found (for desy threshold:  0.10E+00) used in thermo

          ...................................................
          :                      SETUP                      :
          :.................................................:
          :  # frequencies                         456      :
          :  # imaginary freq.                       0      :
          :  linear?                             false      :
          :  only rotor calc.                    false      :
          :  symmetry                               c1      :
          :  rotational number                       1      :
          :  scaling factor                  1.0000000      :
          :  rotor cutoff                   50.0000000 cm⁻¹ :
          :  imag. cutoff                  -20.0000000 cm⁻¹ :
          :.................................................:

    mode    ω/cm⁻¹     T·S(HO)/kcal·mol⁻¹    T·S(FR)/kcal·mol⁻¹   T·S(vib)
   ------------------------------------------------------------------------
       1      5.73    -2.71801 (  0.02%)    -1.69809 ( 99.98%)    -1.69827
       2      7.15    -2.58717 (  0.04%)    -1.63267 ( 99.96%)    -1.63307
       3      7.79    -2.53643 (  0.06%)    -1.60730 ( 99.94%)    -1.60785
       4     10.52    -2.35853 (  0.20%)    -1.51834 ( 99.80%)    -1.51998
       5     17.90    -2.04369 (  1.62%)    -1.36086 ( 98.38%)    -1.37190
       6     18.30    -2.03045 (  1.76%)    -1.35424 ( 98.24%)    -1.36617
       7     18.42    -2.02686 (  1.81%)    -1.35244 ( 98.19%)    -1.36463
       8     21.54    -1.93402 (  3.33%)    -1.30599 ( 96.67%)    -1.32691
       9     26.02    -1.82220 (  6.83%)    -1.25002 ( 93.17%)    -1.28913
      10     26.16    -1.81897 (  6.98%)    -1.24840 ( 93.02%)    -1.28820
      11     26.91    -1.80242 (  7.74%)    -1.24011 ( 92.26%)    -1.28362
      12     32.70    -1.68711 ( 15.46%)    -1.18236 ( 84.54%)    -1.26041
      13     42.80    -1.52798 ( 34.94%)    -1.10258 ( 65.06%)    -1.25123
      14     45.28    -1.49474 ( 40.22%)    -1.08590 ( 59.78%)    -1.25034
      15     45.68    -1.48956 ( 41.07%)    -1.08330 ( 58.93%)    -1.25014
      16     48.09    -1.45922 ( 46.12%)    -1.06806 ( 53.88%)    -1.24847
      17     48.90    -1.44939 ( 47.78%)    -1.06312 ( 52.22%)    -1.24769
      18     61.56    -1.31383 ( 69.67%)    -0.99494 ( 30.33%)    -1.21712
      19     62.01    -1.30952 ( 70.29%)    -0.99277 ( 29.71%)    -1.21541
      20     63.60    -1.29465 ( 72.36%)    -0.98528 ( 27.64%)    -1.20913
      21     63.96    -1.29131 ( 72.81%)    -0.98360 ( 27.19%)    -1.20764
      22     70.57    -1.23353 ( 79.88%)    -0.95445 ( 20.12%)    -1.17737
      23     70.90    -1.23081 ( 80.17%)    -0.95308 ( 19.83%)    -1.17574
      24     77.04    -1.18215 ( 84.93%)    -0.92849 ( 15.07%)    -1.14393
      25     79.31    -1.16512 ( 86.36%)    -0.91987 ( 13.64%)    -1.13167
      26     88.30    -1.10238 ( 90.68%)    -0.88808 (  9.32%)    -1.08240
      27     88.49    -1.10110 ( 90.75%)    -0.88742 (  9.25%)    -1.08134
      28     92.95    -1.07244 ( 92.27%)    -0.87287 (  7.73%)    -1.05702
      29     99.10    -1.03515 ( 93.91%)    -0.85388 (  6.09%)    -1.02412
      30     99.90    -1.03046 ( 94.10%)    -0.85149 (  5.90%)    -1.01990
      31    100.25    -1.02844 ( 94.17%)    -0.85046 (  5.83%)    -1.01807
      32    105.28    -1.00005 ( 95.16%)    -0.83597 (  4.84%)    -0.99210
      33    110.81    -0.97037 ( 96.02%)    -0.82080 (  3.98%)    -0.96442
      34    111.09    -0.96893 ( 96.06%)    -0.82006 (  3.94%)    -0.96306
      35    115.06    -0.94863 ( 96.56%)    -0.80966 (  3.44%)    -0.94385
      36    115.26    -0.94763 ( 96.58%)    -0.80914 (  3.42%)    -0.94290
      37    118.34    -0.93241 ( 96.91%)    -0.80133 (  3.09%)    -0.92836
      38    122.34    -0.91323 ( 97.29%)    -0.79147 (  2.71%)    -0.90993
      39    122.52    -0.91242 ( 97.30%)    -0.79105 (  2.70%)    -0.90914
      40    122.85    -0.91084 ( 97.33%)    -0.79023 (  2.67%)    -0.90762
      41    126.89    -0.89224 ( 97.65%)    -0.78065 (  2.35%)    -0.88962
      42    135.21    -0.85586 ( 98.16%)    -0.76185 (  1.84%)    -0.85414
      43    141.34    -0.83054 ( 98.46%)    -0.74871 (  1.54%)    -0.82928
      44    141.37    -0.83043 ( 98.46%)    -0.74865 (  1.54%)    -0.82917
      45    142.86    -0.82444 ( 98.52%)    -0.74554 (  1.48%)    -0.82327
      46    160.90    -0.75707 ( 99.08%)    -0.71032 (  0.92%)    -0.75664
      47    171.14    -0.72240 ( 99.28%)    -0.69204 (  0.72%)    -0.72218
      48    172.64    -0.71751 ( 99.30%)    -0.68945 (  0.70%)    -0.71732
      49    174.69    -0.71091 ( 99.33%)    -0.68595 (  0.67%)    -0.71074
      50    176.44    -0.70535 ( 99.36%)    -0.68300 (  0.64%)    -0.70521
      51    179.11    -0.69697 ( 99.40%)    -0.67855 (  0.60%)    -0.69686
      52    179.87    -0.69462 ( 99.41%)    -0.67730 (  0.59%)    -0.69451
      53    184.89    -0.67931 ( 99.47%)    -0.66914 (  0.53%)    -0.67925
      54    187.98    -0.67015 ( 99.50%)    -0.66424 (  0.50%)    -0.67012
      55    194.60    -0.65104 ( 99.57%)    -0.65398 (  0.43%)    -0.65105
      56    197.24    -0.64362 ( 99.59%)    -0.64999 (  0.41%)    -0.64364
      57    201.38    -0.63220 ( 99.62%)    -0.64383 (  0.38%)    -0.63225
      58    220.47    -0.58294 ( 99.74%)    -0.61700 (  0.26%)    -0.58303
      59    223.27    -0.57614 ( 99.75%)    -0.61326 (  0.25%)    -0.57624
      60    223.33    -0.57599 ( 99.75%)    -0.61318 (  0.25%)    -0.57609
      61    223.37    -0.57590 ( 99.75%)    -0.61313 (  0.25%)    -0.57599
      62    224.83    -0.57239 ( 99.76%)    -0.61120 (  0.24%)    -0.57249
      63    232.26    -0.55498 ( 99.79%)    -0.60157 (  0.21%)    -0.55508
      64    235.64    -0.54728 ( 99.80%)    -0.59730 (  0.20%)    -0.54738
      65    251.74    -0.51234 ( 99.84%)    -0.57772 (  0.16%)    -0.51244
      66    251.94    -0.51191 ( 99.85%)    -0.57747 (  0.15%)    -0.51201
      67    257.38    -0.50074 ( 99.86%)    -0.57115 (  0.14%)    -0.50084
      68    257.71    -0.50006 ( 99.86%)    -0.57076 (  0.14%)    -0.50016
      69    259.28    -0.49690 ( 99.86%)    -0.56897 (  0.14%)    -0.49700
      70    264.67    -0.48621 ( 99.87%)    -0.56288 (  0.13%)    -0.48631
      71    269.28    -0.47728 ( 99.88%)    -0.55776 (  0.12%)    -0.47738
      72    269.69    -0.47649 ( 99.88%)    -0.55730 (  0.12%)    -0.47659
      73    278.57    -0.45987 ( 99.90%)    -0.54771 (  0.10%)    -0.45996
      74    282.07    -0.45351 ( 99.90%)    -0.54401 (  0.10%)    -0.45360
      75    290.59    -0.43844 ( 99.91%)    -0.53520 (  0.09%)    -0.43852
      76    290.71    -0.43822 ( 99.91%)    -0.53507 (  0.09%)    -0.43831
   ------------------------------------------------------------------------

   temp. (K)  partition function   enthalpy   heat capacity  entropy
                                   cal/mol     cal/K/mol   cal/K/mol   J/K/mol
 298.15  VIB  0.566E+40            50157.120    324.256    315.896
         ROT  0.541E+09              888.752      2.981     42.943
         INT  0.307E+49            51045.873    327.236    358.839
         TR   0.528E+29             1481.254      4.968     47.643
         TOT                       52527.1266   332.2046   406.4820  1700.7208

       T/K    H(0)-H(T)+PV         H(T)/Eh          T*S/Eh         G(T)/Eh
   ------------------------------------------------------------------------
    298.15    0.837073E-01    0.122899E+01    0.193133E+00    0.103586E+01
   ------------------------------------------------------------------------

         :::::::::::::::::::::::::::::::::::::::::::::::::::::
         ::                  THERMODYNAMIC                  ::
         :::::::::::::::::::::::::::::::::::::::::::::::::::::
         :: total free energy        -247.194773060047 Eh   ::
         ::.................................................::
         :: total energy             -248.230634858082 Eh   ::
         :: zero point energy           1.145287218460 Eh   ::
         :: G(RRHO) w/o ZPVE           -0.109425420424 Eh   ::
         :: G(RRHO) contrib.            1.035861798036 Eh   ::
         :::::::::::::::::::::::::::::::::::::::::::::::::::::

           -------------------------------------------------
          | TOTAL ENERGY             -248.230634858082 Eh   |
          | TOTAL ENTHALPY           -247.001640335167 Eh   |
          | TOTAL FREE ENERGY        -247.194773060047 Eh   |
          | GRADIENT NORM               0.000624644528 Eh/α |
          | HOMO-LUMO GAP               2.203839200576 eV   |
           -------------------------------------------------

------------------------------------------------------------------------
 * finished run on 2021/06/21 at 15:10:39.240     
------------------------------------------------------------------------
 total:
 * wall-time:     0 d,  0 h, 10 min, 48.386 sec
 *  cpu-time:     0 d,  0 h, 40 min,  5.385 sec
 * ratio c/w:     3.710 speedup
 SCF:
 * wall-time:     0 d,  0 h,  0 min,  2.132 sec
 *  cpu-time:     0 d,  0 h,  0 min,  6.785 sec
 * ratio c/w:     3.183 speedup
 numerical hessian:
 * wall-time:     0 d,  0 h, 10 min, 45.043 sec
 *  cpu-time:     0 d,  0 h, 39 min, 57.238 sec
 * ratio c/w:     3.716 speedup

