 Entering Gaussian System
 *********************************************
 Gaussian 98:
 frequency output generated by the xtb code
 *********************************************
                         Standard orientation:
 --------------------------------------------------------------------
  Center     Atomic     Atomic              Coordinates (Angstroms)
  Number     Number      Type              X           Y           Z
 --------------------------------------------------------------------
    1         46             0       -0.781163    6.460505    0.771091
    2         46             0        2.971263   -6.917616   -0.294198
    3          6             0        6.599592   -2.427632    1.250781
    4          6             0        7.099186   -3.528235    1.191881
    5          6             0        7.713079   -4.793138    1.134781
    6          6             0        9.059679   -4.929545    1.419877
    7          6             0        9.682072   -6.181548    1.373577
    8          6             0        8.976965   -7.312445    1.043381
    9          6             0        7.605865   -7.222639    0.741086
   10          6             0        6.820558   -8.344735    0.389791
   11          6             0        5.495157   -8.185729    0.103095
   12          7             0        4.895964   -6.969925    0.141795
   13          6             0        5.593071   -5.900328    0.467191
   14          6             0        6.958872   -5.953535    0.783186
   15          1             0        9.636885   -4.056948    1.684873
   16          1             0       10.734273   -6.251053    1.603673
   17          1             0        9.462060   -8.275348    1.010981
   18          1             0        7.279452   -9.319738    0.350991
   19          1             0        4.856952   -9.025526   -0.170901
   20          1             0        5.070176   -4.946126    0.482491
   21          6             0        6.006099   -1.151429    1.302481
   22          6             0        4.612899   -1.021622    1.347386
   23          6             0        4.032306    0.226181    1.378686
   24          6             0        4.833512    1.373977    1.365981
   25          6             0        6.226911    1.246170    1.334376
   26          6             0        6.806905   -0.003333    1.302876
   27          1             0        4.000395   -1.909319    1.363289
   28          1             0        2.959007    0.330487    1.414889
   29          1             0        6.845216    2.130966    1.330672
   30          1             0        7.881304   -0.104139    1.274273
   31          6             0        4.237819    2.649480    1.381181
   32          6             0        3.701124    3.733183    1.385081
   33          6             0        3.108031    5.009786    1.397380
   34          6             0        3.869338    6.160283    1.651176
   35          6             0        3.243044    7.392786    1.656276
   36          6             0        1.880244    7.462193    1.406480
   37          7             0        1.159337    6.366496    1.161085
   38          6             0        1.740131    5.166593    1.155185
   39          1             0        4.927938    6.073977    1.840672
   40          1             0        3.801450    8.294083    1.850872
   41          1             0        1.351349    8.410795    1.401881
   42          1             0        1.095926    4.310296    0.951389
   43          6             0       -1.218073    1.759015    4.973701
   44          6             0       -1.584167    2.891217    5.193600
   45          6             0       -1.980259    4.174220    5.617600
   46          6             0       -2.499853    4.322825    6.892101
   47          6             0       -2.830745    5.583828    7.396200
   48          6             0       -2.633742    6.715425    6.644397
   49          6             0       -2.124347    6.609720    5.338196
   50          6             0       -1.892944    7.737618    4.518593
   51          6             0       -1.430649    7.567913    3.247692
   52          7             0       -1.204257    6.336611    2.717893
   53          6             0       -1.376260    5.262713    3.461696
   54          6             0       -1.814155    5.328218    4.795897
   55          1             0       -2.635856    3.449227    7.511103
   56          1             0       -3.230841    5.661132    8.395501
   57          1             0       -2.866035    7.690827    7.041797
   58          1             0       -2.086437    8.724119    4.908592
   59          1             0       -1.221847    8.421211    2.600090
   60          1             0       -1.174867    4.301211    2.999197
   61          6             0       -0.762081    0.446112    4.740502
   62          6             0        0.479216    0.227505    4.132398
   63          6             0        0.937408   -1.057098    3.941499
   64          6             0        0.162104   -2.149093    4.349903
   65          6             0       -1.074693   -1.930586    4.966107
   66          6             0       -1.531785   -0.644983    5.159706
   67          1             0        1.079119    1.072901    3.833794
   68          1             0        1.900906   -1.230604    3.487996
   69          1             0       -1.669096   -2.772882    5.285911
   70          1             0       -2.485083   -0.472677    5.635709
   71          6             0        0.616096   -3.458096    4.096704
   72          6             0        0.999289   -4.574799    3.834004
   73          6             0        1.420881   -5.839702    3.380505
   74          6             0        1.121077   -7.038099    4.043408
   75          6             0        1.518069   -8.234502    3.473309
   76          6             0        2.171165   -8.227407    2.247807
   77          7             0        2.459469   -7.085410    1.622504
   78          6             0        2.122177   -5.919907    2.175403
   79          1             0        0.584881   -7.018594    4.979410
   80          1             0        1.307766   -9.171800    3.962611
   81          1             0        2.472458   -9.143910    1.752207
   82          1             0        2.410079   -5.013310    1.639700
   83          6             0       -4.341693    1.751022   -0.505788
   84          6             0       -4.819887    2.861924   -0.462488
   85          6             0       -5.470280    4.108628   -0.434288
   86          6             0       -6.829781    4.167935   -0.688183
   87          6             0       -7.517274    5.385138   -0.667183
   88          6             0       -6.862167    6.559935   -0.393687
   89          6             0       -5.480066    6.548928   -0.132092
   90          6             0       -4.748859    7.722825    0.154303
   91          6             0       -3.408759    7.645919    0.397599
   92          7             0       -2.736965    6.469615    0.373398
   93          6             0       -3.384772    5.349918    0.110502
   94          6             0       -4.763673    5.316425   -0.150693
   95          1             0       -7.366786    3.256937   -0.903880
   96          1             0       -8.577375    5.392243   -0.869279
   97          1             0       -7.393462    7.498438   -0.376687
   98          1             0       -5.258354    8.672728    0.178103
   99          1             0       -2.823753    8.532916    0.621695
  100          1             0       -2.801876    4.430415    0.100102
  101          6             0       -3.799200    0.453819   -0.572188
  102          6             0       -4.585407   -0.594178   -1.068383
  103          6             0       -4.070714   -1.869181   -1.151083
  104          6             0       -2.757514   -2.121387   -0.739087
  105          6             0       -1.974106   -1.075490   -0.234891
  106          6             0       -2.488799    0.198513   -0.151892
  107          1             0       -5.596907   -0.394473   -1.388280
  108          1             0       -4.675919   -2.675878   -1.536179
  109          1             0       -0.966206   -1.281195    0.087006
  110          1             0       -1.890094    1.005310    0.239605
  111          6             0       -2.206421   -3.412790   -0.831386
  112          6             0       -1.703527   -4.509993   -0.908586
  113          6             0       -1.037633   -5.747396   -0.973886
  114          6             0       -1.679841   -6.948793   -1.303082
  115          6             0       -0.938547   -8.116997   -1.337183
  116          6             0        0.416654   -8.075604   -1.045487
  117          7             0        1.025561   -6.927307   -0.733991
  118          6             0        0.331367   -5.792903   -0.697491
  119          1             0       -2.735842   -6.954188   -1.523978
  120          1             0       -1.405253   -9.056195   -1.586779
  121          1             0        1.038749   -8.967107   -1.057588
  122          1             0        0.872373   -4.884605   -0.442195
  123          6             0        0.885801    3.056688   -4.335408
  124          6             0        0.589907    4.230089   -4.363609
  125          6             0        0.341913    5.602090   -4.551611
  126          6             0        0.438412    6.120688   -5.832712
  127          6             0        0.274318    7.486388   -6.077014
  128          6             0        0.028626    8.359191   -5.046115
  129          6             0       -0.088272    7.875994   -3.731213
  130          6             0       -0.326463    8.728297   -2.629314
  131          6             0       -0.453862    8.199800   -1.379713
  132          7             0       -0.387068    6.861700   -1.147811
  133          6             0       -0.140476    6.037497   -2.146210
  134          6             0        0.042922    6.480894   -3.467611
  135          1             0        0.656405    5.455785   -6.654312
  136          1             0        0.357016    7.853086   -7.088615
  137          1             0       -0.076469    9.416791   -5.229916
  138          1             0       -0.403558    9.791797   -2.789716
  139          1             0       -0.615456    8.837602   -0.508613
  140          1             0       -0.089381    4.978497   -1.913808
  141          6             0        1.264194    1.701086   -4.302207
  142          6             0        1.563095    1.070086   -3.089307
  143          6             0        1.965388   -0.245616   -3.078506
  144          6             0        2.074980   -0.962218   -4.277406
  145          6             0        1.775179   -0.333319   -5.490306
  146          6             0        1.374686    0.985283   -5.501407
  147          1             0        1.485901    1.626488   -2.169408
  148          1             0        2.204389   -0.737515   -2.149806
  149          1             0        1.860173   -0.883321   -6.415305
  150          1             0        1.145185    1.474383   -6.436007
  151          6             0        2.467373   -2.312720   -4.223905
  152          6             0        2.787067   -3.474222   -4.114204
  153          6             0        3.075061   -4.829023   -3.864802
  154          6             0        3.215553   -5.792025   -4.874101
  155          6             0        3.423547   -7.111626   -4.514300
  156          6             0        3.459650   -7.459024   -3.170299
  157          7             0        3.336058   -6.539121   -2.212600
  158          6             0        3.172164   -5.256821   -2.537902
  159          1             0        3.153851   -5.501427   -5.911301
  160          1             0        3.539340   -7.873928   -5.267699
  161          1             0        3.590846   -8.485924   -2.846498
  162          1             0        3.111570   -4.537219   -1.719203
 --------------------------------------------------------------------
     1 basis functions        1 primitive gaussians
     1 alpha electrons        1 beta electrons
 
 Harmonic frequencies (cm**-1), IR intensities (KM/Mole),
 Raman scattering activities (A**4/amu), Raman depolarization ratios,
 reduced masses (AMU), force constants (mDyne/A) and normal coordinates:
                      1                      2                      3
                        a                      a                      a 
 Frequencies --     4.9242                 6.4791                 8.3162
 Red. masses --    11.4295                13.3969                14.5126
 Frc consts  --     0.0000                 0.0000                 0.0000
 IR Inten    --     0.0673                 0.2975                 0.3685
 Raman Activ --     0.0000                 0.0000                 0.0000
 Depolar     --     0.0000                 0.0000                 0.0000
 Atom AN      X      Y      Z        X      Y      Z        X      Y      Z
   1  46     0.01  -0.00  -0.01     0.07   0.02  -0.10     0.16   0.02   0.05
   2  46     0.01   0.01  -0.03     0.06   0.02  -0.07     0.09   0.03  -0.02
   3   6    -0.01  -0.01   0.08     0.01  -0.01   0.03     0.03  -0.01   0.07
   4   6    -0.02  -0.02   0.10     0.01  -0.01   0.03     0.03  -0.01   0.05
   5   6    -0.02  -0.02   0.12     0.01  -0.01   0.03     0.03  -0.01   0.04
   6   6    -0.03  -0.03   0.16     0.00  -0.01   0.05     0.02  -0.02   0.05
   7   6    -0.04  -0.03   0.18     0.00  -0.01   0.05     0.02  -0.02   0.03
   8   6    -0.04  -0.03   0.16     0.00  -0.01   0.04     0.02  -0.01   0.01
   9   6    -0.03  -0.02   0.12     0.01  -0.01   0.02     0.03  -0.01  -0.00
  10   6    -0.02  -0.02   0.10     0.01  -0.00   0.01     0.03  -0.00  -0.02
  11   6    -0.01  -0.01   0.06     0.01  -0.00  -0.01     0.03   0.00  -0.03
  12   7    -0.01  -0.01   0.05     0.02  -0.00  -0.01     0.03   0.00  -0.02
  13   6    -0.01  -0.01   0.06     0.01  -0.00   0.00     0.03  -0.00   0.00
  14   6    -0.02  -0.02   0.10     0.01  -0.01   0.02     0.03  -0.01   0.01
  15   1    -0.01  -0.01   0.05     0.00  -0.00   0.02     0.01  -0.01   0.02
  16   1    -0.01  -0.01   0.06    -0.00  -0.00   0.02     0.01  -0.01   0.01
  17   1    -0.01  -0.01   0.05     0.00  -0.00   0.01     0.01  -0.00  -0.00
  18   1    -0.01  -0.01   0.03     0.00  -0.00   0.00     0.01  -0.00  -0.01
  19   1    -0.00  -0.00   0.01     0.00   0.00  -0.01     0.01   0.00  -0.01
  20   1    -0.00  -0.00   0.01     0.00  -0.00  -0.00     0.01  -0.00   0.00
  21   6    -0.01  -0.01   0.05     0.01  -0.01   0.02     0.03  -0.01   0.08
  22   6    -0.01  -0.00   0.03     0.01  -0.01   0.02     0.03  -0.01   0.03
  23   6    -0.01  -0.00   0.01     0.01  -0.01   0.01     0.03  -0.01   0.04
  24   6    -0.00  -0.00   0.01     0.01  -0.01   0.01     0.03  -0.01   0.08
  25   6    -0.00  -0.01   0.03     0.01  -0.01   0.02     0.03  -0.02   0.13
  26   6    -0.01  -0.01   0.05     0.01  -0.01   0.02     0.03  -0.02   0.12
  27   1    -0.00  -0.00   0.01     0.00  -0.00   0.01     0.01  -0.00  -0.00
  28   1    -0.00   0.00  -0.00     0.00  -0.00   0.00     0.01  -0.00   0.00
  29   1     0.00  -0.00   0.01     0.00  -0.00   0.01     0.01  -0.00   0.05
  30   1    -0.00  -0.01   0.02     0.00  -0.00   0.01     0.01  -0.01   0.05
  31   6     0.00  -0.00  -0.01     0.01  -0.01   0.01     0.03  -0.01   0.08
  32   6     0.01  -0.00  -0.03     0.01  -0.01  -0.00     0.04  -0.01   0.08
  33   6     0.01   0.00  -0.06     0.02  -0.00  -0.02     0.04  -0.01   0.07
  34   6     0.02   0.01  -0.10     0.02  -0.00  -0.03     0.04  -0.01   0.09
  35   6     0.03   0.01  -0.13     0.03  -0.00  -0.04     0.04  -0.01   0.09
  36   6     0.02   0.01  -0.10     0.03   0.00  -0.04     0.05  -0.01   0.06
  37   7     0.01   0.00  -0.06     0.03   0.00  -0.04     0.05  -0.00   0.04
  38   6     0.01   0.00  -0.03     0.02   0.00  -0.02     0.04  -0.00   0.04
  39   1     0.01   0.00  -0.04     0.01  -0.00  -0.01     0.01  -0.01   0.03
  40   1     0.01   0.00  -0.05     0.01  -0.00  -0.01     0.01  -0.00   0.03
  41   1     0.01   0.00  -0.03     0.01   0.00  -0.02     0.01  -0.00   0.01
  42   1     0.00  -0.00   0.00     0.00   0.00  -0.00     0.01  -0.00   0.01
  43   6     0.03   0.01   0.02    -0.09  -0.01  -0.09    -0.05  -0.02  -0.04
  44   6     0.06   0.02   0.03    -0.09  -0.01  -0.08    -0.06  -0.02  -0.03
  45   6     0.09   0.03   0.03    -0.08  -0.01  -0.07    -0.06  -0.02  -0.03
  46   6     0.13   0.04   0.05    -0.12  -0.01  -0.09    -0.10  -0.03  -0.05
  47   6     0.16   0.05   0.05    -0.11  -0.01  -0.08    -0.11  -0.03  -0.04
  48   6     0.17   0.04   0.05    -0.08  -0.01  -0.07    -0.08  -0.03  -0.03
  49   6     0.13   0.03   0.03    -0.04  -0.00  -0.06    -0.04  -0.02  -0.01
  50   6     0.13   0.02   0.03    -0.01   0.00  -0.04    -0.01  -0.01   0.01
  51   6     0.10   0.01   0.02     0.02   0.01  -0.03     0.02  -0.00   0.02
  52   7     0.06   0.01   0.01     0.02   0.01  -0.04     0.03   0.00   0.01
  53   6     0.06   0.01   0.02    -0.01   0.00  -0.05     0.00  -0.00  -0.00
  54   6     0.09   0.02   0.03    -0.05  -0.00  -0.06    -0.03  -0.01  -0.02
  55   1     0.04   0.01   0.01    -0.04  -0.00  -0.03    -0.04  -0.01  -0.02
  56   1     0.05   0.02   0.02    -0.04  -0.00  -0.03    -0.04  -0.01  -0.02
  57   1     0.06   0.01   0.01    -0.02  -0.00  -0.02    -0.02  -0.01  -0.01
  58   1     0.05   0.01   0.01    -0.00   0.00  -0.01    -0.00  -0.00   0.00
  59   1     0.03   0.00   0.00     0.01   0.00  -0.01     0.01   0.00   0.01
  60   1     0.01   0.00   0.00    -0.00   0.00  -0.01     0.00  -0.00  -0.00
  61   6     0.01   0.01   0.00    -0.09  -0.01  -0.09    -0.04  -0.01  -0.04
  62   6    -0.01  -0.01  -0.02    -0.06  -0.00  -0.02    -0.03  -0.01  -0.02
  63   6    -0.03  -0.01  -0.03    -0.06  -0.00  -0.02    -0.02  -0.00  -0.02
  64   6    -0.04  -0.01  -0.02    -0.09  -0.01  -0.09    -0.02  -0.01  -0.03
  65   6    -0.02   0.01   0.00    -0.13  -0.01  -0.16    -0.04  -0.02  -0.05
  66   6    -0.00   0.02   0.01    -0.13  -0.01  -0.16    -0.04  -0.02  -0.05
  67   1     0.00  -0.00  -0.01    -0.01  -0.00   0.01    -0.01  -0.00  -0.00
  68   1    -0.01  -0.01  -0.01    -0.01  -0.00   0.01    -0.00   0.00  -0.00
  69   1    -0.01   0.01   0.00    -0.04  -0.00  -0.06    -0.01  -0.01  -0.02
  70   1     0.00   0.01   0.01    -0.05  -0.00  -0.06    -0.02  -0.01  -0.02
  71   6    -0.06  -0.01  -0.03    -0.08  -0.00  -0.08    -0.01  -0.00  -0.03
  72   6    -0.07  -0.01  -0.03    -0.07  -0.00  -0.07     0.00  -0.00  -0.02
  73   6    -0.07  -0.01  -0.04    -0.05  -0.00  -0.06     0.02   0.00  -0.01
  74   6    -0.10  -0.02  -0.06    -0.07  -0.00  -0.07     0.02   0.00  -0.01
  75   6    -0.11  -0.02  -0.06    -0.06  -0.00  -0.06     0.03   0.00  -0.01
  76   6    -0.08  -0.01  -0.04    -0.02   0.00  -0.04     0.04   0.01  -0.01
  77   7    -0.05  -0.01  -0.03     0.00   0.00  -0.03     0.04   0.01  -0.00
  78   6    -0.05  -0.01  -0.02    -0.01   0.00  -0.03     0.03   0.01  -0.01
  79   1    -0.04  -0.01  -0.02    -0.03  -0.00  -0.03     0.00  -0.00  -0.01
  80   1    -0.04  -0.01  -0.02    -0.02  -0.00  -0.02     0.01   0.00  -0.00
  81   1    -0.02  -0.00  -0.01    -0.00   0.00  -0.01     0.02   0.00  -0.00
  82   1    -0.01  -0.00  -0.00     0.00   0.00  -0.01     0.01   0.00  -0.00
  83   6     0.01   0.00  -0.03    -0.01  -0.01   0.17     0.06   0.04  -0.04
  84   6     0.00   0.00   0.00    -0.02  -0.01   0.17     0.06   0.04  -0.05
  85   6    -0.01  -0.00   0.04    -0.02  -0.01   0.18     0.06   0.04  -0.06
  86   6    -0.01  -0.01   0.05    -0.03  -0.02   0.26     0.07   0.05  -0.08
  87   6    -0.02  -0.01   0.09    -0.03  -0.02   0.26     0.07   0.05  -0.09
  88   6    -0.02  -0.01   0.11    -0.02  -0.01   0.20     0.07   0.05  -0.08
  89   6    -0.02  -0.01   0.09    -0.01  -0.00   0.12     0.07   0.04  -0.05
  90   6    -0.02  -0.01   0.11     0.01   0.00   0.06     0.07   0.03  -0.04
  91   6    -0.02  -0.01   0.09     0.02   0.01  -0.01     0.06   0.03  -0.01
  92   7    -0.01  -0.01   0.06     0.02   0.01  -0.01     0.06   0.02  -0.00
  93   6    -0.01  -0.00   0.04     0.01   0.00   0.04     0.06   0.03  -0.02
  94   6    -0.01  -0.01   0.06    -0.01  -0.00   0.11     0.06   0.03  -0.04
  95   1    -0.00  -0.00   0.01    -0.01  -0.01   0.09     0.02   0.01  -0.03
  96   1    -0.01  -0.00   0.03    -0.01  -0.01   0.09     0.02   0.02  -0.03
  97   1    -0.01  -0.00   0.04    -0.01  -0.00   0.06     0.02   0.01  -0.03
  98   1    -0.01  -0.00   0.04     0.00   0.00   0.02     0.02   0.01  -0.01
  99   1    -0.01  -0.00   0.03     0.01   0.00  -0.02     0.02   0.01  -0.00
 100   1    -0.00   0.00   0.00     0.00   0.00   0.01     0.01   0.01  -0.00
 101   6     0.01   0.01  -0.05    -0.01  -0.00   0.16     0.06   0.04  -0.03
 102   6     0.02   0.02  -0.09    -0.05  -0.03   0.27     0.04   0.03   0.02
 103   6     0.03   0.02  -0.11    -0.04  -0.03   0.26     0.04   0.02   0.03
 104   6     0.02   0.01  -0.09     0.00   0.00   0.12     0.05   0.03  -0.01
 105   6     0.01   0.00  -0.06     0.05   0.03   0.01     0.07   0.04  -0.05
 106   6     0.01   0.00  -0.04     0.04   0.02   0.02     0.07   0.04  -0.06
 107   1     0.01   0.01  -0.03    -0.03  -0.01   0.11     0.01   0.01   0.01
 108   1     0.01   0.01  -0.04    -0.02  -0.01   0.10     0.01   0.00   0.02
 109   1     0.00  -0.00  -0.01     0.02   0.01  -0.03     0.02   0.01  -0.02
 110   1    -0.00  -0.00  -0.00     0.02   0.01  -0.02     0.02   0.01  -0.03
 111   6     0.02   0.02  -0.10     0.01   0.00   0.10     0.04   0.03   0.00
 112   6     0.03   0.02  -0.11     0.01   0.01   0.08     0.04   0.02   0.01
 113   6     0.03   0.02  -0.11     0.01   0.01   0.05     0.03   0.02   0.02
 114   6     0.04   0.02  -0.15    -0.00   0.01   0.08     0.02   0.02   0.03
 115   6     0.03   0.02  -0.15    -0.00   0.01   0.06     0.02   0.02   0.03
 116   6     0.03   0.02  -0.10     0.01   0.01   0.01     0.02   0.01   0.02
 117   7     0.02   0.01  -0.07     0.02   0.01  -0.02     0.03   0.01   0.01
 118   6     0.02   0.01  -0.07     0.02   0.01  -0.00     0.03   0.02   0.00
 119   1     0.01   0.01  -0.05    -0.00   0.00   0.04     0.01   0.01   0.01
 120   1     0.01   0.01  -0.05    -0.00   0.00   0.02     0.00   0.00   0.01
 121   1     0.01   0.00  -0.03     0.00   0.00  -0.00     0.00   0.00   0.01
 122   1     0.00   0.00  -0.01     0.01   0.00  -0.01     0.01   0.00  -0.00
 123   6    -0.04  -0.01  -0.01     0.04   0.00  -0.03    -0.14  -0.03  -0.01
 124   6    -0.07  -0.02  -0.01     0.03   0.00  -0.03    -0.15  -0.03  -0.01
 125   6    -0.11  -0.03  -0.02     0.03   0.00  -0.03    -0.16  -0.03  -0.01
 126   6    -0.15  -0.04  -0.03     0.03   0.00  -0.03    -0.23  -0.04  -0.02
 127   6    -0.19  -0.05  -0.04     0.02  -0.00  -0.03    -0.23  -0.04  -0.03
 128   6    -0.19  -0.04  -0.04     0.02   0.00  -0.04    -0.16  -0.03  -0.02
 129   6    -0.14  -0.03  -0.03     0.02   0.00  -0.04    -0.08  -0.02  -0.01
 130   6    -0.13  -0.02  -0.04     0.02   0.00  -0.04    -0.00  -0.01   0.00
 131   6    -0.09  -0.01  -0.03     0.02   0.00  -0.04     0.06   0.00   0.01
 132   7    -0.06  -0.01  -0.02     0.02   0.01  -0.04     0.06   0.00   0.02
 133   6    -0.06  -0.02  -0.01     0.02   0.00  -0.03    -0.01  -0.01   0.01
 134   6    -0.10  -0.02  -0.02     0.02   0.00  -0.03    -0.08  -0.02  -0.00
 135   1    -0.05  -0.01  -0.01     0.01  -0.00  -0.01    -0.08  -0.02  -0.01
 136   1    -0.07  -0.02  -0.01     0.01  -0.00  -0.01    -0.09  -0.02  -0.01
 137   1    -0.06  -0.01  -0.01     0.01   0.00  -0.01    -0.05  -0.01  -0.01
 138   1    -0.05  -0.01  -0.01     0.01   0.00  -0.01     0.00  -0.00  -0.00
 139   1    -0.02  -0.00  -0.01     0.01   0.00  -0.01     0.03   0.00   0.01
 140   1    -0.01  -0.00  -0.00     0.01   0.00  -0.01    -0.00  -0.00   0.00
 141   6    -0.01  -0.00  -0.00     0.04   0.01  -0.03    -0.13  -0.03  -0.01
 142   6     0.02   0.01  -0.00     0.07   0.01  -0.03     0.06   0.03  -0.03
 143   6     0.04   0.02  -0.00     0.07   0.02  -0.03     0.07   0.04  -0.03
 144   6     0.04   0.01   0.00     0.05   0.01  -0.03    -0.11  -0.02  -0.01
 145   6     0.02  -0.00   0.00     0.03   0.00  -0.03    -0.29  -0.07   0.00
 146   6    -0.01  -0.01  -0.00     0.02  -0.00  -0.03    -0.31  -0.08   0.01
 147   1     0.00   0.00  -0.00     0.02   0.01  -0.01     0.06   0.02  -0.01
 148   1     0.02   0.01   0.00     0.03   0.01  -0.01     0.06   0.02  -0.01
 149   1     0.01  -0.00   0.00     0.00  -0.00  -0.01    -0.12  -0.03   0.00
 150   1    -0.01  -0.01  -0.00     0.00  -0.00  -0.01    -0.13  -0.04   0.01
 151   6     0.06   0.02   0.01     0.05   0.01  -0.03    -0.09  -0.01  -0.01
 152   6     0.08   0.02   0.01     0.05   0.01  -0.02    -0.08  -0.01  -0.01
 153   6     0.08   0.02   0.01     0.04   0.01  -0.02    -0.06  -0.01  -0.01
 154   6     0.11   0.03   0.00     0.05   0.01  -0.02    -0.11  -0.02  -0.01
 155   6     0.11   0.03   0.00     0.04   0.01  -0.02    -0.09  -0.01  -0.01
 156   6     0.09   0.02   0.00     0.03   0.01  -0.02    -0.03  -0.00  -0.01
 157   7     0.06   0.02   0.00     0.03   0.01  -0.02     0.01   0.00  -0.01
 158   6     0.06   0.02   0.01     0.04   0.01  -0.02    -0.01   0.00  -0.01
 159   1     0.04   0.01   0.00     0.02   0.00  -0.01    -0.05  -0.01  -0.00
 160   1     0.04   0.01   0.00     0.01   0.00  -0.01    -0.04  -0.01  -0.00
 161   1     0.02   0.01  -0.00     0.01   0.00  -0.01    -0.01  -0.00  -0.00
 162   1     0.01   0.00   0.00     0.01   0.00  -0.01     0.01   0.00  -0.00
                      4                      5                      6
                        a                      a                      a 
 Frequencies --    12.0385                15.3147                16.7508
 Red. masses --    16.2283                11.6615                12.5198
 Frc consts  --     0.0000                 0.0000                 0.0000
 IR Inten    --     0.4395                 0.1034                 0.0947
 Raman Activ --     0.0000                 0.0000                 0.0000
 Depolar     --     0.0000                 0.0000                 0.0000
 Atom AN      X      Y      Z        X      Y      Z        X      Y      Z
   1  46    -0.07   0.02  -0.11     0.06  -0.02  -0.02     0.01  -0.02   0.04
   2  46     0.00   0.00  -0.19    -0.02   0.03   0.00    -0.01   0.04  -0.10
   3   6    -0.07  -0.01   0.14     0.02  -0.03   0.01     0.01  -0.05  -0.01
   4   6    -0.07  -0.00   0.14     0.01  -0.03   0.03     0.01  -0.05   0.02
   5   6    -0.06  -0.00   0.14    -0.00  -0.04   0.05    -0.01  -0.06   0.06
   6   6    -0.07  -0.00   0.21    -0.01  -0.05   0.09    -0.02  -0.08   0.11
   7   6    -0.07   0.00   0.21    -0.02  -0.06   0.11    -0.04  -0.09   0.15
   8   6    -0.04   0.01   0.14    -0.03  -0.05   0.09    -0.05  -0.08   0.12
   9   6    -0.03   0.01   0.07    -0.02  -0.04   0.06    -0.03  -0.06   0.07
  10   6    -0.00   0.01  -0.00    -0.03  -0.03   0.05    -0.04  -0.05   0.04
  11   6     0.01   0.02  -0.06    -0.02  -0.01   0.02    -0.02  -0.03  -0.01
  12   7     0.00   0.01  -0.07    -0.01  -0.01  -0.00    -0.01  -0.02  -0.04
  13   6    -0.02   0.01  -0.00     0.00  -0.01   0.01     0.00  -0.03  -0.02
  14   6    -0.03   0.01   0.07    -0.01  -0.03   0.04    -0.01  -0.05   0.03
  15   1    -0.03  -0.00   0.08    -0.00  -0.02   0.03    -0.00  -0.02   0.04
  16   1    -0.02  -0.00   0.08    -0.01  -0.02   0.04    -0.01  -0.03   0.05
  17   1    -0.01   0.00   0.04    -0.01  -0.02   0.03    -0.02  -0.03   0.04
  18   1     0.00   0.01  -0.00    -0.01  -0.01   0.02    -0.01  -0.02   0.02
  19   1     0.01   0.01  -0.03    -0.01  -0.00   0.00    -0.01  -0.01  -0.01
  20   1    -0.01   0.00  -0.00     0.00  -0.00  -0.00     0.00  -0.01  -0.01
  21   6    -0.07  -0.00   0.13     0.02  -0.02  -0.01     0.00  -0.05  -0.04
  22   6    -0.07   0.00   0.03     0.02  -0.02  -0.02     0.00  -0.05  -0.03
  23   6    -0.06   0.01   0.02     0.02  -0.02  -0.04     0.00  -0.05  -0.05
  24   6    -0.05   0.00   0.11     0.02  -0.02  -0.05    -0.00  -0.05  -0.08
  25   6    -0.05  -0.01   0.21     0.02  -0.02  -0.04    -0.00  -0.05  -0.10
  26   6    -0.06  -0.01   0.23     0.02  -0.02  -0.02     0.00  -0.04  -0.08
  27   1    -0.02   0.00  -0.01     0.01  -0.01  -0.01     0.00  -0.01  -0.00
  28   1    -0.02   0.00  -0.02     0.01  -0.01  -0.01     0.00  -0.02  -0.01
  29   1    -0.01  -0.00   0.08     0.01  -0.01  -0.01    -0.00  -0.01  -0.04
  30   1    -0.02  -0.00   0.09     0.01  -0.01  -0.00     0.00  -0.01  -0.03
  31   6    -0.05   0.01   0.09     0.02  -0.02  -0.05    -0.01  -0.05  -0.08
  32   6    -0.04   0.01   0.07     0.02  -0.02  -0.05    -0.00  -0.05  -0.07
  33   6    -0.04   0.01   0.05     0.02  -0.02  -0.05     0.00  -0.05  -0.05
  34   6    -0.05   0.01   0.09     0.03  -0.02  -0.06     0.01  -0.05  -0.06
  35   6    -0.05   0.01   0.07     0.03  -0.02  -0.04     0.02  -0.05  -0.04
  36   6    -0.04   0.01   0.03     0.03  -0.02  -0.03     0.02  -0.04  -0.00
  37   7    -0.03   0.01  -0.01     0.02  -0.02  -0.02     0.01  -0.04   0.00
  38   6    -0.03   0.01   0.00     0.02  -0.02  -0.03    -0.00  -0.04  -0.02
  39   1    -0.02   0.00   0.04     0.01  -0.01  -0.02     0.01  -0.02  -0.03
  40   1    -0.02   0.00   0.03     0.01  -0.01  -0.01     0.01  -0.02  -0.01
  41   1    -0.01   0.00   0.00     0.01  -0.01  -0.00     0.01  -0.01   0.00
  42   1    -0.01   0.00  -0.01     0.00  -0.00  -0.01    -0.00  -0.01  -0.00
  43   6     0.12   0.01  -0.00    -0.00  -0.00   0.02     0.04  -0.03   0.01
  44   6     0.11   0.01  -0.00    -0.05  -0.01  -0.02     0.01  -0.03  -0.00
  45   6     0.11   0.00   0.00    -0.11  -0.02  -0.05    -0.01  -0.04  -0.01
  46   6     0.15   0.00   0.02    -0.19  -0.03  -0.08    -0.04  -0.05  -0.02
  47   6     0.14  -0.00   0.02    -0.25  -0.03  -0.10    -0.07  -0.06  -0.02
  48   6     0.08  -0.00   0.01    -0.21  -0.03  -0.09    -0.07  -0.05  -0.01
  49   6     0.04  -0.00  -0.01    -0.13  -0.02  -0.06    -0.04  -0.04  -0.00
  50   6    -0.02  -0.00  -0.03    -0.08  -0.02  -0.04    -0.04  -0.04   0.01
  51   6    -0.05   0.00  -0.04    -0.01  -0.01  -0.01    -0.02  -0.03   0.01
  52   7    -0.04   0.00  -0.04     0.02  -0.01  -0.01     0.00  -0.02   0.01
  53   6     0.02   0.00  -0.02    -0.01  -0.01  -0.02     0.00  -0.03   0.01
  54   6     0.05   0.00  -0.01    -0.08  -0.02  -0.04    -0.02  -0.04  -0.00
  55   1     0.06   0.00   0.01    -0.06  -0.01  -0.03    -0.01  -0.02  -0.01
  56   1     0.05  -0.00   0.01    -0.09  -0.01  -0.04    -0.03  -0.02  -0.01
  57   1     0.02  -0.00   0.00    -0.07  -0.01  -0.03    -0.03  -0.02  -0.00
  58   1    -0.01  -0.00  -0.01    -0.03  -0.01  -0.01    -0.02  -0.01   0.00
  59   1    -0.03   0.00  -0.02     0.01  -0.00   0.00    -0.00  -0.01   0.01
  60   1     0.01   0.00  -0.01     0.00  -0.00  -0.00     0.01  -0.01   0.00
  61   6     0.12   0.01  -0.00     0.04   0.01   0.05     0.06  -0.02   0.02
  62   6     0.09   0.01  -0.05     0.04   0.03   0.03     0.08  -0.01   0.06
  63   6     0.09   0.00  -0.06     0.07   0.04   0.04     0.09  -0.01   0.07
  64   6     0.11   0.01  -0.01     0.11   0.03   0.08     0.08  -0.02   0.03
  65   6     0.14   0.01   0.05     0.12   0.00   0.11     0.06  -0.03  -0.01
  66   6     0.14   0.01   0.05     0.09  -0.01   0.09     0.05  -0.03  -0.01
  67   1     0.02   0.00  -0.03     0.00   0.01  -0.00     0.03  -0.00   0.03
  68   1     0.02   0.00  -0.03     0.02   0.02   0.01     0.03  -0.00   0.03
  69   1     0.04   0.00   0.02     0.04  -0.00   0.04     0.02  -0.01  -0.01
  70   1     0.05   0.00   0.03     0.03  -0.01   0.03     0.01  -0.01  -0.01
  71   6     0.10   0.01  -0.01     0.13   0.03   0.08     0.08  -0.01   0.03
  72   6     0.09   0.00  -0.02     0.13   0.04   0.07     0.08  -0.01   0.02
  73   6     0.08   0.00  -0.03     0.11   0.03   0.05     0.06  -0.01   0.00
  74   6     0.11   0.00  -0.01     0.15   0.04   0.08     0.07  -0.02  -0.00
  75   6     0.09   0.00  -0.02     0.13   0.04   0.07     0.04  -0.02  -0.02
  76   6     0.05   0.00  -0.04     0.06   0.03   0.03     0.02  -0.01  -0.04
  77   7     0.03   0.00  -0.06     0.02   0.03   0.01     0.01  -0.01  -0.03
  78   6     0.04   0.00  -0.05     0.04   0.03   0.01     0.03  -0.01  -0.01
  79   1     0.04   0.00   0.00     0.06   0.01   0.03     0.02  -0.01   0.00
  80   1     0.03   0.00  -0.00     0.05   0.01   0.03     0.01  -0.01  -0.01
  81   1     0.01   0.00  -0.01     0.01   0.01   0.01    -0.00  -0.00  -0.01
  82   1     0.00  -0.00  -0.02     0.00   0.01  -0.00     0.01  -0.00  -0.00
  83   6    -0.02  -0.03   0.05    -0.01   0.03  -0.00    -0.03   0.04   0.04
  84   6    -0.02  -0.03   0.04    -0.02   0.02   0.04    -0.02   0.04  -0.01
  85   6    -0.02  -0.03   0.02    -0.02   0.02   0.09    -0.00   0.05  -0.06
  86   6    -0.02  -0.04   0.04    -0.03   0.02   0.16     0.01   0.07  -0.13
  87   6    -0.03  -0.04   0.02    -0.03   0.02   0.21     0.03   0.09  -0.18
  88   6    -0.03  -0.03  -0.02    -0.02   0.02   0.19     0.04   0.08  -0.17
  89   6    -0.02  -0.02  -0.03    -0.01   0.02   0.13     0.03   0.06  -0.10
  90   6    -0.02  -0.01  -0.07     0.01   0.01   0.10     0.03   0.05  -0.08
  91   6    -0.02  -0.01  -0.08     0.02   0.01   0.04     0.02   0.03  -0.03
  92   7    -0.02  -0.01  -0.06     0.02   0.01   0.01     0.01   0.02   0.01
  93   6    -0.02  -0.01  -0.02     0.00   0.01   0.03    -0.00   0.03  -0.01
  94   6    -0.02  -0.02  -0.01    -0.01   0.02   0.08     0.01   0.05  -0.06
  95   1    -0.01  -0.01   0.02    -0.01   0.01   0.05     0.00   0.02  -0.04
  96   1    -0.01  -0.01   0.01    -0.01   0.01   0.07     0.01   0.03  -0.07
  97   1    -0.01  -0.01  -0.01    -0.00   0.01   0.07     0.02   0.03  -0.06
  98   1    -0.01  -0.00  -0.02     0.00   0.00   0.04     0.01   0.02  -0.03
  99   1    -0.01   0.00  -0.03     0.01   0.00   0.01     0.01   0.01  -0.00
 100   1    -0.01  -0.00  -0.00     0.00   0.00  -0.00    -0.01   0.00   0.01
 101   6    -0.02  -0.03   0.05    -0.01   0.03  -0.04    -0.04   0.03   0.09
 102   6    -0.03  -0.04   0.09     0.03   0.06  -0.16    -0.04   0.02   0.10
 103   6    -0.03  -0.04   0.09     0.04   0.06  -0.19    -0.03   0.02   0.13
 104   6    -0.02  -0.03   0.05     0.01   0.04  -0.10    -0.03   0.03   0.14
 105   6    -0.00  -0.02   0.01    -0.03   0.02   0.01    -0.04   0.04   0.13
 106   6    -0.00  -0.02   0.01    -0.04   0.01   0.04    -0.05   0.04   0.11
 107   1    -0.01  -0.01   0.04     0.02   0.02  -0.06    -0.01   0.00   0.03
 108   1    -0.01  -0.01   0.03     0.02   0.02  -0.08    -0.01   0.00   0.04
 109   1     0.00  -0.00  -0.01    -0.02   0.00   0.02    -0.01   0.01   0.04
 110   1     0.00  -0.00  -0.01    -0.02  -0.00   0.04    -0.01   0.01   0.03
 111   6    -0.02  -0.03   0.04     0.01   0.04  -0.11    -0.03   0.03   0.14
 112   6    -0.02  -0.03   0.03     0.02   0.05  -0.11    -0.02   0.04   0.13
 113   6    -0.02  -0.02   0.01     0.02   0.04  -0.09    -0.02   0.04   0.10
 114   6    -0.02  -0.03   0.03     0.03   0.05  -0.15    -0.04   0.04   0.12
 115   6    -0.01  -0.03   0.01     0.02   0.05  -0.13    -0.04   0.04   0.08
 116   6    -0.00  -0.02  -0.02     0.00   0.03  -0.05    -0.02   0.04   0.01
 117   7    -0.00  -0.01  -0.04    -0.00   0.03  -0.01    -0.01   0.04  -0.01
 118   6    -0.01  -0.02  -0.03     0.00   0.03  -0.02    -0.01   0.04   0.03
 119   1    -0.01  -0.01   0.02     0.01   0.02  -0.06    -0.01   0.01   0.05
 120   1    -0.00  -0.01   0.01     0.01   0.02  -0.05    -0.01   0.01   0.03
 121   1    -0.00  -0.00  -0.01    -0.00   0.01  -0.01    -0.01   0.01  -0.01
 122   1    -0.00  -0.00  -0.01    -0.00   0.01   0.01     0.00   0.01   0.00
 123   6    -0.01   0.02  -0.04    -0.02  -0.01  -0.01    -0.01   0.03  -0.01
 124   6     0.01   0.02  -0.03    -0.01  -0.01  -0.01    -0.04   0.02  -0.01
 125   6     0.04   0.03  -0.03     0.01  -0.00  -0.01    -0.08   0.01  -0.01
 126   6     0.08   0.04  -0.02     0.02  -0.00  -0.01    -0.14   0.01  -0.01
 127   6     0.10   0.04  -0.01     0.03   0.00  -0.00    -0.18   0.01  -0.01
 128   6     0.10   0.04  -0.01     0.04   0.00  -0.00    -0.15   0.01  -0.00
 129   6     0.06   0.03  -0.02     0.03  -0.00  -0.00    -0.10   0.01   0.00
 130   6     0.05   0.02  -0.01     0.03  -0.00  -0.00    -0.06   0.01   0.01
 131   6     0.02   0.02  -0.02     0.02  -0.00  -0.00    -0.01   0.00   0.02
 132   7    -0.00   0.01  -0.03     0.01  -0.00  -0.01    -0.00   0.00   0.02
 133   6     0.01   0.02  -0.03     0.01  -0.00  -0.01    -0.02   0.01   0.01
 134   6     0.04   0.03  -0.02     0.01  -0.00  -0.01    -0.07   0.01   0.00
 135   1     0.02   0.01  -0.01     0.00  -0.00  -0.00    -0.04   0.01  -0.01
 136   1     0.04   0.01  -0.00     0.01   0.00  -0.00    -0.06   0.00  -0.00
 137   1     0.03   0.01  -0.00     0.01   0.00   0.00    -0.05   0.00   0.00
 138   1     0.02   0.01  -0.00     0.01  -0.00  -0.00    -0.02   0.00   0.00
 139   1     0.00   0.00  -0.01     0.01  -0.00  -0.00     0.01   0.00   0.01
 140   1    -0.00   0.00  -0.01     0.00  -0.00  -0.00    -0.00   0.00   0.00
 141   6    -0.03   0.01  -0.04    -0.04  -0.01  -0.02     0.02   0.04  -0.01
 142   6    -0.01   0.01  -0.05    -0.08  -0.03  -0.01    -0.09   0.01  -0.00
 143   6    -0.03   0.01  -0.05    -0.09  -0.03  -0.02    -0.07   0.01   0.00
 144   6    -0.06   0.00  -0.05    -0.06  -0.02  -0.02     0.07   0.05  -0.01
 145   6    -0.08   0.00  -0.05    -0.02  -0.00  -0.02     0.19   0.09  -0.02
 146   6    -0.06   0.01  -0.04    -0.01  -0.00  -0.02     0.16   0.08  -0.02
 147   1     0.00   0.00  -0.01    -0.03  -0.01  -0.00    -0.06  -0.01   0.00
 148   1    -0.00   0.00  -0.02    -0.04  -0.01  -0.00    -0.05  -0.00   0.00
 149   1    -0.03  -0.00  -0.01     0.00   0.00  -0.01     0.09   0.03  -0.01
 150   1    -0.02   0.00  -0.01     0.01   0.00  -0.01     0.07   0.03  -0.01
 151   6    -0.06   0.00  -0.05    -0.06  -0.02  -0.02     0.08   0.06  -0.01
 152   6    -0.06   0.00  -0.06    -0.06  -0.02  -0.02     0.08   0.06  -0.01
 153   6    -0.06   0.00  -0.06    -0.05  -0.02  -0.02     0.07   0.05  -0.02
 154   6    -0.08  -0.00  -0.07    -0.06  -0.02  -0.01     0.12   0.07  -0.02
 155   6    -0.08  -0.00  -0.07    -0.05  -0.02  -0.00     0.10   0.06  -0.03
 156   6    -0.04   0.00  -0.07    -0.03  -0.01   0.00     0.04   0.04  -0.04
 157   7    -0.03   0.00  -0.07    -0.02  -0.00  -0.01     0.00   0.03  -0.03
 158   6    -0.03   0.00  -0.06    -0.02  -0.01  -0.01     0.01   0.04  -0.02
 159   1    -0.03  -0.00  -0.02    -0.02  -0.01  -0.00     0.05   0.02  -0.01
 160   1    -0.03  -0.00  -0.02    -0.02  -0.01   0.00     0.04   0.02  -0.01
 161   1    -0.01   0.00  -0.02    -0.01  -0.00   0.00     0.01   0.01  -0.01
 162   1    -0.00   0.00  -0.02    -0.00   0.00  -0.01    -0.01   0.01  -0.00
                      7                      8                      9
                        a                      a                      a 
 Frequencies --    17.5902                18.4980                19.2432
 Red. masses --    14.9211                11.8037                11.3402
 Frc consts  --     0.0000                 0.0000                 0.0000
 IR Inten    --     0.0733                 0.1313                 0.0796
 Raman Activ --     0.0000                 0.0000                 0.0000
 Depolar     --     0.0000                 0.0000                 0.0000
 Atom AN      X      Y      Z        X      Y      Z        X      Y      Z
   1  46    -0.11  -0.02   0.07     0.03   0.04   0.03    -0.03   0.02  -0.04
   2  46     0.15   0.03  -0.05     0.03  -0.02   0.02    -0.01  -0.03   0.01
   3   6     0.02  -0.02  -0.01     0.01   0.04  -0.03    -0.05  -0.03   0.11
   4   6     0.03  -0.01   0.01    -0.01   0.03   0.01    -0.03  -0.02   0.07
   5   6     0.03  -0.01   0.03    -0.02   0.02   0.07    -0.01  -0.01   0.02
   6   6     0.03  -0.01   0.06    -0.03   0.02   0.13    -0.01  -0.00  -0.00
   7   6     0.02  -0.01   0.09    -0.04   0.02   0.19     0.01   0.01  -0.07
   8   6     0.03  -0.02   0.09    -0.03   0.02   0.18     0.02   0.01  -0.11
   9   6     0.03  -0.01   0.05    -0.01   0.02   0.12     0.02   0.00  -0.09
  10   6     0.04  -0.01   0.05    -0.00   0.01   0.10     0.03   0.01  -0.13
  11   6     0.04  -0.01   0.02     0.01   0.01   0.05     0.03   0.00  -0.11
  12   7     0.05  -0.01  -0.01     0.01   0.02   0.01     0.01  -0.01  -0.05
  13   6     0.05  -0.01  -0.00     0.00   0.02   0.01    -0.00  -0.01  -0.01
  14   6     0.04  -0.01   0.03    -0.01   0.02   0.07     0.00  -0.01  -0.03
  15   1     0.01  -0.00   0.02    -0.01   0.01   0.04    -0.01  -0.00   0.01
  16   1     0.01  -0.00   0.03    -0.01   0.00   0.07     0.00   0.00  -0.02
  17   1     0.01  -0.01   0.03    -0.01   0.00   0.06     0.01   0.01  -0.05
  18   1     0.01  -0.00   0.02    -0.00   0.00   0.04     0.01   0.00  -0.05
  19   1     0.01  -0.00   0.00     0.01   0.00   0.01     0.01   0.00  -0.04
  20   1     0.01  -0.00  -0.01     0.00   0.01  -0.01    -0.00  -0.01   0.01
  21   6     0.00  -0.02  -0.02     0.02   0.05  -0.07    -0.05  -0.04   0.13
  22   6     0.00  -0.04   0.05     0.02   0.06  -0.02    -0.05  -0.04   0.12
  23   6    -0.01  -0.05   0.04     0.03   0.07  -0.05    -0.05  -0.04   0.11
  24   6    -0.03  -0.04  -0.04     0.04   0.06  -0.12    -0.05  -0.04   0.11
  25   6    -0.03  -0.02  -0.12     0.04   0.05  -0.18    -0.05  -0.04   0.14
  26   6    -0.01  -0.01  -0.11     0.03   0.04  -0.15    -0.05  -0.04   0.15
  27   1     0.00  -0.01   0.03     0.00   0.02   0.01    -0.02  -0.01   0.03
  28   1    -0.00  -0.02   0.03     0.01   0.02  -0.00    -0.02  -0.01   0.03
  29   1    -0.01  -0.00  -0.05     0.01   0.01  -0.07    -0.01  -0.01   0.04
  30   1    -0.00   0.00  -0.05     0.01   0.01  -0.06    -0.01  -0.01   0.05
  31   6    -0.04  -0.04  -0.04     0.05   0.06  -0.13    -0.05  -0.03   0.08
  32   6    -0.05  -0.04  -0.03     0.05   0.06  -0.12    -0.03  -0.03   0.04
  33   6    -0.04  -0.04  -0.01     0.05   0.06  -0.12    -0.02  -0.02  -0.02
  34   6    -0.03  -0.05  -0.02     0.05   0.07  -0.18     0.01  -0.01  -0.10
  35   6    -0.02  -0.05  -0.00     0.04   0.07  -0.16     0.03  -0.00  -0.16
  36   6    -0.03  -0.04   0.02     0.03   0.05  -0.09     0.02   0.00  -0.14
  37   7    -0.04  -0.03   0.02     0.02   0.05  -0.04     0.00   0.00  -0.07
  38   6    -0.04  -0.03   0.01     0.03   0.05  -0.05    -0.02  -0.01  -0.01
  39   1    -0.01  -0.02  -0.01     0.02   0.02  -0.07     0.00  -0.01  -0.03
  40   1    -0.00  -0.01  -0.00     0.01   0.02  -0.06     0.01  -0.00  -0.06
  41   1    -0.01  -0.01   0.01     0.01   0.01  -0.02     0.01   0.00  -0.05
  42   1    -0.02  -0.01   0.00     0.01   0.01   0.00    -0.01  -0.00   0.01
  43   6    -0.01   0.04   0.02    -0.03  -0.06  -0.05    -0.04  -0.03  -0.06
  44   6     0.00   0.04   0.04    -0.02  -0.06  -0.04    -0.03  -0.03  -0.05
  45   6     0.02   0.04   0.05    -0.01  -0.06  -0.03    -0.01  -0.03  -0.04
  46   6     0.05   0.05   0.06    -0.01  -0.08  -0.03    -0.01  -0.03  -0.04
  47   6     0.07   0.05   0.06     0.00  -0.08  -0.01     0.03  -0.03  -0.02
  48   6     0.06   0.05   0.05     0.02  -0.07   0.01     0.06  -0.03   0.00
  49   6     0.02   0.04   0.04     0.03  -0.06   0.02     0.06  -0.02   0.00
  50   6     0.01   0.03   0.03     0.05  -0.04   0.04     0.10  -0.01   0.02
  51   6    -0.02   0.02   0.02     0.05  -0.03   0.04     0.09  -0.01   0.02
  52   7    -0.04   0.02   0.02     0.04  -0.02   0.02     0.05  -0.01  -0.00
  53   6    -0.02   0.02   0.03     0.02  -0.03  -0.00     0.02  -0.01  -0.02
  54   6     0.01   0.03   0.04     0.02  -0.05  -0.01     0.02  -0.02  -0.02
  55   1     0.02   0.01   0.02    -0.01  -0.03  -0.01    -0.01  -0.01  -0.01
  56   1     0.03   0.02   0.02    -0.00  -0.03  -0.00     0.01  -0.01  -0.00
  57   1     0.02   0.01   0.02     0.01  -0.02   0.01     0.03  -0.01   0.01
  58   1     0.00   0.01   0.01     0.02  -0.01   0.02     0.04  -0.00   0.01
  59   1    -0.01   0.00   0.00     0.02  -0.01   0.01     0.03  -0.00   0.01
  60   1    -0.01   0.01   0.01     0.00  -0.01  -0.01    -0.00  -0.00  -0.01
  61   6    -0.01   0.04  -0.01    -0.03  -0.06  -0.05    -0.03  -0.03  -0.06
  62   6     0.09   0.05   0.19    -0.03  -0.07  -0.03     0.04  -0.02   0.08
  63   6     0.09   0.06   0.18    -0.03  -0.07  -0.02     0.05  -0.01   0.10
  64   6    -0.01   0.05  -0.05    -0.04  -0.07  -0.03    -0.00  -0.02  -0.02
  65   6    -0.12   0.03  -0.26    -0.05  -0.06  -0.05    -0.08  -0.03  -0.17
  66   6    -0.12   0.03  -0.24    -0.05  -0.06  -0.06    -0.09  -0.04  -0.19
  67   1     0.05   0.02   0.11    -0.00  -0.02  -0.01     0.02  -0.00   0.05
  68   1     0.05   0.02   0.10    -0.01  -0.02  -0.00     0.03  -0.00   0.06
  69   1    -0.06   0.01  -0.13    -0.02  -0.02  -0.02    -0.03  -0.01  -0.08
  70   1    -0.06   0.00  -0.12    -0.02  -0.02  -0.02    -0.04  -0.01  -0.09
  71   6    -0.01   0.05  -0.06    -0.03  -0.07  -0.01     0.02  -0.02  -0.00
  72   6    -0.01   0.05  -0.06    -0.03  -0.07   0.00     0.05  -0.02   0.02
  73   6    -0.01   0.05  -0.06    -0.01  -0.07   0.01     0.08  -0.01   0.04
  74   6    -0.06   0.05  -0.07    -0.00  -0.07  -0.01     0.14  -0.01   0.07
  75   6    -0.06   0.04  -0.06     0.01  -0.07  -0.01     0.16  -0.01   0.07
  76   6    -0.01   0.04  -0.04     0.03  -0.05  -0.00     0.11  -0.01   0.05
  77   7     0.04   0.04  -0.02     0.02  -0.05   0.01     0.06  -0.01   0.02
  78   6     0.04   0.04  -0.03     0.01  -0.05   0.01     0.04  -0.01   0.01
  79   1    -0.03   0.02  -0.03    -0.00  -0.02  -0.00     0.05  -0.00   0.02
  80   1    -0.03   0.01  -0.02     0.01  -0.02  -0.01     0.06  -0.00   0.03
  81   1    -0.00   0.01  -0.01     0.01  -0.01  -0.00     0.04  -0.00   0.02
  82   1     0.02   0.01  -0.00     0.00  -0.01   0.01    -0.00  -0.00  -0.00
  83   6    -0.02   0.03   0.02     0.04  -0.04  -0.03     0.02   0.03  -0.08
  84   6    -0.03   0.02   0.01     0.05  -0.03  -0.04     0.01   0.03  -0.07
  85   6    -0.03   0.02  -0.01     0.04  -0.04  -0.04    -0.00   0.02  -0.04
  86   6    -0.03   0.02  -0.03     0.05  -0.04  -0.07    -0.00   0.02  -0.04
  87   6    -0.02   0.03  -0.05     0.04  -0.05  -0.06    -0.01   0.01   0.01
  88   6    -0.02   0.03  -0.04     0.02  -0.05  -0.03    -0.02   0.01   0.07
  89   6    -0.03   0.02  -0.02     0.01  -0.04   0.00    -0.02   0.01   0.06
  90   6    -0.02   0.02  -0.02    -0.00  -0.04   0.04    -0.03   0.00   0.12
  91   6    -0.03   0.02  -0.00    -0.01  -0.03   0.06    -0.03   0.00   0.10
  92   7    -0.04   0.01   0.02     0.01  -0.02   0.04    -0.02   0.01   0.04
  93   6    -0.04   0.01   0.01     0.02  -0.02   0.01    -0.01   0.02  -0.00
  94   6    -0.03   0.02  -0.00     0.03  -0.03  -0.01    -0.01   0.02   0.01
  95   1    -0.01   0.01  -0.01     0.02  -0.01  -0.03     0.00   0.01  -0.02
  96   1    -0.01   0.01  -0.02     0.01  -0.02  -0.02    -0.00   0.00   0.00
  97   1    -0.01   0.01  -0.02     0.00  -0.02  -0.01    -0.01   0.00   0.03
  98   1    -0.01   0.01  -0.01    -0.00  -0.01   0.01    -0.01  -0.00   0.05
  99   1    -0.01   0.00  -0.00    -0.01  -0.01   0.03    -0.01  -0.00   0.04
 100   1    -0.01   0.00   0.01     0.01  -0.00  -0.00    -0.00   0.01  -0.01
 101   6    -0.00   0.03   0.03     0.03  -0.04  -0.02     0.02   0.03  -0.08
 102   6     0.04   0.04  -0.05     0.01  -0.04  -0.01     0.05   0.04  -0.14
 103   6     0.06   0.04  -0.05    -0.00  -0.05   0.01     0.05   0.04  -0.12
 104   6     0.04   0.05   0.03    -0.00  -0.06   0.01     0.03   0.03  -0.04
 105   6    -0.01   0.04   0.11     0.01  -0.06  -0.01     0.00   0.03   0.00
 106   6    -0.03   0.04   0.11     0.03  -0.05  -0.03     0.00   0.03  -0.02
 107   1     0.02   0.01  -0.03     0.00  -0.01  -0.00     0.02   0.01  -0.06
 108   1     0.03   0.01  -0.03    -0.00  -0.01   0.01     0.02   0.01  -0.05
 109   1    -0.01   0.01   0.05     0.00  -0.02  -0.00    -0.00   0.01   0.02
 110   1    -0.02   0.01   0.05     0.01  -0.02  -0.01    -0.01   0.01   0.01
 111   6     0.06   0.06   0.02    -0.01  -0.06   0.02     0.02   0.03  -0.01
 112   6     0.07   0.06   0.01    -0.02  -0.06   0.03     0.01   0.02   0.02
 113   6     0.06   0.06  -0.01    -0.01  -0.06   0.03    -0.01   0.01   0.06
 114   6     0.05   0.07  -0.02     0.00  -0.07   0.05    -0.03   0.01   0.12
 115   6     0.04   0.06  -0.03     0.01  -0.06   0.04    -0.04  -0.01   0.15
 116   6     0.04   0.05  -0.03     0.02  -0.04   0.03    -0.04  -0.01   0.11
 117   7     0.05   0.04  -0.02     0.01  -0.04   0.02    -0.02  -0.01   0.06
 118   6     0.06   0.05  -0.01    -0.01  -0.04   0.03    -0.00   0.00   0.03
 119   1     0.01   0.02  -0.01    -0.00  -0.02   0.02    -0.01   0.00   0.04
 120   1     0.01   0.02  -0.01     0.01  -0.02   0.02    -0.02  -0.00   0.06
 121   1     0.01   0.01  -0.01     0.01  -0.01   0.01    -0.01  -0.01   0.04
 122   1     0.02   0.01  -0.00    -0.00  -0.01   0.01     0.00   0.00  -0.00
 123   6    -0.05  -0.06   0.03    -0.03   0.07   0.00     0.08   0.04   0.02
 124   6    -0.02  -0.05   0.04     0.01   0.08   0.00     0.06   0.03   0.00
 125   6     0.03  -0.04   0.04     0.04   0.09   0.01     0.03   0.03  -0.01
 126   6     0.08  -0.04   0.04     0.08   0.10   0.02     0.03   0.02  -0.01
 127   6     0.13  -0.04   0.04     0.10   0.11   0.04    -0.02   0.01  -0.02
 128   6     0.12  -0.03   0.03     0.08   0.10   0.04    -0.08   0.01  -0.03
 129   6     0.07  -0.03   0.03     0.04   0.08   0.03    -0.08   0.01  -0.03
 130   6     0.06  -0.03   0.02     0.01   0.06   0.04    -0.12   0.01  -0.03
 131   6     0.01  -0.03   0.02    -0.02   0.05   0.03    -0.11   0.01  -0.03
 132   7    -0.02  -0.03   0.02    -0.02   0.05   0.01    -0.06   0.02  -0.02
 133   6    -0.02  -0.03   0.03    -0.00   0.06   0.01    -0.02   0.02  -0.01
 134   6     0.03  -0.04   0.03     0.02   0.08   0.02    -0.02   0.02  -0.02
 135   1     0.02  -0.01   0.01     0.03   0.03   0.00     0.02   0.01  -0.00
 136   1     0.05  -0.01   0.01     0.04   0.04   0.01    -0.01   0.00  -0.01
 137   1     0.05  -0.01   0.01     0.03   0.03   0.02    -0.03   0.00  -0.01
 138   1     0.03  -0.01   0.01     0.00   0.02   0.01    -0.05   0.00  -0.01
 139   1     0.00  -0.01   0.00    -0.01   0.01   0.01    -0.04   0.00  -0.01
 140   1    -0.01  -0.01   0.01    -0.00   0.02  -0.00     0.01   0.01  -0.00
 141   6    -0.08  -0.07   0.01    -0.06   0.06   0.01     0.09   0.04   0.02
 142   6    -0.11  -0.10  -0.00    -0.03   0.08   0.02     0.03   0.03   0.03
 143   6    -0.12  -0.10  -0.02    -0.06   0.07   0.03     0.02   0.02   0.03
 144   6    -0.10  -0.08  -0.04    -0.11   0.05   0.04     0.06   0.03   0.03
 145   6    -0.08  -0.05  -0.03    -0.14   0.03   0.04     0.13   0.05   0.02
 146   6    -0.07  -0.05  -0.01    -0.12   0.04   0.02     0.14   0.06   0.02
 147   1    -0.04  -0.03   0.00     0.00   0.03   0.00    -0.00   0.00   0.01
 148   1    -0.04  -0.04  -0.01    -0.01   0.03   0.01    -0.01   0.00   0.01
 149   1    -0.02  -0.01  -0.01    -0.05   0.00   0.01     0.05   0.02   0.00
 150   1    -0.01  -0.01   0.00    -0.04   0.01   0.01     0.06   0.02   0.00
 151   6    -0.09  -0.08  -0.05    -0.12   0.04   0.05     0.03   0.02   0.03
 152   6    -0.07  -0.07  -0.06    -0.12   0.04   0.05    -0.00   0.01   0.02
 153   6    -0.04  -0.06  -0.05    -0.10   0.04   0.04    -0.05   0.00   0.01
 154   6    -0.08  -0.08  -0.04    -0.14   0.05   0.02    -0.11   0.00   0.00
 155   6    -0.05  -0.07  -0.02    -0.11   0.05   0.00    -0.15  -0.01  -0.01
 156   6     0.01  -0.04  -0.01    -0.05   0.04  -0.00    -0.12  -0.01  -0.01
 157   7     0.05  -0.03  -0.03    -0.02   0.04   0.01    -0.06  -0.01  -0.01
 158   6     0.02  -0.03  -0.04    -0.05   0.03   0.03    -0.02  -0.01   0.01
 159   1    -0.04  -0.03  -0.01    -0.05   0.02   0.01    -0.04   0.00   0.00
 160   1    -0.02  -0.03  -0.00    -0.04   0.02  -0.00    -0.06  -0.00  -0.01
 161   1     0.01  -0.01   0.00    -0.01   0.01  -0.00    -0.04  -0.01  -0.01
 162   1     0.02  -0.00  -0.02    -0.01   0.01   0.01     0.01  -0.00   0.00
                     10                     11                     12
                        a                      a                      a 
 Frequencies --    19.7849                20.4046                24.0357
 Red. masses --    17.4301                17.4930                17.2076
 Frc consts  --     0.0000                 0.0000                 0.0000
 IR Inten    --     0.0888                 0.0219                 0.1594
 Raman Activ --     0.0000                 0.0000                 0.0000
 Depolar     --     0.0000                 0.0000                 0.0000
 Atom AN      X      Y      Z        X      Y      Z        X      Y      Z
   1  46    -0.13  -0.13  -0.03     0.02  -0.05   0.17    -0.09   0.14   0.05
   2  46     0.12   0.13   0.05    -0.02   0.04  -0.18    -0.03  -0.17  -0.04
   3   6     0.07  -0.04   0.01     0.02   0.01  -0.01    -0.10   0.02  -0.07
   4   6     0.08  -0.03   0.02    -0.00   0.00   0.01    -0.09   0.02  -0.05
   5   6     0.07  -0.04   0.02    -0.01  -0.00   0.03    -0.07   0.03  -0.01
   6   6     0.07  -0.06   0.02    -0.03  -0.02   0.08    -0.07   0.06   0.02
   7   6     0.05  -0.07   0.02    -0.04  -0.03   0.11    -0.05   0.07   0.06
   8   6     0.03  -0.06   0.01    -0.04  -0.02   0.08    -0.02   0.05   0.08
   9   6     0.04  -0.04   0.01    -0.03  -0.00   0.03    -0.02   0.01   0.05
  10   6     0.02  -0.02  -0.00    -0.03   0.00   0.01     0.01  -0.01   0.06
  11   6     0.02  -0.00  -0.00    -0.02   0.02  -0.04     0.01  -0.04   0.03
  12   7     0.04   0.01   0.00    -0.01   0.03  -0.06    -0.01  -0.06  -0.01
  13   6     0.05  -0.01   0.01    -0.01   0.02  -0.04    -0.04  -0.03  -0.02
  14   6     0.05  -0.03   0.01    -0.02   0.00   0.01    -0.04   0.00   0.01
  15   1     0.02  -0.02   0.01    -0.01  -0.01   0.03    -0.03   0.02   0.00
  16   1     0.01  -0.02   0.01    -0.01  -0.01   0.04    -0.02   0.03   0.02
  17   1     0.01  -0.02   0.00    -0.02  -0.01   0.03    -0.00   0.02   0.03
  18   1     0.00  -0.01  -0.00    -0.01  -0.00   0.01     0.01  -0.00   0.03
  19   1     0.00   0.00  -0.00    -0.01   0.01  -0.02     0.01  -0.02   0.01
  20   1     0.02   0.00   0.00     0.00   0.01  -0.02    -0.02  -0.01  -0.01
  21   6     0.05  -0.05  -0.00     0.03   0.02  -0.02    -0.09   0.02  -0.08
  22   6     0.05  -0.07  -0.04     0.03   0.02  -0.03    -0.08   0.04   0.02
  23   6     0.02  -0.08  -0.06     0.03   0.03  -0.03    -0.07   0.05   0.03
  24   6     0.00  -0.07  -0.03     0.04   0.02  -0.03    -0.06   0.04  -0.06
  25   6     0.01  -0.04   0.01     0.04   0.01  -0.03    -0.06   0.02  -0.17
  26   6     0.03  -0.03   0.02     0.03   0.01  -0.02    -0.08   0.02  -0.18
  27   1     0.02  -0.02  -0.02     0.01   0.01  -0.01    -0.03   0.01   0.03
  28   1     0.01  -0.03  -0.03     0.01   0.01  -0.01    -0.02   0.02   0.03
  29   1    -0.00  -0.01   0.01     0.01   0.00  -0.01    -0.01   0.00  -0.07
  30   1     0.01  -0.00   0.02     0.01   0.00  -0.01    -0.02   0.00  -0.07
  31   6    -0.02  -0.08  -0.05     0.05   0.03  -0.03    -0.04   0.05  -0.04
  32   6    -0.04  -0.09  -0.06     0.04   0.02  -0.03    -0.03   0.05  -0.02
  33   6    -0.04  -0.09  -0.06     0.03   0.02  -0.02    -0.03   0.05   0.00
  34   6    -0.03  -0.09  -0.08     0.03   0.03  -0.06    -0.03   0.05   0.01
  35   6    -0.02  -0.09  -0.08     0.02   0.02  -0.05    -0.04   0.05   0.03
  36   6    -0.03  -0.08  -0.05     0.02   0.01  -0.00    -0.04   0.05   0.04
  37   7    -0.04  -0.09  -0.04     0.02   0.00   0.03    -0.04   0.05   0.03
  38   6    -0.05  -0.08  -0.04     0.02   0.01   0.02    -0.03   0.05   0.01
  39   1    -0.01  -0.03  -0.03     0.01   0.01  -0.03    -0.01   0.02   0.00
  40   1    -0.00  -0.03  -0.03     0.01   0.01  -0.02    -0.01   0.01   0.01
  41   1    -0.01  -0.02  -0.01     0.00   0.00   0.00    -0.01   0.01   0.01
  42   1    -0.02  -0.02  -0.01     0.01   0.00   0.01    -0.01   0.01  -0.00
  43   6    -0.07  -0.04   0.03    -0.09   0.07   0.06     0.07  -0.02  -0.06
  44   6    -0.04  -0.03   0.02    -0.09   0.06   0.08     0.05  -0.02  -0.05
  45   6    -0.01  -0.02   0.02    -0.08   0.07   0.07     0.02  -0.04  -0.03
  46   6     0.03  -0.00   0.04    -0.10   0.09   0.06     0.02  -0.08  -0.02
  47   6     0.08   0.01   0.04    -0.08   0.10   0.04    -0.01  -0.10   0.00
  48   6     0.09   0.00   0.03    -0.04   0.09   0.04    -0.04  -0.08   0.02
  49   6     0.05  -0.02   0.02    -0.01   0.07   0.05    -0.04  -0.04   0.02
  50   6     0.06  -0.02   0.01     0.03   0.06   0.04    -0.08  -0.02   0.04
  51   6     0.03  -0.04   0.00     0.05   0.03   0.05    -0.07   0.02   0.04
  52   7    -0.02  -0.05  -0.00     0.02   0.03   0.07    -0.04   0.04   0.01
  53   6    -0.03  -0.04   0.00    -0.02   0.04   0.07    -0.01   0.02  -0.01
  54   6     0.00  -0.03   0.02    -0.04   0.06   0.06    -0.01  -0.02  -0.01
  55   1     0.01   0.00   0.01    -0.04   0.03   0.02     0.01  -0.03  -0.01
  56   1     0.03   0.01   0.01    -0.03   0.03   0.01    -0.00  -0.04   0.00
  57   1     0.04   0.00   0.01    -0.01   0.03   0.01    -0.02  -0.03   0.01
  58   1     0.03  -0.01   0.00     0.01   0.02   0.01    -0.03  -0.01   0.02
  59   1     0.01  -0.01  -0.00     0.02   0.01   0.01    -0.03   0.01   0.01
  60   1    -0.02  -0.01   0.00    -0.01   0.01   0.02     0.00   0.01  -0.01
  61   6    -0.08  -0.04   0.03    -0.07   0.08   0.03     0.08  -0.02  -0.05
  62   6    -0.16  -0.05  -0.14    -0.11   0.11  -0.05     0.06  -0.02  -0.08
  63   6    -0.16  -0.05  -0.14    -0.09   0.12  -0.09     0.06  -0.02  -0.07
  64   6    -0.08  -0.04   0.03    -0.04   0.10  -0.05     0.07  -0.02  -0.03
  65   6     0.01  -0.04   0.20    -0.00   0.07   0.03     0.09  -0.01  -0.00
  66   6     0.01  -0.04   0.20    -0.02   0.06   0.06     0.09  -0.01  -0.01
  67   1    -0.07  -0.01  -0.08    -0.04   0.04  -0.02     0.01  -0.01  -0.03
  68   1    -0.07  -0.01  -0.08    -0.03   0.04  -0.04     0.01  -0.01  -0.03
  69   1     0.02  -0.01   0.10     0.01   0.02   0.02     0.03  -0.00   0.01
  70   1     0.02  -0.01   0.10     0.00   0.01   0.04     0.03  -0.00   0.00
  71   6    -0.07  -0.04   0.03    -0.02   0.11  -0.07     0.07  -0.02  -0.02
  72   6    -0.04  -0.03   0.02     0.01   0.13  -0.09     0.05  -0.03  -0.00
  73   6    -0.01  -0.01   0.02     0.03   0.12  -0.06     0.03  -0.04   0.00
  74   6     0.01  -0.03  -0.00     0.08   0.14  -0.01     0.03  -0.04   0.01
  75   6     0.04  -0.01  -0.01     0.10   0.13   0.03     0.01  -0.04   0.00
  76   6     0.06   0.02  -0.00     0.06   0.10   0.01    -0.01  -0.05  -0.01
  77   7     0.05   0.03   0.02     0.01   0.09  -0.05    -0.00  -0.06  -0.01
  78   6     0.01   0.02   0.03    -0.01   0.10  -0.08     0.02  -0.05  -0.01
  79   1    -0.00  -0.02  -0.00     0.03   0.05   0.00     0.01  -0.01   0.00
  80   1     0.02  -0.01  -0.01     0.04   0.04   0.02     0.00  -0.01   0.00
  81   1     0.02   0.01  -0.00     0.02   0.03   0.01    -0.01  -0.02  -0.00
  82   1     0.00   0.01   0.01    -0.02   0.02  -0.04     0.01  -0.02  -0.00
  83   6    -0.07   0.06  -0.05     0.02  -0.04  -0.05     0.05   0.07  -0.01
  84   6    -0.09   0.05  -0.04     0.03  -0.03  -0.04     0.01   0.06  -0.01
  85   6    -0.08   0.06  -0.03     0.03  -0.03  -0.04    -0.01   0.05   0.00
  86   6    -0.08   0.08  -0.04     0.04  -0.03  -0.07    -0.01   0.03   0.01
  87   6    -0.06   0.09  -0.02     0.03  -0.04  -0.06    -0.02   0.03   0.02
  88   6    -0.05   0.08   0.01     0.02  -0.04  -0.02    -0.03   0.03   0.02
  89   6    -0.05   0.05   0.01     0.01  -0.04   0.02    -0.03   0.04   0.02
  90   6    -0.03   0.04   0.04     0.00  -0.04   0.06    -0.04   0.05   0.02
  91   6    -0.03   0.01   0.04    -0.00  -0.04   0.09    -0.03   0.06   0.02
  92   7    -0.05   0.00   0.01     0.00  -0.04   0.08    -0.03   0.06   0.01
  93   6    -0.06   0.02  -0.01     0.02  -0.03   0.03    -0.02   0.06   0.01
  94   6    -0.06   0.04  -0.01     0.02  -0.04   0.01    -0.02   0.05   0.01
  95   1    -0.03   0.03  -0.02     0.01  -0.01  -0.03    -0.00   0.01   0.00
  96   1    -0.02   0.03  -0.01     0.01  -0.01  -0.02    -0.01   0.01   0.01
  97   1    -0.01   0.02   0.01     0.00  -0.01  -0.00    -0.01   0.01   0.01
  98   1    -0.00   0.01   0.02    -0.00  -0.01   0.02    -0.01   0.01   0.01
  99   1    -0.01  -0.00   0.02    -0.00  -0.01   0.04    -0.01   0.02   0.01
 100   1    -0.02   0.00  -0.01     0.01  -0.01   0.01    -0.00   0.02   0.00
 101   6    -0.05   0.07  -0.04     0.01  -0.05  -0.05     0.07   0.08  -0.02
 102   6    -0.05   0.03   0.04    -0.02  -0.05  -0.00     0.06   0.06   0.05
 103   6    -0.02   0.05   0.06    -0.04  -0.05   0.01     0.07   0.06   0.05
 104   6     0.01   0.09  -0.01    -0.03  -0.06  -0.03     0.10   0.09  -0.02
 105   6     0.02   0.13  -0.09    -0.00  -0.06  -0.08     0.11   0.12  -0.09
 106   6    -0.01   0.12  -0.11     0.02  -0.05  -0.09     0.10   0.11  -0.09
 107   1    -0.02  -0.00   0.03    -0.01  -0.01   0.01     0.01   0.01   0.03
 108   1    -0.01   0.00   0.04    -0.02  -0.02   0.01     0.02   0.01   0.03
 109   1     0.01   0.05  -0.04     0.00  -0.02  -0.03     0.04   0.04  -0.04
 110   1    -0.00   0.04  -0.05     0.01  -0.01  -0.04     0.03   0.04  -0.04
 111   6     0.03   0.10   0.02    -0.05  -0.07  -0.02     0.09   0.09  -0.01
 112   6     0.05   0.11   0.03    -0.05  -0.07  -0.00     0.07   0.08  -0.00
 113   6     0.04   0.10   0.05    -0.04  -0.07   0.02     0.03   0.06   0.01
 114   6     0.02   0.10   0.09    -0.05  -0.10   0.14    -0.02   0.08   0.03
 115   6     0.01   0.10   0.09    -0.03  -0.09   0.16    -0.06   0.05   0.04
 116   6     0.01   0.09   0.07    -0.02  -0.05   0.07    -0.06   0.00   0.02
 117   7     0.04   0.09   0.04    -0.01  -0.03  -0.04    -0.01  -0.02  -0.01
 118   6     0.05   0.09   0.02    -0.03  -0.03  -0.06     0.03   0.01  -0.01
 119   1     0.01   0.03   0.03    -0.02  -0.04   0.06    -0.01   0.03   0.01
 120   1    -0.00   0.03   0.03    -0.01  -0.03   0.07    -0.03   0.02   0.02
 121   1     0.00   0.02   0.02    -0.00  -0.01   0.03    -0.03  -0.01   0.01
 122   1     0.02   0.03  -0.00    -0.01  -0.00  -0.05     0.02  -0.00  -0.01
 123   6     0.02   0.01  -0.04     0.06  -0.04   0.03     0.07  -0.05   0.07
 124   6     0.03   0.01  -0.02     0.04  -0.04   0.05     0.04  -0.06   0.08
 125   6     0.05   0.02  -0.01     0.02  -0.04   0.05     0.02  -0.06   0.05
 126   6     0.09   0.04   0.00     0.02  -0.05   0.05     0.02  -0.09   0.04
 127   6     0.12   0.04   0.02    -0.01  -0.05   0.05     0.00  -0.10   0.00
 128   6     0.09   0.03   0.03    -0.03  -0.05   0.04    -0.02  -0.08  -0.02
 129   6     0.04   0.01   0.02    -0.03  -0.05   0.04    -0.02  -0.05  -0.01
 130   6     0.01  -0.01   0.02    -0.05  -0.05   0.04    -0.03  -0.02  -0.03
 131   6    -0.03  -0.03   0.01    -0.04  -0.04   0.04    -0.04   0.01  -0.02
 132   7    -0.05  -0.03  -0.01    -0.01  -0.05   0.05    -0.02   0.02   0.02
 133   6    -0.02  -0.02  -0.01     0.01  -0.04   0.05    -0.00  -0.01   0.04
 134   6     0.02   0.00  -0.00     0.00  -0.05   0.05     0.00  -0.04   0.03
 135   1     0.03   0.01  -0.00     0.01  -0.01   0.02     0.01  -0.03   0.02
 136   1     0.04   0.02   0.01    -0.00  -0.02   0.01     0.00  -0.04  -0.00
 137   1     0.03   0.01   0.01    -0.01  -0.02   0.01    -0.01  -0.02  -0.01
 138   1     0.01  -0.00   0.01    -0.02  -0.01   0.01    -0.01  -0.01  -0.02
 139   1    -0.02  -0.01   0.00    -0.02  -0.01   0.01    -0.01   0.01  -0.01
 140   1    -0.01  -0.01  -0.01     0.01  -0.01   0.02     0.00   0.00   0.02
 141   6     0.01   0.00  -0.05     0.07  -0.04   0.00     0.09  -0.05   0.06
 142   6     0.07   0.02  -0.05     0.08  -0.06  -0.01     0.22  -0.02   0.04
 143   6     0.07   0.02  -0.05     0.08  -0.06  -0.04     0.23  -0.02   0.03
 144   6     0.00   0.00  -0.05     0.07  -0.04  -0.05     0.11  -0.04   0.03
 145   6    -0.07  -0.02  -0.04     0.07  -0.01  -0.04    -0.02  -0.07   0.05
 146   6    -0.06  -0.02  -0.04     0.07  -0.01  -0.01    -0.03  -0.07   0.06
 147   1     0.04   0.01  -0.02     0.02  -0.02  -0.00     0.09   0.00   0.01
 148   1     0.04   0.01  -0.02     0.02  -0.02  -0.01     0.10   0.00   0.00
 149   1    -0.04  -0.01  -0.01     0.02   0.00  -0.01    -0.03  -0.02   0.01
 150   1    -0.03  -0.01  -0.01     0.02   0.00  -0.00    -0.04  -0.03   0.02
 151   6    -0.00   0.00  -0.04     0.05  -0.04  -0.08     0.09  -0.05   0.01
 152   6    -0.01   0.00  -0.03     0.03  -0.05  -0.09     0.07  -0.05  -0.00
 153   6    -0.01   0.00  -0.01     0.01  -0.05  -0.09     0.03  -0.06  -0.01
 154   6    -0.05  -0.01   0.00    -0.02  -0.07  -0.08    -0.02  -0.07  -0.01
 155   6    -0.05  -0.01   0.02    -0.05  -0.07  -0.07    -0.06  -0.08  -0.01
 156   6    -0.01   0.01   0.02    -0.05  -0.06  -0.07    -0.05  -0.08  -0.01
 157   7     0.03   0.03   0.01    -0.02  -0.05  -0.08    -0.01  -0.08  -0.01
 158   6     0.03   0.03  -0.01     0.01  -0.05  -0.08     0.04  -0.06  -0.01
 159   1    -0.02  -0.01  -0.00    -0.01  -0.02  -0.02    -0.01  -0.02  -0.00
 160   1    -0.02  -0.01   0.01    -0.02  -0.02  -0.02    -0.03  -0.02  -0.00
 161   1    -0.00   0.00   0.01    -0.02  -0.02  -0.02    -0.02  -0.02  -0.00
 162   1     0.02   0.01  -0.01     0.01  -0.01  -0.03     0.02  -0.02  -0.00
                     13                     14                     15
                        a                      a                      a 
 Frequencies --    26.8878                28.1513                30.0043
 Red. masses --    11.8717                11.8805                13.1667
 Frc consts  --     0.0000                 0.0000                 0.0000
 IR Inten    --     0.1311                 0.0306                 0.1900
 Raman Activ --     0.0000                 0.0000                 0.0000
 Depolar     --     0.0000                 0.0000                 0.0000
 Atom AN      X      Y      Z        X      Y      Z        X      Y      Z
   1  46    -0.06   0.01  -0.02     0.03  -0.03  -0.07    -0.00   0.02  -0.01
   2  46    -0.01  -0.05   0.03    -0.01   0.05   0.03     0.14  -0.07   0.02
   3   6    -0.00  -0.09  -0.03     0.05   0.02  -0.10     0.02  -0.02  -0.02
   4   6     0.03  -0.07  -0.02     0.03   0.01  -0.06     0.03  -0.01  -0.01
   5   6     0.02  -0.08  -0.01     0.01   0.00  -0.00     0.04  -0.01   0.00
   6   6     0.02  -0.09  -0.02     0.00  -0.01   0.05     0.04  -0.01   0.01
   7   6     0.01  -0.10  -0.01    -0.02  -0.02   0.11     0.04  -0.01   0.02
   8   6    -0.01  -0.09  -0.00    -0.03  -0.02   0.13     0.04  -0.01   0.02
   9   6    -0.01  -0.08   0.00    -0.02  -0.01   0.08     0.05  -0.01   0.01
  10   6    -0.03  -0.07   0.01    -0.03  -0.01   0.09     0.05  -0.02   0.01
  11   6    -0.02  -0.05   0.01    -0.02   0.01   0.05     0.05  -0.02   0.01
  12   7    -0.01  -0.04   0.01     0.00   0.02  -0.01     0.05  -0.03  -0.00
  13   6     0.01  -0.05   0.00     0.01   0.02  -0.02     0.04  -0.02  -0.00
  14   6     0.01  -0.07  -0.00     0.00   0.00   0.02     0.04  -0.02   0.00
  15   1     0.01  -0.03  -0.01     0.00  -0.00   0.01     0.01  -0.00   0.00
  16   1     0.00  -0.03  -0.01    -0.01  -0.01   0.04     0.01  -0.00   0.01
  17   1    -0.01  -0.03  -0.00    -0.01  -0.01   0.05     0.01  -0.00   0.01
  18   1    -0.01  -0.02   0.00    -0.01  -0.00   0.04     0.02  -0.00   0.01
  19   1    -0.01  -0.01   0.00    -0.01   0.00   0.01     0.02  -0.01   0.00
  20   1     0.01  -0.01   0.00     0.01   0.01  -0.02     0.01  -0.01  -0.00
  21   6    -0.03  -0.10  -0.04     0.05   0.02  -0.11     0.01  -0.02  -0.03
  22   6    -0.03  -0.13   0.01     0.05   0.02  -0.09     0.01  -0.03  -0.13
  23   6    -0.05  -0.14   0.00     0.04   0.01  -0.06    -0.00  -0.04  -0.13
  24   6    -0.08  -0.12  -0.05     0.03   0.02  -0.07    -0.01  -0.03  -0.03
  25   6    -0.08  -0.09  -0.11     0.03   0.03  -0.11    -0.01  -0.02   0.06
  26   6    -0.05  -0.08  -0.11     0.04   0.03  -0.13     0.00  -0.02   0.06
  27   1    -0.00  -0.04   0.02     0.01   0.00  -0.02     0.00  -0.01  -0.06
  28   1    -0.02  -0.05   0.01     0.01   0.00  -0.01    -0.00  -0.01  -0.06
  29   1    -0.03  -0.02  -0.05     0.01   0.01  -0.03    -0.00  -0.00   0.04
  30   1    -0.01  -0.02  -0.04     0.01   0.01  -0.05     0.00  -0.00   0.04
  31   6    -0.10  -0.13  -0.04     0.02   0.01  -0.02    -0.02  -0.03  -0.03
  32   6    -0.09  -0.13  -0.03     0.01   0.00   0.05    -0.02  -0.03  -0.02
  33   6    -0.07  -0.11  -0.01    -0.01  -0.01   0.12    -0.02  -0.03  -0.00
  34   6    -0.03  -0.14   0.00    -0.05  -0.02   0.29    -0.01  -0.04   0.03
  35   6     0.01  -0.12   0.02    -0.07  -0.03   0.34     0.00  -0.04   0.04
  36   6     0.01  -0.07   0.02    -0.04  -0.02   0.21     0.00  -0.02   0.03
  37   7    -0.03  -0.05   0.01    -0.01  -0.01   0.07    -0.00  -0.01   0.00
  38   6    -0.06  -0.07  -0.01     0.01  -0.00   0.02    -0.01  -0.02  -0.01
  39   1    -0.01  -0.05   0.00    -0.02  -0.01   0.11    -0.00  -0.02   0.01
  40   1     0.01  -0.04   0.01    -0.03  -0.01   0.13     0.00  -0.01   0.02
  41   1     0.01  -0.02   0.01    -0.02  -0.01   0.07     0.00  -0.01   0.01
  42   1    -0.03  -0.01  -0.00     0.01   0.00  -0.03    -0.01  -0.00  -0.01
  43   6     0.01   0.06   0.00    -0.04  -0.02  -0.05     0.07   0.04   0.04
  44   6     0.00   0.06   0.03     0.00  -0.01  -0.03     0.04   0.03   0.03
  45   6    -0.00   0.06   0.02     0.04  -0.01  -0.01     0.01   0.03   0.01
  46   6     0.02   0.07   0.03     0.11  -0.01   0.02    -0.02   0.03   0.00
  47   6     0.02   0.07   0.02     0.14  -0.00   0.03    -0.07   0.03  -0.02
  48   6    -0.00   0.07  -0.00     0.11  -0.00   0.02    -0.09   0.02  -0.03
  49   6    -0.02   0.05  -0.01     0.05  -0.01  -0.00    -0.06   0.02  -0.02
  50   6    -0.03   0.04  -0.02     0.02  -0.01  -0.01    -0.08   0.02  -0.03
  51   6    -0.04   0.03  -0.03    -0.03  -0.01  -0.03    -0.05   0.01  -0.02
  52   7    -0.04   0.02  -0.01    -0.04  -0.01  -0.04    -0.01   0.01  -0.01
  53   6    -0.03   0.03   0.00    -0.02  -0.01  -0.03     0.00   0.02   0.01
  54   6    -0.02   0.05   0.01     0.02  -0.01  -0.01    -0.02   0.02  -0.00
  55   1     0.01   0.02   0.01     0.04  -0.00   0.01    -0.00   0.01   0.00
  56   1     0.01   0.02   0.01     0.06  -0.00   0.02    -0.03   0.01  -0.01
  57   1    -0.00   0.02  -0.00     0.04  -0.00   0.01    -0.04   0.01  -0.02
  58   1    -0.01   0.01  -0.01     0.01  -0.00  -0.00    -0.03   0.00  -0.01
  59   1    -0.01   0.01  -0.01    -0.02  -0.00  -0.01    -0.02   0.00  -0.01
  60   1    -0.01   0.01   0.00    -0.01  -0.00  -0.01     0.01   0.00   0.01
  61   6     0.02   0.07  -0.01    -0.06  -0.03  -0.06     0.07   0.04   0.04
  62   6     0.04   0.09   0.03    -0.04  -0.04  -0.02     0.03   0.03  -0.04
  63   6     0.06   0.09   0.02    -0.05  -0.04  -0.01     0.01   0.03  -0.06
  64   6     0.04   0.08  -0.04    -0.07  -0.04  -0.03     0.03   0.03  -0.02
  65   6     0.02   0.06  -0.09    -0.09  -0.03  -0.08     0.07   0.04   0.06
  66   6     0.00   0.06  -0.08    -0.08  -0.02  -0.09     0.09   0.05   0.09
  67   1     0.02   0.03   0.02    -0.01  -0.01   0.00     0.01   0.01  -0.02
  68   1     0.02   0.03   0.02    -0.01  -0.01   0.01    -0.01   0.01  -0.04
  69   1     0.00   0.02  -0.04    -0.03  -0.01  -0.03     0.02   0.01   0.03
  70   1    -0.00   0.01  -0.03    -0.03  -0.00  -0.04     0.04   0.02   0.04
  71   6     0.06   0.09  -0.04    -0.06  -0.04  -0.01    -0.01   0.03  -0.05
  72   6     0.06   0.08  -0.02    -0.03  -0.03   0.02    -0.05   0.02  -0.08
  73   6     0.05   0.07   0.00     0.01  -0.02   0.03    -0.09   0.01  -0.08
  74   6     0.07   0.09   0.05     0.09  -0.03   0.05    -0.26   0.01  -0.16
  75   6     0.05   0.07   0.08     0.13  -0.02   0.05    -0.28  -0.00  -0.14
  76   6     0.02   0.03   0.07     0.10  -0.00   0.04    -0.14  -0.02  -0.07
  77   7     0.00   0.01   0.02     0.03   0.01   0.02     0.02  -0.02  -0.00
  78   6     0.02   0.03  -0.01    -0.01  -0.00   0.01     0.04  -0.01  -0.01
  79   1     0.03   0.04   0.02     0.03  -0.01   0.02    -0.11   0.01  -0.06
  80   1     0.02   0.03   0.04     0.05  -0.01   0.02    -0.12  -0.00  -0.06
  81   1    -0.00   0.00   0.03     0.04   0.00   0.01    -0.04  -0.01  -0.02
  82   1     0.00   0.00  -0.01    -0.02   0.00  -0.00     0.05  -0.00   0.01
  83   6     0.06  -0.02  -0.01    -0.02   0.00  -0.06     0.05  -0.01  -0.01
  84   6     0.04  -0.03   0.00    -0.02   0.00  -0.02     0.04  -0.01  -0.00
  85   6     0.02  -0.04   0.01    -0.02   0.00   0.03     0.02  -0.02   0.01
  86   6     0.02  -0.07   0.03    -0.03   0.00   0.10     0.02  -0.04   0.02
  87   6    -0.01  -0.08   0.03    -0.03   0.00   0.15     0.00  -0.05   0.03
  88   6    -0.03  -0.07   0.01    -0.02   0.00   0.12    -0.01  -0.04   0.02
  89   6    -0.02  -0.04  -0.01    -0.00  -0.00   0.04    -0.01  -0.02   0.01
  90   6    -0.04  -0.02  -0.03     0.01  -0.00   0.00    -0.02  -0.01   0.00
  91   6    -0.04   0.00  -0.04     0.02  -0.00  -0.06    -0.02   0.00  -0.01
  92   7    -0.02   0.02  -0.03     0.02  -0.01  -0.08    -0.00   0.01  -0.01
  93   6     0.00   0.00  -0.01     0.01  -0.00  -0.05     0.01   0.00  -0.01
  94   6     0.00  -0.03  -0.00    -0.00  -0.00   0.00     0.01  -0.01   0.00
  95   1     0.01  -0.02   0.01    -0.01   0.00   0.04     0.01  -0.01   0.01
  96   1    -0.00  -0.03   0.01    -0.01   0.00   0.06     0.00  -0.02   0.01
  97   1    -0.01  -0.02   0.00    -0.00   0.00   0.04    -0.01  -0.01   0.01
  98   1    -0.02  -0.01  -0.01     0.00   0.00   0.01    -0.01  -0.01   0.00
  99   1    -0.01   0.00  -0.02     0.01  -0.00  -0.03    -0.01   0.00  -0.00
 100   1     0.01   0.00  -0.00     0.00  -0.00  -0.02     0.01   0.00  -0.00
 101   6     0.05  -0.03  -0.02    -0.01   0.01  -0.09     0.06  -0.00  -0.01
 102   6     0.02  -0.03   0.03     0.01   0.02  -0.14     0.08   0.00  -0.06
 103   6     0.00  -0.03   0.02     0.01   0.02  -0.14     0.09   0.00  -0.05
 104   6     0.02  -0.04  -0.04    -0.01   0.01  -0.09     0.07   0.00   0.00
 105   6     0.06  -0.03  -0.10    -0.03  -0.00  -0.05     0.05  -0.00   0.05
 106   6     0.08  -0.03  -0.09    -0.03  -0.00  -0.05     0.04  -0.01   0.04
 107   1     0.00  -0.01   0.03     0.01   0.01  -0.05     0.03   0.00  -0.03
 108   1    -0.01  -0.01   0.02     0.01   0.01  -0.05     0.03   0.00  -0.02
 109   1     0.02  -0.01  -0.04    -0.01  -0.00  -0.00     0.01  -0.00   0.02
 110   1     0.03  -0.01  -0.04    -0.01  -0.00  -0.00     0.01  -0.00   0.02
 111   6     0.01  -0.04  -0.04    -0.01   0.00  -0.06     0.07   0.00   0.02
 112   6    -0.01  -0.05  -0.04    -0.01   0.00  -0.02     0.06  -0.00   0.03
 113   6    -0.01  -0.05  -0.03    -0.02  -0.00   0.03     0.05  -0.01   0.04
 114   6     0.01  -0.06  -0.04    -0.03  -0.02   0.11     0.04  -0.01   0.07
 115   6     0.02  -0.05  -0.02    -0.03  -0.02   0.16     0.03  -0.02   0.08
 116   6     0.02  -0.03   0.00    -0.02  -0.01   0.12     0.03  -0.02   0.05
 117   7    -0.00  -0.03   0.00    -0.01   0.01   0.05     0.05  -0.02   0.02
 118   6    -0.01  -0.03  -0.01    -0.01   0.01   0.00     0.06  -0.01   0.02
 119   1     0.00  -0.02  -0.02    -0.01  -0.01   0.04     0.01  -0.00   0.03
 120   1     0.01  -0.02  -0.01    -0.01  -0.01   0.06     0.00  -0.00   0.03
 121   1     0.01  -0.01   0.00    -0.01  -0.00   0.04     0.01  -0.01   0.01
 122   1    -0.01  -0.01  -0.00    -0.00   0.01  -0.02     0.02  -0.00  -0.00
 123   6    -0.01   0.07  -0.01     0.01   0.02  -0.06     0.07   0.05   0.00
 124   6    -0.01   0.07  -0.03    -0.01   0.01  -0.05     0.04   0.04  -0.01
 125   6    -0.01   0.07  -0.02    -0.04   0.01  -0.04     0.00   0.03  -0.01
 126   6    -0.01   0.09  -0.01    -0.09   0.01  -0.04    -0.03   0.03  -0.01
 127   6    -0.01   0.10   0.01    -0.11   0.01  -0.03    -0.09   0.03  -0.01
 128   6     0.01   0.08   0.03    -0.07   0.01  -0.02    -0.10   0.02  -0.01
 129   6     0.01   0.07   0.02    -0.01   0.00  -0.02    -0.06   0.02  -0.01
 130   6     0.02   0.05   0.04     0.03   0.00  -0.00    -0.07   0.02  -0.00
 131   6     0.01   0.03   0.03     0.07  -0.00  -0.00    -0.03   0.01  -0.00
 132   7    -0.00   0.02   0.00     0.07  -0.01  -0.01     0.00   0.01  -0.00
 133   6    -0.01   0.04  -0.01     0.03  -0.00  -0.02     0.01   0.02  -0.01
 134   6    -0.00   0.06  -0.00    -0.01   0.00  -0.03    -0.02   0.03  -0.01
 135   1    -0.01   0.03  -0.01    -0.04   0.00  -0.02    -0.01   0.01  -0.00
 136   1    -0.00   0.03   0.01    -0.05   0.00  -0.01    -0.03   0.01  -0.00
 137   1     0.00   0.03   0.01    -0.02   0.00  -0.00    -0.04   0.01  -0.00
 138   1     0.01   0.02   0.02     0.01   0.00   0.00    -0.03   0.00  -0.00
 139   1     0.01   0.00   0.01     0.03  -0.00   0.00    -0.01   0.00   0.00
 140   1    -0.00   0.01  -0.01     0.01  -0.00  -0.01     0.01   0.01  -0.00
 141   6    -0.00   0.08   0.02     0.03   0.02  -0.05     0.08   0.05   0.01
 142   6     0.15   0.15   0.02    -0.04   0.01  -0.04    -0.02   0.03   0.03
 143   6     0.17   0.16   0.05    -0.03   0.01  -0.04    -0.05   0.03   0.05
 144   6     0.03   0.09   0.08     0.03   0.02  -0.04     0.02   0.03   0.05
 145   6    -0.12   0.01   0.08     0.10   0.04  -0.05     0.13   0.05   0.03
 146   6    -0.13   0.01   0.05     0.10   0.04  -0.05     0.16   0.06   0.02
 147   1     0.07   0.06  -0.00    -0.03  -0.00  -0.01    -0.02   0.01   0.01
 148   1     0.08   0.06   0.02    -0.03  -0.00  -0.01    -0.04   0.00   0.02
 149   1    -0.07  -0.01   0.03     0.05   0.01  -0.01     0.06   0.02   0.01
 150   1    -0.07  -0.01   0.01     0.04   0.01  -0.02     0.07   0.02   0.00
 151   6     0.03   0.09   0.11     0.02   0.02  -0.03    -0.02   0.02   0.06
 152   6     0.03   0.09   0.10     0.00   0.02  -0.01    -0.07   0.01   0.06
 153   6     0.03   0.08   0.07    -0.02   0.01  -0.00    -0.11  -0.01   0.03
 154   6     0.04   0.11   0.04    -0.04   0.01   0.00    -0.28  -0.01   0.01
 155   6     0.03   0.10  -0.00    -0.06   0.00   0.01    -0.30  -0.02  -0.01
 156   6     0.01   0.06  -0.01    -0.05   0.01   0.01    -0.15  -0.03  -0.02
 157   7     0.00   0.02   0.02    -0.03   0.02   0.01     0.00  -0.02  -0.00
 158   6     0.01   0.03   0.06    -0.01   0.02  -0.00     0.02  -0.01   0.02
 159   1     0.02   0.04   0.01    -0.01   0.00   0.00    -0.11  -0.00   0.01
 160   1     0.01   0.04  -0.01    -0.02  -0.00   0.00    -0.12  -0.01  -0.01
 161   1     0.00   0.01  -0.01    -0.02   0.00   0.00    -0.05  -0.01  -0.01
 162   1    -0.00   0.00   0.02     0.00   0.01  -0.00     0.04  -0.00   0.01
                     16                     17                     18
                        a                      a                      a 
 Frequencies --    32.3330                33.9667                36.1278
 Red. masses --    11.7466                12.9148                17.0975
 Frc consts  --     0.0000                 0.0000                 0.0000
 IR Inten    --     0.0231                 0.2342                 0.2169
 Raman Activ --     0.0000                 0.0000                 0.0000
 Depolar     --     0.0000                 0.0000                 0.0000
 Atom AN      X      Y      Z        X      Y      Z        X      Y      Z
   1  46     0.01  -0.08  -0.02    -0.02   0.07   0.07    -0.07  -0.21   0.01
   2  46    -0.01   0.06   0.03     0.01  -0.09   0.09    -0.12   0.04   0.05
   3   6     0.04   0.01   0.04    -0.02  -0.00  -0.07     0.10   0.05  -0.04
   4   6     0.02   0.00   0.04    -0.01  -0.00  -0.05     0.04   0.02  -0.05
   5   6     0.01   0.00   0.03    -0.01   0.00  -0.03     0.00   0.00  -0.03
   6   6     0.01  -0.01   0.02    -0.01   0.01  -0.01     0.00  -0.02  -0.03
[...]
  78   6    -0.00  -0.00   0.00    -0.00  -0.00   0.00    -0.00  -0.00   0.00
  79   1    -0.00   0.00   0.00    -0.04   0.00   0.07    -0.20   0.01   0.35
  80   1    -0.00  -0.00   0.00    -0.03  -0.15   0.08    -0.16  -0.71   0.37
  81   1    -0.00   0.00  -0.00     0.00  -0.01  -0.00     0.01  -0.03  -0.02
  82   1     0.00   0.00  -0.00     0.00   0.00   0.00    -0.00  -0.00   0.00
  83   6    -0.00  -0.00  -0.00    -0.00   0.00   0.00    -0.00   0.00  -0.00
  84   6    -0.00   0.00   0.00    -0.00   0.00  -0.00     0.00  -0.00   0.00
  85   6     0.00  -0.00   0.00     0.00  -0.00   0.00     0.00  -0.00   0.00
  86   6     0.00   0.00   0.00     0.00   0.00   0.00    -0.00  -0.00  -0.00
  87   6     0.00  -0.00   0.00     0.00  -0.00   0.00    -0.00   0.00  -0.00
  88   6     0.00  -0.00  -0.00     0.00  -0.00  -0.00    -0.00   0.00   0.00
  89   6    -0.00  -0.00  -0.00    -0.00  -0.00  -0.00     0.00   0.00   0.00
  90   6    -0.00   0.00   0.00     0.00  -0.00  -0.00    -0.00   0.00   0.00
  91   6    -0.00  -0.00  -0.00    -0.00  -0.00  -0.00     0.00   0.00   0.00
  92   7     0.00   0.00   0.00     0.00   0.00   0.00     0.00  -0.00  -0.00
  93   6    -0.00   0.00  -0.00    -0.00   0.00  -0.00     0.00  -0.00   0.00
  94   6     0.00   0.00   0.00     0.00   0.00   0.00     0.00  -0.00  -0.00
  95   1    -0.00  -0.00  -0.00    -0.00  -0.00  -0.00     0.00   0.00   0.00
  96   1    -0.00   0.00  -0.00    -0.00   0.00  -0.00     0.00  -0.00   0.00
  97   1    -0.00   0.00   0.00    -0.00   0.00   0.00     0.00  -0.00  -0.00
  98   1     0.00  -0.00  -0.00    -0.00   0.00   0.00     0.00  -0.00  -0.00
  99   1     0.00   0.00   0.00     0.00   0.00   0.00    -0.00  -0.00  -0.00
 100   1     0.00  -0.00   0.00     0.00  -0.00  -0.00    -0.00   0.00  -0.00
 101   6     0.00  -0.00   0.00     0.00   0.00   0.00     0.00  -0.00  -0.00
 102   6     0.00   0.00   0.00    -0.00   0.00  -0.00    -0.00   0.00  -0.00
 103   6     0.00   0.00   0.00    -0.00  -0.00  -0.00    -0.00  -0.00  -0.00
 104   6    -0.00   0.01   0.00    -0.00   0.00   0.00     0.00  -0.00  -0.00
 105   6    -0.22   0.05  -0.07     0.00  -0.00   0.00    -0.00   0.00  -0.00
 106   6    -0.08  -0.11  -0.05     0.00   0.00   0.00    -0.00  -0.00  -0.00
 107   1    -0.01   0.00  -0.00     0.00  -0.00   0.00     0.00  -0.00   0.00
 108   1    -0.01  -0.01  -0.01     0.00   0.00   0.00     0.00   0.00   0.00
 109   1     0.75  -0.15   0.24    -0.00   0.00  -0.00     0.00  -0.00   0.00
 110   1     0.28   0.37   0.18    -0.00  -0.00  -0.00     0.00   0.00   0.00
 111   6    -0.00  -0.00  -0.00     0.00  -0.00  -0.00    -0.00   0.00   0.00
 112   6     0.00  -0.00  -0.00    -0.00   0.00  -0.00     0.00  -0.00   0.00
 113   6    -0.00   0.00   0.00    -0.00   0.00   0.00    -0.00  -0.00  -0.00
 114   6     0.00  -0.00   0.00    -0.13   0.00  -0.03     0.02  -0.00   0.00
 115   6     0.00   0.00   0.00    -0.10  -0.21  -0.06     0.02   0.03   0.01
 116   6     0.00  -0.00  -0.00     0.01  -0.01   0.00    -0.00   0.00  -0.00
 117   7     0.00  -0.00  -0.00     0.00   0.00   0.00    -0.00  -0.00  -0.00
 118   6    -0.00  -0.00  -0.00     0.00   0.00   0.00     0.00   0.00   0.00
 119   1    -0.00   0.00  -0.00     0.43   0.00   0.09    -0.07  -0.00  -0.01
 120   1    -0.00  -0.00  -0.00     0.35   0.71   0.19    -0.06  -0.11  -0.03
 121   1    -0.00   0.00   0.00    -0.02   0.02   0.00     0.00  -0.00  -0.00
 122   1     0.00   0.00   0.00     0.00   0.00   0.00    -0.00  -0.00  -0.00
 123   6     0.00   0.00   0.00     0.00  -0.00   0.00    -0.00   0.00  -0.00
 124   6     0.00  -0.00  -0.00    -0.00   0.00  -0.00     0.00  -0.00   0.00
 125   6    -0.00   0.00  -0.00    -0.00   0.00  -0.00     0.00  -0.00   0.00
 126   6     0.00  -0.00  -0.00    -0.00   0.00   0.00     0.00  -0.00  -0.00
 127   6     0.00   0.00  -0.00    -0.00  -0.00   0.00     0.00   0.00  -0.00
 128   6    -0.00   0.00  -0.00     0.00  -0.00   0.00    -0.00   0.00  -0.00
 129   6    -0.00   0.00   0.00     0.00  -0.00  -0.00    -0.00   0.00   0.00
 130   6    -0.00   0.00  -0.00     0.00  -0.00   0.00    -0.00   0.00  -0.00
 131   6    -0.00   0.00   0.00     0.00  -0.00  -0.00    -0.00   0.00   0.00
 132   7    -0.00  -0.00  -0.00    -0.00   0.00  -0.00    -0.00  -0.00  -0.00
 133   6    -0.00   0.00   0.00    -0.00   0.00  -0.00     0.00  -0.00   0.00
 134   6     0.00  -0.00  -0.00    -0.00   0.00   0.00     0.00  -0.00   0.00
 135   1    -0.00   0.00   0.00     0.00  -0.00  -0.00    -0.00   0.00   0.00
 136   1    -0.00  -0.00   0.00     0.00   0.00  -0.00    -0.00  -0.00   0.00
 137   1     0.00  -0.00   0.00    -0.00   0.00  -0.00     0.00  -0.00   0.00
 138   1     0.00  -0.00   0.00    -0.00   0.00  -0.00     0.00  -0.00   0.00
 139   1     0.00  -0.00  -0.00    -0.00   0.00  -0.00     0.00  -0.00  -0.00
 140   1     0.00  -0.00  -0.00    -0.00  -0.00   0.00    -0.00   0.00  -0.00
 141   6    -0.00   0.00  -0.00    -0.00   0.00  -0.00     0.00  -0.00   0.00
 142   6    -0.00   0.02   0.03    -0.00   0.00   0.00     0.00  -0.00  -0.00
 143   6     0.01  -0.01   0.02     0.00  -0.00   0.00    -0.00   0.00  -0.00
 144   6     0.00  -0.00  -0.00     0.00  -0.00  -0.00    -0.00   0.00   0.00
 145   6     0.00  -0.00  -0.00    -0.00   0.00   0.00     0.00  -0.00  -0.00
 146   6    -0.00   0.00  -0.00     0.00  -0.00   0.00    -0.00   0.00  -0.00
 147   1     0.01  -0.07  -0.12     0.00  -0.00  -0.00    -0.00   0.00   0.00
 148   1    -0.02   0.04  -0.07    -0.00   0.00  -0.00     0.00  -0.00   0.00
 149   1    -0.00   0.00   0.00     0.00  -0.00  -0.00    -0.00   0.00   0.00
 150   1     0.00  -0.00   0.00    -0.00   0.00  -0.00     0.00  -0.00   0.00
 151   6     0.00   0.00   0.00    -0.00   0.00  -0.00     0.00  -0.00   0.00
 152   6    -0.00   0.00  -0.00     0.00  -0.00   0.00    -0.00   0.00  -0.00
 153   6     0.00  -0.00  -0.00     0.00  -0.00  -0.00    -0.00   0.00   0.00
 154   6     0.00  -0.00   0.00     0.00  -0.01   0.02    -0.00   0.01  -0.03
 155   6    -0.00   0.01   0.01    -0.00   0.03   0.03     0.01  -0.04  -0.04
 156   6    -0.00   0.00  -0.00    -0.00   0.00  -0.00     0.00  -0.00   0.00
 157   7    -0.00  -0.00  -0.00    -0.00  -0.00  -0.00    -0.00   0.00   0.00
 158   6     0.00  -0.00  -0.00     0.00  -0.00  -0.00    -0.00   0.00   0.00
 159   1    -0.00   0.00  -0.01    -0.00   0.02  -0.07     0.01  -0.03   0.10
 160   1     0.00  -0.02  -0.02     0.02  -0.11  -0.11    -0.02   0.15   0.15
 161   1     0.00  -0.00   0.00     0.00  -0.01   0.00    -0.00   0.01  -0.00
 162   1    -0.00   0.00   0.00     0.00   0.00   0.00    -0.00  -0.00  -0.00
                    478                    479                    480
                        a                      a                      a 
 Frequencies --  3118.9704              3119.0919              3122.0842
 Red. masses --     1.8944                 1.8967                 1.8813
 Frc consts  --     0.0000                 0.0000                 0.0000
 IR Inten    --     0.0282                 0.0288                 0.1476
 Raman Activ --     0.0000                 0.0000                 0.0000
 Depolar     --     0.0000                 0.0000                 0.0000
 Atom AN      X      Y      Z        X      Y      Z        X      Y      Z
   1  46     0.00  -0.00  -0.00     0.00  -0.00  -0.00     0.00  -0.00   0.00
   2  46    -0.00   0.00   0.00    -0.00  -0.00  -0.00    -0.00   0.00   0.00
   3   6     0.00  -0.00  -0.00    -0.00   0.00   0.00    -0.00  -0.00  -0.00
   4   6    -0.00   0.00  -0.00    -0.00   0.00   0.00    -0.00   0.00   0.00
   5   6    -0.00   0.00   0.00     0.00  -0.00  -0.00     0.00  -0.00   0.00
   6   6     0.00   0.00   0.00     0.00   0.00   0.00    -0.00  -0.00  -0.00
   7   6     0.00  -0.00   0.00     0.00  -0.00   0.00    -0.00   0.00  -0.00
   8   6     0.00  -0.00  -0.00     0.00  -0.00  -0.00    -0.00   0.00   0.00
   9   6    -0.00   0.00  -0.00    -0.00  -0.00  -0.00    -0.00   0.00   0.00
  10   6    -0.00   0.00   0.00     0.00  -0.00  -0.00    -0.00   0.00   0.00
  11   6     0.00   0.00   0.00    -0.00  -0.00  -0.00     0.00   0.00   0.00
  12   7     0.00   0.00   0.00    -0.00   0.00   0.00     0.00   0.00   0.00
  13   6    -0.00   0.00  -0.00    -0.00   0.00  -0.00    -0.00   0.00   0.00
  14   6    -0.00  -0.00  -0.00     0.00   0.00   0.00    -0.00   0.00  -0.00
  15   1    -0.00  -0.00  -0.00    -0.00  -0.00  -0.00     0.00   0.00   0.00
  16   1    -0.00   0.00  -0.00    -0.00   0.00  -0.00     0.00  -0.00   0.00
  17   1    -0.00   0.00   0.00    -0.00   0.00   0.00     0.00  -0.00  -0.00
  18   1     0.00  -0.00  -0.00    -0.00   0.00   0.00     0.00  -0.00  -0.00
  19   1    -0.00  -0.00  -0.00     0.00   0.00   0.00    -0.00  -0.00  -0.00
  20   1     0.00  -0.00  -0.00     0.00  -0.00   0.00     0.00  -0.00  -0.00
  21   6     0.00  -0.00  -0.00     0.00   0.00   0.00     0.00  -0.00  -0.00
  22   6    -0.00  -0.00   0.00     0.00   0.00  -0.00    -0.00  -0.00   0.00
  23   6    -0.00   0.00   0.00     0.00  -0.00  -0.00    -0.00   0.00   0.00
  24   6    -0.00   0.00   0.00    -0.00   0.00   0.00    -0.00   0.00  -0.00
  25   6     0.00   0.00  -0.00    -0.00  -0.00   0.00     0.00   0.00   0.00
  26   6     0.00  -0.00  -0.00    -0.00   0.00   0.00     0.00  -0.00   0.00
  27   1     0.00   0.00  -0.00    -0.00  -0.00   0.00     0.00   0.00   0.00
  28   1     0.00  -0.00  -0.00    -0.00   0.00   0.00     0.01  -0.00  -0.00
  29   1    -0.00  -0.00   0.00     0.00   0.00  -0.00    -0.00  -0.00  -0.00
  30   1    -0.00   0.00   0.00     0.00  -0.00  -0.00    -0.00   0.00   0.00
  31   6     0.00  -0.00  -0.00     0.00  -0.00  -0.00     0.00   0.00   0.00
  32   6    -0.00   0.00  -0.00    -0.00   0.00  -0.00     0.00   0.00   0.00
  33   6     0.00   0.00   0.00     0.00   0.00   0.00     0.00  -0.00  -0.00
  34   6    -0.01   0.00  -0.00    -0.13   0.01  -0.02     0.00  -0.00   0.00
  35   6    -0.01  -0.02  -0.00    -0.13  -0.21  -0.04     0.00   0.00   0.00
  36   6     0.00  -0.00   0.00     0.01  -0.01   0.00     0.00  -0.00   0.00
  37   7     0.00   0.00   0.00     0.00   0.00   0.00    -0.00  -0.00  -0.00
  38   6     0.00  -0.00   0.00     0.00  -0.00   0.00    -0.00  -0.00  -0.00
  39   1     0.05  -0.00   0.01     0.42  -0.03   0.08    -0.00   0.00  -0.00
  40   1     0.05   0.08   0.02     0.44   0.71   0.15     0.00   0.00  -0.00
  41   1    -0.00   0.00  -0.00    -0.02   0.03  -0.00    -0.00   0.00   0.00
  42   1     0.00   0.00   0.00     0.00   0.00   0.00     0.00   0.01   0.00
  43   6    -0.00   0.00   0.00    -0.00   0.00   0.00    -0.00   0.00  -0.00
  44   6     0.00  -0.00  -0.00     0.00  -0.00  -0.00     0.00  -0.00  -0.00
  45   6     0.00  -0.00  -0.00     0.00  -0.00  -0.00    -0.00   0.00   0.00
  46   6    -0.00  -0.00   0.00    -0.00  -0.00   0.00     0.00   0.00  -0.00
  47   6    -0.00   0.00   0.00    -0.00  -0.00   0.00     0.00  -0.00  -0.00
  48   6    -0.00   0.00   0.00     0.00  -0.00  -0.00     0.00  -0.00  -0.00
  49   6    -0.00   0.00  -0.00     0.00  -0.00  -0.00    -0.00  -0.00   0.00
  50   6    -0.00   0.00   0.00     0.00  -0.00  -0.00     0.00  -0.00  -0.00
  51   6     0.00   0.00  -0.00    -0.00  -0.00   0.00    -0.00  -0.00   0.00
  52   7    -0.00  -0.00   0.00    -0.00  -0.00   0.00     0.00  -0.00  -0.00
  53   6     0.00  -0.00  -0.00     0.00  -0.00  -0.00     0.00  -0.00  -0.00
  54   6     0.00  -0.00  -0.00     0.00   0.00   0.00     0.00  -0.00  -0.00
  55   1     0.00   0.00  -0.00     0.00   0.00  -0.00    -0.00  -0.00   0.00
  56   1     0.00  -0.00  -0.00     0.00  -0.00  -0.00    -0.00   0.00   0.00
  57   1     0.00  -0.00  -0.00    -0.00   0.00   0.00    -0.00   0.00   0.00
  58   1     0.00  -0.00  -0.00    -0.00   0.00   0.00    -0.00   0.00   0.00
  59   1     0.00   0.00  -0.00     0.00   0.00  -0.00     0.00   0.00  -0.00
  60   1    -0.00   0.00   0.00     0.00   0.00   0.00    -0.00   0.00   0.00
  61   6    -0.00   0.00   0.00    -0.00   0.00   0.00    -0.00   0.00   0.00
  62   6     0.00   0.00  -0.00     0.00  -0.00   0.00     0.00   0.00  -0.00
  63   6     0.00  -0.00  -0.00     0.00  -0.00  -0.00     0.00  -0.00  -0.00
  64   6     0.00  -0.00  -0.00     0.00   0.00  -0.00     0.00  -0.00   0.00
  65   6    -0.00  -0.00   0.00    -0.00  -0.00   0.00    -0.00  -0.00   0.00
  66   6    -0.00   0.00   0.00    -0.00   0.00   0.00    -0.00   0.00   0.00
  67   1    -0.00  -0.00   0.00    -0.00   0.00  -0.00    -0.00  -0.00   0.00
  68   1    -0.00   0.00   0.00    -0.00   0.00   0.00    -0.00   0.00   0.00
  69   1     0.00   0.00  -0.00     0.00   0.00  -0.00     0.00   0.00  -0.00
  70   1     0.00  -0.00  -0.00     0.00  -0.00  -0.00     0.00  -0.00  -0.00
  71   6    -0.00   0.00   0.00     0.00  -0.00  -0.00     0.00  -0.00  -0.00
  72   6     0.00  -0.00  -0.00    -0.00   0.00   0.00    -0.00   0.00  -0.00
  73   6     0.00  -0.00   0.00    -0.00   0.00  -0.00     0.00  -0.00  -0.00
  74   6     0.01  -0.00  -0.02    -0.01   0.00   0.01     0.00  -0.00  -0.00
  75   6     0.01   0.04  -0.02    -0.00  -0.02   0.01     0.00   0.00  -0.00
  76   6    -0.00   0.00   0.00     0.00  -0.00  -0.00    -0.00   0.00   0.00
  77   7    -0.00  -0.00   0.00     0.00   0.00  -0.00     0.00   0.00  -0.00
  78   6     0.00   0.00  -0.00     0.00   0.00  -0.00     0.00   0.00  -0.00
  79   1    -0.04   0.00   0.07     0.02  -0.00  -0.03    -0.00   0.00   0.00
  80   1    -0.03  -0.15   0.08     0.01   0.06  -0.03    -0.00  -0.00   0.00
  81   1     0.00  -0.01  -0.00    -0.00   0.00   0.00     0.00  -0.00  -0.00
  82   1    -0.00  -0.00   0.00     0.00   0.00  -0.00    -0.00  -0.00   0.00
  83   6     0.00   0.00   0.00    -0.00   0.00   0.00     0.00   0.00   0.00
  84   6     0.00  -0.00  -0.00     0.00  -0.00  -0.00     0.00  -0.00  -0.00
  85   6     0.00  -0.00   0.00     0.00  -0.00   0.00    -0.00   0.00  -0.00
  86   6    -0.00  -0.00  -0.00    -0.00  -0.00  -0.00    -0.00  -0.00  -0.00
  87   6    -0.00   0.00  -0.00    -0.00  -0.00  -0.00     0.00   0.00   0.00
  88   6    -0.00   0.00   0.00    -0.00   0.00   0.00     0.00  -0.00  -0.00
  89   6     0.00   0.00   0.00     0.00   0.00   0.00     0.00  -0.00   0.00
  90   6    -0.00   0.00   0.00     0.00  -0.00  -0.00     0.00  -0.00  -0.00
  91   6     0.00   0.00   0.00    -0.00  -0.00  -0.00    -0.00  -0.00  -0.00
  92   7     0.00  -0.00  -0.00     0.00  -0.00   0.00    -0.00  -0.00   0.00
  93   6     0.00  -0.00   0.00     0.00  -0.00  -0.00     0.00  -0.00   0.00
  94   6     0.00  -0.00  -0.00     0.00  -0.00   0.00     0.00  -0.00   0.00
  95   1     0.00   0.00   0.00     0.00   0.00   0.00     0.00   0.00   0.00
  96   1     0.00  -0.00   0.00     0.00  -0.00   0.00    -0.00   0.00  -0.00
  97   1     0.00  -0.00  -0.00     0.00  -0.00  -0.00    -0.00   0.00   0.00
  98   1     0.00  -0.00  -0.00    -0.00   0.00   0.00    -0.00   0.00   0.00
  99   1    -0.00  -0.00  -0.00     0.00   0.00   0.00     0.00   0.00   0.00
 100   1    -0.00   0.00  -0.00    -0.00   0.00   0.00    -0.00   0.00  -0.00
 101   6    -0.00   0.00  -0.00    -0.00   0.00  -0.00    -0.00   0.00  -0.00
 102   6    -0.00   0.00  -0.00    -0.00   0.00  -0.00    -0.00  -0.00  -0.00
 103   6    -0.00  -0.00  -0.00    -0.00  -0.00  -0.00    -0.00   0.00  -0.00
 104   6     0.00  -0.00  -0.00     0.00  -0.00  -0.00     0.00  -0.00  -0.00
 105   6     0.01  -0.00   0.00     0.00  -0.00   0.00     0.04  -0.01   0.01
 106   6     0.00   0.00   0.00     0.00   0.00   0.00     0.02   0.02   0.01
 107   1     0.00  -0.00   0.00     0.00  -0.00   0.00     0.00   0.00   0.00
 108   1     0.00   0.00   0.00     0.00   0.00   0.00     0.00   0.00   0.00
 109   1    -0.02   0.00  -0.01    -0.01   0.00  -0.00    -0.12   0.02  -0.04
 110   1    -0.01  -0.01  -0.01    -0.00  -0.00  -0.00    -0.05  -0.07  -0.04
 111   6    -0.00   0.00   0.00     0.00  -0.00  -0.00     0.00   0.00   0.00
 112   6     0.00  -0.00   0.00    -0.00   0.00   0.00    -0.00   0.00   0.00
 113   6    -0.00  -0.00  -0.00     0.00   0.00   0.00     0.00  -0.00  -0.00
 114   6     0.03  -0.00   0.01    -0.01   0.00  -0.00     0.00  -0.00   0.00
 115   6     0.02   0.05   0.01    -0.01  -0.01  -0.00     0.00   0.00   0.00
 116   6    -0.00   0.00  -0.00     0.00  -0.00   0.00    -0.00   0.00  -0.00
 117   7    -0.00  -0.00  -0.00     0.00   0.00   0.00    -0.00   0.00   0.00
 118   6     0.00   0.00   0.00     0.00   0.00   0.00     0.00   0.00   0.00
 119   1    -0.09  -0.00  -0.02     0.02   0.00   0.00    -0.00  -0.00  -0.00
 120   1    -0.08  -0.16  -0.04     0.02   0.04   0.01    -0.00  -0.00  -0.00
 121   1     0.00  -0.01  -0.00    -0.00   0.00   0.00     0.00  -0.00  -0.00
 122   1    -0.00  -0.00  -0.00    -0.00  -0.00  -0.00    -0.00  -0.00  -0.00
 123   6     0.00  -0.00  -0.00    -0.00   0.00  -0.00     0.00   0.00   0.00
 124   6    -0.00  -0.00  -0.00    -0.00   0.00   0.00     0.00  -0.00  -0.00
 125   6    -0.00  -0.00   0.00     0.00  -0.00   0.00    -0.00   0.00  -0.00
 126   6     0.00  -0.00  -0.00     0.00  -0.00  -0.00     0.00  -0.00  -0.00
 127   6     0.00   0.00  -0.00     0.00   0.00  -0.00     0.00   0.00  -0.00
 128   6    -0.00   0.00  -0.00     0.00  -0.00   0.00    -0.00   0.00  -0.00
 129   6    -0.00   0.00   0.00    -0.00  -0.00   0.00    -0.00  -0.00   0.00
 130   6    -0.00   0.00  -0.00     0.00  -0.00   0.00     0.00  -0.00   0.00
 131   6    -0.00  -0.00   0.00     0.00  -0.00  -0.00     0.00  -0.00  -0.00
 132   7    -0.00  -0.00  -0.00    -0.00   0.00  -0.00     0.00  -0.00  -0.00
 133   6     0.00  -0.00   0.00     0.00  -0.00   0.00    -0.00   0.00   0.00
 134   6     0.00   0.00  -0.00     0.00   0.00   0.00     0.00  -0.00  -0.00
 135   1    -0.00   0.00   0.00    -0.00   0.00   0.00    -0.00   0.00   0.00
 136   1    -0.00  -0.00   0.00    -0.00  -0.00   0.00    -0.00  -0.00   0.00
 137   1     0.00  -0.00   0.00    -0.00   0.00  -0.00     0.00  -0.00   0.00
 138   1     0.00  -0.00   0.00    -0.00   0.00  -0.00    -0.00   0.00  -0.00
 139   1    -0.00   0.00   0.00    -0.00   0.00   0.00    -0.00   0.00   0.00
 140   1    -0.00   0.00  -0.00    -0.00   0.00  -0.00     0.00  -0.00  -0.00
 141   6     0.00  -0.00  -0.00    -0.00   0.00  -0.00    -0.00   0.01  -0.00
 142   6     0.00  -0.00  -0.00     0.00  -0.00  -0.00    -0.02   0.12   0.19
 143   6    -0.00   0.00  -0.00     0.00  -0.00   0.00     0.04  -0.08   0.14
 144   6     0.00  -0.00  -0.00    -0.00   0.00   0.00     0.00  -0.00  -0.00
 145   6    -0.00   0.00   0.00     0.00  -0.00  -0.00    -0.00  -0.00  -0.00
 146   6     0.00  -0.00   0.00    -0.00   0.00  -0.00    -0.00   0.00  -0.00
 147   1    -0.00   0.01   0.01    -0.00   0.00   0.00     0.05  -0.39  -0.66
 148   1     0.00  -0.00   0.00    -0.00   0.00  -0.00    -0.12   0.25  -0.48
 149   1     0.00  -0.00  -0.00    -0.00   0.00   0.00    -0.00   0.00   0.01
 150   1    -0.00   0.00  -0.00     0.00  -0.00   0.00     0.00  -0.01   0.01
 151   6    -0.00   0.00  -0.00     0.00  -0.00   0.00    -0.00   0.00   0.00
 152   6     0.00  -0.00   0.00    -0.00   0.00  -0.00    -0.00   0.00  -0.00
 153   6     0.00  -0.00  -0.00    -0.00   0.00   0.00     0.00  -0.00   0.00
 154   6     0.01  -0.03   0.11    -0.00   0.00  -0.01     0.00  -0.00   0.00
 155   6    -0.03   0.17   0.17     0.00  -0.02  -0.02    -0.00   0.00   0.00
 156   6    -0.00   0.02  -0.01     0.00  -0.00   0.00    -0.00   0.00  -0.00
 157   7     0.00  -0.00  -0.00    -0.00   0.00   0.00     0.00   0.00  -0.00
 158   6     0.00   0.00  -0.00    -0.00  -0.00   0.00    -0.00   0.00   0.00
 159   1    -0.02   0.10  -0.37     0.00  -0.01   0.03    -0.00   0.00  -0.00
 160   1     0.09  -0.58  -0.58    -0.01   0.05   0.05     0.00  -0.00  -0.00
 161   1     0.00  -0.04   0.01    -0.00   0.00  -0.00     0.00  -0.00   0.00
 162   1     0.00  -0.00  -0.00    -0.00   0.00   0.00     0.00  -0.00  -0.00
