 Entering Gaussian System, Link 0=g16
 Initial command:
 /apps/gaussian/g16-a03/l1.exe "/rds/general/user/atarzia/home/pd_ligand_matching/with_dispersion/1-11-1_dft_mecn/Gau-12843.inp" -scrdir="/rds/general/user/atarzia/home/pd_ligand_matching/with_dispersion/1-11-1_dft_mecn/"
 Entering Link 1 = /apps/gaussian/g16-a03/l1.exe PID=     12844.
  
 Copyright (c) 1988,1990,1992,1993,1995,1998,2003,2009,2016,
            Gaussian, Inc.  All Rights Reserved.
  
 This is part of the Gaussian(R) 16 program.  It is based on
 the Gaussian(R) 09 system (copyright 2009, Gaussian, Inc.),
 the Gaussian(R) 03 system (copyright 2003, Gaussian, Inc.),
 the Gaussian(R) 98 system (copyright 1998, Gaussian, Inc.),
 the Gaussian(R) 94 system (copyright 1995, Gaussian, Inc.),
 the Gaussian 92(TM) system (copyright 1992, Gaussian, Inc.),
 the Gaussian 90(TM) system (copyright 1990, Gaussian, Inc.),
 the Gaussian 88(TM) system (copyright 1988, Gaussian, Inc.),
 the Gaussian 86(TM) system (copyright 1986, Carnegie Mellon
 University), and the Gaussian 82(TM) system (copyright 1983,
 Carnegie Mellon University). Gaussian is a federally registered
 trademark of Gaussian, Inc.
  
 This software contains proprietary and confidential information,
 including trade secrets, belonging to Gaussian, Inc.
  
 This software is provided under written license and may be
 used, copied, transmitted, or stored only in accord with that
 written license.
  
 The following legend is applicable only to US Government
 contracts under FAR:
  
                    RESTRICTED RIGHTS LEGEND
  
 Use, reproduction and disclosure by the US Government is
 subject to restrictions as set forth in subparagraphs (a)
 and (c) of the Commercial Computer Software - Restricted
 Rights clause in FAR 52.227-19.
  
 Gaussian, Inc.
 340 Quinnipiac St., Bldg. 40, Wallingford CT 06492
  
  
 ---------------------------------------------------------------
 Warning -- This program may not be used in any manner that
 competes with the business of Gaussian, Inc. or will provide
 assistance to any competitor of Gaussian, Inc.  The licensee
 of this program is prohibited from giving any competitor of
 Gaussian, Inc. access to this program.  By using this program,
 the user acknowledges that Gaussian, Inc. is engaged in the
 business of creating and licensing software in the field of
 computational chemistry and represents and warrants to the
 licensee that it is not a competitor of Gaussian, Inc. and that
 it will not use this program in any manner prohibited above.
 ---------------------------------------------------------------
  

 Cite this work as:
 Gaussian 16, Revision A.03,
 M. J. Frisch, G. W. Trucks, H. B. Schlegel, G. E. Scuseria, 
 M. A. Robb, J. R. Cheeseman, G. Scalmani, V. Barone, 
 G. A. Petersson, H. Nakatsuji, X. Li, M. Caricato, A. V. Marenich, 
 J. Bloino, B. G. Janesko, R. Gomperts, B. Mennucci, H. P. Hratchian, 
 J. V. Ortiz, A. F. Izmaylov, J. L. Sonnenberg, D. Williams-Young, 
 F. Ding, F. Lipparini, F. Egidi, J. Goings, B. Peng, A. Petrone, 
 T. Henderson, D. Ranasinghe, V. G. Zakrzewski, J. Gao, N. Rega, 
 G. Zheng, W. Liang, M. Hada, M. Ehara, K. Toyota, R. Fukuda, 
 J. Hasegawa, M. Ishida, T. Nakajima, Y. Honda, O. Kitao, H. Nakai, 
 T. Vreven, K. Throssell, J. A. Montgomery, Jr., J. E. Peralta, 
 F. Ogliaro, M. J. Bearpark, J. J. Heyd, E. N. Brothers, K. N. Kudin, 
 V. N. Staroverov, T. A. Keith, R. Kobayashi, J. Normand, 
 K. Raghavachari, A. P. Rendell, J. C. Burant, S. S. Iyengar, 
 J. Tomasi, M. Cossi, J. M. Millam, M. Klene, C. Adamo, R. Cammi, 
 J. W. Ochterski, R. L. Martin, K. Morokuma, O. Farkas, 
 J. B. Foresman, and D. J. Fox, Gaussian, Inc., Wallingford CT, 2016.
 
 ******************************************
 Gaussian 16:  ES64L-G16RevA.03 25-Dec-2016
                20-Sep-2019 
 ******************************************
 %oldchk=1-11-1_fopt_fopt3.chk
 %chk=1-11-1_fopt_fopt_f.chk
 %mem=60000mb
 %nprocshared=24
 Will use up to   24 processors via shared memory.
 Copying data from "1-11-1_fopt_fopt3.chk" to current chk file "1-11-1_fopt_fopt_f.chk"
 IOpt=  2 FromEx=T IUOpen= 4 IOptOp= 5 NList=   0 IFRang= 0 IUIn= 4 IUOut= 2.
 ----------------------------------------------------------------------
 #P B3LYP/GenECP freq Geom=Checkpoint SCF=(YQC,MaxCycle=900) int=(Grid=
 Ultrafine) EmpiricalDispersion=GD3 SCRF=(PCM,Solvent=Acetonitrile)
 ----------------------------------------------------------------------
 1/10=4,29=2,30=1,38=1/1,3;
 2/12=2,40=1/2;
 3/5=7,11=2,14=-4,16=1,17=8,25=1,30=1,70=2201,71=2,72=2,74=-5,75=-5,124=31,140=1/1,2,3;
 4//1;
 5/5=2,7=900,8=4,13=1,38=1,53=2,98=1/8,2,8;
 8/6=4,10=90,11=11/1;
 11/6=1,8=1,9=11,15=111,16=1/1,2,10;
 10/6=1/2;
 6/7=2,8=2,9=2,10=2,28=1/1;
 7/8=1,10=1,25=1/1,2,3,16;
 1/10=4,30=1/3;
 99//99;
 Leave Link    1 at Fri Sep 20 08:37:10 2019, MaxMem=  7864320000 cpu:               8.5 elap:               0.4
 (Enter /apps/gaussian/g16-a03/l101.exe)
 ------------------
 1-11-1_fopt_fopt_f
 ------------------
 Structure from the checkpoint file:  "1-11-1_fopt_fopt_f.chk"
 Charge =  4 Multiplicity = 1
 Redundant internal coordinates found in file.  (old form).
 Pd,0,5.9315683315,0.0524458319,0.0131691967
 Pd,0,-5.9348306783,-0.0564777392,-0.0095592923
 N,0,-5.8835429721,1.8760790245,-0.7435206169
 C,0,-6.8671460897,2.761759052,-0.4755712514
 C,0,-6.806910625,4.0714907081,-0.9383348087
 H,0,-7.7024572673,2.4012524096,0.1117862154
 C,0,-5.7046774009,4.4860587627,-1.678839247
 H,0,-7.61771053,4.7539683264,-0.7116083605
 C,0,-4.6712065013,3.5685534737,-1.9469460193
 H,0,-5.6311835537,5.5045134675,-2.0439059798
 C,0,-4.8142493824,2.2592905268,-1.4601884641
 C,0,-3.5011574373,3.9218243335,-2.6700357465
 H,0,-4.0538797838,1.5119291215,-1.6524589291
 C,0,-2.4811975158,4.2030252949,-3.2670057389
 C,0,-1.2779490152,4.5278754543,-3.9578927795
 C,0,-0.0854283916,3.8571061531,-3.6379560391
 C,0,1.1062994084,4.1720137212,-4.3117252511
 H,0,-0.084355436,3.0959281942,-2.8653650289
 C,0,2.3185590598,3.5027992945,-3.9762647624
 C,0,1.094798006,5.1609736584,-5.3176007141
 C,0,-0.0894369036,5.8249413135,-5.6317369905
 H,0,2.0154715682,5.4012040979,-5.8390942992
 C,0,-1.2719026116,5.519684438,-4.9599833637
 H,0,-0.0906299547,6.586952633,-6.4047806147
 H,0,-2.1934715481,6.0379471554,-5.2036018886
 C,0,3.3600024743,2.9460791479,-3.6903799667
 C,0,4.5909028529,2.3113498281,-3.3772562857
 C,0,5.7006992299,2.3614198915,-4.2423410095
 C,0,4.7472779424,1.6149718668,-2.1721330822
 H,0,5.6291950737,2.8934804682,-5.1847405864
 C,0,6.8773606065,1.7275263248,-3.8747623076
 C,0,6.9736001953,1.0429319495,-2.6581141166
 H,0,7.7411781107,1.7552663707,-4.5289648231
 N,0,5.8983872309,1.0062080856,-1.8292401419
 C,0,8.2361098598,0.3338391263,-2.2602080449
 H,0,3.9288129213,1.5543331868,-1.4647310457
 H,0,8.547232854,0.5968476962,-1.2440427477
 H,0,8.0923171194,-0.7514915164,-2.2903336952
 H,0,9.0477535805,0.5872974386,-2.9452394911
 N,0,5.8452203483,1.8992414645,0.9394488847
 C,0,6.8120137909,2.8255929089,0.7637092945
 C,0,6.7279881881,4.0802484738,1.3569669989
 H,0,7.6532999829,2.5420852217,0.1435805632
 C,0,5.6189693413,4.3970449362,2.134687295
 H,0,7.5258068805,4.7971003855,1.20144932
 C,0,4.6029055879,3.4380992678,2.3073057409
 H,0,5.5269858274,5.3716491035,2.6011750563
 C,0,4.7696931281,2.1878777187,1.6903035999
 C,0,3.4272004342,3.694438793,3.0614154509
 H,0,4.023464281,1.4109187069,1.8050043232
 C,0,2.402774098,3.8946715707,3.6828838134
 C,0,1.1943721357,4.1253972613,4.4020427013
 C,0,0.0141676188,3.4686115641,4.0145557464
 C,0,-1.182547892,3.6913993961,4.7156866258
 H,0,0.0264521836,2.7898916854,3.1686962378
 C,0,-2.3825320563,3.0373722856,4.3128940522
 C,0,-1.1884012483,4.5732009521,5.8167549111
 C,0,-0.0163604692,5.2236564085,6.1977734379
 H,0,-2.1128706676,4.7421816232,6.3590720541
 C,0,1.1709176589,5.0100921444,5.4996181794
 H,0,-0.0285401321,5.903161586,7.0441678462
 H,0,2.0829672511,5.517917127,5.7954472716
 C,0,-3.4137647231,2.4933699238,3.9709986617
 C,0,-4.6330042972,1.8710368169,3.5939046931
 C,0,-5.7427259827,1.8125026791,4.4585538414
 C,0,-4.7775987577,1.297802351,2.3241755489
 H,0,-5.6801942926,2.2473932067,5.4501577339
 C,0,-6.9078027554,1.1975333467,4.0274205242
 C,0,-6.992501234,0.6383027822,2.7474784789
 H,0,-7.7713720121,1.1427429614,4.6802430677
 N,0,-5.9175704087,0.7057978484,1.9201746245
 C,0,-8.2420484805,-0.049976611,2.278462373
 H,0,-3.9588139354,1.3244274614,1.6150477521
 H,0,-8.5589361556,0.3090075188,1.293944665
 H,0,-8.0781723642,-1.1299133871,2.198412789
 H,0,-9.0576005216,0.1175857206,2.9849129421
 N,0,-5.8508870926,-1.9877929565,0.7246613859
 C,0,-6.8170306819,-2.8913715745,0.4529752905
 C,0,-6.7345348594,-4.1997930534,0.9160121139
 H,0,-7.6565623794,-2.5462397996,-0.1375914697
 C,0,-5.6277229859,-4.5940823037,1.6607503104
 H,0,-7.5317940514,-4.8970325502,0.6862036744
 C,0,-4.6123054433,-3.6577683093,1.9327841955
 H,0,-5.5369443042,-5.6110290093,2.0261318515
 C,0,-4.7774932728,-2.3513348218,1.4454357851
 C,0,-3.438748172,-3.9895239568,2.6603662177
 H,0,-4.0317144472,-1.5901473792,1.6405935318
 C,0,-2.4160930103,-4.2519698209,3.2612521787
 C,0,-1.2097403342,-4.5546955689,3.9567590398
 C,0,-0.0285173049,-3.8621378957,3.641366706
 C,0,1.1661996609,-4.1551333976,4.3197117013
 H,0,-0.0384570529,-3.1010469662,2.868753155
 C,0,2.3672466512,-3.4637679567,3.9888713283
 C,0,1.1690004142,-5.1441658282,5.3255778313
 C,0,-0.0040410798,-5.8297706007,5.6352013019
 H,0,2.0919234554,-5.3674683837,5.8506064722
 C,0,-1.1893280468,-5.5462543104,4.9589075795
 H,0,0.0057921904,-6.5916968072,6.4082671965
 H,0,-2.1021542817,-6.0813547756,5.1990143945
 C,0,3.399383054,-2.8880162623,3.7069560238
 C,0,4.6196163645,-2.2307926493,3.3985231777
 C,0,5.7268255495,-2.2605162093,4.2678510633
 C,0,4.7677966925,-1.5316222867,2.1939815485
 H,0,5.6614913429,-2.7938307761,5.2099897254
 C,0,6.8930538526,-1.605123339,3.9047550749
 C,0,6.9813699294,-0.9188383732,2.6884583433
 H,0,7.7547246206,-1.617027359,4.5622601738
 N,0,5.9088447656,-0.9018262263,1.8554734204
 C,0,8.2321669449,-0.1866795397,2.2953640955
 H,0,3.9510690795,-1.4859885348,1.4834511969
 H,0,8.5519498654,-0.4438900484,1.2804039908
 H,0,9.0456988534,-0.4252281954,2.9835029185
 H,0,8.068365504,0.8958282474,2.3249091935
 N,0,5.8826826801,-1.7955921659,-0.913368441
 C,0,6.865634845,-2.7040486989,-0.7338894014
 C,0,6.8069264743,-3.9600157646,-1.3274174951
 H,0,7.6991927337,-2.4051680094,-0.1105514419
 C,0,5.7068985658,-4.2970887175,-2.1093715392
 H,0,7.6171660168,-4.6621086156,-1.1688155088
 C,0,4.6740746807,-3.3569478823,-2.285919795
 H,0,5.634607533,-5.2732017406,-2.5761717529
 C,0,4.8155206951,-2.1038959207,-1.6683297224
 C,0,3.5061720165,-3.6347977883,-3.0445216879
 H,0,4.0556017319,-1.3407612382,-1.785920268
 C,0,2.4879828232,-3.8537769738,-3.6699049905
 C,0,1.2867839402,-4.1066166608,-4.3936817663
 C,0,0.0932456702,-3.4716231842,-4.0107377306
 C,0,-1.0964835386,-3.7163120285,-4.7164422555
 H,0,0.0898280864,-2.7928278665,-3.1648564398
 C,0,-2.3098061138,-3.0844401725,-4.3182687995
 C,0,-1.0819300885,-4.5980259831,-5.8175001315
 C,0,0.1033048232,-5.2268404896,-6.1940071059
 H,0,-2.0010572339,-4.7839257777,-6.3633504882
 C,0,1.283779019,-4.9915467139,-5.4913141764
 H,0,0.1068437742,-5.9064189318,-7.0404229168
 H,0,2.2061238409,-5.4825309424,-5.7836325687
 C,0,-3.3521538956,-2.559474153,-3.9803432761
 C,0,-4.5840479938,-1.9596425043,-3.6079434104
 C,0,-5.6913369887,-1.921459005,-4.4768388875
 C,0,-4.7440038676,-1.3892046276,-2.3387972452
 H,0,-5.6170345325,-2.355092514,-5.4681810692
 C,0,-6.8691496725,-1.3279967515,-4.0501928525
 C,0,-6.9690023044,-0.7704610173,-2.7706039314
 H,0,-7.7310722448,-1.2890449718,-4.7063204096
 N,0,-5.8961902096,-0.8182409761,-1.939186252
 C,0,-8.2327617243,-0.1052533474,-2.306401447
 H,0,-3.9275907515,-1.4008197699,-1.6265372002
 H,0,-8.5467764918,-0.4700326642,-1.3230938907
 H,0,-8.0890454161,0.9775066637,-2.2257592227
 H,0,-9.0423873732,-0.2877316177,-3.015966621
 Recover connectivity data from disk.
 ITRead=  0  0  0  0  0  0  0  0  0  0  0  0  0  0  0  0  0  0  0  0
 ITRead=  0  0  0  0  0  0  0  0  0  0  0  0  0  0  0  0  0  0  0  0
 ITRead=  0  0  0  0  0  0  0  0  0  0  0  0  0  0  0  0  0  0  0  0
 ITRead=  0  0  0  0  0  0  0  0  0  0  0  0  0  0  0  0  0  0  0  0
 ITRead=  0  0  0  0  0  0  0  0  0  0  0  0  0  0  0  0  0  0  0  0
 ITRead=  0  0  0  0  0  0  0  0  0  0  0  0  0  0  0  0  0  0  0  0
 ITRead=  0  0  0  0  0  0  0  0  0  0  0  0  0  0  0  0  0  0  0  0
 ITRead=  0  0  0  0  0  0  0  0  0  0
 MicOpt= -1 -1 -1 -1 -1 -1 -1 -1 -1 -1 -1 -1 -1 -1 -1 -1 -1 -1 -1 -1
 MicOpt= -1 -1 -1 -1 -1 -1 -1 -1 -1 -1 -1 -1 -1 -1 -1 -1 -1 -1 -1 -1
 MicOpt= -1 -1 -1 -1 -1 -1 -1 -1 -1 -1 -1 -1 -1 -1 -1 -1 -1 -1 -1 -1
 MicOpt= -1 -1 -1 -1 -1 -1 -1 -1 -1 -1 -1 -1 -1 -1 -1 -1 -1 -1 -1 -1
 MicOpt= -1 -1 -1 -1 -1 -1 -1 -1 -1 -1 -1 -1 -1 -1 -1 -1 -1 -1 -1 -1
 MicOpt= -1 -1 -1 -1 -1 -1 -1 -1 -1 -1 -1 -1 -1 -1 -1 -1 -1 -1 -1 -1
 MicOpt= -1 -1 -1 -1 -1 -1 -1 -1 -1 -1 -1 -1 -1 -1 -1 -1 -1 -1 -1 -1
 MicOpt= -1 -1 -1 -1 -1 -1 -1 -1 -1 -1
 NAtoms=    150 NQM=      150 NQMF=       0 NMMI=      0 NMMIF=      0
                NMic=       0 NMicF=      0.
                    Isotopes and Nuclear Properties:
 (Nuclear quadrupole moments (NQMom) in fm**2, nuclear magnetic moments (NMagM)
  in nuclear magnetons)

  Atom         1           2           3           4           5           6           7           8           9          10
 IAtWgt=         106         106          14          12          12           1          12           1          12           1
 AtmWgt= 105.9032000 105.9032000  14.0030740  12.0000000  12.0000000   1.0078250  12.0000000   1.0078250  12.0000000   1.0078250
 NucSpn=           0           0           2           0           0           1           0           1           0           1
 AtZEff= 237.3600000 237.3600000   4.5500000   3.6000000   3.6000000   1.0000000   3.6000000   1.0000000   3.6000000   1.0000000
 NQMom=    0.0000000   0.0000000   2.0440000   0.0000000   0.0000000   0.0000000   0.0000000   0.0000000   0.0000000   0.0000000
 NMagM=    0.0000000   0.0000000   0.4037610   0.0000000   0.0000000   2.7928460   0.0000000   2.7928460   0.0000000   2.7928460
 AtZNuc=  46.0000000  46.0000000   7.0000000   6.0000000   6.0000000   1.0000000   6.0000000   1.0000000   6.0000000   1.0000000

  Atom        11          12          13          14          15          16          17          18          19          20
 IAtWgt=          12          12           1          12          12          12          12           1          12          12
 AtmWgt=  12.0000000  12.0000000   1.0078250  12.0000000  12.0000000  12.0000000  12.0000000   1.0078250  12.0000000  12.0000000
 NucSpn=           0           0           1           0           0           0           0           1           0           0
 AtZEff=   3.6000000   3.6000000   1.0000000   3.6000000   3.6000000   3.6000000   3.6000000   1.0000000   3.6000000   3.6000000
 NQMom=    0.0000000   0.0000000   0.0000000   0.0000000   0.0000000   0.0000000   0.0000000   0.0000000   0.0000000   0.0000000
 NMagM=    0.0000000   0.0000000   2.7928460   0.0000000   0.0000000   0.0000000   0.0000000   2.7928460   0.0000000   0.0000000
 AtZNuc=   6.0000000   6.0000000   1.0000000   6.0000000   6.0000000   6.0000000   6.0000000   1.0000000   6.0000000   6.0000000

  Atom        21          22          23          24          25          26          27          28          29          30
 IAtWgt=          12           1          12           1           1          12          12          12          12           1
 AtmWgt=  12.0000000   1.0078250  12.0000000   1.0078250   1.0078250  12.0000000  12.0000000  12.0000000  12.0000000   1.0078250
 NucSpn=           0           1           0           1           1           0           0           0           0           1
 AtZEff=   3.6000000   1.0000000   3.6000000   1.0000000   1.0000000   3.6000000   3.6000000   3.6000000   3.6000000   1.0000000
 NQMom=    0.0000000   0.0000000   0.0000000   0.0000000   0.0000000   0.0000000   0.0000000   0.0000000   0.0000000   0.0000000
 NMagM=    0.0000000   2.7928460   0.0000000   2.7928460   2.7928460   0.0000000   0.0000000   0.0000000   0.0000000   2.7928460
 AtZNuc=   6.0000000   1.0000000   6.0000000   1.0000000   1.0000000   6.0000000   6.0000000   6.0000000   6.0000000   1.0000000

  Atom        31          32          33          34          35          36          37          38          39          40
 IAtWgt=          12          12           1          14          12           1           1           1           1          14
 AtmWgt=  12.0000000  12.0000000   1.0078250  14.0030740  12.0000000   1.0078250   1.0078250   1.0078250   1.0078250  14.0030740
 NucSpn=           0           0           1           2           0           1           1           1           1           2
 AtZEff=   3.6000000   3.6000000   1.0000000   4.5500000   3.6000000   1.0000000   1.0000000   1.0000000   1.0000000   4.5500000
 NQMom=    0.0000000   0.0000000   0.0000000   2.0440000   0.0000000   0.0000000   0.0000000   0.0000000   0.0000000   2.0440000
 NMagM=    0.0000000   0.0000000   2.7928460   0.4037610   0.0000000   2.7928460   2.7928460   2.7928460   2.7928460   0.4037610
 AtZNuc=   6.0000000   6.0000000   1.0000000   7.0000000   6.0000000   1.0000000   1.0000000   1.0000000   1.0000000   7.0000000

  Atom        41          42          43          44          45          46          47          48          49          50
 IAtWgt=          12          12           1          12           1          12           1          12          12           1
 AtmWgt=  12.0000000  12.0000000   1.0078250  12.0000000   1.0078250  12.0000000   1.0078250  12.0000000  12.0000000   1.0078250
 NucSpn=           0           0           1           0           1           0           1           0           0           1
 AtZEff=   3.6000000   3.6000000   1.0000000   3.6000000   1.0000000   3.6000000   1.0000000   3.6000000   3.6000000   1.0000000
 NQMom=    0.0000000   0.0000000   0.0000000   0.0000000   0.0000000   0.0000000   0.0000000   0.0000000   0.0000000   0.0000000
 NMagM=    0.0000000   0.0000000   2.7928460   0.0000000   2.7928460   0.0000000   2.7928460   0.0000000   0.0000000   2.7928460
 AtZNuc=   6.0000000   6.0000000   1.0000000   6.0000000   1.0000000   6.0000000   1.0000000   6.0000000   6.0000000   1.0000000

  Atom        51          52          53          54          55          56          57          58          59          60
 IAtWgt=          12          12          12          12           1          12          12          12           1          12
 AtmWgt=  12.0000000  12.0000000  12.0000000  12.0000000   1.0078250  12.0000000  12.0000000  12.0000000   1.0078250  12.0000000
 NucSpn=           0           0           0           0           1           0           0           0           1           0
 AtZEff=   3.6000000   3.6000000   3.6000000   3.6000000   1.0000000   3.6000000   3.6000000   3.6000000   1.0000000   3.6000000
 NQMom=    0.0000000   0.0000000   0.0000000   0.0000000   0.0000000   0.0000000   0.0000000   0.0000000   0.0000000   0.0000000
 NMagM=    0.0000000   0.0000000   0.0000000   0.0000000   2.7928460   0.0000000   0.0000000   0.0000000   2.7928460   0.0000000
 AtZNuc=   6.0000000   6.0000000   6.0000000   6.0000000   1.0000000   6.0000000   6.0000000   6.0000000   1.0000000   6.0000000

  Atom        61          62          63          64          65          66          67          68          69          70
 IAtWgt=           1           1          12          12          12          12           1          12          12           1
 AtmWgt=   1.0078250   1.0078250  12.0000000  12.0000000  12.0000000  12.0000000   1.0078250  12.0000000  12.0000000   1.0078250
 NucSpn=           1           1           0           0           0           0           1           0           0           1
 AtZEff=   1.0000000   1.0000000   3.6000000   3.6000000   3.6000000   3.6000000   1.0000000   3.6000000   3.6000000   1.0000000
 NQMom=    0.0000000   0.0000000   0.0000000   0.0000000   0.0000000   0.0000000   0.0000000   0.0000000   0.0000000   0.0000000
 NMagM=    2.7928460   2.7928460   0.0000000   0.0000000   0.0000000   0.0000000   2.7928460   0.0000000   0.0000000   2.7928460
 AtZNuc=   1.0000000   1.0000000   6.0000000   6.0000000   6.0000000   6.0000000   1.0000000   6.0000000   6.0000000   1.0000000

  Atom        71          72          73          74          75          76          77          78          79          80
 IAtWgt=          14          12           1           1           1           1          14          12          12           1
 AtmWgt=  14.0030740  12.0000000   1.0078250   1.0078250   1.0078250   1.0078250  14.0030740  12.0000000  12.0000000   1.0078250
 NucSpn=           2           0           1           1           1           1           2           0           0           1
 AtZEff=   4.5500000   3.6000000   1.0000000   1.0000000   1.0000000   1.0000000   4.5500000   3.6000000   3.6000000   1.0000000
 NQMom=    2.0440000   0.0000000   0.0000000   0.0000000   0.0000000   0.0000000   2.0440000   0.0000000   0.0000000   0.0000000
 NMagM=    0.4037610   0.0000000   2.7928460   2.7928460   2.7928460   2.7928460   0.4037610   0.0000000   0.0000000   2.7928460
 AtZNuc=   7.0000000   6.0000000   1.0000000   1.0000000   1.0000000   1.0000000   7.0000000   6.0000000   6.0000000   1.0000000

  Atom        81          82          83          84          85          86          87          88          89          90
 IAtWgt=          12           1          12           1          12          12           1          12          12          12
 AtmWgt=  12.0000000   1.0078250  12.0000000   1.0078250  12.0000000  12.0000000   1.0078250  12.0000000  12.0000000  12.0000000
 NucSpn=           0           1           0           1           0           0           1           0           0           0
 AtZEff=   3.6000000   1.0000000   3.6000000   1.0000000   3.6000000   3.6000000   1.0000000   3.6000000   3.6000000   3.6000000
 NQMom=    0.0000000   0.0000000   0.0000000   0.0000000   0.0000000   0.0000000   0.0000000   0.0000000   0.0000000   0.0000000
 NMagM=    0.0000000   2.7928460   0.0000000   2.7928460   0.0000000   0.0000000   2.7928460   0.0000000   0.0000000   0.0000000
 AtZNuc=   6.0000000   1.0000000   6.0000000   1.0000000   6.0000000   6.0000000   1.0000000   6.0000000   6.0000000   6.0000000

  Atom        91          92          93          94          95          96          97          98          99         100
 IAtWgt=          12           1          12          12          12           1          12           1           1          12
 AtmWgt=  12.0000000   1.0078250  12.0000000  12.0000000  12.0000000   1.0078250  12.0000000   1.0078250   1.0078250  12.0000000
 NucSpn=           0           1           0           0           0           1           0           1           1           0
 AtZEff=   3.6000000   1.0000000   3.6000000   3.6000000   3.6000000   1.0000000   3.6000000   1.0000000   1.0000000   3.6000000
 NQMom=    0.0000000   0.0000000   0.0000000   0.0000000   0.0000000   0.0000000   0.0000000   0.0000000   0.0000000   0.0000000
 NMagM=    0.0000000   2.7928460   0.0000000   0.0000000   0.0000000   2.7928460   0.0000000   2.7928460   2.7928460   0.0000000
 AtZNuc=   6.0000000   1.0000000   6.0000000   6.0000000   6.0000000   1.0000000   6.0000000   1.0000000   1.0000000   6.0000000

  Atom       101         102         103         104         105         106         107         108         109         110
 IAtWgt=          12          12          12           1          12          12           1          14          12           1
 AtmWgt=  12.0000000  12.0000000  12.0000000   1.0078250  12.0000000  12.0000000   1.0078250  14.0030740  12.0000000   1.0078250
 NucSpn=           0           0           0           1           0           0           1           2           0           1
 AtZEff=   3.6000000   3.6000000   3.6000000   1.0000000   3.6000000   3.6000000   1.0000000   4.5500000   3.6000000   1.0000000
 NQMom=    0.0000000   0.0000000   0.0000000   0.0000000   0.0000000   0.0000000   0.0000000   2.0440000   0.0000000   0.0000000
 NMagM=    0.0000000   0.0000000   0.0000000   2.7928460   0.0000000   0.0000000   2.7928460   0.4037610   0.0000000   2.7928460
 AtZNuc=   6.0000000   6.0000000   6.0000000   1.0000000   6.0000000   6.0000000   1.0000000   7.0000000   6.0000000   1.0000000

  Atom       111         112         113         114         115         116         117         118         119         120
 IAtWgt=           1           1           1          14          12          12           1          12           1          12
 AtmWgt=   1.0078250   1.0078250   1.0078250  14.0030740  12.0000000  12.0000000   1.0078250  12.0000000   1.0078250  12.0000000
 NucSpn=           1           1           1           2           0           0           1           0           1           0
 AtZEff=   1.0000000   1.0000000   1.0000000   4.5500000   3.6000000   3.6000000   1.0000000   3.6000000   1.0000000   3.6000000
 NQMom=    0.0000000   0.0000000   0.0000000   2.0440000   0.0000000   0.0000000   0.0000000   0.0000000   0.0000000   0.0000000
 NMagM=    2.7928460   2.7928460   2.7928460   0.4037610   0.0000000   0.0000000   2.7928460   0.0000000   2.7928460   0.0000000
 AtZNuc=   1.0000000   1.0000000   1.0000000   7.0000000   6.0000000   6.0000000   1.0000000   6.0000000   1.0000000   6.0000000

  Atom       121         122         123         124         125         126         127         128         129         130
 IAtWgt=           1          12          12           1          12          12          12          12           1          12
 AtmWgt=   1.0078250  12.0000000  12.0000000   1.0078250  12.0000000  12.0000000  12.0000000  12.0000000   1.0078250  12.0000000
 NucSpn=           1           0           0           1           0           0           0           0           1           0
 AtZEff=   1.0000000   3.6000000   3.6000000   1.0000000   3.6000000   3.6000000   3.6000000   3.6000000   1.0000000   3.6000000
 NQMom=    0.0000000   0.0000000   0.0000000   0.0000000   0.0000000   0.0000000   0.0000000   0.0000000   0.0000000   0.0000000
 NMagM=    2.7928460   0.0000000   0.0000000   2.7928460   0.0000000   0.0000000   0.0000000   0.0000000   2.7928460   0.0000000
 AtZNuc=   1.0000000   6.0000000   6.0000000   1.0000000   6.0000000   6.0000000   6.0000000   6.0000000   1.0000000   6.0000000

  Atom       131         132         133         134         135         136         137         138         139         140
 IAtWgt=          12          12           1          12           1           1          12          12          12          12
 AtmWgt=  12.0000000  12.0000000   1.0078250  12.0000000   1.0078250   1.0078250  12.0000000  12.0000000  12.0000000  12.0000000
 NucSpn=           0           0           1           0           1           1           0           0           0           0
 AtZEff=   3.6000000   3.6000000   1.0000000   3.6000000   1.0000000   1.0000000   3.6000000   3.6000000   3.6000000   3.6000000
 NQMom=    0.0000000   0.0000000   0.0000000   0.0000000   0.0000000   0.0000000   0.0000000   0.0000000   0.0000000   0.0000000
 NMagM=    0.0000000   0.0000000   2.7928460   0.0000000   2.7928460   2.7928460   0.0000000   0.0000000   0.0000000   0.0000000
 AtZNuc=   6.0000000   6.0000000   1.0000000   6.0000000   1.0000000   1.0000000   6.0000000   6.0000000   6.0000000   6.0000000

  Atom       141         142         143         144         145         146         147         148         149         150
 IAtWgt=           1          12          12           1          14          12           1           1           1           1
 AtmWgt=   1.0078250  12.0000000  12.0000000   1.0078250  14.0030740  12.0000000   1.0078250   1.0078250   1.0078250   1.0078250
 NucSpn=           1           0           0           1           2           0           1           1           1           1
 AtZEff=   1.0000000   3.6000000   3.6000000   1.0000000   4.5500000   3.6000000   1.0000000   1.0000000   1.0000000   1.0000000
 NQMom=    0.0000000   0.0000000   0.0000000   0.0000000   2.0440000   0.0000000   0.0000000   0.0000000   0.0000000   0.0000000
 NMagM=    2.7928460   0.0000000   0.0000000   2.7928460   0.4037610   0.0000000   2.7928460   2.7928460   2.7928460   2.7928460
 AtZNuc=   1.0000000   6.0000000   6.0000000   1.0000000   7.0000000   6.0000000   1.0000000   1.0000000   1.0000000   1.0000000
 Center=     -0.00163312     -0.00201285      0.00180632
 Residue   1 PDB Number     1_0 LIG charge    0.00000000 layers R        AvRTP=      0.00000000     63.43494882    114.09484255
 Leave Link  101 at Fri Sep 20 08:37:13 2019, MaxMem=  7864320000 cpu:              10.3 elap:               0.5
 (Enter /apps/gaussian/g16-a03/l103.exe)

 GradGradGradGradGradGradGradGradGradGradGradGradGradGradGradGradGradGrad
 Berny optimization.
 Initialization pass.
                           ----------------------------
                           !    Initial Parameters    !
                           ! (Angstroms and Degrees)  !
 --------------------------                            --------------------------
 ! Name  Definition              Value          Derivative Info.                !
 --------------------------------------------------------------------------------
 ! R1    R(1,34)                 2.0749         calculate D2E/DX2 analytically  !
 ! R2    R(1,40)                 2.0679         calculate D2E/DX2 analytically  !
 ! R3    R(1,108)                2.0749         calculate D2E/DX2 analytically  !
 ! R4    R(1,114)                2.0679         calculate D2E/DX2 analytically  !
 ! R5    R(2,3)                  2.0679         calculate D2E/DX2 analytically  !
 ! R6    R(2,71)                 2.0749         calculate D2E/DX2 analytically  !
 ! R7    R(2,77)                 2.0679         calculate D2E/DX2 analytically  !
 ! R8    R(2,145)                2.0749         calculate D2E/DX2 analytically  !
 ! R9    R(3,4)                  1.3504         calculate D2E/DX2 analytically  !
 ! R10   R(3,11)                 1.3431         calculate D2E/DX2 analytically  !
 ! R11   R(4,5)                  1.3904         calculate D2E/DX2 analytically  !
 ! R12   R(4,6)                  1.0829         calculate D2E/DX2 analytically  !
 ! R13   R(5,7)                  1.3911         calculate D2E/DX2 analytically  !
 ! R14   R(5,8)                  1.0838         calculate D2E/DX2 analytically  !
 ! R15   R(7,9)                  1.4077         calculate D2E/DX2 analytically  !
 ! R16   R(7,10)                 1.0844         calculate D2E/DX2 analytically  !
 ! R17   R(9,11)                 1.4041         calculate D2E/DX2 analytically  !
 ! R18   R(9,12)                 1.4201         calculate D2E/DX2 analytically  !
 ! R19   R(11,13)                1.0834         calculate D2E/DX2 analytically  !
 ! R20   R(12,14)                1.2148         calculate D2E/DX2 analytically  !
 ! R21   R(14,15)                1.425          calculate D2E/DX2 analytically  !
 ! R22   R(15,16)                1.4051         calculate D2E/DX2 analytically  !
 ! R23   R(15,23)                1.4099         calculate D2E/DX2 analytically  !
 ! R24   R(16,17)                1.4048         calculate D2E/DX2 analytically  !
 ! R25   R(16,18)                1.0846         calculate D2E/DX2 analytically  !
 ! R26   R(17,19)                1.4248         calculate D2E/DX2 analytically  !
 ! R27   R(17,20)                1.4107         calculate D2E/DX2 analytically  !
 ! R28   R(19,26)                1.215          calculate D2E/DX2 analytically  !
 ! R29   R(20,21)                1.3935         calculate D2E/DX2 analytically  !
 ! R30   R(20,22)                1.085          calculate D2E/DX2 analytically  !
 ! R31   R(21,23)                1.3938         calculate D2E/DX2 analytically  !
 ! R32   R(21,24)                1.0855         calculate D2E/DX2 analytically  !
 ! R33   R(23,25)                1.085          calculate D2E/DX2 analytically  !
 ! R34   R(26,27)                1.4199         calculate D2E/DX2 analytically  !
 ! R35   R(27,28)                1.408          calculate D2E/DX2 analytically  !
 ! R36   R(27,29)                1.4006         calculate D2E/DX2 analytically  !
 ! R37   R(28,30)                1.0846         calculate D2E/DX2 analytically  !
 ! R38   R(28,31)                1.3862         calculate D2E/DX2 analytically  !
 ! R39   R(29,34)                1.3466         calculate D2E/DX2 analytically  !
 ! R40   R(29,36)                1.0835         calculate D2E/DX2 analytically  !
 ! R41   R(31,32)                1.3993         calculate D2E/DX2 analytically  !
 ! R42   R(31,33)                1.0839         calculate D2E/DX2 analytically  !
 ! R43   R(32,34)                1.3581         calculate D2E/DX2 analytically  !
 ! R44   R(32,35)                1.5017         calculate D2E/DX2 analytically  !
 ! R45   R(35,37)                1.0948         calculate D2E/DX2 analytically  !
 ! R46   R(35,38)                1.0952         calculate D2E/DX2 analytically  !
 ! R47   R(35,39)                1.0919         calculate D2E/DX2 analytically  !
 ! R48   R(40,41)                1.3504         calculate D2E/DX2 analytically  !
 ! R49   R(40,48)                1.3431         calculate D2E/DX2 analytically  !
 ! R50   R(41,42)                1.3904         calculate D2E/DX2 analytically  !
 ! R51   R(41,43)                1.0829         calculate D2E/DX2 analytically  !
 ! R52   R(42,44)                1.3911         calculate D2E/DX2 analytically  !
 ! R53   R(42,45)                1.0838         calculate D2E/DX2 analytically  !
 ! R54   R(44,46)                1.4077         calculate D2E/DX2 analytically  !
 ! R55   R(44,47)                1.0844         calculate D2E/DX2 analytically  !
 ! R56   R(46,48)                1.4041         calculate D2E/DX2 analytically  !
 ! R57   R(46,49)                1.4201         calculate D2E/DX2 analytically  !
 ! R58   R(48,50)                1.0834         calculate D2E/DX2 analytically  !
 ! R59   R(49,51)                1.2148         calculate D2E/DX2 analytically  !
 ! R60   R(51,52)                1.425          calculate D2E/DX2 analytically  !
 ! R61   R(52,53)                1.4051         calculate D2E/DX2 analytically  !
 ! R62   R(52,60)                1.4099         calculate D2E/DX2 analytically  !
 ! R63   R(53,54)                1.4048         calculate D2E/DX2 analytically  !
 ! R64   R(53,55)                1.0846         calculate D2E/DX2 analytically  !
 ! R65   R(54,56)                1.4248         calculate D2E/DX2 analytically  !
 ! R66   R(54,57)                1.4107         calculate D2E/DX2 analytically  !
 ! R67   R(56,63)                1.215          calculate D2E/DX2 analytically  !
 ! R68   R(57,58)                1.3935         calculate D2E/DX2 analytically  !
 ! R69   R(57,59)                1.085          calculate D2E/DX2 analytically  !
 ! R70   R(58,60)                1.3938         calculate D2E/DX2 analytically  !
 ! R71   R(58,61)                1.0855         calculate D2E/DX2 analytically  !
 ! R72   R(60,62)                1.085          calculate D2E/DX2 analytically  !
 ! R73   R(63,64)                1.4199         calculate D2E/DX2 analytically  !
 ! R74   R(64,65)                1.408          calculate D2E/DX2 analytically  !
 ! R75   R(64,66)                1.4006         calculate D2E/DX2 analytically  !
 ! R76   R(65,67)                1.0846         calculate D2E/DX2 analytically  !
 ! R77   R(65,68)                1.3862         calculate D2E/DX2 analytically  !
 ! R78   R(66,71)                1.3466         calculate D2E/DX2 analytically  !
 ! R79   R(66,73)                1.0835         calculate D2E/DX2 analytically  !
 ! R80   R(68,69)                1.3993         calculate D2E/DX2 analytically  !
 ! R81   R(68,70)                1.0839         calculate D2E/DX2 analytically  !
 ! R82   R(69,71)                1.3581         calculate D2E/DX2 analytically  !
 ! R83   R(69,72)                1.5017         calculate D2E/DX2 analytically  !
 ! R84   R(72,74)                1.0948         calculate D2E/DX2 analytically  !
 ! R85   R(72,75)                1.0952         calculate D2E/DX2 analytically  !
 ! R86   R(72,76)                1.0919         calculate D2E/DX2 analytically  !
 ! R87   R(77,78)                1.3504         calculate D2E/DX2 analytically  !
 ! R88   R(77,85)                1.3431         calculate D2E/DX2 analytically  !
 ! R89   R(78,79)                1.3904         calculate D2E/DX2 analytically  !
 ! R90   R(78,80)                1.0829         calculate D2E/DX2 analytically  !
 ! R91   R(79,81)                1.3911         calculate D2E/DX2 analytically  !
 ! R92   R(79,82)                1.0838         calculate D2E/DX2 analytically  !
 ! R93   R(81,83)                1.4077         calculate D2E/DX2 analytically  !
 ! R94   R(81,84)                1.0844         calculate D2E/DX2 analytically  !
 ! R95   R(83,85)                1.4041         calculate D2E/DX2 analytically  !
 ! R96   R(83,86)                1.4201         calculate D2E/DX2 analytically  !
 ! R97   R(85,87)                1.0834         calculate D2E/DX2 analytically  !
 ! R98   R(86,88)                1.2148         calculate D2E/DX2 analytically  !
 ! R99   R(88,89)                1.425          calculate D2E/DX2 analytically  !
 ! R100  R(89,90)                1.4051         calculate D2E/DX2 analytically  !
 ! R101  R(89,97)                1.4099         calculate D2E/DX2 analytically  !
 ! R102  R(90,91)                1.4048         calculate D2E/DX2 analytically  !
 ! R103  R(90,92)                1.0846         calculate D2E/DX2 analytically  !
 ! R104  R(91,93)                1.4248         calculate D2E/DX2 analytically  !
 ! R105  R(91,94)                1.4107         calculate D2E/DX2 analytically  !
 ! R106  R(93,100)               1.215          calculate D2E/DX2 analytically  !
 ! R107  R(94,95)                1.3935         calculate D2E/DX2 analytically  !
 ! R108  R(94,96)                1.085          calculate D2E/DX2 analytically  !
 ! R109  R(95,97)                1.3938         calculate D2E/DX2 analytically  !
 ! R110  R(95,98)                1.0855         calculate D2E/DX2 analytically  !
 ! R111  R(97,99)                1.085          calculate D2E/DX2 analytically  !
 ! R112  R(100,101)              1.4199         calculate D2E/DX2 analytically  !
 ! R113  R(101,102)              1.408          calculate D2E/DX2 analytically  !
 ! R114  R(101,103)              1.4006         calculate D2E/DX2 analytically  !
 ! R115  R(102,104)              1.0846         calculate D2E/DX2 analytically  !
 ! R116  R(102,105)              1.3862         calculate D2E/DX2 analytically  !
 ! R117  R(103,108)              1.3466         calculate D2E/DX2 analytically  !
 ! R118  R(103,110)              1.0835         calculate D2E/DX2 analytically  !
 ! R119  R(105,106)              1.3993         calculate D2E/DX2 analytically  !
 ! R120  R(105,107)              1.0839         calculate D2E/DX2 analytically  !
 ! R121  R(106,108)              1.3581         calculate D2E/DX2 analytically  !
 ! R122  R(106,109)              1.5017         calculate D2E/DX2 analytically  !
 ! R123  R(109,111)              1.0948         calculate D2E/DX2 analytically  !
 ! R124  R(109,112)              1.0919         calculate D2E/DX2 analytically  !
 ! R125  R(109,113)              1.0952         calculate D2E/DX2 analytically  !
 ! R126  R(114,115)              1.3504         calculate D2E/DX2 analytically  !
 ! R127  R(114,122)              1.3431         calculate D2E/DX2 analytically  !
 ! R128  R(115,116)              1.3904         calculate D2E/DX2 analytically  !
 ! R129  R(115,117)              1.0829         calculate D2E/DX2 analytically  !
 ! R130  R(116,118)              1.3911         calculate D2E/DX2 analytically  !
 ! R131  R(116,119)              1.0838         calculate D2E/DX2 analytically  !
 ! R132  R(118,120)              1.4077         calculate D2E/DX2 analytically  !
 ! R133  R(118,121)              1.0844         calculate D2E/DX2 analytically  !
 ! R134  R(120,122)              1.4041         calculate D2E/DX2 analytically  !
 ! R135  R(120,123)              1.4201         calculate D2E/DX2 analytically  !
 ! R136  R(122,124)              1.0834         calculate D2E/DX2 analytically  !
 ! R137  R(123,125)              1.2148         calculate D2E/DX2 analytically  !
 ! R138  R(125,126)              1.425          calculate D2E/DX2 analytically  !
 ! R139  R(126,127)              1.4051         calculate D2E/DX2 analytically  !
 ! R140  R(126,134)              1.4099         calculate D2E/DX2 analytically  !
 ! R141  R(127,128)              1.4048         calculate D2E/DX2 analytically  !
 ! R142  R(127,129)              1.0846         calculate D2E/DX2 analytically  !
 ! R143  R(128,130)              1.4248         calculate D2E/DX2 analytically  !
 ! R144  R(128,131)              1.4107         calculate D2E/DX2 analytically  !
 ! R145  R(130,137)              1.215          calculate D2E/DX2 analytically  !
 ! R146  R(131,132)              1.3935         calculate D2E/DX2 analytically  !
 ! R147  R(131,133)              1.085          calculate D2E/DX2 analytically  !
 ! R148  R(132,134)              1.3938         calculate D2E/DX2 analytically  !
 ! R149  R(132,135)              1.0855         calculate D2E/DX2 analytically  !
 ! R150  R(134,136)              1.085          calculate D2E/DX2 analytically  !
 ! R151  R(137,138)              1.4199         calculate D2E/DX2 analytically  !
 ! R152  R(138,139)              1.408          calculate D2E/DX2 analytically  !
 ! R153  R(138,140)              1.4006         calculate D2E/DX2 analytically  !
 ! R154  R(139,141)              1.0846         calculate D2E/DX2 analytically  !
 ! R155  R(139,142)              1.3862         calculate D2E/DX2 analytically  !
 ! R156  R(140,145)              1.3466         calculate D2E/DX2 analytically  !
 ! R157  R(140,147)              1.0835         calculate D2E/DX2 analytically  !
 ! R158  R(142,143)              1.3993         calculate D2E/DX2 analytically  !
 ! R159  R(142,144)              1.0839         calculate D2E/DX2 analytically  !
 ! R160  R(143,145)              1.3581         calculate D2E/DX2 analytically  !
 ! R161  R(143,146)              1.5017         calculate D2E/DX2 analytically  !
 ! R162  R(146,148)              1.0948         calculate D2E/DX2 analytically  !
 ! R163  R(146,149)              1.0952         calculate D2E/DX2 analytically  !
 ! R164  R(146,150)              1.0919         calculate D2E/DX2 analytically  !
 ! A1    A(34,1,40)             89.2297         calculate D2E/DX2 analytically  !
 ! A2    A(34,1,114)            90.7199         calculate D2E/DX2 analytically  !
 ! A3    A(40,1,108)            90.7197         calculate D2E/DX2 analytically  !
 ! A4    A(108,1,114)           89.2298         calculate D2E/DX2 analytically  !
 ! A5    A(3,2,71)              89.2298         calculate D2E/DX2 analytically  !
 ! A6    A(3,2,145)             90.7197         calculate D2E/DX2 analytically  !
 ! A7    A(71,2,77)             90.7197         calculate D2E/DX2 analytically  !
 ! A8    A(77,2,145)            89.2298         calculate D2E/DX2 analytically  !
 ! A9    A(2,3,4)              121.6303         calculate D2E/DX2 analytically  !
 ! A10   A(2,3,11)             118.411          calculate D2E/DX2 analytically  !
 ! A11   A(4,3,11)             119.9093         calculate D2E/DX2 analytically  !
 ! A12   A(3,4,5)              121.346          calculate D2E/DX2 analytically  !
 ! A13   A(3,4,6)              116.8147         calculate D2E/DX2 analytically  !
 ! A14   A(5,4,6)              121.839          calculate D2E/DX2 analytically  !
 ! A15   A(4,5,7)              119.4871         calculate D2E/DX2 analytically  !
 ! A16   A(4,5,8)              119.4163         calculate D2E/DX2 analytically  !
 ! A17   A(7,5,8)              121.0958         calculate D2E/DX2 analytically  !
 ! A18   A(5,7,9)              119.2641         calculate D2E/DX2 analytically  !
 ! A19   A(5,7,10)             120.8506         calculate D2E/DX2 analytically  !
 ! A20   A(9,7,10)             119.8841         calculate D2E/DX2 analytically  !
 ! A21   A(7,9,11)             117.834          calculate D2E/DX2 analytically  !
 ! A22   A(7,9,12)             122.6637         calculate D2E/DX2 analytically  !
 ! A23   A(11,9,12)            119.4991         calculate D2E/DX2 analytically  !
 ! A24   A(3,11,9)             122.1498         calculate D2E/DX2 analytically  !
 ! A25   A(3,11,13)            117.1716         calculate D2E/DX2 analytically  !
 ! A26   A(9,11,13)            120.6786         calculate D2E/DX2 analytically  !
 ! A27   A(14,15,16)           119.8281         calculate D2E/DX2 analytically  !
 ! A28   A(14,15,23)           120.5684         calculate D2E/DX2 analytically  !
 ! A29   A(16,15,23)           119.6034         calculate D2E/DX2 analytically  !
 ! A30   A(15,16,17)           120.2494         calculate D2E/DX2 analytically  !
 ! A31   A(15,16,18)           119.8722         calculate D2E/DX2 analytically  !
 ! A32   A(17,16,18)           119.8781         calculate D2E/DX2 analytically  !
 ! A33   A(16,17,19)           120.2381         calculate D2E/DX2 analytically  !
 ! A34   A(16,17,20)           119.4883         calculate D2E/DX2 analytically  !
 ! A35   A(19,17,20)           120.2727         calculate D2E/DX2 analytically  !
 ! A36   A(17,20,21)           120.1124         calculate D2E/DX2 analytically  !
 ! A37   A(17,20,22)           119.4069         calculate D2E/DX2 analytically  !
 ! A38   A(21,20,22)           120.4802         calculate D2E/DX2 analytically  !
 ! A39   A(20,21,23)           120.5281         calculate D2E/DX2 analytically  !
 ! A40   A(20,21,24)           119.7326         calculate D2E/DX2 analytically  !
 ! A41   A(23,21,24)           119.7392         calculate D2E/DX2 analytically  !
 ! A42   A(15,23,21)           120.0164         calculate D2E/DX2 analytically  !
 ! A43   A(15,23,25)           119.4687         calculate D2E/DX2 analytically  !
 ! A44   A(21,23,25)           120.5146         calculate D2E/DX2 analytically  !
 ! A45   A(26,27,28)           122.1342         calculate D2E/DX2 analytically  !
 ! A46   A(26,27,29)           120.5839         calculate D2E/DX2 analytically  !
 ! A47   A(28,27,29)           117.279          calculate D2E/DX2 analytically  !
 ! A48   A(27,28,30)           119.9559         calculate D2E/DX2 analytically  !
 ! A49   A(27,28,31)           119.3327         calculate D2E/DX2 analytically  !
 ! A50   A(30,28,31)           120.7113         calculate D2E/DX2 analytically  !
 ! A51   A(27,29,34)           122.6374         calculate D2E/DX2 analytically  !
 ! A52   A(27,29,36)           120.3477         calculate D2E/DX2 analytically  !
 ! A53   A(34,29,36)           117.0129         calculate D2E/DX2 analytically  !
 ! A54   A(28,31,32)           120.841          calculate D2E/DX2 analytically  !
 ! A55   A(28,31,33)           120.3132         calculate D2E/DX2 analytically  !
 ! A56   A(32,31,33)           118.8459         calculate D2E/DX2 analytically  !
 ! A57   A(31,32,34)           119.302          calculate D2E/DX2 analytically  !
 ! A58   A(31,32,35)           121.2792         calculate D2E/DX2 analytically  !
 ! A59   A(34,32,35)           119.414          calculate D2E/DX2 analytically  !
 ! A60   A(1,34,29)            116.5892         calculate D2E/DX2 analytically  !
 ! A61   A(1,34,32)            122.7992         calculate D2E/DX2 analytically  !
 ! A62   A(29,34,32)           120.6071         calculate D2E/DX2 analytically  !
 ! A63   A(32,35,37)           111.8036         calculate D2E/DX2 analytically  !
 ! A64   A(32,35,38)           110.5033         calculate D2E/DX2 analytically  !
 ! A65   A(32,35,39)           110.4315         calculate D2E/DX2 analytically  !
 ! A66   A(37,35,38)           107.5121         calculate D2E/DX2 analytically  !
 ! A67   A(37,35,39)           108.3793         calculate D2E/DX2 analytically  !
 ! A68   A(38,35,39)           108.0809         calculate D2E/DX2 analytically  !
 ! A69   A(1,40,41)            121.6304         calculate D2E/DX2 analytically  !
 ! A70   A(1,40,48)            118.4109         calculate D2E/DX2 analytically  !
 ! A71   A(41,40,48)           119.9094         calculate D2E/DX2 analytically  !
 ! A72   A(40,41,42)           121.346          calculate D2E/DX2 analytically  !
 ! A73   A(40,41,43)           116.8147         calculate D2E/DX2 analytically  !
 ! A74   A(42,41,43)           121.839          calculate D2E/DX2 analytically  !
 ! A75   A(41,42,44)           119.4871         calculate D2E/DX2 analytically  !
 ! A76   A(41,42,45)           119.4163         calculate D2E/DX2 analytically  !
 ! A77   A(44,42,45)           121.0958         calculate D2E/DX2 analytically  !
 ! A78   A(42,44,46)           119.2641         calculate D2E/DX2 analytically  !
 ! A79   A(42,44,47)           120.8506         calculate D2E/DX2 analytically  !
 ! A80   A(46,44,47)           119.8841         calculate D2E/DX2 analytically  !
 ! A81   A(44,46,48)           117.834          calculate D2E/DX2 analytically  !
 ! A82   A(44,46,49)           122.6637         calculate D2E/DX2 analytically  !
 ! A83   A(48,46,49)           119.4991         calculate D2E/DX2 analytically  !
 ! A84   A(40,48,46)           122.1498         calculate D2E/DX2 analytically  !
 ! A85   A(40,48,50)           117.1716         calculate D2E/DX2 analytically  !
 ! A86   A(46,48,50)           120.6786         calculate D2E/DX2 analytically  !
 ! A87   A(51,52,53)           119.8281         calculate D2E/DX2 analytically  !
 ! A88   A(51,52,60)           120.5684         calculate D2E/DX2 analytically  !
 ! A89   A(53,52,60)           119.6034         calculate D2E/DX2 analytically  !
 ! A90   A(52,53,54)           120.2494         calculate D2E/DX2 analytically  !
 ! A91   A(52,53,55)           119.8722         calculate D2E/DX2 analytically  !
 ! A92   A(54,53,55)           119.8781         calculate D2E/DX2 analytically  !
 ! A93   A(53,54,56)           120.2381         calculate D2E/DX2 analytically  !
 ! A94   A(53,54,57)           119.4883         calculate D2E/DX2 analytically  !
 ! A95   A(56,54,57)           120.2726         calculate D2E/DX2 analytically  !
 ! A96   A(54,57,58)           120.1123         calculate D2E/DX2 analytically  !
 ! A97   A(54,57,59)           119.4069         calculate D2E/DX2 analytically  !
 ! A98   A(58,57,59)           120.4802         calculate D2E/DX2 analytically  !
 ! A99   A(57,58,60)           120.5281         calculate D2E/DX2 analytically  !
 ! A100  A(57,58,61)           119.7326         calculate D2E/DX2 analytically  !
 ! A101  A(60,58,61)           119.7392         calculate D2E/DX2 analytically  !
 ! A102  A(52,60,58)           120.0164         calculate D2E/DX2 analytically  !
 ! A103  A(52,60,62)           119.4687         calculate D2E/DX2 analytically  !
 ! A104  A(58,60,62)           120.5146         calculate D2E/DX2 analytically  !
 ! A105  A(63,64,65)           122.1342         calculate D2E/DX2 analytically  !
 ! A106  A(63,64,66)           120.5838         calculate D2E/DX2 analytically  !
 ! A107  A(65,64,66)           117.279          calculate D2E/DX2 analytically  !
 ! A108  A(64,65,67)           119.9559         calculate D2E/DX2 analytically  !
 ! A109  A(64,65,68)           119.3327         calculate D2E/DX2 analytically  !
 ! A110  A(67,65,68)           120.7113         calculate D2E/DX2 analytically  !
 ! A111  A(64,66,71)           122.6374         calculate D2E/DX2 analytically  !
 ! A112  A(64,66,73)           120.3477         calculate D2E/DX2 analytically  !
 ! A113  A(71,66,73)           117.0129         calculate D2E/DX2 analytically  !
 ! A114  A(65,68,69)           120.841          calculate D2E/DX2 analytically  !
 ! A115  A(65,68,70)           120.3132         calculate D2E/DX2 analytically  !
 ! A116  A(69,68,70)           118.8459         calculate D2E/DX2 analytically  !
 ! A117  A(68,69,71)           119.302          calculate D2E/DX2 analytically  !
 ! A118  A(68,69,72)           121.2792         calculate D2E/DX2 analytically  !
 ! A119  A(71,69,72)           119.414          calculate D2E/DX2 analytically  !
 ! A120  A(2,71,66)            116.5892         calculate D2E/DX2 analytically  !
 ! A121  A(2,71,69)            122.7992         calculate D2E/DX2 analytically  !
 ! A122  A(66,71,69)           120.6071         calculate D2E/DX2 analytically  !
 ! A123  A(69,72,74)           111.8037         calculate D2E/DX2 analytically  !
 ! A124  A(69,72,75)           110.5033         calculate D2E/DX2 analytically  !
 ! A125  A(69,72,76)           110.4315         calculate D2E/DX2 analytically  !
 ! A126  A(74,72,75)           107.5121         calculate D2E/DX2 analytically  !
 ! A127  A(74,72,76)           108.3793         calculate D2E/DX2 analytically  !
 ! A128  A(75,72,76)           108.0809         calculate D2E/DX2 analytically  !
 ! A129  A(2,77,78)            121.6303         calculate D2E/DX2 analytically  !
 ! A130  A(2,77,85)            118.411          calculate D2E/DX2 analytically  !
 ! A131  A(78,77,85)           119.9093         calculate D2E/DX2 analytically  !
 ! A132  A(77,78,79)           121.346          calculate D2E/DX2 analytically  !
 ! A133  A(77,78,80)           116.8147         calculate D2E/DX2 analytically  !
 ! A134  A(79,78,80)           121.839          calculate D2E/DX2 analytically  !
 ! A135  A(78,79,81)           119.4872         calculate D2E/DX2 analytically  !
 ! A136  A(78,79,82)           119.4163         calculate D2E/DX2 analytically  !
 ! A137  A(81,79,82)           121.0958         calculate D2E/DX2 analytically  !
 ! A138  A(79,81,83)           119.2641         calculate D2E/DX2 analytically  !
 ! A139  A(79,81,84)           120.8506         calculate D2E/DX2 analytically  !
 ! A140  A(83,81,84)           119.8841         calculate D2E/DX2 analytically  !
 ! A141  A(81,83,85)           117.834          calculate D2E/DX2 analytically  !
 ! A142  A(81,83,86)           122.6637         calculate D2E/DX2 analytically  !
 ! A143  A(85,83,86)           119.4991         calculate D2E/DX2 analytically  !
 ! A144  A(77,85,83)           122.1498         calculate D2E/DX2 analytically  !
 ! A145  A(77,85,87)           117.1716         calculate D2E/DX2 analytically  !
 ! A146  A(83,85,87)           120.6786         calculate D2E/DX2 analytically  !
 ! A147  A(88,89,90)           119.8281         calculate D2E/DX2 analytically  !
 ! A148  A(88,89,97)           120.5684         calculate D2E/DX2 analytically  !
 ! A149  A(90,89,97)           119.6034         calculate D2E/DX2 analytically  !
 ! A150  A(89,90,91)           120.2494         calculate D2E/DX2 analytically  !
 ! A151  A(89,90,92)           119.8722         calculate D2E/DX2 analytically  !
 ! A152  A(91,90,92)           119.8781         calculate D2E/DX2 analytically  !
 ! A153  A(90,91,93)           120.2381         calculate D2E/DX2 analytically  !
 ! A154  A(90,91,94)           119.4883         calculate D2E/DX2 analytically  !
 ! A155  A(93,91,94)           120.2726         calculate D2E/DX2 analytically  !
 ! A156  A(91,94,95)           120.1123         calculate D2E/DX2 analytically  !
 ! A157  A(91,94,96)           119.4069         calculate D2E/DX2 analytically  !
 ! A158  A(95,94,96)           120.4802         calculate D2E/DX2 analytically  !
 ! A159  A(94,95,97)           120.5281         calculate D2E/DX2 analytically  !
 ! A160  A(94,95,98)           119.7326         calculate D2E/DX2 analytically  !
 ! A161  A(97,95,98)           119.7392         calculate D2E/DX2 analytically  !
 ! A162  A(89,97,95)           120.0164         calculate D2E/DX2 analytically  !
 ! A163  A(89,97,99)           119.4687         calculate D2E/DX2 analytically  !
 ! A164  A(95,97,99)           120.5146         calculate D2E/DX2 analytically  !
 ! A165  A(100,101,102)        122.1342         calculate D2E/DX2 analytically  !
 ! A166  A(100,101,103)        120.5839         calculate D2E/DX2 analytically  !
 ! A167  A(102,101,103)        117.279          calculate D2E/DX2 analytically  !
 ! A168  A(101,102,104)        119.9559         calculate D2E/DX2 analytically  !
 ! A169  A(101,102,105)        119.3327         calculate D2E/DX2 analytically  !
 ! A170  A(104,102,105)        120.7113         calculate D2E/DX2 analytically  !
 ! A171  A(101,103,108)        122.6374         calculate D2E/DX2 analytically  !
 ! A172  A(101,103,110)        120.3477         calculate D2E/DX2 analytically  !
 ! A173  A(108,103,110)        117.0129         calculate D2E/DX2 analytically  !
 ! A174  A(102,105,106)        120.841          calculate D2E/DX2 analytically  !
 ! A175  A(102,105,107)        120.3132         calculate D2E/DX2 analytically  !
 ! A176  A(106,105,107)        118.8458         calculate D2E/DX2 analytically  !
 ! A177  A(105,106,108)        119.302          calculate D2E/DX2 analytically  !
 ! A178  A(105,106,109)        121.2792         calculate D2E/DX2 analytically  !
 ! A179  A(108,106,109)        119.414          calculate D2E/DX2 analytically  !
 ! A180  A(1,108,103)          116.5892         calculate D2E/DX2 analytically  !
 ! A181  A(1,108,106)          122.7992         calculate D2E/DX2 analytically  !
 ! A182  A(103,108,106)        120.6071         calculate D2E/DX2 analytically  !
 ! A183  A(106,109,111)        111.8037         calculate D2E/DX2 analytically  !
 ! A184  A(106,109,112)        110.4315         calculate D2E/DX2 analytically  !
 ! A185  A(106,109,113)        110.5032         calculate D2E/DX2 analytically  !
 ! A186  A(111,109,112)        108.3794         calculate D2E/DX2 analytically  !
 ! A187  A(111,109,113)        107.5121         calculate D2E/DX2 analytically  !
 ! A188  A(112,109,113)        108.0809         calculate D2E/DX2 analytically  !
 ! A189  A(1,114,115)          121.6303         calculate D2E/DX2 analytically  !
 ! A190  A(1,114,122)          118.411          calculate D2E/DX2 analytically  !
 ! A191  A(115,114,122)        119.9093         calculate D2E/DX2 analytically  !
 ! A192  A(114,115,116)        121.346          calculate D2E/DX2 analytically  !
 ! A193  A(114,115,117)        116.8147         calculate D2E/DX2 analytically  !
 ! A194  A(116,115,117)        121.839          calculate D2E/DX2 analytically  !
 ! A195  A(115,116,118)        119.4871         calculate D2E/DX2 analytically  !
 ! A196  A(115,116,119)        119.4163         calculate D2E/DX2 analytically  !
 ! A197  A(118,116,119)        121.0958         calculate D2E/DX2 analytically  !
 ! A198  A(116,118,120)        119.2641         calculate D2E/DX2 analytically  !
 ! A199  A(116,118,121)        120.8506         calculate D2E/DX2 analytically  !
 ! A200  A(120,118,121)        119.8841         calculate D2E/DX2 analytically  !
 ! A201  A(118,120,122)        117.834          calculate D2E/DX2 analytically  !
 ! A202  A(118,120,123)        122.6637         calculate D2E/DX2 analytically  !
 ! A203  A(122,120,123)        119.4991         calculate D2E/DX2 analytically  !
 ! A204  A(114,122,120)        122.1498         calculate D2E/DX2 analytically  !
 ! A205  A(114,122,124)        117.1716         calculate D2E/DX2 analytically  !
 ! A206  A(120,122,124)        120.6786         calculate D2E/DX2 analytically  !
 ! A207  A(125,126,127)        119.8281         calculate D2E/DX2 analytically  !
 ! A208  A(125,126,134)        120.5684         calculate D2E/DX2 analytically  !
 ! A209  A(127,126,134)        119.6034         calculate D2E/DX2 analytically  !
 ! A210  A(126,127,128)        120.2494         calculate D2E/DX2 analytically  !
 ! A211  A(126,127,129)        119.8722         calculate D2E/DX2 analytically  !
 ! A212  A(128,127,129)        119.8781         calculate D2E/DX2 analytically  !
 ! A213  A(127,128,130)        120.2381         calculate D2E/DX2 analytically  !
 ! A214  A(127,128,131)        119.4883         calculate D2E/DX2 analytically  !
 ! A215  A(130,128,131)        120.2726         calculate D2E/DX2 analytically  !
 ! A216  A(128,131,132)        120.1123         calculate D2E/DX2 analytically  !
 ! A217  A(128,131,133)        119.4069         calculate D2E/DX2 analytically  !
 ! A218  A(132,131,133)        120.4802         calculate D2E/DX2 analytically  !
 ! A219  A(131,132,134)        120.5281         calculate D2E/DX2 analytically  !
 ! A220  A(131,132,135)        119.7326         calculate D2E/DX2 analytically  !
 ! A221  A(134,132,135)        119.7392         calculate D2E/DX2 analytically  !
 ! A222  A(126,134,132)        120.0164         calculate D2E/DX2 analytically  !
 ! A223  A(126,134,136)        119.4687         calculate D2E/DX2 analytically  !
 ! A224  A(132,134,136)        120.5146         calculate D2E/DX2 analytically  !
 ! A225  A(137,138,139)        122.1342         calculate D2E/DX2 analytically  !
 ! A226  A(137,138,140)        120.5838         calculate D2E/DX2 analytically  !
 ! A227  A(139,138,140)        117.279          calculate D2E/DX2 analytically  !
 ! A228  A(138,139,141)        119.956          calculate D2E/DX2 analytically  !
 ! A229  A(138,139,142)        119.3327         calculate D2E/DX2 analytically  !
 ! A230  A(141,139,142)        120.7113         calculate D2E/DX2 analytically  !
 ! A231  A(138,140,145)        122.6374         calculate D2E/DX2 analytically  !
 ! A232  A(138,140,147)        120.3477         calculate D2E/DX2 analytically  !
 ! A233  A(145,140,147)        117.0129         calculate D2E/DX2 analytically  !
 ! A234  A(139,142,143)        120.841          calculate D2E/DX2 analytically  !
 ! A235  A(139,142,144)        120.3132         calculate D2E/DX2 analytically  !
 ! A236  A(143,142,144)        118.8458         calculate D2E/DX2 analytically  !
 ! A237  A(142,143,145)        119.302          calculate D2E/DX2 analytically  !
 ! A238  A(142,143,146)        121.2792         calculate D2E/DX2 analytically  !
 ! A239  A(145,143,146)        119.414          calculate D2E/DX2 analytically  !
 ! A240  A(2,145,140)          116.5892         calculate D2E/DX2 analytically  !
 ! A241  A(2,145,143)          122.7992         calculate D2E/DX2 analytically  !
 ! A242  A(140,145,143)        120.607          calculate D2E/DX2 analytically  !
 ! A243  A(143,146,148)        111.8037         calculate D2E/DX2 analytically  !
 ! A244  A(143,146,149)        110.5033         calculate D2E/DX2 analytically  !
 ! A245  A(143,146,150)        110.4315         calculate D2E/DX2 analytically  !
 ! A246  A(148,146,149)        107.5121         calculate D2E/DX2 analytically  !
 ! A247  A(148,146,150)        108.3793         calculate D2E/DX2 analytically  !
 ! A248  A(149,146,150)        108.0809         calculate D2E/DX2 analytically  !
 ! A249  L(34,1,108,114,-1)    179.9496         calculate D2E/DX2 analytically  !
 ! A250  L(40,1,114,108,-1)    179.9495         calculate D2E/DX2 analytically  !
 ! A251  L(3,2,77,145,-1)      179.9495         calculate D2E/DX2 analytically  !
 ! A252  L(71,2,145,77,-1)     179.9495         calculate D2E/DX2 analytically  !
 ! A253  L(9,12,14,52,-1)      178.6771         calculate D2E/DX2 analytically  !
 ! A254  L(12,14,15,49,-1)     179.5166         calculate D2E/DX2 analytically  !
 ! A255  L(17,19,26,51,-1)     179.9706         calculate D2E/DX2 analytically  !
 ! A256  L(19,26,27,49,-1)     180.7781         calculate D2E/DX2 analytically  !
 ! A257  L(46,49,51,15,-1)     178.6772         calculate D2E/DX2 analytically  !
 ! A258  L(49,51,52,12,-1)     179.5166         calculate D2E/DX2 analytically  !
 ! A259  L(54,56,63,14,-1)     179.9706         calculate D2E/DX2 analytically  !
 ! A260  L(56,63,64,12,-1)     180.7779         calculate D2E/DX2 analytically  !
 ! A261  L(83,86,88,14,-1)     178.3792         calculate D2E/DX2 analytically  !
 ! A262  L(86,88,89,15,-1)     179.5402         calculate D2E/DX2 analytically  !
 ! A263  L(91,93,100,5,-1)     180.671          calculate D2E/DX2 analytically  !
 ! A264  L(93,100,101,10,-1)   181.1433         calculate D2E/DX2 analytically  !
 ! A265  L(120,123,125,15,-1)  178.8393         calculate D2E/DX2 analytically  !
 ! A266  L(123,125,126,12,-1)  179.6473         calculate D2E/DX2 analytically  !
 ! A267  L(128,130,137,14,-1)  180.7476         calculate D2E/DX2 analytically  !
 ! A268  L(130,137,138,12,-1)  180.8118         calculate D2E/DX2 analytically  !
 ! A269  L(34,1,108,114,-2)    181.5432         calculate D2E/DX2 analytically  !
 ! A270  L(40,1,114,108,-2)    176.2522         calculate D2E/DX2 analytically  !
 ! A271  L(3,2,77,145,-2)      176.2523         calculate D2E/DX2 analytically  !
 ! A272  L(71,2,145,77,-2)     181.543          calculate D2E/DX2 analytically  !
 ! A273  L(9,12,14,52,-2)      178.9615         calculate D2E/DX2 analytically  !
 ! A274  L(12,14,15,49,-2)     179.8424         calculate D2E/DX2 analytically  !
 ! A275  L(17,19,26,51,-2)     180.7697         calculate D2E/DX2 analytically  !
 ! A276  L(19,26,27,49,-2)     180.9285         calculate D2E/DX2 analytically  !
 ! A277  L(46,49,51,15,-2)     178.9615         calculate D2E/DX2 analytically  !
 ! A278  L(49,51,52,12,-2)     179.8424         calculate D2E/DX2 analytically  !
 ! A279  L(54,56,63,14,-2)     180.7698         calculate D2E/DX2 analytically  !
 ! A280  L(56,63,64,12,-2)     180.9286         calculate D2E/DX2 analytically  !
 ! A281  L(83,86,88,14,-2)     180.4859         calculate D2E/DX2 analytically  !
 ! A282  L(86,88,89,15,-2)     180.2332         calculate D2E/DX2 analytically  !
 ! A283  L(91,93,100,5,-2)     180.3478         calculate D2E/DX2 analytically  !
 ! A284  L(93,100,101,10,-2)   179.632          calculate D2E/DX2 analytically  !
 ! A285  L(120,123,125,15,-2)  181.2777         calculate D2E/DX2 analytically  !
 ! A286  L(123,125,126,12,-2)  180.3848         calculate D2E/DX2 analytically  !
 ! A287  L(128,130,137,14,-2)  179.9134         calculate D2E/DX2 analytically  !
 ! A288  L(130,137,138,12,-2)  178.9864         calculate D2E/DX2 analytically  !
 ! D1    D(40,1,34,29)         -69.0733         calculate D2E/DX2 analytically  !
 ! D2    D(40,1,34,32)         110.153          calculate D2E/DX2 analytically  !
 ! D3    D(114,1,34,29)        107.1789         calculate D2E/DX2 analytically  !
 ! D4    D(114,1,34,32)        -73.5948         calculate D2E/DX2 analytically  !
 ! D5    D(4,3,77,78)           60.6269         calculate D2E/DX2 analytically  !
 ! D6    D(4,3,77,85)         -122.9702         calculate D2E/DX2 analytically  !
 ! D7    D(11,3,77,78)        -122.9702         calculate D2E/DX2 analytically  !
 ! D8    D(11,3,77,85)          53.4328         calculate D2E/DX2 analytically  !
 ! D9    D(7,9,15,16)          148.734          calculate D2E/DX2 analytically  !
 ! D10   D(7,9,15,23)          -30.9393         calculate D2E/DX2 analytically  !
 ! D11   D(11,9,15,16)         -29.6316         calculate D2E/DX2 analytically  !
 ! D12   D(11,9,15,23)         150.6952         calculate D2E/DX2 analytically  !
 ! D13   D(16,17,27,28)        163.92           calculate D2E/DX2 analytically  !
 ! D14   D(16,17,27,29)        -17.2752         calculate D2E/DX2 analytically  !
 ! D15   D(20,17,27,28)        -16.8247         calculate D2E/DX2 analytically  !
 ! D16   D(20,17,27,29)        161.9801         calculate D2E/DX2 analytically  !
 ! D17   D(29,34,108,103)       37.8777         calculate D2E/DX2 analytically  !
 ! D18   D(29,34,108,106)     -142.6131         calculate D2E/DX2 analytically  !
 ! D19   D(32,34,108,103)     -142.6133         calculate D2E/DX2 analytically  !
 ! D20   D(32,34,108,106)       36.8959         calculate D2E/DX2 analytically  !
 ! D21   D(34,1,40,41)         -61.0298         calculate D2E/DX2 analytically  !
 ! D22   D(34,1,40,48)         116.4125         calculate D2E/DX2 analytically  !
 ! D23   D(108,1,40,41)        120.5133         calculate D2E/DX2 analytically  !
 ! D24   D(108,1,40,48)        -62.0444         calculate D2E/DX2 analytically  !
 ! D25   D(41,40,114,115)       60.6269         calculate D2E/DX2 analytically  !
 ! D26   D(41,40,114,122)     -122.9703         calculate D2E/DX2 analytically  !
 ! D27   D(48,40,114,115)     -122.9701         calculate D2E/DX2 analytically  !
 ! D28   D(48,40,114,122)       53.4327         calculate D2E/DX2 analytically  !
 ! D29   D(40,1,108,103)       107.1785         calculate D2E/DX2 analytically  !
 ! D30   D(40,1,108,106)       -73.5951         calculate D2E/DX2 analytically  !
 ! D31   D(114,1,108,103)      -69.0737         calculate D2E/DX2 analytically  !
 ! D32   D(114,1,108,106)      110.1527         calculate D2E/DX2 analytically  !
 ! D33   D(34,1,114,115)       120.5136         calculate D2E/DX2 analytically  !
 ! D34   D(34,1,114,122)       -62.0442         calculate D2E/DX2 analytically  !
 ! D35   D(108,1,114,115)      -61.0295         calculate D2E/DX2 analytically  !
 ! D36   D(108,1,114,122)      116.4127         calculate D2E/DX2 analytically  !
 ! D37   D(71,2,3,4)           -61.0297         calculate D2E/DX2 analytically  !
 ! D38   D(71,2,3,11)          116.4125         calculate D2E/DX2 analytically  !
 ! D39   D(145,2,3,4)          120.5133         calculate D2E/DX2 analytically  !
 ! D40   D(145,2,3,11)         -62.0444         calculate D2E/DX2 analytically  !
 ! D41   D(3,2,71,66)          -69.0737         calculate D2E/DX2 analytically  !
 ! D42   D(3,2,71,69)          110.1526         calculate D2E/DX2 analytically  !
 ! D43   D(77,2,71,66)         107.1786         calculate D2E/DX2 analytically  !
 ! D44   D(77,2,71,69)         -73.5952         calculate D2E/DX2 analytically  !
 ! D45   D(44,46,52,53)        148.7343         calculate D2E/DX2 analytically  !
 ! D46   D(44,46,52,60)        -30.9389         calculate D2E/DX2 analytically  !
 ! D47   D(48,46,52,53)        -29.6313         calculate D2E/DX2 analytically  !
 ! D48   D(48,46,52,60)        150.6955         calculate D2E/DX2 analytically  !
 ! D49   D(53,54,64,65)        163.9204         calculate D2E/DX2 analytically  !
 ! D50   D(53,54,64,66)        -17.2752         calculate D2E/DX2 analytically  !
 ! D51   D(57,54,64,65)        -16.8246         calculate D2E/DX2 analytically  !
 ! D52   D(57,54,64,66)        161.9799         calculate D2E/DX2 analytically  !
 ! D53   D(66,71,145,140)       37.8774         calculate D2E/DX2 analytically  !
 ! D54   D(66,71,145,143)     -142.6136         calculate D2E/DX2 analytically  !
 ! D55   D(69,71,145,140)     -142.6136         calculate D2E/DX2 analytically  !
 ! D56   D(69,71,145,143)       36.8954         calculate D2E/DX2 analytically  !
 ! D57   D(71,2,77,78)         120.5135         calculate D2E/DX2 analytically  !
 ! D58   D(71,2,77,85)         -62.0442         calculate D2E/DX2 analytically  !
 ! D59   D(145,2,77,78)        -61.0295         calculate D2E/DX2 analytically  !
 ! D60   D(145,2,77,85)        116.4127         calculate D2E/DX2 analytically  !
 ! D61   D(3,2,145,140)        107.1786         calculate D2E/DX2 analytically  !
 ! D62   D(3,2,145,143)        -73.5952         calculate D2E/DX2 analytically  !
 ! D63   D(77,2,145,140)       -69.0737         calculate D2E/DX2 analytically  !
 ! D64   D(77,2,145,143)       110.1526         calculate D2E/DX2 analytically  !
 ! D65   D(2,3,4,5)            178.027          calculate D2E/DX2 analytically  !
 ! D66   D(2,3,4,6)             -2.1867         calculate D2E/DX2 analytically  !
 ! D67   D(11,3,4,5)             0.6224         calculate D2E/DX2 analytically  !
 ! D68   D(11,3,4,6)          -179.5913         calculate D2E/DX2 analytically  !
 ! D69   D(2,3,11,9)          -177.2172         calculate D2E/DX2 analytically  !
 ! D70   D(2,3,11,13)            2.7599         calculate D2E/DX2 analytically  !
 ! D71   D(4,3,11,9)             0.2704         calculate D2E/DX2 analytically  !
 ! D72   D(4,3,11,13)         -179.7524         calculate D2E/DX2 analytically  !
 ! D73   D(3,4,5,7)             -0.8005         calculate D2E/DX2 analytically  !
 ! D74   D(3,4,5,8)            179.5061         calculate D2E/DX2 analytically  !
 ! D75   D(6,4,5,7)            179.424          calculate D2E/DX2 analytically  !
 ! D76   D(6,4,5,8)             -0.2694         calculate D2E/DX2 analytically  !
 ! D77   D(4,5,7,9)              0.0933         calculate D2E/DX2 analytically  !
 ! D78   D(4,5,7,10)          -179.5126         calculate D2E/DX2 analytically  !
 ! D79   D(8,5,7,9)            179.7814         calculate D2E/DX2 analytically  !
 ! D80   D(8,5,7,10)             0.1755         calculate D2E/DX2 analytically  !
 ! D81   D(5,7,9,11)             0.7383         calculate D2E/DX2 analytically  !
 ! D82   D(5,7,9,12)          -178.6003         calculate D2E/DX2 analytically  !
 ! D83   D(10,7,9,11)         -179.652          calculate D2E/DX2 analytically  !
 ! D84   D(10,7,9,12)            1.0095         calculate D2E/DX2 analytically  !
 ! D85   D(7,9,11,3)            -0.9454         calculate D2E/DX2 analytically  !
 ! D86   D(7,9,11,13)          179.0782         calculate D2E/DX2 analytically  !
 ! D87   D(12,9,11,3)          178.4148         calculate D2E/DX2 analytically  !
 ! D88   D(12,9,11,13)          -1.5615         calculate D2E/DX2 analytically  !
 ! D89   D(14,15,16,17)       -179.8835         calculate D2E/DX2 analytically  !
 ! D90   D(14,15,16,18)         -0.1081         calculate D2E/DX2 analytically  !
 ! D91   D(23,15,16,17)          0.005          calculate D2E/DX2 analytically  !
 ! D92   D(23,15,16,18)        179.7804         calculate D2E/DX2 analytically  !
 ! D93   D(14,15,23,21)       -179.7743         calculate D2E/DX2 analytically  !
 ! D94   D(14,15,23,25)          0.0349         calculate D2E/DX2 analytically  !
 ! D95   D(16,15,23,21)          0.338          calculate D2E/DX2 analytically  !
 ! D96   D(16,15,23,25)       -179.8528         calculate D2E/DX2 analytically  !
 ! D97   D(15,16,17,19)        179.2625         calculate D2E/DX2 analytically  !
 ! D98   D(15,16,17,20)         -0.3877         calculate D2E/DX2 analytically  !
 ! D99   D(18,16,17,19)         -0.5128         calculate D2E/DX2 analytically  !
 ! D100  D(18,16,17,20)        179.8369         calculate D2E/DX2 analytically  !
 ! D101  D(16,17,20,21)          0.4331         calculate D2E/DX2 analytically  !
 ! D102  D(16,17,20,22)       -179.8303         calculate D2E/DX2 analytically  !
 ! D103  D(19,17,20,21)       -179.2171         calculate D2E/DX2 analytically  !
 ! D104  D(19,17,20,22)          0.5196         calculate D2E/DX2 analytically  !
 ! D105  D(17,20,21,23)         -0.0924         calculate D2E/DX2 analytically  !
 ! D106  D(17,20,21,24)        179.8188         calculate D2E/DX2 analytically  !
 ! D107  D(22,20,21,23)       -179.8262         calculate D2E/DX2 analytically  !
 ! D108  D(22,20,21,24)          0.085          calculate D2E/DX2 analytically  !
 ! D109  D(20,21,23,15)         -0.295          calculate D2E/DX2 analytically  !
 ! D110  D(20,21,23,25)        179.8978         calculate D2E/DX2 analytically  !
 ! D111  D(24,21,23,15)        179.7938         calculate D2E/DX2 analytically  !
 ! D112  D(24,21,23,25)         -0.0135         calculate D2E/DX2 analytically  !
 ! D113  D(26,27,28,30)         -0.3104         calculate D2E/DX2 analytically  !
 ! D114  D(26,27,28,31)        179.6089         calculate D2E/DX2 analytically  !
 ! D115  D(29,27,28,30)       -179.683          calculate D2E/DX2 analytically  !
 ! D116  D(29,27,28,31)          0.2364         calculate D2E/DX2 analytically  !
 ! D117  D(26,27,29,34)       -179.5227         calculate D2E/DX2 analytically  !
 ! D118  D(26,27,29,36)         -0.0563         calculate D2E/DX2 analytically  !
 ! D119  D(28,27,29,34)         -0.1399         calculate D2E/DX2 analytically  !
 ! D120  D(28,27,29,36)        179.3265         calculate D2E/DX2 analytically  !
 ! D121  D(27,28,31,32)         -0.0689         calculate D2E/DX2 analytically  !
 ! D122  D(27,28,31,33)        179.9488         calculate D2E/DX2 analytically  !
 ! D123  D(30,28,31,32)        179.8499         calculate D2E/DX2 analytically  !
 ! D124  D(30,28,31,33)         -0.1324         calculate D2E/DX2 analytically  !
 ! D125  D(27,29,34,1)         179.1061         calculate D2E/DX2 analytically  !
 ! D126  D(27,29,34,32)         -0.1382         calculate D2E/DX2 analytically  !
 ! D127  D(36,29,34,1)          -0.377          calculate D2E/DX2 analytically  !
 ! D128  D(36,29,34,32)       -179.6214         calculate D2E/DX2 analytically  !
 ! D129  D(28,31,32,34)         -0.2087         calculate D2E/DX2 analytically  !
 ! D130  D(28,31,32,35)        178.9865         calculate D2E/DX2 analytically  !
 ! D131  D(33,31,32,34)        179.7738         calculate D2E/DX2 analytically  !
 ! D132  D(33,31,32,35)         -1.031          calculate D2E/DX2 analytically  !
 ! D133  D(31,32,34,1)        -178.8844         calculate D2E/DX2 analytically  !
 ! D134  D(31,32,34,29)          0.3117         calculate D2E/DX2 analytically  !
 ! D135  D(35,32,34,1)           1.9052         calculate D2E/DX2 analytically  !
 ! D136  D(35,32,34,29)       -178.8987         calculate D2E/DX2 analytically  !
 ! D137  D(31,32,35,37)        130.5785         calculate D2E/DX2 analytically  !
 ! D138  D(31,32,35,38)       -109.7116         calculate D2E/DX2 analytically  !
 ! D139  D(31,32,35,39)          9.8197         calculate D2E/DX2 analytically  !
 ! D140  D(34,32,35,37)        -50.2272         calculate D2E/DX2 analytically  !
 ! D141  D(34,32,35,38)         69.4826         calculate D2E/DX2 analytically  !
 ! D142  D(34,32,35,39)       -170.986          calculate D2E/DX2 analytically  !
 ! D143  D(1,40,41,42)         178.027          calculate D2E/DX2 analytically  !
 ! D144  D(1,40,41,43)          -2.1866         calculate D2E/DX2 analytically  !
 ! D145  D(48,40,41,42)          0.6224         calculate D2E/DX2 analytically  !
 ! D146  D(48,40,41,43)       -179.5913         calculate D2E/DX2 analytically  !
 ! D147  D(1,40,48,46)        -177.2172         calculate D2E/DX2 analytically  !
 ! D148  D(1,40,48,50)           2.7599         calculate D2E/DX2 analytically  !
 ! D149  D(41,40,48,46)          0.2704         calculate D2E/DX2 analytically  !
 ! D150  D(41,40,48,50)       -179.7525         calculate D2E/DX2 analytically  !
 ! D151  D(40,41,42,44)         -0.8005         calculate D2E/DX2 analytically  !
 ! D152  D(40,41,42,45)        179.5061         calculate D2E/DX2 analytically  !
 ! D153  D(43,41,42,44)        179.424          calculate D2E/DX2 analytically  !
 ! D154  D(43,41,42,45)         -0.2694         calculate D2E/DX2 analytically  !
 ! D155  D(41,42,44,46)          0.0933         calculate D2E/DX2 analytically  !
 ! D156  D(41,42,44,47)       -179.5126         calculate D2E/DX2 analytically  !
 ! D157  D(45,42,44,46)        179.7814         calculate D2E/DX2 analytically  !
 ! D158  D(45,42,44,47)          0.1755         calculate D2E/DX2 analytically  !
 ! D159  D(42,44,46,48)          0.7383         calculate D2E/DX2 analytically  !
 ! D160  D(42,44,46,49)       -178.6003         calculate D2E/DX2 analytically  !
 ! D161  D(47,44,46,48)       -179.6519         calculate D2E/DX2 analytically  !
 ! D162  D(47,44,46,49)          1.0095         calculate D2E/DX2 analytically  !
[...]
 417137,0.03025622,0.00293588,0.00244943,0.02299790,0.04783855,0.000000
 36,0.00000183,0.00000076,-0.00037879,0.00023924,0.00056340,0.00004838,
 0.00004137,0.00001299,-0.00008807,0.00003173,0.00004663,0.00001700,-0.
 00000682,0.00000610,0.00000373,-0.00000789,-0.00001563,0.00000307,-0.0
 0000025,0.00000087,0.00000074,-0.00000622,0.00000257,0.00001943,0.0000
 0625,-0.00001100,0.00000001,-0.00000306,-0.00000099,0.00005055,0.00001
 616,-0.00000597,-0.00001120,-0.00000854,0.00000565,0.00001660,0.000008
 04,-0.00000110,0.00000292,0.00000040,-0.00000101,0.00000230,0.00000125
 ,-0.00000143,-0.00000068,-0.00000223,0.00000179,0.00000015,-0.00000080
 ,0.00000131,0.00000068,0.00000010,-0.00000019,0.00000057,-0.00000074,0
 .00000053,-0.00000206,-0.00000023,0.00000087,-0.00000069,0.00000004,-0
 .00000027,-0.00000028,-0.00000007,0.00000012,-0.00000389,0.00000217,-0
 .00000021,-0.00000045,-0.00000049,0.00000049,0.00000046,-0.00000010,-0
 .00000013,-0.00000126,0.00000062,-0.00000013,0.00000086,-0.00000057,0.
 00000068,0.00000006,0.00000020,-0.00000033,-0.00000020,0.00000015,-0.0
 0000064,0.00000006,0.00000001,0.00000002,-0.00000015,0.00000010,-0.000
 00015,0.00000041,-0.00000016,0.00000003,-0.00000010,0.00000002,0.00000
 007,-0.00000038,-0.00000006,0.00000025,-0.00000012,0.00000021,0.000000
 07,0.00000001,0.,0.00000019,0.00000011,0.,-0.00000012,0.00000011,0.000
 00009,-0.00000025,-0.00000010,-0.00000011,0.00000008,-0.00000015,-0.00
 000035,-0.00000017,0.00000022,-0.00000005,-0.00000012,-0.00000006,0.00
 000001,0.00000004,0.00000003,0.00000008,0.00000008,-0.00000005,0.00000
 021,0.00000007,-0.00000005,-0.00000007,0.,0.00000070,-0.00000050,-0.00
 000049,0.00000006,-0.00000003,0.,-0.00000056,0.00000045,0.00000036,-0.
 00000088,0.00000005,0.00000046,0.00000018,-0.00000051,0.00000005,0.000
 00052,-0.00000029,-0.00000054,0.00000008,-0.00000046,-0.00000055,-0.00
 000048,-0.00000081,-0.00000105,0.00000168,0.00000113,0.00000101,0.0000
 0025,0.00000011,0.00000005,-0.00000062,-0.00000006,-0.00000010,-0.0000
 0199,-0.00000007,0.00000076,-0.00000033,0.00000014,0.00000012,0.000000
 24,0.00000011,0.00000008,-0.00000108,-0.00000054,-0.00000016,-0.000000
 19,-0.00000025,-0.00000026,-0.00000018,-0.00000007,-0.00000006,-0.0000
 0149,-0.00000362,-0.00000616,0.00000236,0.00000077,-0.00000700,-0.0000
 1068,-0.00000265,-0.00000010,0.00005109,0.00002278,-0.00000920,0.00000
 031,-0.00000130,-0.00000036,0.00002721,0.00001264,-0.00000435,-0.00007
 219,-0.00004479,-0.00003200,-0.00000045,-0.00000357,-0.00000760,0.0000
 8095,-0.00003266,-0.00006459,-0.00001610,0.00002002,0.00000334,0.00000
 200,0.00000467,0.00001349,0.00000419,-0.00002109,-0.00002915,0.0000003
 6,0.00000032,-0.00000038,0.00000986,-0.00000188,0.00001004,-0.00000883
 ,0.00002023,0.00002181,-0.00004748,-0.00000613,-0.00001525,0.00001740,
 0.00000326,0.00000493,-0.00001583,0.00003394,0.00001275,-0.00000646,0.
 00000004,-0.00000123,0.00000044,0.00000502,-0.00000335,0.00000823,0.00
 000136,0.00000144,-0.00000003,0.00000146,0.00000036,0.00003446,0.00001
 400,0.00001601,-0.00000555,0.00000565,-0.00000394,0.00000309,0.0000024
 1,0.00000119,0.00000133,0.00000011,0.00000058,0.00000147,-0.00000093,0
 .00000094,-0.00000040,0.00000130,-0.00000110,0.00000017,0.00000057,-0.
 00000087,0.00000043,0.00000006,0.00000025,0.00000047,0.00000058,-0.000
 00038,-0.00000133,0.00000013,-0.00000058,-0.00000055,-0.00000010,0.000
 00021,-0.00000022,0.00000005,-0.00000010,-0.00000239,-0.00000126,0.000
 00022,-0.00000025,0.00000028,-0.00000034,0.00000030,-0.00000007,0.0000
 0008,-0.00000102,-0.00000056,0.00000006,0.00000068,0.00000058,-0.00000
 065,0.00000012,-0.00000012,0.00000026,-0.00000007,-0.00000015,0.000000
 70,0.00000005,0.00000001,-0.00000001,-0.00000021,-0.00000017,0.0000002
 2,0.00000044,0.00000033,-0.00000007,-0.00000009,0.,-0.00000007,-0.0000
 0030,0.00000005,-0.00000019,-0.00000008,-0.00000012,0.00000009,-0.0000
 0003,0.00000012,-0.00000006,0.00000014,0.00000007,0.00000012,-0.000000
 09,0.00000001,-0.00000008,-0.00000004,-0.00000007,0.00000007,-0.000000
 75,-0.00000054,-0.00000093,-0.00000184,-0.00000121,-0.00000158,0.00000
 088,0.00000018,0.00000091,0.00000005,-0.00000014,-0.00000011,-0.000003
 03,-0.00000125,-0.00000192,-0.00000036,0.00000004,-0.00000028,0.000009
 02,0.00000303,0.00000575,0.00000037,0.,0.00000011,-0.00000236,-0.00000
 169,-0.00000177,-0.00001317,-0.00000296,-0.00000799,0.00000025,0.00000
 076,0.00000011,0.00000904,0.00000424,0.00000797,0.00000178,0.00001164,
 0.00001014,-0.00000209,0.00001157,0.00002137,0.00001609,-0.00000936,-0
 .00001355,0.00000186,-0.00000172,-0.00000058,0.00002063,-0.00001402,-0
 .00001092,-0.00002536,-0.00000045,-0.00001386,-0.00000703,-0.00000635,
 -0.00000406,0.00000294,-0.00000033,-0.00000085,-0.00002035,0.00000867,
 0.00000285,-0.00000235,0.00000305,0.00000318,-0.00000181,0.00000070,0.
 00000029,-0.00004687,0.00004014,0.00012249,0.00013072,-0.00006580,0.00
 010797,0.00019681,0.00001293,-0.00006820,-0.00006650,-0.00005352,-0.00
 119843,0.00002618,-0.00004436,-0.00000012,0.00055555,-0.00044765,-0.00
 130619,-0.01807274,-0.00624957,-0.01920601,0.00013163,0.00012998,0.001
 00309,-0.00536752,0.00265484,0.00201031,-0.19845611,-0.03326905,-0.129
 24976,-0.00026494,0.00016819,0.00008341,0.00889599,0.00273429,0.006375
 21,-0.00250148,-0.00097844,-0.00175774,0.21512397,0.00000003,-0.000000
 16,0.00000070,0.00003822,-0.00033139,-0.00011201,-0.00019198,-0.000210
 36,-0.00022553,-0.00015108,0.00020151,0.00001434,-0.00002189,0.0000903
 4,-0.00004529,-0.00003963,0.00002938,0.00012648,-0.00004100,0.00003380
 ,0.00003630,-0.00000553,-0.00001157,-0.00001492,0.00008192,-0.00004180
 ,0.00002663,-0.00000714,-0.00000626,0.00000412,0.00019597,0.00007763,-
 0.00015844,-0.00003448,-0.00001061,0.00002358,-0.00002235,-0.00000650,
 -0.00000902,0.00001057,0.00000330,-0.00000381,0.00000696,0.00000250,-0
 .00000542,-0.00000174,-0.00001063,0.00000668,0.00000052,-0.00000196,0.
 00000547,0.00000122,-0.00000032,-0.00000102,0.00000285,-0.00000280,0.0
 0000234,-0.00000757,-0.00000089,0.00000348,-0.00000321,-0.00000039,-0.
 00000216,-0.00000080,-0.00000012,0.00000033,-0.00001270,0.00000811,0.0
 0000006,-0.00000143,-0.00000138,0.00000148,0.00000141,0.00000040,-0.00
 000033,-0.00000490,0.00000280,-0.00000144,0.00000333,-0.00000184,0.000
 00115,-0.00000096,0.00000071,-0.00000060,-0.00000066,0.00000044,-0.000
 00042,0.00000013,-0.00000004,-0.00000002,0.00000019,-0.00000011,-0.000
 00012,-0.00000004,0.00000004,-0.00000035,-0.00000019,0.00000008,0.,-0.
 00000077,0.00000038,-0.00000002,0.00000004,0.00000030,-0.00000016,0.00
 000001,-0.00000007,0.00000004,-0.00000013,0.,-0.00000007,-0.00000021,0
 .00000009,-0.00000006,-0.00000010,0.,0.,-0.00000005,0.,0.00000003,0.00
 000007,0.,-0.00000001,0.,0.00000001,0.,0.00000006,0.00000004,0.0000000
 6,0.,0.00000007,0.00000002,-0.00000001,-0.00000002,0.,0.00000016,-0.00
 000012,-0.00000011,0.00000002,0.,0.,-0.00000018,0.00000012,0.00000012,
 -0.00000019,-0.00000001,0.00000007,0.00000004,-0.00000014,0.00000002,0
 .00000011,-0.00000007,-0.00000011,0.00000004,-0.00000008,-0.00000018,-
 0.00000005,-0.00000004,-0.00000017,0.00000025,0.00000016,0.00000018,0.
 00000013,-0.00000010,0.00000003,0.00000029,0.00000016,0.00000010,-0.00
 000046,0.00000003,0.00000025,-0.00000010,0.00000004,0.00000005,0.00000
 007,0.00000003,0.,-0.00000024,-0.00000013,-0.00000003,-0.00000005,-0.0
 0000006,-0.00000008,-0.00000004,-0.00000002,-0.00000001,-0.00000088,-0
 .00000033,-0.00000105,0.00000249,-0.00000018,-0.00000132,-0.00000310,-
 0.00000082,0.00000061,0.00000582,-0.00000271,-0.00000335,0.00000032,-0
 .00000011,-0.00000011,0.00000152,0.00000109,0.00000259,-0.00000694,-0.
 00000339,0.00001217,0.00000067,-0.00000041,0.00000019,-0.00004444,0.00
 000044,0.00000755,-0.00000121,0.00000880,0.00000747,0.00000254,-0.0000
 0252,0.00000142,-0.00000762,-0.00002051,-0.00001273,0.00000099,0.00000
 129,-0.00000478,0.00000204,0.00000107,0.00000208,-0.00002129,-0.000011
 66,-0.00002251,-0.00003159,0.00003969,-0.00003688,0.00002730,0.0000016
 8,0.00001345,0.00001187,0.00008644,-0.00004290,-0.00000155,-0.00000700
 ,-0.00000091,-0.00000147,-0.00000013,0.00000198,-0.00000453,0.00000256
 ,0.00000010,0.00000244,-0.00000072,0.00000158,0.00000577,0.00000190,0.
 00000092,0.00000373,-0.00000120,0.00000200,0.00000240,-0.00000565,0.00
 000113,-0.00000101,0.00000040,-0.00000063,-0.00000027,0.00000009,-0.00
 000018,0.00000007,-0.00000087,0.00000047,0.00000002,-0.00000016,0.0000
 0044,-0.00000007,0.00000002,-0.00000004,-0.00000018,-0.00000017,0.0000
 0015,0.00000056,-0.00000007,0.00000024,0.00000026,-0.00000005,-0.00000
 017,0.00000004,0.00000002,0.00000003,0.00000088,0.00000062,-0.00000006
 ,0.00000010,-0.00000007,0.00000012,-0.00000011,0.00000007,0.00000002,0
 .00000026,0.00000015,-0.00000017,-0.00000015,-0.00000003,-0.00000003,0
 .00000013,0.00000004,0.,0.00000002,0.,0.00000005,0.,0.00000001,0.,-0.0
 0000009,-0.00000007,0.00000005,0.00000015,0.00000013,-0.00000012,0.,0.
 00000002,-0.00000002,0.00000002,0.00000008,-0.00000014,-0.00000002,0.,
 0.,-0.00000002,0.,0.,0.00000003,0.00000001,0.00000002,0.,0.,-0.0000000
 1,0.00000001,-0.00000001,0.00000002,-0.00000005,-0.00000014,-0.0000000
 6,-0.00000005,-0.00000004,-0.00000004,0.00000004,-0.00000002,0.0000000
 4,0.00000004,0.,-0.00000002,-0.00000017,-0.00000004,-0.00000006,0.,0.0
 0000002,-0.00000002,0.00000050,0.00000024,0.00000032,0.00000006,0.0000
 0002,0.,-0.00000018,-0.00000018,-0.00000010,-0.00000066,-0.00000020,-0
 .00000036,0.,0.00000008,0.,0.00000078,0.00000014,0.00000035,0.00000112
 ,0.00000010,0.00000170,0.00000014,-0.00000035,-0.00000086,0.00000415,0
 .00000050,-0.00000052,-0.00000013,0.00000016,-0.00000027,-0.00000628,-
 0.00000228,0.00000662,-0.00000006,0.00000022,0.00000100,-0.00000003,-0
 .00000090,-0.00000152,-0.00000004,0.00000029,-0.00000001,-0.00000191,0
 .00000083,0.00000024,0.00000020,0.00000012,0.00000006,-0.00000006,0.00
 000004,-0.00000003,-0.00000863,-0.00001430,-0.00004133,-0.00008825,-0.
 00000469,-0.00007693,0.00004278,-0.00009841,0.00021893,0.00054634,0.00
 032781,0.00051650,-0.00003873,0.00000767,0.00001109,0.00031039,0.00000
 946,0.00053917,0.01176453,0.00101492,0.01154275,0.00006119,0.00000741,
 -0.00062300,0.00376857,-0.00073200,-0.00153881,-0.03691422,-0.05603622
 ,-0.03267473,0.00014486,-0.00012852,-0.00002852,0.00950386,0.00156192,
 0.00720086,-0.02385146,-0.00322667,-0.02169954,0.03502271,0.05741268,0
 .00000031,-0.00000043,-0.00000011,0.00012840,0.00004129,-0.00038268,-0
 .00002660,-0.00002355,-0.00000946,-0.00008373,0.00006737,0.00001345,-0
 .00000348,0.00000715,-0.00000284,-0.00000959,0.00004028,0.00005226,-0.
 00000813,-0.00000149,0.00000985,-0.00000127,-0.00000931,-0.00000136,0.
 00002083,0.00000113,0.00000221,-0.00000254,-0.00000346,0.00000123,0.00
 005586,-0.00005812,-0.00003802,-0.00001808,-0.00001314,0.00001457,-0.0
 0000013,0.00000241,-0.00000376,0.00000536,0.00000100,-0.00000257,0.000
 00317,0.00000186,-0.00000247,-0.00000088,-0.00000460,0.00000318,0.0000
 0023,-0.00000110,0.00000238,0.00000087,0.00000004,-0.00000047,0.000001
 32,-0.00000142,0.00000104,-0.00000343,-0.00000045,0.00000151,-0.000001
 50,0.,-0.00000071,-0.00000045,-0.00000007,0.00000021,-0.00000606,0.000
 00360,-0.00000026,-0.00000067,-0.00000067,0.00000077,0.00000070,0.0000
 0024,-0.00000024,-0.00000250,0.00000138,-0.00000055,0.00000178,-0.0000
 0110,0.00000090,-0.00000026,0.00000036,-0.00000041,-0.00000014,0.00000
 017,-0.00000066,0.00000009,-0.00000002,0.,-0.00000008,0.00000010,-0.00
 000024,0.00000019,-0.00000020,0.00000002,-0.00000014,0.00000003,0.0000
 0003,-0.00000054,0.00000011,0.00000015,-0.00000002,0.00000019,-0.00000
 012,0.00000003,-0.00000011,0.00000015,-0.00000002,-0.00000001,-0.00000
 008,-0.00000012,0.00000008,-0.00000006,-0.00000009,-0.00000001,0.00000
 004,-0.00000021,0.00000012,0.00000013,-0.00000026,0.00000009,0.0000001
 9,0.00000009,0.00000007,-0.00000007,0.00000006,0.00000004,0.00000008,-
 0.00000035,0.00000030,0.00000025,-0.00000007,-0.00000004,0.00000006,0.
 00000150,-0.00000069,-0.00000096,0.00000009,-0.00000002,0.,-0.00000048
 ,0.00000072,0.00000039,-0.00000200,0.00000034,0.00000114,0.00000017,-0
 .00000055,0.00000002,0.00000124,-0.00000064,-0.00000119,0.00000016,-0.
 00000122,-0.00000135,-0.00000078,-0.00000190,-0.00000281,0.00000342,0.
 00000194,0.00000191,0.00000052,0.00000022,0.00000013,-0.00000042,0.000
 00058,0.00000015,-0.00000435,-0.00000007,0.00000185,-0.00000084,0.0000
 0046,0.00000035,0.00000049,0.00000019,0.00000017,-0.00000260,-0.000001
 23,-0.00000040,-0.00000042,-0.00000052,-0.00000052,-0.00000032,-0.0000
 0014,-0.00000008,-0.00000667,-0.00000556,-0.00000988,0.00001339,-0.000
 00568,0.00000394,0.00000185,-0.00000333,-0.00000621,0.00003333,-0.0000
 0516,-0.00003992,-0.00000158,0.00000036,-0.00000376,-0.00000548,-0.000
 01390,-0.00001293,-0.00001710,0.00000729,-0.00000227,0.00000068,-0.000
 00070,-0.00000494,-0.00012242,0.00002654,0.00005134,0.00003746,-0.0000
 4731,0.00002821,0.00001595,0.00001495,0.00001001,-0.00003609,0.0000490
 4,0.00007479,-0.00000469,-0.00000106,0.00001487,-0.00000991,0.00000189
 ,-0.00003157,0.00000623,-0.00007143,0.00003936,0.00002968,-0.00005672,
 0.00004214,-0.00004323,0.00000939,-0.00002478,-0.00001671,-0.00016496,
 0.00005748,0.00000202,0.00001669,-0.00000197,0.00000166,0.00000623,-0.
 00000265,0.00001771,-0.00000478,0.00000611,-0.00000465,0.00000328,-0.0
 0000351,0.00001947,0.00002465,0.00000393,-0.00001388,0.00001018,-0.000
 00979,0.00000744,-0.00000020,0.00000490,0.00000361,-0.00000060,0.00000
 183,0.00000282,-0.00000152,0.00000194,-0.00000081,0.00000370,-0.000002
 61,0.00000021,0.00000103,-0.00000196,0.00000077,-0.00000012,0.00000031
 ,0.00000105,0.00000120,-0.00000083,-0.00000292,0.00000035,-0.00000128,
 -0.00000124,-0.00000007,0.00000059,-0.00000037,0.00000003,-0.00000020,
 -0.00000506,-0.00000293,0.00000031,-0.00000056,0.00000052,-0.00000068,
 0.00000061,-0.00000023,0.00000015,-0.00000204,-0.00000113,0.00000044,0
 .00000147,0.00000092,-0.00000077,-0.00000019,-0.00000029,0.00000034,-0
 .00000011,-0.00000012,0.00000058,0.00000009,-0.00000002,0.,-0.00000008
 ,-0.00000008,0.00000021,0.00000019,0.00000016,-0.00000004,-0.00000011,
 -0.00000004,-0.00000004,-0.00000049,-0.00000007,-0.00000017,-0.0000000
 3,-0.00000018,0.00000006,0.00000004,0.00000005,-0.00000014,0.,0.,0.000
 00009,-0.00000008,0.00000002,-0.00000004,-0.00000007,-0.00000007,0.000
 00008,-0.00000012,0.00000007,0.00000009,0.00000013,0.00000009,0.000000
 09,-0.00000008,-0.00000006,-0.00000008,0.00000005,-0.00000003,-0.00000
 007,0.00000014,-0.00000018,0.00000004,-0.00000003,0.00000004,-0.000000
 01,0.00000009,0.00000029,0.00000008,0.00000002,0.00000003,0.,-0.000000
 21,-0.00000051,-0.00000020,-0.00000006,0.00000008,0.00000005,0.0000001
 5,0.00000051,-0.00000004,-0.00000025,0.00000025,0.,-0.00000087,0.00000
 074,-0.00000123,-0.00000025,-0.00000045,0.00000221,-0.00000087,0.00000
 222,0.00000004,0.00000055,-0.00000018,0.00000015,-0.00000235,0.0000015
 6,-0.00000337,-0.00000161,0.00000080,-0.00000234,-0.00000057,-0.000000
 42,0.00000234,0.00000034,0.00000004,-0.00000045,0.00000109,-0.00000037
 ,-0.00000025,-0.00000037,0.00000010,0.00000020,-0.00000010,0.00000015,
 -0.00000002,-0.00002571,-0.00001219,0.00002092,0.00005191,0.00003820,0
 .00003312,-0.00002774,0.00034309,0.00019223,0.00039825,-0.00037223,0.0
 0057751,-0.00004825,0.00003640,0.00000425,0.00164697,-0.00050380,-0.00
 015698,0.00918951,0.00311754,0.00730243,0.00054039,-0.00072694,-0.0003
 0223,0.00219498,-0.00148476,-0.00023760,-0.13520963,-0.03119347,-0.168
 77933,0.00011586,-0.00008023,-0.00004649,-0.02135265,-0.00600012,-0.01
 680057,0.00000261,-0.00005016,-0.00094353,0.14258420,0.03704614,0.1793
 0162\\0.00000013,-0.00000005,-0.00000006,-0.00000002,0.00000008,0.0000
 0006,0.00000001,-0.00000012,0.00000004,-0.00000007,0.00000013,-0.00000
 002,0.00000004,0.,-0.00000003,0.,-0.00000003,0.,0.00000002,-0.00000006
 ,0.,0.,0.,0.,0.,0.00000004,-0.00000001,-0.00000001,0.,0.00000001,0.000
 00011,0.00000009,-0.00000011,-0.00000007,-0.00000004,0.00000004,-0.000
 00002,-0.00000003,0.00000005,-0.00000008,-0.00000001,0.00000003,0.0000
 0003,0.00000001,-0.00000002,0.00000006,-0.00000001,0.00000001,0.000000
 03,0.,-0.00000003,-0.00000001,0.,0.,0.00000001,0.,0.,-0.00000002,-0.00
 000002,0.00000002,0.00000004,-0.00000001,0.,0.,0.,0.,0.,0.00000002,-0.
 00000003,0.,0.,0.,0.,0.,0.,-0.00000009,0.00000004,-0.00000002,0.000000
 02,0.00000003,0.,-0.00000002,0.00000003,-0.00000001,0.00000003,-0.0000
 0004,0.00000002,0.00000001,0.,0.,0.00000003,0.00000003,-0.00000004,0.0
 0000004,0.00000002,0.,0.,0.,0.,-0.00000008,-0.00000005,0.00000005,-0.0
 0000004,-0.00000008,0.,0.00000006,0.00000010,0.00000010,-0.00000002,0.
 00000008,0.00000001,0.,0.,0.,0.,0.,0.,-0.00000003,-0.00000007,-0.00000
 005,0.00000006,0.00000008,0.00000001,-0.00000003,0.00000002,0.00000002
 ,0.00000003,-0.00000003,-0.00000002,-0.00000002,-0.00000004,-0.0000000
 1,0.,0.,0.,0.00000003,0.00000001,0.00000002,0.00000002,0.,0.,-0.000000
 07,0.00000004,0.00000007,0.,0.,-0.00000003,0.,-0.00000008,-0.00000011,
 0.,0.,0.,0.,0.,0.,0.00000002,0.,0.,0.,0.,-0.00000002,0.,0.,0.00000001,
 -0.00000004,-0.00000002,0.,0.,0.00000001,0.,-0.00000001,0.,0.,0.,0.,0.
 ,0.,-0.00000002,-0.00000002,0.,0.,0.,0.,0.00000001,0.,0.00000008,0.000
 00004,0.00000003,0.,0.00000002,0.00000001,-0.00000002,-0.00000002,0.00
 000003,-0.00000004,-0.00000005,-0.00000007,0.,0.,0.,-0.00000002,0.,0.,
 0.00000006,-0.00000002,0.,0.,0.00000001,0.,0.00000001,-0.00000001,0.,-
 0.00000006,0.00000006,0.,0.00000002,-0.00000002,0.00000004,0.00000006,
 -0.00000004,-0.00000004,0.,0.,-0.00000001,0.00000002,-0.00000002,0.,-0
 .00000006,0.00000015,-0.00000006,-0.00000007,-0.00000012,-0.00000002,0
 .00000008,0.,0.00000004,0.,0.00000002,0.00000003,-0.00000002,0.0000000
 7,-0.00000004,0.,0.,0.,-0.00000002,-0.00000012,0.00000004,-0.00000002,
 0.00000001,-0.00000001,0.00000012,0.,0.00000007,0.,0.,-0.00000001,0.00
 000001,0.,0.,-0.00000007,0.00000004,-0.00000002,0.00000005,0.,-0.00000
 001,0.,0.,0.,-0.00000002,-0.00000003,-0.00000002,0.,0.,0.,0.00000010,0
 .00000007,0.,-0.00000001,-0.00000001,0.00000001,0.00000003,0.,0.,0.,0.
 ,0.,0.,0.,0.,0.,0.,0.,0.,0.,0.,-0.00000002,-0.00000001,0.,-0.00000006,
 -0.00000002,0.,-0.00000003,0.,0.00000001,0.00000005,0.00000003,0.00000
 002,0.00000002,0.,0.,0.00000001,0.,0.00000006,-0.00000002,0.00000002,-
 0.00000008,0.00000002,0.,0.,-0.00000007,-0.00000005,-0.00000001,0.0000
 0009,-0.00000009,0.,-0.00000002,0.00000002,0.00000002,-0.00000005,0.00
 000006,0.00000004,-0.00000001,0.,0.,-0.00000002,0.00000004,0.,0.,0.000
 00002,0.00000001,0.,-0.00000004,0.,-0.00000003,0.,-0.00000002,0.000000
 02,0.,0.00000003,-0.00000002,0.00000004,0.,0.,0.,0.,0.,-0.00000002,-0.
 00000001,0.00000001,0.,0.,-0.00000003,-0.00000003,-0.00000003,0.000000
 04,0.00000002,0.00000003,-0.00000002,-0.00000003,0.00000001,0.00000007
 ,0.00000002,0.00000002,0.,-0.00000001,-0.00000001,0.00000002,0.0000000
 1,0.00000003,0.00000006,-0.00000002,-0.00000003,0.,0.,0.,-0.00000014,0
 .00000008,0.00000005,0.00000002,-0.00000003,-0.00000004,-0.00000001,0.
 ,0.,0.,0.,0.,0.,-0.00000001,-0.00000002,0.,0.,0.,0.,0.,0.,-0.00000012,
 0.00000004,0.00000005,0.00000007,-0.00000006,-0.00000010,0.00000007,0.
 ,0.00000005,0.00000008,-0.00000008,-0.00000006,-0.00000002,0.00000001,
 0.00000002,0.00000003,-0.00000005,-0.00000008,-0.00000009,0.00000003,-
 0.00000003,-0.00000001,0.00000001,0.,0.00000005,0.00000003,0.00000012,
 -0.00000005,0.00000003,-0.00000004,-0.00000002,0.00000003,-0.00000003,
 -0.00000007,-0.00000009,0.00000009,0.00000003,0.00000003,-0.00000004,0
 .,0.,0.\\\@


 WE HAVE LEFT UNDONE THOSE THINGS WHICH WE OUGHT TO HAVE DONE,
 AND WE HAVE DONE THOSE THINGS WHICH WE OUGHT NOT TO HAVE DONE.
                   BOOK OF COMMON PRAYER                      
 Job cpu time:       4 days 13 hours 29 minutes 19.8 seconds.
 Elapsed time:       0 days  4 hours 34 minutes 26.7 seconds.
 File lengths (MBytes):  RWF=  36568 Int=      0 D2E=      0 Chk=    223 Scr=      1
 Normal termination of Gaussian 16 at Fri Sep 20 13:14:06 2019.
