 Entering Gaussian System, Link 0=g16
 Initial command:
 /apps/gaussian/g16-a03/l1.exe "/rds/general/user/atarzia/home/pd_ligand_matching/geom_steric/dft/cage_gs_1112/Gau-4600.inp" -scrdir="/rds/general/user/atarzia/home/pd_ligand_matching/geom_steric/dft/cage_gs_1112/"
 Entering Link 1 = /apps/gaussian/g16-a03/l1.exe PID=      4602.
  
 Copyright (c) 1988,1990,1992,1993,1995,1998,2003,2009,2016,
            Gaussian, Inc.  All Rights Reserved.
  
 This is part of the Gaussian(R) 16 program.  It is based on
 the Gaussian(R) 09 system (copyright 2009, Gaussian, Inc.),
 the Gaussian(R) 03 system (copyright 2003, Gaussian, Inc.),
 the Gaussian(R) 98 system (copyright 1998, Gaussian, Inc.),
 the Gaussian(R) 94 system (copyright 1995, Gaussian, Inc.),
 the Gaussian 92(TM) system (copyright 1992, Gaussian, Inc.),
 the Gaussian 90(TM) system (copyright 1990, Gaussian, Inc.),
 the Gaussian 88(TM) system (copyright 1988, Gaussian, Inc.),
 the Gaussian 86(TM) system (copyright 1986, Carnegie Mellon
 University), and the Gaussian 82(TM) system (copyright 1983,
 Carnegie Mellon University). Gaussian is a federally registered
 trademark of Gaussian, Inc.
  
 This software contains proprietary and confidential information,
 including trade secrets, belonging to Gaussian, Inc.
  
 This software is provided under written license and may be
 used, copied, transmitted, or stored only in accord with that
 written license.
  
 The following legend is applicable only to US Government
 contracts under FAR:
  
                    RESTRICTED RIGHTS LEGEND
  
 Use, reproduction and disclosure by the US Government is
 subject to restrictions as set forth in subparagraphs (a)
 and (c) of the Commercial Computer Software - Restricted
 Rights clause in FAR 52.227-19.
  
 Gaussian, Inc.
 340 Quinnipiac St., Bldg. 40, Wallingford CT 06492
  
  
 ---------------------------------------------------------------
 Warning -- This program may not be used in any manner that
 competes with the business of Gaussian, Inc. or will provide
 assistance to any competitor of Gaussian, Inc.  The licensee
 of this program is prohibited from giving any competitor of
 Gaussian, Inc. access to this program.  By using this program,
 the user acknowledges that Gaussian, Inc. is engaged in the
 business of creating and licensing software in the field of
 computational chemistry and represents and warrants to the
 licensee that it is not a competitor of Gaussian, Inc. and that
 it will not use this program in any manner prohibited above.
 ---------------------------------------------------------------
  

 Cite this work as:
 Gaussian 16, Revision A.03,
 M. J. Frisch, G. W. Trucks, H. B. Schlegel, G. E. Scuseria, 
 M. A. Robb, J. R. Cheeseman, G. Scalmani, V. Barone, 
 G. A. Petersson, H. Nakatsuji, X. Li, M. Caricato, A. V. Marenich, 
 J. Bloino, B. G. Janesko, R. Gomperts, B. Mennucci, H. P. Hratchian, 
 J. V. Ortiz, A. F. Izmaylov, J. L. Sonnenberg, D. Williams-Young, 
 F. Ding, F. Lipparini, F. Egidi, J. Goings, B. Peng, A. Petrone, 
 T. Henderson, D. Ranasinghe, V. G. Zakrzewski, J. Gao, N. Rega, 
 G. Zheng, W. Liang, M. Hada, M. Ehara, K. Toyota, R. Fukuda, 
 J. Hasegawa, M. Ishida, T. Nakajima, Y. Honda, O. Kitao, H. Nakai, 
 T. Vreven, K. Throssell, J. A. Montgomery, Jr., J. E. Peralta, 
 F. Ogliaro, M. J. Bearpark, J. J. Heyd, E. N. Brothers, K. N. Kudin, 
 V. N. Staroverov, T. A. Keith, R. Kobayashi, J. Normand, 
 K. Raghavachari, A. P. Rendell, J. C. Burant, S. S. Iyengar, 
 J. Tomasi, M. Cossi, J. M. Millam, M. Klene, C. Adamo, R. Cammi, 
 J. W. Ochterski, R. L. Martin, K. Morokuma, O. Farkas, 
 J. B. Foresman, and D. J. Fox, Gaussian, Inc., Wallingford CT, 2016.
 
 ******************************************
 Gaussian 16:  ES64L-G16RevA.03 25-Dec-2016
                31-Aug-2019 
 ******************************************
 %chk=gs_1112_fopt_f.chk
 %mem=60000mb
 %nprocshared=32
 Will use up to   32 processors via shared memory.
 ----------------------------------------------------------------------
 #P B3LYP/GenECP freq geom=checkpoint SCF=(YQC,MaxCycle=1800) int=(Grid
 =Ultrafine) EmpiricalDispersion=GD3 SCRF=(PCM,Solvent=DiMethylSulfoxid
 e)
 ----------------------------------------------------------------------
 1/10=4,29=2,30=1,38=1/1,3;
 2/12=2,40=1/2;
 3/5=7,11=2,14=-4,16=1,17=8,25=1,30=1,70=2201,71=2,72=21,74=-5,75=-5,124=31,140=1/1,2,3;
 4//1;
 5/5=2,7=1800,8=4,13=1,38=1,53=21,98=1/8,2,8;
 8/6=4,10=90,11=11/1;
 11/6=1,8=1,9=11,15=111,16=1/1,2,10;
 10/6=1/2;
 6/7=2,8=2,9=2,10=2,28=1/1;
 7/8=1,10=1,25=1/1,2,3,16;
 1/10=4,30=1/3;
 99//99;
 Leave Link    1 at Sat Aug 31 09:33:30 2019, MaxMem=  7864320000 cpu:              20.0 elap:               0.7
 (Enter /apps/gaussian/g16-a03/l101.exe)
 --------------
 gs_1112_fopt_f
 --------------
 Structure from the checkpoint file:  "gs_1112_fopt_f.chk"
 Charge =  4 Multiplicity = 1
 Redundant internal coordinates found in file.  (old form).
 N,0,-5.1554843264,-2.2158421584,0.1235794716
 N,0,-5.2284124536,1.6061680707,-1.4201021482
 C,0,-3.9263071231,-2.5999289941,0.5058652853
 C,0,-4.0068359351,2.1596310001,-1.4932422959
 H,0,-3.1399121683,-1.8552765251,0.4633458827
 H,0,-3.1769897147,1.59175087,-1.0894959704
 C,0,-3.6509990763,-3.907509315,0.9331252613
 C,0,-3.7844324409,3.4169302362,-2.0744852658
 C,0,-4.7211902173,-4.8221585176,0.9791670551
 C,0,-4.8990602768,4.1068040747,-2.5884606223
 C,0,-5.9880282127,-4.4062301777,0.5849177755
 C,0,-6.1584932427,3.523079107,-2.4986035871
 C,0,-6.1751228677,-3.0977188934,0.1498630482
 C,0,-6.2958033634,2.2688478619,-1.9104952855
 H,0,-7.1382485962,-2.7397640837,-0.1904662434
 H,0,-7.2566475219,1.7767200368,-1.8269349981
 C,0,-2.3225016318,-4.2679160234,1.2798049514
 C,0,-2.4607271967,3.9271056093,-2.1233564421
 C,0,-1.1769067689,-4.5693427281,1.5498841155
 C,0,-1.3086701071,4.3132957868,-2.13799837
 C,0,0.1468460923,-4.9622451185,1.8988089226
 C,0,0.0320998781,4.7928388852,-2.1472555305
 C,0,1.2619754579,-4.2726792829,1.3865138426
 C,0,0.9949165077,4.224045144,-1.2911181347
 H,0,1.1015278407,-3.4477246612,0.6995901542
 H,0,0.7055920808,3.4168570347,-0.6253590735
 C,0,2.5607559226,-4.6649391775,1.7334405189
 C,0,2.2994440415,4.7278973943,-1.2589595455
 C,0,2.732448925,-5.7565459468,2.6042182644
 C,0,2.64467924,5.7968032791,-2.10404879
 H,0,3.7313645728,-6.0521810315,2.9090995047
 H,0,3.6597310938,6.1826115195,-2.0945712102
 C,0,1.6311220773,-6.4472897044,3.1082672979
 C,0,1.6990237749,6.3517969224,-2.9663562826
 H,0,1.7821262599,-7.2850328264,3.7818105999
 H,0,1.9800549267,7.1716553224,-3.6199196374
 C,0,0.3405142529,-6.0599433127,2.7612013076
 C,0,0.3959253686,5.8618472933,-2.990170119
 H,0,-0.5211940381,-6.5912356992,3.151515212
 H,0,-0.3466753238,6.2986266351,-3.6497131794
 C,0,3.7540576222,-3.9462349878,1.2250126771
 C,0,3.3047362432,4.1800745502,-0.3168783195
 C,0,3.759767458,-2.5594457695,1.071982709
 C,0,3.5039615396,2.8073491344,-0.1707515564
 H,0,2.8702786143,-1.978072093,1.2819898438
 H,0,2.938623134,2.097321553,-0.7629767296
 N,0,4.8568197603,-1.85705607,0.7101255126
 N,0,4.4213847056,2.284239941,0.671835267
 C,0,6.0295162025,-2.4981694423,0.4723401963
 C,0,5.1921379621,3.096763467,1.4404971057
 C,0,7.2610562218,-1.7097703156,0.1314932275
 C,0,6.1912922723,2.5077543423,2.3958732445
 C,0,6.0763854701,-3.8923062704,0.5650804239
 C,0,5.0420184,4.4822373422,1.3320130182
 H,0,7.0108328936,-4.3999813974,0.3548094321
 H,0,5.6654638785,5.1265399489,1.9414279349
 C,0,4.9531165225,-4.6157886569,0.9351589628
 C,0,4.1117007469,5.0255945046,0.4582986627
 H,0,5.0055751377,-5.6974794573,1.0015489124
 H,0,3.9975080874,6.102283297,0.3841755171
 N,0,3.9691980397,0.1384234508,2.6140112293
 N,0,-4.737029358,-1.0584864059,-2.457665868
 C,0,2.7485435907,0.6398075858,2.8664784762
 C,0,-3.4307242891,-1.1949275672,-2.7336696272
 H,0,2.2287933359,1.1137330791,2.0432130803
 C,0,2.1567783051,0.5634761362,4.1365890849
 C,0,-2.9772047155,-1.7395868861,-3.9453313678
 C,0,2.8901597845,-0.0515204292,5.1676599689
 C,0,-3.9450362678,-2.1546562054,-4.880928441
 C,0,4.1538181151,-0.5644370373,4.8902719005
 C,0,-5.2937799837,-2.0051376909,-4.5778177763
 C,0,4.6667368551,-0.4621777307,3.6022988288
 C,0,-5.6632076495,-1.4514157764,-3.3561348441
 H,0,5.6407596732,-0.8560806276,3.3414360453
 H,0,-6.7010767508,-1.3136180535,-3.0773725247
 C,0,0.8533918922,1.0990652138,4.3307404244
 C,0,-1.5847072331,-1.8511602273,-4.1953937791
 C,0,-0.2617420242,1.5645270846,4.4527527191
 C,0,-0.3930263384,-1.9320938771,-4.4185207194
 C,0,-1.568549652,2.1231118514,4.5818637401
 C,0,0.9971210297,-2.0226272445,-4.7132510852
 C,0,-2.6458943011,1.5601845105,3.8750977773
 C,0,1.9329955847,-1.2870519814,-3.9623610623
 H,0,-2.4706148918,0.6777091881,3.2681744024
 H,0,1.5820779075,-0.6482691724,-3.1578156052
 C,0,-3.9313411353,2.1077237471,3.9757419286
 C,0,3.2957715844,-1.3401859216,-4.2771243193
 C,0,-4.1288743777,3.2304797235,4.7984856358
 C,0,3.7212174469,-2.1461689678,-5.3472584637
 H,0,-5.1121692454,3.6853161043,4.8663134529
 H,0,4.7782930358,-2.2084930241,-5.5875775211
 C,0,-3.0652348563,3.7863750511,5.509220762
 C,0,2.7984625381,-2.884996748,-6.0881389976
 H,0,-3.2333723171,4.6553075731,6.1377667434
 H,0,3.1407743507,-3.5093966005,-6.9074148233
 C,0,-1.7873429201,3.241676004,5.4087133171
 C,0,1.4415121757,-2.8270251335,-5.7818083015
 H,0,-0.956891839,3.6740549568,5.9569801853
 H,0,0.719470739,-3.3932705605,-6.3608261858
 C,0,-5.0666821328,1.5183230317,3.2272143621
 C,0,4.280144487,-0.5412735006,-3.5098890418
 C,0,-4.8854099267,0.9868216087,1.9511437219
 C,0,4.2131603149,-0.457655036,-2.1196869076
 H,0,-3.9083730319,1.0018145188,1.4844438563
 H,0,3.4524357971,-1.0031252812,-1.5746415244
 N,0,-5.8849930664,0.4458369457,1.2220344306
 N,0,5.0837545372,0.2595399994,-1.3753846635
 C,0,-7.1458524837,0.4067333836,1.715506647
 C,0,6.0917947896,0.9432747727,-1.9770826988
 C,0,-8.259777627,-0.2225539908,0.9260984125
 C,0,7.0572556083,1.7548313084,-1.1607693642
 C,0,-7.3957721207,0.9296997593,2.9896999105
 C,0,6.2191868751,0.8856686756,-3.3689179375
 H,0,-8.4066562019,0.8905635856,3.3804306038
 H,0,7.0288947903,1.4295256513,-3.8419712301
 C,0,-6.3709894711,1.4764319728,3.7459812937
 C,0,5.3242342326,0.1543943122,-4.1359226795
 H,0,-6.5772691811,1.8566626478,4.7411256687
 H,0,5.4243482384,0.1326971068,-5.2162901854
 Pd,0,4.6544419941,0.2205248372,0.6656481083
 Pd,0,-5.3333689103,-0.3023601428,-0.6344712142
 H,0,-7.0367609037,4.0286364348,-2.8831024243
 H,0,-4.7684938043,5.0807808924,-3.0470225658
 H,0,-4.5474535094,-5.840267458,1.309799241
 H,0,-6.8308287973,-5.0874984857,0.6002180135
 H,0,-3.6314359777,-2.5828955111,-5.8265984449
 H,0,-6.0622412199,-2.3123005383,-5.2776619595
 H,0,-2.7275207318,-0.8700744891,-1.9751515828
 H,0,4.7437920388,-1.0463334819,5.6611583247
 H,0,2.4662768049,-0.1241812363,6.163120813
 H,0,-9.1944059426,0.3190085905,1.0957528117
 H,0,-8.4164797011,-1.255937812,1.2581943475
 H,0,-8.0597868593,-0.2350101988,-0.1470956511
 H,0,8.139278392,-2.3584985562,0.1420960519
 H,0,7.4222307865,-0.9020886554,0.8522840091
 H,0,7.1809421549,-1.2668017296,-0.8651066328
 H,0,7.3989242684,1.2136429852,-0.2755411286
 H,0,6.5942887185,2.689140357,-0.8287918887
 H,0,7.9320450356,2.0120683057,-1.7615416991
 H,0,6.9083880332,3.2699038181,2.7082590071
 H,0,6.7434034805,1.6757065234,1.951646264
 H,0,5.6880427835,2.1319858649,3.2928696113
 Recover connectivity data from disk.
 ITRead=  0  0  0  0  0  0  0  0  0  0  0  0  0  0  0  0  0  0  0  0
 ITRead=  0  0  0  0  0  0  0  0  0  0  0  0  0  0  0  0  0  0  0  0
 ITRead=  0  0  0  0  0  0  0  0  0  0  0  0  0  0  0  0  0  0  0  0
 ITRead=  0  0  0  0  0  0  0  0  0  0  0  0  0  0  0  0  0  0  0  0
 ITRead=  0  0  0  0  0  0  0  0  0  0  0  0  0  0  0  0  0  0  0  0
 ITRead=  0  0  0  0  0  0  0  0  0  0  0  0  0  0  0  0  0  0  0  0
 ITRead=  0  0  0  0  0  0  0  0  0  0  0  0  0  0  0  0  0  0  0  0
 ITRead=  0  0
 MicOpt= -1 -1 -1 -1 -1 -1 -1 -1 -1 -1 -1 -1 -1 -1 -1 -1 -1 -1 -1 -1
 MicOpt= -1 -1 -1 -1 -1 -1 -1 -1 -1 -1 -1 -1 -1 -1 -1 -1 -1 -1 -1 -1
 MicOpt= -1 -1 -1 -1 -1 -1 -1 -1 -1 -1 -1 -1 -1 -1 -1 -1 -1 -1 -1 -1
 MicOpt= -1 -1 -1 -1 -1 -1 -1 -1 -1 -1 -1 -1 -1 -1 -1 -1 -1 -1 -1 -1
 MicOpt= -1 -1 -1 -1 -1 -1 -1 -1 -1 -1 -1 -1 -1 -1 -1 -1 -1 -1 -1 -1
 MicOpt= -1 -1 -1 -1 -1 -1 -1 -1 -1 -1 -1 -1 -1 -1 -1 -1 -1 -1 -1 -1
 MicOpt= -1 -1 -1 -1 -1 -1 -1 -1 -1 -1 -1 -1 -1 -1 -1 -1 -1 -1 -1 -1
 MicOpt= -1 -1
 NAtoms=    142 NQM=      142 NQMF=       0 NMMI=      0 NMMIF=      0
                NMic=       0 NMicF=      0.
                    Isotopes and Nuclear Properties:
 (Nuclear quadrupole moments (NQMom) in fm**2, nuclear magnetic moments (NMagM)
  in nuclear magnetons)

  Atom         1           2           3           4           5           6           7           8           9          10
 IAtWgt=          14          14          12          12           1           1          12          12          12          12
 AtmWgt=  14.0030740  14.0030740  12.0000000  12.0000000   1.0078250   1.0078250  12.0000000  12.0000000  12.0000000  12.0000000
 NucSpn=           2           2           0           0           1           1           0           0           0           0
 AtZEff=   4.5500000   4.5500000   3.6000000   3.6000000   1.0000000   1.0000000   3.6000000   3.6000000   3.6000000   3.6000000
 NQMom=    2.0440000   2.0440000   0.0000000   0.0000000   0.0000000   0.0000000   0.0000000   0.0000000   0.0000000   0.0000000
 NMagM=    0.4037610   0.4037610   0.0000000   0.0000000   2.7928460   2.7928460   0.0000000   0.0000000   0.0000000   0.0000000
 AtZNuc=   7.0000000   7.0000000   6.0000000   6.0000000   1.0000000   1.0000000   6.0000000   6.0000000   6.0000000   6.0000000

  Atom        11          12          13          14          15          16          17          18          19          20
 IAtWgt=          12          12          12          12           1           1          12          12          12          12
 AtmWgt=  12.0000000  12.0000000  12.0000000  12.0000000   1.0078250   1.0078250  12.0000000  12.0000000  12.0000000  12.0000000
 NucSpn=           0           0           0           0           1           1           0           0           0           0
 AtZEff=   3.6000000   3.6000000   3.6000000   3.6000000   1.0000000   1.0000000   3.6000000   3.6000000   3.6000000   3.6000000
 NQMom=    0.0000000   0.0000000   0.0000000   0.0000000   0.0000000   0.0000000   0.0000000   0.0000000   0.0000000   0.0000000
 NMagM=    0.0000000   0.0000000   0.0000000   0.0000000   2.7928460   2.7928460   0.0000000   0.0000000   0.0000000   0.0000000
 AtZNuc=   6.0000000   6.0000000   6.0000000   6.0000000   1.0000000   1.0000000   6.0000000   6.0000000   6.0000000   6.0000000

  Atom        21          22          23          24          25          26          27          28          29          30
 IAtWgt=          12          12          12          12           1           1          12          12          12          12
 AtmWgt=  12.0000000  12.0000000  12.0000000  12.0000000   1.0078250   1.0078250  12.0000000  12.0000000  12.0000000  12.0000000
 NucSpn=           0           0           0           0           1           1           0           0           0           0
 AtZEff=   3.6000000   3.6000000   3.6000000   3.6000000   1.0000000   1.0000000   3.6000000   3.6000000   3.6000000   3.6000000
 NQMom=    0.0000000   0.0000000   0.0000000   0.0000000   0.0000000   0.0000000   0.0000000   0.0000000   0.0000000   0.0000000
 NMagM=    0.0000000   0.0000000   0.0000000   0.0000000   2.7928460   2.7928460   0.0000000   0.0000000   0.0000000   0.0000000
 AtZNuc=   6.0000000   6.0000000   6.0000000   6.0000000   1.0000000   1.0000000   6.0000000   6.0000000   6.0000000   6.0000000

  Atom        31          32          33          34          35          36          37          38          39          40
 IAtWgt=           1           1          12          12           1           1          12          12           1           1
 AtmWgt=   1.0078250   1.0078250  12.0000000  12.0000000   1.0078250   1.0078250  12.0000000  12.0000000   1.0078250   1.0078250
 NucSpn=           1           1           0           0           1           1           0           0           1           1
 AtZEff=   1.0000000   1.0000000   3.6000000   3.6000000   1.0000000   1.0000000   3.6000000   3.6000000   1.0000000   1.0000000
 NQMom=    0.0000000   0.0000000   0.0000000   0.0000000   0.0000000   0.0000000   0.0000000   0.0000000   0.0000000   0.0000000
 NMagM=    2.7928460   2.7928460   0.0000000   0.0000000   2.7928460   2.7928460   0.0000000   0.0000000   2.7928460   2.7928460
 AtZNuc=   1.0000000   1.0000000   6.0000000   6.0000000   1.0000000   1.0000000   6.0000000   6.0000000   1.0000000   1.0000000

  Atom        41          42          43          44          45          46          47          48          49          50
 IAtWgt=          12          12          12          12           1           1          14          14          12          12
 AtmWgt=  12.0000000  12.0000000  12.0000000  12.0000000   1.0078250   1.0078250  14.0030740  14.0030740  12.0000000  12.0000000
 NucSpn=           0           0           0           0           1           1           2           2           0           0
 AtZEff=   3.6000000   3.6000000   3.6000000   3.6000000   1.0000000   1.0000000   4.5500000   4.5500000   3.6000000   3.6000000
 NQMom=    0.0000000   0.0000000   0.0000000   0.0000000   0.0000000   0.0000000   2.0440000   2.0440000   0.0000000   0.0000000
 NMagM=    0.0000000   0.0000000   0.0000000   0.0000000   2.7928460   2.7928460   0.4037610   0.4037610   0.0000000   0.0000000
 AtZNuc=   6.0000000   6.0000000   6.0000000   6.0000000   1.0000000   1.0000000   7.0000000   7.0000000   6.0000000   6.0000000

  Atom        51          52          53          54          55          56          57          58          59          60
 IAtWgt=          12          12          12          12           1           1          12          12           1           1
 AtmWgt=  12.0000000  12.0000000  12.0000000  12.0000000   1.0078250   1.0078250  12.0000000  12.0000000   1.0078250   1.0078250
 NucSpn=           0           0           0           0           1           1           0           0           1           1
 AtZEff=   3.6000000   3.6000000   3.6000000   3.6000000   1.0000000   1.0000000   3.6000000   3.6000000   1.0000000   1.0000000
 NQMom=    0.0000000   0.0000000   0.0000000   0.0000000   0.0000000   0.0000000   0.0000000   0.0000000   0.0000000   0.0000000
 NMagM=    0.0000000   0.0000000   0.0000000   0.0000000   2.7928460   2.7928460   0.0000000   0.0000000   2.7928460   2.7928460
 AtZNuc=   6.0000000   6.0000000   6.0000000   6.0000000   1.0000000   1.0000000   6.0000000   6.0000000   1.0000000   1.0000000

  Atom        61          62          63          64          65          66          67          68          69          70
 IAtWgt=          14          14          12          12           1          12          12          12          12          12
 AtmWgt=  14.0030740  14.0030740  12.0000000  12.0000000   1.0078250  12.0000000  12.0000000  12.0000000  12.0000000  12.0000000
 NucSpn=           2           2           0           0           1           0           0           0           0           0
 AtZEff=   4.5500000   4.5500000   3.6000000   3.6000000   1.0000000   3.6000000   3.6000000   3.6000000   3.6000000   3.6000000
 NQMom=    2.0440000   2.0440000   0.0000000   0.0000000   0.0000000   0.0000000   0.0000000   0.0000000   0.0000000   0.0000000
 NMagM=    0.4037610   0.4037610   0.0000000   0.0000000   2.7928460   0.0000000   0.0000000   0.0000000   0.0000000   0.0000000
 AtZNuc=   7.0000000   7.0000000   6.0000000   6.0000000   1.0000000   6.0000000   6.0000000   6.0000000   6.0000000   6.0000000

  Atom        71          72          73          74          75          76          77          78          79          80
 IAtWgt=          12          12          12           1           1          12          12          12          12          12
 AtmWgt=  12.0000000  12.0000000  12.0000000   1.0078250   1.0078250  12.0000000  12.0000000  12.0000000  12.0000000  12.0000000
 NucSpn=           0           0           0           1           1           0           0           0           0           0
 AtZEff=   3.6000000   3.6000000   3.6000000   1.0000000   1.0000000   3.6000000   3.6000000   3.6000000   3.6000000   3.6000000
 NQMom=    0.0000000   0.0000000   0.0000000   0.0000000   0.0000000   0.0000000   0.0000000   0.0000000   0.0000000   0.0000000
 NMagM=    0.0000000   0.0000000   0.0000000   2.7928460   2.7928460   0.0000000   0.0000000   0.0000000   0.0000000   0.0000000
 AtZNuc=   6.0000000   6.0000000   6.0000000   1.0000000   1.0000000   6.0000000   6.0000000   6.0000000   6.0000000   6.0000000

  Atom        81          82          83          84          85          86          87          88          89          90
 IAtWgt=          12          12          12           1           1          12          12          12          12           1
 AtmWgt=  12.0000000  12.0000000  12.0000000   1.0078250   1.0078250  12.0000000  12.0000000  12.0000000  12.0000000   1.0078250
 NucSpn=           0           0           0           1           1           0           0           0           0           1
 AtZEff=   3.6000000   3.6000000   3.6000000   1.0000000   1.0000000   3.6000000   3.6000000   3.6000000   3.6000000   1.0000000
 NQMom=    0.0000000   0.0000000   0.0000000   0.0000000   0.0000000   0.0000000   0.0000000   0.0000000   0.0000000   0.0000000
 NMagM=    0.0000000   0.0000000   0.0000000   2.7928460   2.7928460   0.0000000   0.0000000   0.0000000   0.0000000   2.7928460
 AtZNuc=   6.0000000   6.0000000   6.0000000   1.0000000   1.0000000   6.0000000   6.0000000   6.0000000   6.0000000   1.0000000

  Atom        91          92          93          94          95          96          97          98          99         100
 IAtWgt=           1          12          12           1           1          12          12           1           1          12
 AtmWgt=   1.0078250  12.0000000  12.0000000   1.0078250   1.0078250  12.0000000  12.0000000   1.0078250   1.0078250  12.0000000
 NucSpn=           1           0           0           1           1           0           0           1           1           0
 AtZEff=   1.0000000   3.6000000   3.6000000   1.0000000   1.0000000   3.6000000   3.6000000   1.0000000   1.0000000   3.6000000
 NQMom=    0.0000000   0.0000000   0.0000000   0.0000000   0.0000000   0.0000000   0.0000000   0.0000000   0.0000000   0.0000000
 NMagM=    2.7928460   0.0000000   0.0000000   2.7928460   2.7928460   0.0000000   0.0000000   2.7928460   2.7928460   0.0000000
 AtZNuc=   1.0000000   6.0000000   6.0000000   1.0000000   1.0000000   6.0000000   6.0000000   1.0000000   1.0000000   6.0000000

  Atom       101         102         103         104         105         106         107         108         109         110
 IAtWgt=          12          12          12           1           1          14          14          12          12          12
 AtmWgt=  12.0000000  12.0000000  12.0000000   1.0078250   1.0078250  14.0030740  14.0030740  12.0000000  12.0000000  12.0000000
 NucSpn=           0           0           0           1           1           2           2           0           0           0
 AtZEff=   3.6000000   3.6000000   3.6000000   1.0000000   1.0000000   4.5500000   4.5500000   3.6000000   3.6000000   3.6000000
 NQMom=    0.0000000   0.0000000   0.0000000   0.0000000   0.0000000   2.0440000   2.0440000   0.0000000   0.0000000   0.0000000
 NMagM=    0.0000000   0.0000000   0.0000000   2.7928460   2.7928460   0.4037610   0.4037610   0.0000000   0.0000000   0.0000000
 AtZNuc=   6.0000000   6.0000000   6.0000000   1.0000000   1.0000000   7.0000000   7.0000000   6.0000000   6.0000000   6.0000000

  Atom       111         112         113         114         115         116         117         118         119         120
 IAtWgt=          12          12          12           1           1          12          12           1           1         106
 AtmWgt=  12.0000000  12.0000000  12.0000000   1.0078250   1.0078250  12.0000000  12.0000000   1.0078250   1.0078250 105.9032000
 NucSpn=           0           0           0           1           1           0           0           1           1           0
 AtZEff=   3.6000000   3.6000000   3.6000000   1.0000000   1.0000000   3.6000000   3.6000000   1.0000000   1.0000000 237.3600000
 NQMom=    0.0000000   0.0000000   0.0000000   0.0000000   0.0000000   0.0000000   0.0000000   0.0000000   0.0000000   0.0000000
 NMagM=    0.0000000   0.0000000   0.0000000   2.7928460   2.7928460   0.0000000   0.0000000   2.7928460   2.7928460   0.0000000
 AtZNuc=   6.0000000   6.0000000   6.0000000   1.0000000   1.0000000   6.0000000   6.0000000   1.0000000   1.0000000  46.0000000

  Atom       121         122         123         124         125         126         127         128         129         130
 IAtWgt=         106           1           1           1           1           1           1           1           1           1
 AtmWgt= 105.9032000   1.0078250   1.0078250   1.0078250   1.0078250   1.0078250   1.0078250   1.0078250   1.0078250   1.0078250
 NucSpn=           0           1           1           1           1           1           1           1           1           1
 AtZEff= 237.3600000   1.0000000   1.0000000   1.0000000   1.0000000   1.0000000   1.0000000   1.0000000   1.0000000   1.0000000
 NQMom=    0.0000000   0.0000000   0.0000000   0.0000000   0.0000000   0.0000000   0.0000000   0.0000000   0.0000000   0.0000000
 NMagM=    0.0000000   2.7928460   2.7928460   2.7928460   2.7928460   2.7928460   2.7928460   2.7928460   2.7928460   2.7928460
 AtZNuc=  46.0000000   1.0000000   1.0000000   1.0000000   1.0000000   1.0000000   1.0000000   1.0000000   1.0000000   1.0000000

  Atom       131         132         133         134         135         136         137         138         139         140
 IAtWgt=           1           1           1           1           1           1           1           1           1           1
 AtmWgt=   1.0078250   1.0078250   1.0078250   1.0078250   1.0078250   1.0078250   1.0078250   1.0078250   1.0078250   1.0078250
 NucSpn=           1           1           1           1           1           1           1           1           1           1
 AtZEff=   1.0000000   1.0000000   1.0000000   1.0000000   1.0000000   1.0000000   1.0000000   1.0000000   1.0000000   1.0000000
 NQMom=    0.0000000   0.0000000   0.0000000   0.0000000   0.0000000   0.0000000   0.0000000   0.0000000   0.0000000   0.0000000
 NMagM=    2.7928460   2.7928460   2.7928460   2.7928460   2.7928460   2.7928460   2.7928460   2.7928460   2.7928460   2.7928460
 AtZNuc=   1.0000000   1.0000000   1.0000000   1.0000000   1.0000000   1.0000000   1.0000000   1.0000000   1.0000000   1.0000000

  Atom       141         142
 IAtWgt=           1           1
 AtmWgt=   1.0078250   1.0078250
 NucSpn=           1           1
 AtZEff=   1.0000000   1.0000000
 NQMom=    0.0000000   0.0000000
 NMagM=    2.7928460   2.7928460
 AtZNuc=   1.0000000   1.0000000
 Center=      0.18431343      0.03037472      0.02046088
 Residue   1 PDB Number     1_0 MOL charge    0.00000000 layers R        AvRTP=      0.00000000    180.00000000     90.00000000
 Leave Link  101 at Sat Aug 31 09:33:32 2019, MaxMem=  7864320000 cpu:              47.8 elap:               1.5
 (Enter /apps/gaussian/g16-a03/l103.exe)

 GradGradGradGradGradGradGradGradGradGradGradGradGradGradGradGradGradGrad
 Berny optimization.
 Initialization pass.
                           ----------------------------
                           !    Initial Parameters    !
                           ! (Angstroms and Degrees)  !
 --------------------------                            --------------------------
 ! Name  Definition              Value          Derivative Info.                !
 --------------------------------------------------------------------------------
 ! R1    R(1,3)                  1.3433         calculate D2E/DX2 analytically  !
 ! R2    R(1,13)                 1.3484         calculate D2E/DX2 analytically  !
 ! R3    R(1,121)                2.0658         calculate D2E/DX2 analytically  !
 ! R4    R(2,4)                  1.3431         calculate D2E/DX2 analytically  !
 ! R5    R(2,14)                 1.3487         calculate D2E/DX2 analytically  !
 ! R6    R(2,121)                2.0666         calculate D2E/DX2 analytically  !
 ! R7    R(3,5)                  1.0839         calculate D2E/DX2 analytically  !
 ! R8    R(3,7)                  1.4029         calculate D2E/DX2 analytically  !
 ! R9    R(4,6)                  1.0836         calculate D2E/DX2 analytically  !
 ! R10   R(4,8)                  1.4029         calculate D2E/DX2 analytically  !
 ! R11   R(7,9)                  1.4085         calculate D2E/DX2 analytically  !
 ! R12   R(7,17)                 1.4195         calculate D2E/DX2 analytically  !
 ! R13   R(8,10)                 1.408          calculate D2E/DX2 analytically  !
 ! R14   R(8,18)                 1.4195         calculate D2E/DX2 analytically  !
 ! R15   R(9,11)                 1.3904         calculate D2E/DX2 analytically  !
 ! R16   R(9,124)                1.0845         calculate D2E/DX2 analytically  !
 ! R17   R(10,12)                1.391          calculate D2E/DX2 analytically  !
 ! R18   R(10,123)               1.0844         calculate D2E/DX2 analytically  !
 ! R19   R(11,13)                1.3916         calculate D2E/DX2 analytically  !
 ! R20   R(11,125)               1.0838         calculate D2E/DX2 analytically  !
 ! R21   R(12,14)                1.3921         calculate D2E/DX2 analytically  !
 ! R22   R(12,122)               1.0839         calculate D2E/DX2 analytically  !
 ! R23   R(13,15)                1.0824         calculate D2E/DX2 analytically  !
 ! R24   R(14,16)                1.0828         calculate D2E/DX2 analytically  !
 ! R25   R(17,19)                1.215          calculate D2E/DX2 analytically  !
 ! R26   R(18,20)                1.2152         calculate D2E/DX2 analytically  !
 ! R27   R(19,21)                1.4242         calculate D2E/DX2 analytically  !
 ! R28   R(20,22)                1.424          calculate D2E/DX2 analytically  !
 ! R29   R(21,23)                1.4076         calculate D2E/DX2 analytically  !
 ! R30   R(21,37)                1.4093         calculate D2E/DX2 analytically  !
 ! R31   R(22,24)                1.4084         calculate D2E/DX2 analytically  !
 ! R32   R(22,38)                1.4091         calculate D2E/DX2 analytically  !
 ! R33   R(23,25)                1.0854         calculate D2E/DX2 analytically  !
 ! R34   R(23,27)                1.4004         calculate D2E/DX2 analytically  !
 ! R35   R(24,26)                1.0856         calculate D2E/DX2 analytically  !
 ! R36   R(24,28)                1.3988         calculate D2E/DX2 analytically  !
 ! R37   R(27,29)                1.4069         calculate D2E/DX2 analytically  !
 ! R38   R(27,41)                1.4829         calculate D2E/DX2 analytically  !
 ! R39   R(28,30)                1.4057         calculate D2E/DX2 analytically  !
 ! R40   R(28,42)                1.4826         calculate D2E/DX2 analytically  !
 ! R41   R(29,31)                1.0854         calculate D2E/DX2 analytically  !
 ! R42   R(29,33)                1.3943         calculate D2E/DX2 analytically  !
 ! R43   R(30,32)                1.0859         calculate D2E/DX2 analytically  !
 ! R44   R(30,34)                1.3949         calculate D2E/DX2 analytically  !
 ! R45   R(33,35)                1.0855         calculate D2E/DX2 analytically  !
 ! R46   R(33,37)                1.3915         calculate D2E/DX2 analytically  !
 ! R47   R(34,36)                1.0855         calculate D2E/DX2 analytically  !
 ! R48   R(34,38)                1.3924         calculate D2E/DX2 analytically  !
 ! R49   R(37,39)                1.085          calculate D2E/DX2 analytically  !
 ! R50   R(38,40)                1.085          calculate D2E/DX2 analytically  !
 ! R51   R(41,43)                1.3952         calculate D2E/DX2 analytically  !
 ! R52   R(41,57)                1.4036         calculate D2E/DX2 analytically  !
 ! R53   R(42,44)                1.3948         calculate D2E/DX2 analytically  !
 ! R54   R(42,58)                1.4025         calculate D2E/DX2 analytically  !
 ! R55   R(43,45)                1.0832         calculate D2E/DX2 analytically  !
 ! R56   R(43,47)                1.352          calculate D2E/DX2 analytically  !
 ! R57   R(44,46)                1.0837         calculate D2E/DX2 analytically  !
 ! R58   R(44,48)                1.351          calculate D2E/DX2 analytically  !
 ! R59   R(47,49)                1.3575         calculate D2E/DX2 analytically  !
 ! R60   R(47,120)               2.0879         calculate D2E/DX2 analytically  !
 ! R61   R(48,50)                1.3583         calculate D2E/DX2 analytically  !
 ! R62   R(48,120)               2.0768         calculate D2E/DX2 analytically  !
 ! R63   R(49,51)                1.5015         calculate D2E/DX2 analytically  !
 ! R64   R(49,53)                1.398          calculate D2E/DX2 analytically  !
 ! R65   R(50,52)                1.5027         calculate D2E/DX2 analytically  !
 ! R66   R(50,54)                1.3978         calculate D2E/DX2 analytically  !
 ! R67   R(51,134)               1.0919         calculate D2E/DX2 analytically  !
 ! R68   R(51,135)               1.0945         calculate D2E/DX2 analytically  !
 ! R69   R(51,136)               1.0935         calculate D2E/DX2 analytically  !
 ! R70   R(52,140)               1.0921         calculate D2E/DX2 analytically  !
 ! R71   R(52,141)               1.0929         calculate D2E/DX2 analytically  !
 ! R72   R(52,142)               1.095          calculate D2E/DX2 analytically  !
 ! R73   R(53,55)                1.084          calculate D2E/DX2 analytically  !
 ! R74   R(53,57)                1.3864         calculate D2E/DX2 analytically  !
 ! R75   R(54,56)                1.0841         calculate D2E/DX2 analytically  !
 ! R76   R(54,58)                1.3871         calculate D2E/DX2 analytically  !
 ! R77   R(57,59)                1.085          calculate D2E/DX2 analytically  !
 ! R78   R(58,60)                1.0853         calculate D2E/DX2 analytically  !
 ! R79   R(61,63)                1.3435         calculate D2E/DX2 analytically  !
 ! R80   R(61,72)                1.3506         calculate D2E/DX2 analytically  !
 ! R81   R(61,120)               2.067          calculate D2E/DX2 analytically  !
 ! R82   R(62,64)                1.3421         calculate D2E/DX2 analytically  !
 ! R83   R(62,73)                1.3489         calculate D2E/DX2 analytically  !
 ! R84   R(62,121)               2.0619         calculate D2E/DX2 analytically  !
 ! R85   R(63,65)                1.0828         calculate D2E/DX2 analytically  !
 ! R86   R(63,66)                1.4033         calculate D2E/DX2 analytically  !
 ! R87   R(64,67)                1.4037         calculate D2E/DX2 analytically  !
 ! R88   R(64,128)               1.0841         calculate D2E/DX2 analytically  !
 ! R89   R(66,68)                1.4068         calculate D2E/DX2 analytically  !
 ! R90   R(66,76)                1.4225         calculate D2E/DX2 analytically  !
 ! R91   R(67,69)                1.4087         calculate D2E/DX2 analytically  !
 ! R92   R(67,77)                1.4192         calculate D2E/DX2 analytically  !
 ! R93   R(68,70)                1.3917         calculate D2E/DX2 analytically  !
 ! R94   R(68,130)               1.0844         calculate D2E/DX2 analytically  !
 ! R95   R(69,71)                1.3904         calculate D2E/DX2 analytically  !
 ! R96   R(69,126)               1.0844         calculate D2E/DX2 analytically  !
 ! R97   R(70,72)                1.3901         calculate D2E/DX2 analytically  !
 ! R98   R(70,129)               1.0838         calculate D2E/DX2 analytically  !
 ! R99   R(71,73)                1.3913         calculate D2E/DX2 analytically  !
 ! R100  R(71,127)               1.0838         calculate D2E/DX2 analytically  !
 ! R101  R(72,74)                1.0826         calculate D2E/DX2 analytically  !
 ! R102  R(73,75)                1.0835         calculate D2E/DX2 analytically  !
 ! R103  R(76,78)                1.2145         calculate D2E/DX2 analytically  !
 ! R104  R(77,79)                1.2151         calculate D2E/DX2 analytically  !
 ! R105  R(78,80)                1.427          calculate D2E/DX2 analytically  !
 ! R106  R(79,81)                1.4239         calculate D2E/DX2 analytically  !
 ! R107  R(80,82)                1.4061         calculate D2E/DX2 analytically  !
 ! R108  R(80,96)                1.4081         calculate D2E/DX2 analytically  !
 ! R109  R(81,83)                1.4074         calculate D2E/DX2 analytically  !
 ! R110  R(81,97)                1.4094         calculate D2E/DX2 analytically  !
 ! R111  R(82,84)                1.0853         calculate D2E/DX2 analytically  !
 ! R112  R(82,86)                1.4008         calculate D2E/DX2 analytically  !
 ! R113  R(83,85)                1.0856         calculate D2E/DX2 analytically  !
 ! R114  R(83,87)                1.3997         calculate D2E/DX2 analytically  !
 ! R115  R(86,88)                1.4059         calculate D2E/DX2 analytically  !
 ! R116  R(86,100)               1.4821         calculate D2E/DX2 analytically  !
 ! R117  R(87,89)                1.4056         calculate D2E/DX2 analytically  !
 ! R118  R(87,101)               1.4819         calculate D2E/DX2 analytically  !
 ! R119  R(88,90)                1.0855         calculate D2E/DX2 analytically  !
 ! R120  R(88,92)                1.3948         calculate D2E/DX2 analytically  !
 ! R121  R(89,91)                1.0858         calculate D2E/DX2 analytically  !
 ! R122  R(89,93)                1.3951         calculate D2E/DX2 analytically  !
 ! R123  R(92,94)                1.0855         calculate D2E/DX2 analytically  !
 ! R124  R(92,96)                1.3928         calculate D2E/DX2 analytically  !
 ! R125  R(93,95)                1.0855         calculate D2E/DX2 analytically  !
 ! R126  R(93,97)                1.3923         calculate D2E/DX2 analytically  !
 ! R127  R(96,98)                1.085          calculate D2E/DX2 analytically  !
 ! R128  R(97,99)                1.085          calculate D2E/DX2 analytically  !
 ! R129  R(100,102)              1.3942         calculate D2E/DX2 analytically  !
 ! R130  R(100,116)              1.4043         calculate D2E/DX2 analytically  !
 ! R131  R(101,103)              1.3943         calculate D2E/DX2 analytically  !
 ! R132  R(101,117)              1.4021         calculate D2E/DX2 analytically  !
 ! R133  R(102,104)              1.0829         calculate D2E/DX2 analytically  !
 ! R134  R(102,106)              1.3503         calculate D2E/DX2 analytically  !
 ! R135  R(103,105)              1.0832         calculate D2E/DX2 analytically  !
 ! R136  R(103,107)              1.3514         calculate D2E/DX2 analytically  !
 ! R137  R(106,108)              1.3546         calculate D2E/DX2 analytically  !
 ! R138  R(106,121)              2.0762         calculate D2E/DX2 analytically  !
 ! R139  R(107,109)              1.3586         calculate D2E/DX2 analytically  !
 ! R140  R(107,120)              2.0861         calculate D2E/DX2 analytically  !
 ! R141  R(108,110)              1.5033         calculate D2E/DX2 analytically  !
 ! R142  R(108,112)              1.3998         calculate D2E/DX2 analytically  !
 ! R143  R(109,111)              1.5024         calculate D2E/DX2 analytically  !
 ! R144  R(109,113)              1.3988         calculate D2E/DX2 analytically  !
 ! R145  R(110,131)              1.0934         calculate D2E/DX2 analytically  !
 ! R146  R(110,132)              1.0967         calculate D2E/DX2 analytically  !
 ! R147  R(110,133)              1.0917         calculate D2E/DX2 analytically  !
 ! R148  R(111,137)              1.0924         calculate D2E/DX2 analytically  !
 ! R149  R(111,138)              1.0943         calculate D2E/DX2 analytically  !
 ! R150  R(111,139)              1.092          calculate D2E/DX2 analytically  !
 ! R151  R(112,114)              1.0845         calculate D2E/DX2 analytically  !
 ! R152  R(112,116)              1.386          calculate D2E/DX2 analytically  !
 ! R153  R(113,115)              1.0841         calculate D2E/DX2 analytically  !
 ! R154  R(113,117)              1.3871         calculate D2E/DX2 analytically  !
 ! R155  R(116,118)              1.0851         calculate D2E/DX2 analytically  !
 ! R156  R(117,119)              1.0852         calculate D2E/DX2 analytically  !
 ! A1    A(3,1,13)             119.9601         calculate D2E/DX2 analytically  !
 ! A2    A(3,1,121)            116.6186         calculate D2E/DX2 analytically  !
 ! A3    A(13,1,121)           123.219          calculate D2E/DX2 analytically  !
 ! A4    A(4,2,14)             119.8377         calculate D2E/DX2 analytically  !
 ! A5    A(4,2,121)            116.5808         calculate D2E/DX2 analytically  !
 ! A6    A(14,2,121)           123.4913         calculate D2E/DX2 analytically  !
 ! A7    A(1,3,5)              117.1483         calculate D2E/DX2 analytically  !
 ! A8    A(1,3,7)              122.1902         calculate D2E/DX2 analytically  !
 ! A9    A(5,3,7)              120.659          calculate D2E/DX2 analytically  !
 ! A10   A(2,4,6)              117.406          calculate D2E/DX2 analytically  !
 ! A11   A(2,4,8)              122.416          calculate D2E/DX2 analytically  !
 ! A12   A(6,4,8)              120.1758         calculate D2E/DX2 analytically  !
 ! A13   A(3,7,9)              117.7808         calculate D2E/DX2 analytically  !
 ! A14   A(3,7,17)             119.6492         calculate D2E/DX2 analytically  !
 ! A15   A(9,7,17)             122.5626         calculate D2E/DX2 analytically  !
 ! A16   A(4,8,10)             117.7009         calculate D2E/DX2 analytically  !
 ! A17   A(4,8,18)             118.9612         calculate D2E/DX2 analytically  !
 ! A18   A(10,8,18)            123.3371         calculate D2E/DX2 analytically  !
 ! A19   A(7,9,11)             119.2572         calculate D2E/DX2 analytically  !
 ! A20   A(7,9,124)            119.8592         calculate D2E/DX2 analytically  !
 ! A21   A(11,9,124)           120.8804         calculate D2E/DX2 analytically  !
 ! A22   A(8,10,12)            119.1799         calculate D2E/DX2 analytically  !
 ! A23   A(8,10,123)           119.9412         calculate D2E/DX2 analytically  !
 ! A24   A(12,10,123)          120.8789         calculate D2E/DX2 analytically  !
 ! A25   A(9,11,13)            119.5            calculate D2E/DX2 analytically  !
 ! A26   A(9,11,125)           121.0952         calculate D2E/DX2 analytically  !
 ! A27   A(13,11,125)          119.4013         calculate D2E/DX2 analytically  !
 ! A28   A(10,12,14)           119.6489         calculate D2E/DX2 analytically  !
 ! A29   A(10,12,122)          120.9972         calculate D2E/DX2 analytically  !
 ! A30   A(14,12,122)          119.3536         calculate D2E/DX2 analytically  !
 ! A31   A(1,13,11)            121.2935         calculate D2E/DX2 analytically  !
 ! A32   A(1,13,15)            116.7733         calculate D2E/DX2 analytically  !
 ! A33   A(11,13,15)           121.9313         calculate D2E/DX2 analytically  !
 ! A34   A(2,14,12)            121.2152         calculate D2E/DX2 analytically  !
 ! A35   A(2,14,16)            116.8031         calculate D2E/DX2 analytically  !
 ! A36   A(12,14,16)           121.9813         calculate D2E/DX2 analytically  !
 ! A37   A(19,21,23)           120.7974         calculate D2E/DX2 analytically  !
 ! A38   A(19,21,37)           119.5058         calculate D2E/DX2 analytically  !
 ! A39   A(23,21,37)           119.6957         calculate D2E/DX2 analytically  !
 ! A40   A(20,22,24)           120.2472         calculate D2E/DX2 analytically  !
 ! A41   A(20,22,38)           120.1636         calculate D2E/DX2 analytically  !
 ! A42   A(24,22,38)           119.5711         calculate D2E/DX2 analytically  !
 ! A43   A(21,23,25)           119.0475         calculate D2E/DX2 analytically  !
 ! A44   A(21,23,27)           120.487          calculate D2E/DX2 analytically  !
 ! A45   A(25,23,27)           120.4489         calculate D2E/DX2 analytically  !
 ! A46   A(22,24,26)           119.3996         calculate D2E/DX2 analytically  !
 ! A47   A(22,24,28)           120.4017         calculate D2E/DX2 analytically  !
 ! A48   A(26,24,28)           120.1507         calculate D2E/DX2 analytically  !
 ! A49   A(23,27,29)           118.9375         calculate D2E/DX2 analytically  !
 ! A50   A(23,27,41)           121.7105         calculate D2E/DX2 analytically  !
 ! A51   A(29,27,41)           119.3441         calculate D2E/DX2 analytically  !
 ! A52   A(24,28,30)           119.2832         calculate D2E/DX2 analytically  !
 ! A53   A(24,28,42)           120.9208         calculate D2E/DX2 analytically  !
 ! A54   A(30,28,42)           119.7651         calculate D2E/DX2 analytically  !
 ! A55   A(27,29,31)           119.8337         calculate D2E/DX2 analytically  !
 ! A56   A(27,29,33)           120.7795         calculate D2E/DX2 analytically  !
 ! A57   A(31,29,33)           119.3692         calculate D2E/DX2 analytically  !
 ! A58   A(28,30,32)           119.6355         calculate D2E/DX2 analytically  !
 ! A59   A(28,30,34)           120.5099         calculate D2E/DX2 analytically  !
 ! A60   A(32,30,34)           119.8486         calculate D2E/DX2 analytically  !
 ! A61   A(29,33,35)           119.7863         calculate D2E/DX2 analytically  !
 ! A62   A(29,33,37)           120.3012         calculate D2E/DX2 analytically  !
 ! A63   A(35,33,37)           119.91           calculate D2E/DX2 analytically  !
 ! A64   A(30,34,36)           119.8137         calculate D2E/DX2 analytically  !
 ! A65   A(30,34,38)           120.3332         calculate D2E/DX2 analytically  !
 ! A66   A(36,34,38)           119.8529         calculate D2E/DX2 analytically  !
 ! A67   A(21,37,33)           119.7959         calculate D2E/DX2 analytically  !
 ! A68   A(21,37,39)           119.4987         calculate D2E/DX2 analytically  !
 ! A69   A(33,37,39)           120.7047         calculate D2E/DX2 analytically  !
 ! A70   A(22,38,34)           119.8913         calculate D2E/DX2 analytically  !
 ! A71   A(22,38,40)           119.4918         calculate D2E/DX2 analytically  !
 ! A72   A(34,38,40)           120.6163         calculate D2E/DX2 analytically  !
 ! A73   A(27,41,43)           121.5089         calculate D2E/DX2 analytically  !
 ! A74   A(27,41,57)           121.8065         calculate D2E/DX2 analytically  !
 ! A75   A(43,41,57)           116.6155         calculate D2E/DX2 analytically  !
 ! A76   A(28,42,44)           121.8073         calculate D2E/DX2 analytically  !
 ! A77   A(28,42,58)           121.2365         calculate D2E/DX2 analytically  !
 ! A78   A(44,42,58)           116.952          calculate D2E/DX2 analytically  !
 ! A79   A(41,43,45)           120.5878         calculate D2E/DX2 analytically  !
 ! A80   A(41,43,47)           123.3032         calculate D2E/DX2 analytically  !
 ! A81   A(45,43,47)           116.065          calculate D2E/DX2 analytically  !
 ! A82   A(42,44,46)           120.8668         calculate D2E/DX2 analytically  !
 ! A83   A(42,44,48)           122.9158         calculate D2E/DX2 analytically  !
 ! A84   A(46,44,48)           116.1915         calculate D2E/DX2 analytically  !
 ! A85   A(43,47,49)           120.166          calculate D2E/DX2 analytically  !
 ! A86   A(43,47,120)          116.3603         calculate D2E/DX2 analytically  !
 ! A87   A(49,47,120)          123.3635         calculate D2E/DX2 analytically  !
 ! A88   A(44,48,50)           120.4392         calculate D2E/DX2 analytically  !
 ! A89   A(44,48,120)          117.3285         calculate D2E/DX2 analytically  !
 ! A90   A(50,48,120)          122.168          calculate D2E/DX2 analytically  !
 ! A91   A(47,49,51)           120.0225         calculate D2E/DX2 analytically  !
 ! A92   A(47,49,53)           119.2298         calculate D2E/DX2 analytically  !
 ! A93   A(51,49,53)           120.7431         calculate D2E/DX2 analytically  !
 ! A94   A(48,50,52)           120.1724         calculate D2E/DX2 analytically  !
 ! A95   A(48,50,54)           119.2118         calculate D2E/DX2 analytically  !
 ! A96   A(52,50,54)           120.6157         calculate D2E/DX2 analytically  !
 ! A97   A(49,51,134)          110.2146         calculate D2E/DX2 analytically  !
 ! A98   A(49,51,135)          111.0252         calculate D2E/DX2 analytically  !
 ! A99   A(49,51,136)          111.0688         calculate D2E/DX2 analytically  !
 ! A100  A(134,51,135)         108.2768         calculate D2E/DX2 analytically  !
 ! A101  A(134,51,136)         107.9653         calculate D2E/DX2 analytically  !
 ! A102  A(135,51,136)         108.1826         calculate D2E/DX2 analytically  !
 ! A103  A(50,52,140)          110.1765         calculate D2E/DX2 analytically  !
 ! A104  A(50,52,141)          112.0796         calculate D2E/DX2 analytically  !
 ! A105  A(50,52,142)          110.4714         calculate D2E/DX2 analytically  !
 ! A106  A(140,52,141)         108.4125         calculate D2E/DX2 analytically  !
 ! A107  A(140,52,142)         107.875          calculate D2E/DX2 analytically  !
 ! A108  A(141,52,142)         107.6903         calculate D2E/DX2 analytically  !
 ! A109  A(49,53,55)           118.8851         calculate D2E/DX2 analytically  !
 ! A110  A(49,53,57)           120.7266         calculate D2E/DX2 analytically  !
 ! A111  A(55,53,57)           120.3837         calculate D2E/DX2 analytically  !
 ! A112  A(50,54,56)           118.9277         calculate D2E/DX2 analytically  !
 ! A113  A(50,54,58)           120.609          calculate D2E/DX2 analytically  !
 ! A114  A(56,54,58)           120.4633         calculate D2E/DX2 analytically  !
 ! A115  A(41,57,53)           119.8897         calculate D2E/DX2 analytically  !
 ! A116  A(41,57,59)           120.2812         calculate D2E/DX2 analytically  !
 ! A117  A(53,57,59)           119.8289         calculate D2E/DX2 analytically  !
 ! A118  A(42,58,54)           119.86           calculate D2E/DX2 analytically  !
 ! A119  A(42,58,60)           119.9877         calculate D2E/DX2 analytically  !
 ! A120  A(54,58,60)           120.1464         calculate D2E/DX2 analytically  !
 ! A121  A(63,61,72)           119.8473         calculate D2E/DX2 analytically  !
 ! A122  A(63,61,120)          117.6131         calculate D2E/DX2 analytically  !
 ! A123  A(72,61,120)          122.426          calculate D2E/DX2 analytically  !
 ! A124  A(64,62,73)           120.1142         calculate D2E/DX2 analytically  !
 ! A125  A(64,62,121)          120.0418         calculate D2E/DX2 analytically  !
 ! A126  A(73,62,121)          119.8161         calculate D2E/DX2 analytically  !
 ! A127  A(61,63,65)           117.1649         calculate D2E/DX2 analytically  !
 ! A128  A(61,63,66)           122.2021         calculate D2E/DX2 analytically  !
 ! A129  A(65,63,66)           120.6329         calculate D2E/DX2 analytically  !
 ! A130  A(62,64,67)           122.1017         calculate D2E/DX2 analytically  !
 ! A131  A(62,64,128)          117.1924         calculate D2E/DX2 analytically  !
 ! A132  A(67,64,128)          120.7051         calculate D2E/DX2 analytically  !
 ! A133  A(63,66,68)           117.859          calculate D2E/DX2 analytically  !
 ! A134  A(63,66,76)           119.3051         calculate D2E/DX2 analytically  !
 ! A135  A(68,66,76)           122.8355         calculate D2E/DX2 analytically  !
 ! A136  A(64,67,69)           117.7524         calculate D2E/DX2 analytically  !
 ! A137  A(64,67,77)           119.9742         calculate D2E/DX2 analytically  !
 ! A138  A(69,67,77)           122.2729         calculate D2E/DX2 analytically  !
 ! A139  A(66,68,70)           119.2334         calculate D2E/DX2 analytically  !
 ! A140  A(66,68,130)          119.8887         calculate D2E/DX2 analytically  !
 ! A141  A(70,68,130)          120.8774         calculate D2E/DX2 analytically  !
 ! A142  A(67,69,71)           119.3393         calculate D2E/DX2 analytically  !
 ! A143  A(67,69,126)          119.7921         calculate D2E/DX2 analytically  !
 ! A144  A(71,69,126)          120.8685         calculate D2E/DX2 analytically  !
 ! A145  A(68,70,72)           119.5106         calculate D2E/DX2 analytically  !
 ! A146  A(68,70,129)          121.0902         calculate D2E/DX2 analytically  !
 ! A147  A(72,70,129)          119.3988         calculate D2E/DX2 analytically  !
 ! A148  A(69,71,73)           119.4586         calculate D2E/DX2 analytically  !
 ! A149  A(69,71,127)          121.0995         calculate D2E/DX2 analytically  !
 ! A150  A(73,71,127)          119.4419         calculate D2E/DX2 analytically  !
 ! A151  A(61,72,70)           121.3417         calculate D2E/DX2 analytically  !
 ! A152  A(61,72,74)           116.7554         calculate D2E/DX2 analytically  !
 ! A153  A(70,72,74)           121.9029         calculate D2E/DX2 analytically  !
 ! A154  A(62,73,71)           121.2329         calculate D2E/DX2 analytically  !
 ! A155  A(62,73,75)           116.6999         calculate D2E/DX2 analytically  !
 ! A156  A(71,73,75)           122.0672         calculate D2E/DX2 analytically  !
 ! A157  A(78,80,82)           119.9644         calculate D2E/DX2 analytically  !
 ! A158  A(78,80,96)           120.4219         calculate D2E/DX2 analytically  !
 ! A159  A(82,80,96)           119.6128         calculate D2E/DX2 analytically  !
 ! A160  A(79,81,83)           120.3666         calculate D2E/DX2 analytically  !
 ! A161  A(79,81,97)           120.0693         calculate D2E/DX2 analytically  !
 ! A162  A(83,81,97)           119.5471         calculate D2E/DX2 analytically  !
 ! A163  A(80,82,84)           118.8741         calculate D2E/DX2 analytically  !
 ! A164  A(80,82,86)           120.6969         calculate D2E/DX2 analytically  !
 ! A165  A(84,82,86)           120.4117         calculate D2E/DX2 analytically  !
 ! A166  A(81,83,85)           119.2091         calculate D2E/DX2 analytically  !
 ! A167  A(81,83,87)           120.5054         calculate D2E/DX2 analytically  !
 ! A168  A(85,83,87)           120.2477         calculate D2E/DX2 analytically  !
 ! A169  A(82,86,88)           118.8901         calculate D2E/DX2 analytically  !
 ! A170  A(82,86,100)          120.7444         calculate D2E/DX2 analytically  !
 ! A171  A(88,86,100)          120.3654         calculate D2E/DX2 analytically  !
 ! A172  A(83,87,89)           119.1877         calculate D2E/DX2 analytically  !
 ! A173  A(83,87,101)          120.6555         calculate D2E/DX2 analytically  !
 ! A174  A(89,87,101)          120.1489         calculate D2E/DX2 analytically  !
 ! A175  A(86,88,90)           119.8984         calculate D2E/DX2 analytically  !
 ! A176  A(86,88,92)           120.6198         calculate D2E/DX2 analytically  !
 ! A177  A(90,88,92)           119.4674         calculate D2E/DX2 analytically  !
 ! A178  A(87,89,91)           119.7398         calculate D2E/DX2 analytically  !
 ! A179  A(87,89,93)           120.5161         calculate D2E/DX2 analytically  !
 ! A180  A(91,89,93)           119.7344         calculate D2E/DX2 analytically  !
 ! A181  A(88,92,94)           119.7326         calculate D2E/DX2 analytically  !
 ! A182  A(88,92,96)           120.4664         calculate D2E/DX2 analytically  !
 ! A183  A(94,92,96)           119.7986         calculate D2E/DX2 analytically  !
 ! A184  A(89,93,95)           119.7938         calculate D2E/DX2 analytically  !
 ! A185  A(89,93,97)           120.3808         calculate D2E/DX2 analytically  !
 ! A186  A(95,93,97)           119.8254         calculate D2E/DX2 analytically  !
 ! A187  A(80,96,92)           119.7104         calculate D2E/DX2 analytically  !
 ! A188  A(80,96,98)           119.6282         calculate D2E/DX2 analytically  !
 ! A189  A(92,96,98)           120.6606         calculate D2E/DX2 analytically  !
 ! A190  A(81,97,93)           119.8597         calculate D2E/DX2 analytically  !
 ! A191  A(81,97,99)           119.5139         calculate D2E/DX2 analytically  !
 ! A192  A(93,97,99)           120.6259         calculate D2E/DX2 analytically  !
 ! A193  A(86,100,102)         120.9482         calculate D2E/DX2 analytically  !
 ! A194  A(86,100,116)         122.464          calculate D2E/DX2 analytically  !
 ! A195  A(102,100,116)        116.5839         calculate D2E/DX2 analytically  !
 ! A196  A(87,101,103)         121.1072         calculate D2E/DX2 analytically  !
 ! A197  A(87,101,117)         122.0711         calculate D2E/DX2 analytically  !
 ! A198  A(103,101,117)        116.8196         calculate D2E/DX2 analytically  !
 ! A199  A(100,102,104)        120.4314         calculate D2E/DX2 analytically  !
 ! A200  A(100,102,106)        123.4143         calculate D2E/DX2 analytically  !
 ! A201  A(104,102,106)        116.1505         calculate D2E/DX2 analytically  !
 ! A202  A(101,103,105)        120.3469         calculate D2E/DX2 analytically  !
 ! A203  A(101,103,107)        123.3679         calculate D2E/DX2 analytically  !
 ! A204  A(105,103,107)        116.2664         calculate D2E/DX2 analytically  !
 ! A205  A(102,106,108)        120.2585         calculate D2E/DX2 analytically  !
 ! A206  A(102,106,121)        115.4995         calculate D2E/DX2 analytically  !
 ! A207  A(108,106,121)        124.2399         calculate D2E/DX2 analytically  !
 ! A208  A(103,107,109)        120.0772         calculate D2E/DX2 analytically  !
 ! A209  A(103,107,120)        113.3514         calculate D2E/DX2 analytically  !
 ! A210  A(109,107,120)        126.5447         calculate D2E/DX2 analytically  !
 ! A211  A(106,108,110)        120.6975         calculate D2E/DX2 analytically  !
 ! A212  A(106,108,112)        119.1443         calculate D2E/DX2 analytically  !
 ! A213  A(110,108,112)        120.1372         calculate D2E/DX2 analytically  !
 ! A214  A(107,109,111)        120.5334         calculate D2E/DX2 analytically  !
 ! A215  A(107,109,113)        119.178          calculate D2E/DX2 analytically  !
 ! A216  A(111,109,113)        120.2884         calculate D2E/DX2 analytically  !
 ! A217  A(108,110,131)        110.1548         calculate D2E/DX2 analytically  !
 ! A218  A(108,110,132)        109.9559         calculate D2E/DX2 analytically  !
 ! A219  A(108,110,133)        112.6578         calculate D2E/DX2 analytically  !
 ! A220  A(131,110,132)        107.3121         calculate D2E/DX2 analytically  !
 ! A221  A(131,110,133)        108.3459         calculate D2E/DX2 analytically  !
 ! A222  A(132,110,133)        108.2459         calculate D2E/DX2 analytically  !
 ! A223  A(109,111,137)        111.9439         calculate D2E/DX2 analytically  !
 ! A224  A(109,111,138)        110.7425         calculate D2E/DX2 analytically  !
 ! A225  A(109,111,139)        110.0681         calculate D2E/DX2 analytically  !
 ! A226  A(137,111,138)        108.028          calculate D2E/DX2 analytically  !
 ! A227  A(137,111,139)        108.1794         calculate D2E/DX2 analytically  !
 ! A228  A(138,111,139)        107.7407         calculate D2E/DX2 analytically  !
 ! A229  A(108,112,114)        118.7439         calculate D2E/DX2 analytically  !
 ! A230  A(108,112,116)        120.7998         calculate D2E/DX2 analytically  !
 ! A231  A(114,112,116)        120.4534         calculate D2E/DX2 analytically  !
 ! A232  A(109,113,115)        118.7866         calculate D2E/DX2 analytically  !
 ! A233  A(109,113,117)        120.8736         calculate D2E/DX2 analytically  !
 ! A234  A(115,113,117)        120.3387         calculate D2E/DX2 analytically  !
 ! A235  A(100,116,112)        119.7962         calculate D2E/DX2 analytically  !
 ! A236  A(100,116,118)        120.3246         calculate D2E/DX2 analytically  !
 ! A237  A(112,116,118)        119.8732         calculate D2E/DX2 analytically  !
 ! A238  A(101,117,113)        119.6781         calculate D2E/DX2 analytically  !
 ! A239  A(101,117,119)        120.2163         calculate D2E/DX2 analytically  !
 ! A240  A(113,117,119)        120.1001         calculate D2E/DX2 analytically  !
 ! A241  A(47,120,61)           88.4259         calculate D2E/DX2 analytically  !
 ! A242  A(47,120,107)          91.1176         calculate D2E/DX2 analytically  !
 ! A243  A(48,120,61)           89.969          calculate D2E/DX2 analytically  !
 ! A244  A(48,120,107)          90.4254         calculate D2E/DX2 analytically  !
 ! A245  A(1,121,62)            87.7014         calculate D2E/DX2 analytically  !
 ! A246  A(1,121,106)           91.6361         calculate D2E/DX2 analytically  !
 ! A247  A(2,121,62)            89.3027         calculate D2E/DX2 analytically  !
 ! A248  A(2,121,106)           91.1815         calculate D2E/DX2 analytically  !
 ! A249  L(7,17,19,18,-1)      179.1688         calculate D2E/DX2 analytically  !
 ! A250  L(8,18,20,17,-1)      177.1556         calculate D2E/DX2 analytically  !
 ! A251  L(17,19,21,20,-1)     182.0856         calculate D2E/DX2 analytically  !
 ! A252  L(18,20,22,19,-1)     180.9266         calculate D2E/DX2 analytically  !
 ! A253  L(66,76,78,17,-1)     179.3397         calculate D2E/DX2 analytically  !
 ! A254  L(67,77,79,17,-1)     180.6812         calculate D2E/DX2 analytically  !
 ! A255  L(76,78,80,3,-1)      180.0303         calculate D2E/DX2 analytically  !
 ! A256  L(77,79,81,17,-1)     181.3016         calculate D2E/DX2 analytically  !
 ! A257  L(47,120,48,107,-1)   181.543          calculate D2E/DX2 analytically  !
 ! A258  L(61,120,107,48,-1)   180.3944         calculate D2E/DX2 analytically  !
 ! A259  L(1,121,2,106,-1)     182.8176         calculate D2E/DX2 analytically  !
 ! A260  L(62,121,106,2,-1)    180.4841         calculate D2E/DX2 analytically  !
 ! A261  L(7,17,19,18,-2)      181.1436         calculate D2E/DX2 analytically  !
 ! A262  L(8,18,20,17,-2)      180.1804         calculate D2E/DX2 analytically  !
 ! A263  L(17,19,21,20,-2)     179.2708         calculate D2E/DX2 analytically  !
 ! A264  L(18,20,22,19,-2)     180.7831         calculate D2E/DX2 analytically  !
 ! A265  L(66,76,78,17,-2)     182.0019         calculate D2E/DX2 analytically  !
 ! A266  L(67,77,79,17,-2)     180.4523         calculate D2E/DX2 analytically  !
 ! A267  L(76,78,80,3,-2)      180.7677         calculate D2E/DX2 analytically  !
 ! A268  L(77,79,81,17,-2)     179.5118         calculate D2E/DX2 analytically  !
 ! A269  L(47,120,48,107,-2)   179.427          calculate D2E/DX2 analytically  !
 ! A270  L(61,120,107,48,-2)   187.5811         calculate D2E/DX2 analytically  !
 ! A271  L(1,121,2,106,-2)     172.6318         calculate D2E/DX2 analytically  !
 ! A272  L(62,121,106,2,-2)    181.4287         calculate D2E/DX2 analytically  !
 ! D1    D(13,1,3,5)           179.7879         calculate D2E/DX2 analytically  !
 ! D2    D(13,1,3,7)             0.3535         calculate D2E/DX2 analytically  !
 ! D3    D(121,1,3,5)            4.7906         calculate D2E/DX2 analytically  !
 ! D4    D(121,1,3,7)         -174.6438         calculate D2E/DX2 analytically  !
 ! D5    D(3,1,13,11)            0.874          calculate D2E/DX2 analytically  !
 ! D6    D(3,1,13,15)         -178.6349         calculate D2E/DX2 analytically  !
 ! D7    D(121,1,13,11)        175.5269         calculate D2E/DX2 analytically  !
 ! D8    D(121,1,13,15)         -3.982          calculate D2E/DX2 analytically  !
 ! D9    D(3,1,121,62)          83.5797         calculate D2E/DX2 analytically  !
 ! D10   D(3,1,121,106)        -95.0644         calculate D2E/DX2 analytically  !
 ! D11   D(13,1,121,62)        -91.2389         calculate D2E/DX2 analytically  !
 ! D12   D(13,1,121,106)        90.1169         calculate D2E/DX2 analytically  !
 ! D13   D(14,2,4,6)          -179.8416         calculate D2E/DX2 analytically  !
 ! D14   D(14,2,4,8)            -0.3738         calculate D2E/DX2 analytically  !
 ! D15   D(121,2,4,6)           -3.1741         calculate D2E/DX2 analytically  !
 ! D16   D(121,2,4,8)          176.2938         calculate D2E/DX2 analytically  !
 ! D17   D(4,2,14,12)            0.1488         calculate D2E/DX2 analytically  !
 ! D18   D(4,2,14,16)          179.9243         calculate D2E/DX2 analytically  !
 ! D19   D(121,2,14,12)       -176.2773         calculate D2E/DX2 analytically  !
 ! D20   D(121,2,14,16)          3.4981         calculate D2E/DX2 analytically  !
 ! D21   D(4,2,121,62)         -80.0417         calculate D2E/DX2 analytically  !
 ! D22   D(4,2,121,106)         98.5296         calculate D2E/DX2 analytically  !
 ! D23   D(14,2,121,62)         96.492          calculate D2E/DX2 analytically  !
 ! D24   D(14,2,121,106)       -84.9367         calculate D2E/DX2 analytically  !
 ! D25   D(1,3,7,9)             -1.2793         calculate D2E/DX2 analytically  !
 ! D26   D(1,3,7,17)           177.761          calculate D2E/DX2 analytically  !
 ! D27   D(5,3,7,9)            179.3057         calculate D2E/DX2 analytically  !
 ! D28   D(5,3,7,17)            -1.654          calculate D2E/DX2 analytically  !
 ! D29   D(2,4,8,10)             0.2468         calculate D2E/DX2 analytically  !
 ! D30   D(2,4,8,18)          -179.4429         calculate D2E/DX2 analytically  !
 ! D31   D(6,4,8,10)           179.7003         calculate D2E/DX2 analytically  !
 ! D32   D(6,4,8,18)             0.0106         calculate D2E/DX2 analytically  !
 ! D33   D(3,7,9,11)             0.9919         calculate D2E/DX2 analytically  !
 ! D34   D(3,7,9,124)         -179.6495         calculate D2E/DX2 analytically  !
 ! D35   D(17,7,9,11)         -178.0184         calculate D2E/DX2 analytically  !
 ! D36   D(17,7,9,124)           1.3402         calculate D2E/DX2 analytically  !
 ! D37   D(3,7,21,23)          -23.6222         calculate D2E/DX2 analytically  !
 ! D38   D(3,7,21,37)          157.038          calculate D2E/DX2 analytically  !
 ! D39   D(9,7,21,23)          154.85           calculate D2E/DX2 analytically  !
 ! D40   D(9,7,21,37)          -24.4898         calculate D2E/DX2 analytically  !
 ! D41   D(4,8,10,12)            0.099          calculate D2E/DX2 analytically  !
 ! D42   D(4,8,10,123)        -179.9069         calculate D2E/DX2 analytically  !
 ! D43   D(18,8,10,12)         179.774          calculate D2E/DX2 analytically  !
 ! D44   D(18,8,10,123)         -0.2319         calculate D2E/DX2 analytically  !
 ! D45   D(4,8,22,24)          -18.0108         calculate D2E/DX2 analytically  !
 ! D46   D(4,8,22,38)          163.9699         calculate D2E/DX2 analytically  !
 ! D47   D(10,8,22,24)         161.9932         calculate D2E/DX2 analytically  !
 ! D48   D(10,8,22,38)         -16.0261         calculate D2E/DX2 analytically  !
 ! D49   D(7,9,11,13)            0.1512         calculate D2E/DX2 analytically  !
 ! D50   D(7,9,11,125)         179.4629         calculate D2E/DX2 analytically  !
 ! D51   D(124,9,11,13)       -179.2007         calculate D2E/DX2 analytically  !
 ! D52   D(124,9,11,125)         0.111          calculate D2E/DX2 analytically  !
 ! D53   D(8,10,12,14)          -0.3102         calculate D2E/DX2 analytically  !
 ! D54   D(8,10,12,122)        179.9025         calculate D2E/DX2 analytically  !
 ! D55   D(123,10,12,14)       179.6958         calculate D2E/DX2 analytically  !
 ! D56   D(123,10,12,122)       -0.0916         calculate D2E/DX2 analytically  !
 ! D57   D(9,11,13,1)           -1.121          calculate D2E/DX2 analytically  !
 ! D58   D(9,11,13,15)         178.3623         calculate D2E/DX2 analytically  !
 ! D59   D(125,11,13,1)        179.5555         calculate D2E/DX2 analytically  !
 ! D60   D(125,11,13,15)        -0.9612         calculate D2E/DX2 analytically  !
 ! D61   D(10,12,14,2)           0.193          calculate D2E/DX2 analytically  !
 ! D62   D(10,12,14,16)       -179.5707         calculate D2E/DX2 analytically  !
 ! D63   D(122,12,14,2)        179.9839         calculate D2E/DX2 analytically  !
 ! D64   D(122,12,14,16)         0.2201         calculate D2E/DX2 analytically  !
 ! D65   D(19,21,23,25)         -1.4468         calculate D2E/DX2 analytically  !
 ! D66   D(19,21,23,27)       -179.9716         calculate D2E/DX2 analytically  !
 ! D67   D(37,21,23,25)        178.1705         calculate D2E/DX2 analytically  !
 ! D68   D(37,21,23,27)         -0.3543         calculate D2E/DX2 analytically  !
 ! D69   D(19,21,37,33)       -179.8677         calculate D2E/DX2 analytically  !
 ! D70   D(19,21,37,39)         -0.1705         calculate D2E/DX2 analytically  !
 ! D71   D(23,21,37,33)          0.5101         calculate D2E/DX2 analytically  !
 ! D72   D(23,21,37,39)       -179.7928         calculate D2E/DX2 analytically  !
 ! D73   D(20,22,24,26)          0.0483         calculate D2E/DX2 analytically  !
 ! D74   D(20,22,24,28)       -177.4357         calculate D2E/DX2 analytically  !
 ! D75   D(38,22,24,26)        178.5056         calculate D2E/DX2 analytically  !
 ! D76   D(38,22,24,28)          1.0216         calculate D2E/DX2 analytically  !
 ! D77   D(20,22,38,34)        178.1335         calculate D2E/DX2 analytically  !
 ! D78   D(20,22,38,40)         -1.5833         calculate D2E/DX2 analytically  !
 ! D79   D(24,22,38,34)         -0.3251         calculate D2E/DX2 analytically  !
 ! D80   D(24,22,38,40)        179.958          calculate D2E/DX2 analytically  !
 ! D81   D(21,23,27,29)         -0.1526         calculate D2E/DX2 analytically  !
 ! D82   D(21,23,27,41)       -179.1224         calculate D2E/DX2 analytically  !
 ! D83   D(25,23,27,29)       -178.6566         calculate D2E/DX2 analytically  !
 ! D84   D(25,23,27,41)          2.3737         calculate D2E/DX2 analytically  !
 ! D85   D(22,24,28,30)         -0.8678         calculate D2E/DX2 analytically  !
 ! D86   D(22,24,28,42)        177.1055         calculate D2E/DX2 analytically  !
 ! D87   D(26,24,28,30)       -178.3328         calculate D2E/DX2 analytically  !
 ! D88   D(26,24,28,42)         -0.3595         calculate D2E/DX2 analytically  !
 ! D89   D(23,27,29,31)       -177.9569         calculate D2E/DX2 analytically  !
 ! D90   D(23,27,29,33)          0.5127         calculate D2E/DX2 analytically  !
 ! D91   D(41,27,29,31)          1.0377         calculate D2E/DX2 analytically  !
 ! D92   D(41,27,29,33)        179.5072         calculate D2E/DX2 analytically  !
 ! D93   D(23,27,41,43)         37.3575         calculate D2E/DX2 analytically  !
 ! D94   D(23,27,41,57)       -145.7691         calculate D2E/DX2 analytically  !
 ! D95   D(29,27,41,43)       -141.6082         calculate D2E/DX2 analytically  !
 ! D96   D(29,27,41,57)         35.2652         calculate D2E/DX2 analytically  !
 ! D97   D(24,28,30,32)       -179.0826         calculate D2E/DX2 analytically  !
 ! D98   D(24,28,30,34)          0.021          calculate D2E/DX2 analytically  !
 ! D99   D(42,28,30,32)          2.9204         calculate D2E/DX2 analytically  !
 ! D100  D(42,28,30,34)       -177.976          calculate D2E/DX2 analytically  !
 ! D101  D(24,28,42,44)         47.7996         calculate D2E/DX2 analytically  !
 ! D102  D(24,28,42,58)       -132.9707         calculate D2E/DX2 analytically  !
 ! D103  D(30,28,42,44)       -134.2368         calculate D2E/DX2 analytically  !
 ! D104  D(30,28,42,58)         44.9929         calculate D2E/DX2 analytically  !
 ! D105  D(27,29,33,35)       -179.7842         calculate D2E/DX2 analytically  !
 ! D106  D(27,29,33,37)         -0.3605         calculate D2E/DX2 analytically  !
 ! D107  D(31,29,33,35)         -1.3077         calculate D2E/DX2 analytically  !
 ! D108  D(31,29,33,37)        178.1161         calculate D2E/DX2 analytically  !
 ! D109  D(28,30,34,36)       -179.5027         calculate D2E/DX2 analytically  !
 ! D110  D(28,30,34,38)          0.6739         calculate D2E/DX2 analytically  !
 ! D111  D(32,30,34,36)         -0.401          calculate D2E/DX2 analytically  !
 ! D112  D(32,30,34,38)        179.7756         calculate D2E/DX2 analytically  !
 ! D113  D(29,33,37,21)         -0.1561         calculate D2E/DX2 analytically  !
 ! D114  D(29,33,37,39)       -179.8496         calculate D2E/DX2 analytically  !
 ! D115  D(35,33,37,21)        179.2669         calculate D2E/DX2 analytically  !
 ! D116  D(35,33,37,39)         -0.4266         calculate D2E/DX2 analytically  !
 ! D117  D(30,34,38,22)         -0.5168         calculate D2E/DX2 analytically  !
 ! D118  D(30,34,38,40)        179.1968         calculate D2E/DX2 analytically  !
 ! D119  D(36,34,38,22)        179.6599         calculate D2E/DX2 analytically  !
 ! D120  D(36,34,38,40)         -0.6266         calculate D2E/DX2 analytically  !
 ! D121  D(27,41,43,45)         -2.7246         calculate D2E/DX2 analytically  !
 ! D122  D(27,41,43,47)        174.7683         calculate D2E/DX2 analytically  !
 ! D123  D(57,41,43,45)       -179.7528         calculate D2E/DX2 analytically  !
 ! D124  D(57,41,43,47)         -2.2599         calculate D2E/DX2 analytically  !
 ! D125  D(27,41,57,53)       -174.8028         calculate D2E/DX2 analytically  !
 ! D126  D(27,41,57,59)          5.0628         calculate D2E/DX2 analytically  !
 ! D127  D(43,41,57,53)          2.2159         calculate D2E/DX2 analytically  !
 ! D128  D(43,41,57,59)       -177.9186         calculate D2E/DX2 analytically  !
 ! D129  D(28,42,44,46)          1.3256         calculate D2E/DX2 analytically  !
 ! D130  D(28,42,44,48)        179.4006         calculate D2E/DX2 analytically  !
 ! D131  D(58,42,44,46)       -177.9354         calculate D2E/DX2 analytically  !
 ! D132  D(58,42,44,48)          0.1396         calculate D2E/DX2 analytically  !
 ! D133  D(28,42,58,54)        179.9159         calculate D2E/DX2 analytically  !
 ! D134  D(28,42,58,60)          0.7942         calculate D2E/DX2 analytically  !
 ! D135  D(44,42,58,54)         -0.8186         calculate D2E/DX2 analytically  !
 ! D136  D(44,42,58,60)       -179.9402         calculate D2E/DX2 analytically  !
 ! D137  D(41,43,47,49)          0.145          calculate D2E/DX2 analytically  !
 ! D138  D(41,43,47,120)      -176.1661         calculate D2E/DX2 analytically  !
 ! D139  D(45,43,47,49)        177.7424         calculate D2E/DX2 analytically  !
 ! D140  D(45,43,47,120)         1.4313         calculate D2E/DX2 analytically  !
 ! D141  D(42,44,48,50)          0.8625         calculate D2E/DX2 analytically  !
 ! D142  D(42,44,48,120)      -176.2845         calculate D2E/DX2 analytically  !
 ! D143  D(46,44,48,50)        179.0212         calculate D2E/DX2 analytically  !
 ! D144  D(46,44,48,120)         1.8741         calculate D2E/DX2 analytically  !
 ! D145  D(43,47,49,51)       -177.2267         calculate D2E/DX2 analytically  !
 ! D146  D(43,47,49,53)          2.0013         calculate D2E/DX2 analytically  !
 ! D147  D(120,47,49,51)        -1.1846         calculate D2E/DX2 analytically  !
 ! D148  D(120,47,49,53)       178.0434         calculate D2E/DX2 analytically  !
 ! D149  D(43,47,120,61)        53.7407         calculate D2E/DX2 analytically  !
 ! D150  D(43,47,120,107)     -118.6796         calculate D2E/DX2 analytically  !
 ! D151  D(49,47,120,61)      -122.4405         calculate D2E/DX2 analytically  !
 ! D152  D(49,47,120,107)       65.1392         calculate D2E/DX2 analytically  !
 ! D153  D(44,48,50,52)        178.762          calculate D2E/DX2 analytically  !
 ! D154  D(44,48,50,54)         -1.1495         calculate D2E/DX2 analytically  !
 ! D155  D(120,48,50,52)        -4.2323         calculate D2E/DX2 analytically  !
 ! D156  D(120,48,50,54)       175.8562         calculate D2E/DX2 analytically  !
 ! D157  D(44,48,120,61)      -115.2089         calculate D2E/DX2 analytically  !
 ! D158  D(44,48,120,107)       57.21           calculate D2E/DX2 analytically  !
 ! D159  D(50,48,120,61)        67.6969         calculate D2E/DX2 analytically  !
 ! D160  D(50,48,120,107)     -119.8842         calculate D2E/DX2 analytically  !
 ! D161  D(47,49,51,134)       170.2767         calculate D2E/DX2 analytically  !
 ! D162  D(47,49,51,135)        50.3058         calculate D2E/DX2 analytically  !
 ! D163  D(47,49,51,136)       -70.1138         calculate D2E/DX2 analytically  !
 ! D164  D(53,49,51,134)        -8.9395         calculate D2E/DX2 analytically  !
 ! D165  D(53,49,51,135)      -128.9104         calculate D2E/DX2 analytically  !
 ! D166  D(53,49,51,136)       110.6701         calculate D2E/DX2 analytically  !
 ! D167  D(47,49,53,55)        178.7974         calculate D2E/DX2 analytically  !
 ! D168  D(47,49,53,57)         -1.9749         calculate D2E/DX2 analytically  !
 ! D169  D(51,49,53,55)         -1.9802         calculate D2E/DX2 analytically  !
 ! D170  D(51,49,53,57)        177.2474         calculate D2E/DX2 analytically  !
 ! D171  D(48,50,52,140)       163.6228         calculate D2E/DX2 analytically  !
 ! D172  D(48,50,52,141)        42.8126         calculate D2E/DX2 analytically  !
 ! D173  D(48,50,52,142)       -77.284          calculate D2E/DX2 analytically  !
 ! D174  D(54,50,52,140)       -16.4669         calculate D2E/DX2 analytically  !
 ! D175  D(54,50,52,141)      -137.2772         calculate D2E/DX2 analytically  !
 ! D176  D(54,50,52,142)       102.6263         calculate D2E/DX2 analytically  !
 ! D177  D(48,50,54,56)       -179.48           calculate D2E/DX2 analytically  !
 ! D178  D(48,50,54,58)          0.4609         calculate D2E/DX2 analytically  !
 ! D179  D(52,50,54,56)          0.6089         calculate D2E/DX2 analytically  !
 ! D180  D(52,50,54,58)       -179.4502         calculate D2E/DX2 analytically  !
 ! D181  D(49,53,57,41)         -0.1952         calculate D2E/DX2 analytically  !
 ! D182  D(49,53,57,59)        179.9386         calculate D2E/DX2 analytically  !
 ! D183  D(55,53,57,41)        179.0208         calculate D2E/DX2 analytically  !
 ! D184  D(55,53,57,59)         -0.8454         calculate D2E/DX2 analytically  !
 ! D185  D(50,54,58,42)          0.534          calculate D2E/DX2 analytically  !
 ! D186  D(50,54,58,60)        179.6542         calculate D2E/DX2 analytically  !
 ! D187  D(56,54,58,42)       -179.526          calculate D2E/DX2 analytically  !
 ! D188  D(56,54,58,60)         -0.4058         calculate D2E/DX2 analytically  !
 ! D189  D(72,61,63,65)        179.8791         calculate D2E/DX2 analytically  !
 ! D190  D(72,61,63,66)         -0.047          calculate D2E/DX2 analytically  !
 ! D191  D(120,61,63,65)        -3.9008         calculate D2E/DX2 analytically  !
 ! D192  D(120,61,63,66)       176.1731         calculate D2E/DX2 analytically  !
 ! D193  D(63,61,72,70)         -0.6285         calculate D2E/DX2 analytically  !
 ! D194  D(63,61,72,74)        179.4639         calculate D2E/DX2 analytically  !
 ! D195  D(120,61,72,70)      -176.6601         calculate D2E/DX2 analytically  !
 ! D196  D(120,61,72,74)         3.4322         calculate D2E/DX2 analytically  !
 ! D197  D(63,61,120,47)      -121.9044         calculate D2E/DX2 analytically  !
 ! D198  D(63,61,120,48)        57.7311         calculate D2E/DX2 analytically  !
 ! D199  D(72,61,120,47)        54.2112         calculate D2E/DX2 analytically  !
 ! D200  D(72,61,120,48)      -126.1532         calculate D2E/DX2 analytically  !
 ! D201  D(73,62,64,67)          0.0915         calculate D2E/DX2 analytically  !
 ! D202  D(73,62,64,128)      -179.5851         calculate D2E/DX2 analytically  !
 ! D203  D(121,62,64,67)       178.1661         calculate D2E/DX2 analytically  !
[...]
 -0.00000470,0.00000051,-0.00000016,-0.00000016,0.00000003,0.00000420,0
 .00000167,-0.00000058,0.00000066,-0.00000024,0.00000024,-0.00000735,-0
 .00000578,0.00000159,0.,0.00000001,-0.00000009,-0.00000010,-0.00000035
 ,0.00000014,-0.00000044,0.00000010,-0.00000005,-0.00004765,-0.00001611
 ,0.00000158,0.00000019,-0.00000025,0.00000001,0.00003367,0.00001954,-0
 .00001180,-0.00000029,0.00000015,0.00000017,-0.00000233,0.00001002,-0.
 00006542,-0.00000016,0.00000042,0.00000087,0.00001581,0.00009666,-0.00
 002728,-0.00000027,0.00000017,-0.00000016,0.00001855,0.00000819,0.0000
 1492,0.00000305,-0.00000353,-0.00000228,0.00003770,-0.00006593,0.00000
 175,-0.00000077,-0.00000012,0.00000039,-0.00009627,-0.00003711,-0.0000
 6137,0.,0.00000007,-0.00000020,0.00000516,0.00000105,0.00001380,-0.000
 00015,0.00000006,0.00000041,0.00000832,0.00001075,0.00001728,-0.000000
 08,-0.00000005,0.00000006,-0.00000592,0.00001071,-0.00001305,-0.000000
 07,-0.00000026,0.00000030,-0.00005454,-0.00000004,-0.00001879,-0.00000
 007,-0.00000008,-0.00000006,-0.00000696,0.00000606,-0.00000055,-0.0000
 1671,-0.00000459,0.00000733,-0.00010525,-0.00088012,-0.00032871,0.0000
 5144,-0.00002047,-0.00000992,-0.00134379,0.00095927,0.00029082,-0.0000
 1237,0.00000489,0.00000477,-0.00014472,-0.00001437,0.00010936,-0.00007
 725,-0.00011604,0.00004168,0.00083995,0.00018099,0.00064305,-0.0000255
 6,-0.00000878,0.00001133,0.01190984,0.00812270,-0.02189405,0.00000187,
 0.00000228,-0.00001386,-0.10524450,-0.04264981,0.10141437,0.00000846,-
 0.00000179,-0.00000617,-0.00170709,0.00078646,-0.00042064,-0.00000008,
 -0.00000339,0.00000154,0.00022448,0.00016721,-0.00014065,-0.00000011,0
 .00000213,-0.00000153,-0.00012139,0.00004635,0.00130714,-0.00000007,0.
 00000030,0.00000068,0.00010557,0.00005837,-0.00019256,-0.00094076,-0.0
 0072769,-0.00008889,-0.00000011,0.00000041,0.00000039,-0.00021175,-0.0
 0016190,-0.00008873,-0.00000018,0.00000013,0.00000042,0.00001427,0.000
 00394,-0.00000598,-0.00011462,0.00009291,0.00009566,-0.00000070,0.0000
 0003,-0.00000001,-0.00002777,0.00006153,0.00004149,0.00000032,0.000000
 03,0.00000002,0.00005009,-0.00007198,-0.00011992,-0.00000013,0.0000000
 1,0.00000006,-0.00005318,-0.00132048,0.00030490,0.00000033,0.00000013,
 0.,-0.00004137,0.00017362,0.00003844,0.00000008,0.00000002,-0.00000006
 ,0.00007003,0.00000112,-0.00001465,0.00000105,-0.00000009,-0.00000027,
 -0.00000932,0.00000802,0.00000066,-0.00000064,0.00000011,0.00000040,-0
 .00001712,0.00000503,0.00000224,0.00000002,0.00000060,-0.00000016,0.00
 000733,-0.00001094,-0.00000934,0.00000015,0.00000053,0.00000223,-0.000
 00163,0.00000107,-0.00000068,-0.00000078,0.00000013,-0.00000084,0.0000
 0205,-0.00000304,0.00000101,-0.00000119,-0.00000239,0.00000054,0.00000
 825,-0.00000137,-0.00000050,0.00000194,0.00000103,-0.00000069,0.000001
 39,-0.00000050,0.00000032,-0.00000004,-0.00000051,-0.00000018,0.000001
 34,0.00000076,-0.00000185,0.00000018,0.00000002,0.00000036,0.00000218,
 -0.00000184,-0.00000091,0.00000014,0.00000018,0.00000020,0.00001610,0.
 00000075,0.00000830,0.00000063,0.00000053,0.00000034,-0.00000199,0.000
 00075,0.00000089,0.00000011,0.00000004,0.00000008,-0.00000337,-0.00000
 434,-0.00000433,0.00000788,0.00000854,-0.00001723,0.00000013,0.0000002
 7,0.00000068,0.00000686,0.00000779,0.00002163,-0.00000033,0.00000008,-
 0.00000144,-0.00000321,0.00000160,0.00000755,0.00000133,0.00000142,0.0
 0000086,0.00001529,-0.00000488,0.00004595,0.00000079,0.00000006,0.0000
 0046,-0.00005676,-0.00005246,0.00002826,0.00000018,0.00000058,-0.00000
 042,-0.00003883,0.00013459,-0.00002198,-0.00000019,0.00000004,0.000000
 68,0.00002786,0.00002303,0.00002789,0.00000045,0.00000022,0.00000031,0
 .00000187,-0.00000124,-0.00000275,0.00000146,0.00000142,0.00000194,-0.
 00001763,-0.00000546,0.00000403,-0.00000088,-0.00000036,0.00000012,0.0
 0000226,0.00000075,0.00000223,0.00028722,0.00009624,-0.00059275,0.0000
 0107,0.00000489,-0.00000408,-0.00000121,-0.00000028,-0.00000004,0.0000
 0082,0.00000006,0.00000004,0.00000002,-0.00000003,-0.00000002,0.000000
 02,-0.00000009,0.00000002,0.,0.00000004,-0.00000004,0.00000002,0.,-0.0
 0000005,-0.00000019,0.00000028,-0.00000018,0.00000798,0.00001752,-0.00
 001633,0.00000424,0.00000758,-0.00000832,0.00000010,0.00000003,0.00000
 025,0.00000030,0.00000018,0.00000037,0.00000061,0.00000028,0.00000006,
 0.00000316,0.00000512,0.00000347,0.00000979,-0.00004411,-0.00000673,-0
 .00000588,-0.00000219,-0.00000157,0.00009532,-0.00012691,-0.00004635,-
 0.00006729,0.00003506,-0.00001458,0.00002313,-0.00002131,0.00004889,-0
 .00958739,-0.00566438,0.01734518,-0.00785294,-0.00646561,0.01272024,0.
 11412432,0.00000067,0.00000042,-0.00000002,0.00000158,0.00000069,-0.00
 000062,0.00000091,-0.00000129,0.00000045,0.00000438,0.00000378,-0.0000
 0150,0.00000037,0.00000064,-0.00000027,-0.00000028,-0.00000041,-0.0000
 0025,-0.00000305,0.00000143,-0.00000090,-0.00001679,-0.00000723,0.0000
 0100,0.00000064,-0.00000054,0.00000030,0.00000554,0.00000257,-0.000000
 44,-0.00000002,0.,-0.00000004,-0.00000195,-0.00000080,0.00000031,0.000
 00022,-0.00000016,-0.00000002,0.00000340,0.00000285,-0.00000083,0.0000
 0004,-0.00000024,-0.00000009,0.00000011,0.00000037,-0.00000022,0.00000
 341,-0.00000079,0.00000085,0.00002524,0.00000826,-0.00000056,-0.000002
 29,0.00000135,-0.00000150,-0.00001918,-0.00000959,0.00000483,-0.000000
 58,0.00000077,-0.00000124,0.00000168,-0.00002234,0.00003046,0.00000132
 ,0.00000358,-0.00000086,-0.00003735,-0.00004713,-0.00001604,-0.0000016
 2,-0.00000048,-0.00000076,-0.00001789,0.00000457,-0.00000517,-0.000011
 63,0.00000122,0.00000314,-0.00000968,-0.00001132,0.00008266,0.00000846
 ,0.00000031,-0.00000095,0.00005256,0.00003500,0.00002367,-0.00000064,-
 0.00000133,0.00000112,-0.00000041,-0.00000401,-0.00000992,0.00000063,0
 .00000061,0.00000009,-0.00000426,-0.00000055,-0.00000365,0.00000074,0.
 00000108,-0.00000085,0.00000330,-0.00000573,0.00000670,0.00000278,0.00
 000167,-0.00000090,0.00002809,0.00000576,0.00001028,0.00000067,0.00000
 022,-0.00000033,0.00000406,-0.00000381,-0.00000009,-0.00000474,0.00001
 117,0.00000366,-0.00008448,0.00090329,0.00008228,-0.00005848,0.0000155
 8,0.00001976,0.00102056,-0.00086994,0.00056301,-0.00001033,-0.00001178
 ,-0.00000850,0.00003563,-0.00001401,-0.00001613,0.00006003,0.00005146,
 -0.00000467,-0.00191400,-0.00035652,-0.00162085,0.00007813,0.00002930,
 -0.00002554,-0.00343459,-0.00623270,0.01195972,-0.00000237,-0.00000037
 ,0.00000925,-0.04460432,-0.07462722,0.07520503,-0.00002367,-0.00000120
 ,0.00000642,0.00187672,-0.00029933,0.00072412,-0.00000166,0.00000785,-
 0.00000100,-0.00034274,-0.00000532,0.00042747,0.00000994,0.00000303,-0
 .00000623,0.00035426,-0.00023150,-0.00115307,-0.00000073,0.00000273,-0
 .00000024,-0.00004686,-0.00005732,0.00016028,-0.00147928,-0.00073686,-
 0.00045531,-0.00000008,0.00000003,0.00000064,0.00029454,0.00000695,-0.
 00028336,0.00000023,-0.00000025,-0.00000119,0.00003607,0.00002089,0.00
 002222,-0.00012667,0.00000170,0.00023108,-0.00000085,0.00000033,0.0000
 0062,-0.00016763,0.00010995,-0.00001079,-0.00000007,-0.00000016,-0.000
 00024,0.00012556,-0.00021771,-0.00000126,0.00000029,0.00000003,-0.0000
 0007,-0.00073638,-0.00189244,0.00075461,-0.00000050,0.00000002,0.00000
 021,0.00006044,-0.00015601,-0.00000232,0.00000002,-0.00000003,-0.00000
 004,0.00010311,-0.00004475,-0.00001040,0.00000072,-0.00000013,0.000000
 17,-0.00002493,0.00000530,-0.00000384,-0.00000047,0.00000031,0.0000004
 1,-0.00002415,0.00000953,0.00000316,-0.00000020,0.00000041,0.00000024,
 0.00001314,-0.00001931,-0.00001900,0.00000058,0.00000033,-0.00000090,-
 0.00000400,0.00000189,-0.00000114,-0.00000013,-0.00000012,-0.00000006,
 0.00000452,-0.00000457,0.00000232,-0.00000784,-0.00000295,0.00000372,0
 .00001319,-0.00000220,-0.00000059,0.00000315,0.00000153,0.00000127,0.0
 0000226,-0.00000094,0.00000057,0.00000004,-0.00000072,-0.00000045,0.00
 000181,-0.00000038,-0.00000506,-0.00000017,0.00000076,0.00000019,0.000
 00455,-0.00000332,-0.00000176,0.00000017,0.00000038,0.00000040,0.00003
 212,0.00000308,0.00001829,0.00000050,-0.00000011,0.00000056,-0.0000036
 0,0.00000180,0.00000092,0.00000018,0.00000020,0.00000010,-0.00000394,-
 0.00000714,-0.00000739,-0.00001229,-0.00000603,0.00002487,0.00000080,0
 .00000093,0.00000196,-0.00004798,-0.00004503,0.00000082,-0.00000035,-0
 .00000081,-0.00000021,-0.00000632,-0.00000913,-0.00001007,0.00000233,0
 .00000129,0.00000161,-0.00000645,-0.00000823,0.00002151,-0.00000057,-0
 .00000057,0.00000014,0.00014738,0.00013681,0.00003416,0.00000040,0.000
 00081,-0.00000035,0.00007360,-0.00017833,-0.00003549,0.00000037,0.0000
 0024,0.00000102,-0.00006131,-0.00005838,-0.00004106,0.00000081,0.00000
 032,0.00000028,-0.00000280,0.00000186,0.00001269,0.00000180,0.00000202
 ,0.00000312,0.00002801,0.00001548,0.00000315,-0.00000134,-0.00000058,0
 .00000003,-0.00000403,-0.00000238,-0.00000133,-0.00002427,-0.00009449,
 -0.00034553,-0.00000055,-0.00000241,-0.00000166,0.00000069,0.00000007,
 0.00000009,-0.00000042,-0.00000008,0.00000005,-0.00000012,0.,-0.000000
 06,0.00000015,0.00000013,0.00000001,-0.00000005,0.00000002,0.00000006,
 0.00000004,0.00000005,0.00000014,0.00000017,0.00000022,0.00000105,0.00
 001947,0.00004252,-0.00001491,0.00001792,-0.00000221,-0.00001532,0.000
 00038,0.,0.00000023,0.00000037,0.00000034,0.00000066,-0.00000058,-0.00
 000010,0.00000073,-0.00000585,-0.00000296,-0.00000121,-0.00000186,0.00
 005193,0.00001307,-0.00000422,0.00000163,0.00000366,-0.00015448,0.0001
 8055,0.00005155,0.00002206,-0.00007204,0.00004371,-0.00002944,0.000011
 52,-0.00008099,-0.01007150,-0.00718872,0.01930664,0.01174549,0.0096411
 8,-0.02138581,0.04732881,0.08223067,0.00000017,-0.00000107,0.00000043,
 -0.00000198,-0.00000168,0.00000065,-0.00000032,-0.00000090,0.00000026,
 -0.00000625,-0.00000394,0.00000134,0.00000025,0.00000039,-0.00000017,0
 .00000014,-0.00000018,-0.00000059,-0.00000132,0.00000053,-0.00000042,0
 .00002551,0.00001038,-0.00000087,0.00000036,-0.00000023,0.00000015,-0.
 00000867,-0.00000369,0.00000045,-0.00000028,-0.00000019,0.,0.00000340,
 0.00000115,-0.00000039,0.00000099,-0.00000037,0.00000031,-0.00000606,-
 0.00000464,0.00000117,0.,-0.00000003,-0.00000012,-0.00000006,-0.000000
 24,0.00000006,0.00000133,-0.00000037,0.00000040,-0.00003748,-0.0000126
 7,0.00000122,-0.00000082,0.00000044,-0.00000058,0.00002693,0.00001393,
 -0.00000899,-0.00000016,0.00000059,-0.00000071,-0.00001156,0.00002476,
 -0.00005299,0.00000122,0.00000071,-0.00000014,0.00005152,0.00008060,0.
 00000807,-0.00000091,-0.00000029,-0.00000100,0.00001701,-0.00000065,0.
 00001082,-0.00000271,-0.00000169,0.00000213,-0.00001343,0.00000379,-0.
 00011735,0.00000261,0.00000036,-0.00000067,-0.00008034,-0.00006408,-0.
 00004227,-0.00000012,-0.00000060,0.00000029,0.00000477,-0.00000446,0.0
 0000852,0.00000035,0.00000017,0.00000049,-0.00000370,0.00001769,0.0000
 1253,0.00000020,0.00000026,-0.00000033,-0.00000590,0.00000903,-0.00000
 973,0.00000119,0.00000060,-0.00000010,-0.00003568,-0.00000734,-0.00000
 891,0.00000021,-0.00000003,-0.00000020,-0.00000513,0.00000288,-0.00000
 230,-0.00001440,0.00000659,0.00000452,0.00027463,-0.00053402,0.0000440
 4,0.00000046,-0.00002217,0.00000278,-0.00140611,0.00069854,0.00003357,
 -0.00001478,-0.00000621,-0.00000680,-0.00010787,-0.00000170,0.00004024
 ,0.00001983,-0.00005690,0.00000817,0.00084336,0.00076119,0.00091960,0.
 00002724,0.00000481,-0.00000724,0.00613446,0.00792528,-0.01827706,0.00
 000243,0.00000609,0.00000542,0.10342672,0.07364050,-0.22455433,-0.0000
 1122,-0.00000912,0.00000247,-0.00083906,-0.00090189,-0.00038802,-0.000
 00109,0.00000113,-0.00000086,0.00017765,-0.00001342,-0.00015812,0.0000
 1031,0.00000292,-0.00000430,-0.00065453,0.00016224,0.00034741,-0.00000
 106,0.00000117,-0.00000023,-0.00002721,0.00004845,-0.00011842,0.000890
 99,0.00072514,0.00005066,-0.00000029,0.00000045,0.00000059,-0.00062373
 ,0.00042979,0.00043073,-0.00000052,0.00000007,0.00000030,0.00002002,0.
 00000963,-0.00000379,-0.00008625,-0.00004602,-0.00022764,0.00000088,0.
 ,-0.00000028,0.00012858,-0.00016013,0.00001882,-0.00000030,0.,0.000000
 11,-0.00008439,0.00007748,0.00014514,0.00000016,-0.00000003,0.00000004
 ,0.00022206,0.00001686,0.00047984,-0.00000022,0.00000021,0.00000023,0.
 00008123,-0.00008619,-0.00002672,0.00000007,0.00000004,-0.00000008,0.0
 0001684,-0.00001860,-0.00001482,-0.00000114,-0.00000005,0.00000033,0.0
 0000879,0.00000666,-0.00000042,0.00000092,-0.00000020,-0.00000027,-0.0
 0002095,0.00000771,0.00000360,0.00000017,-0.00000066,-0.00000015,0.000
 01017,-0.00001400,-0.00001077,-0.00000037,-0.00000153,-0.00000154,-0.0
 0000257,0.00000132,-0.00000098,0.00000060,0.00000045,-0.00000059,0.000
 00272,-0.00000291,0.00000159,-0.00000146,0.00000009,0.00000463,0.00000
 924,-0.00000163,-0.00000046,-0.00000098,-0.00000026,0.00000042,0.00000
 163,-0.00000058,0.00000028,0.00000003,0.00000013,0.00000019,0.00000127
 ,0.00000004,-0.00000268,-0.00000068,0.00000071,-0.00000017,0.00000273,
 -0.00000218,-0.00000112,-0.00000005,-0.00000014,-0.00000033,0.00002013
 ,0.00000128,0.00000961,-0.00000077,-0.00000066,-0.00000061,-0.00000257
 ,0.00000123,0.00000076,-0.00000014,-0.00000001,-0.00000014,-0.00000355
 ,-0.00000499,-0.00000511,-0.00000605,-0.00000069,0.00001531,0.00000023
 ,0.00000036,0.00000087,-0.00002400,-0.00000982,0.00000676,-0.00000037,
 -0.00000004,-0.00000131,-0.00000951,0.00000245,-0.00000464,0.00000153,
 0.00000152,0.00000118,0.00000493,0.00000207,0.00003636,0.00000064,0.00
 000002,0.00000042,0.00007964,0.00010634,0.00006552,0.00000025,0.000000
 67,-0.00000044,0.00003637,-0.00007688,0.00002030,-0.00000012,0.0000000
 4,0.00000083,-0.00004298,-0.00004258,-0.00003048,0.00000051,0.00000028
 ,0.00000031,-0.00000098,0.00000198,0.00000747,0.00000161,0.00000159,0.
 00000223,0.00001899,0.00001186,0.00000203,-0.00000103,-0.00000036,0.00
 000010,-0.00000294,-0.00000180,-0.00000243,0.00003130,0.00000367,-0.00
 081996,0.00000060,0.00000441,-0.00000488,-0.00000095,-0.00000023,-0.00
 000002,0.00000066,0.,0.00000003,-0.00000003,-0.00000006,-0.00000007,0.
 00000008,-0.00000007,0.,0.00000004,0.00000009,-0.00000003,-0.00000003,
 0.00000004,-0.00000003,-0.00000012,0.00000034,0.00000002,-0.00000077,0
 .00000076,-0.00001218,0.00000973,0.00000648,-0.00000466,0.00000016,0.0
 0000003,0.00000024,0.00000029,0.00000019,0.00000043,0.00000042,0.00000
 024,0.00000021,-0.00000225,-0.00000436,-0.00000027,-0.00000690,0.00003
 237,0.00000391,-0.00000687,0.00000246,0.00000478,-0.00011083,0.0000956
 5,0.00003483,-0.00005136,-0.00002435,0.00010378,-0.00001018,-0.0000099
 2,-0.00005364,-0.00435502,-0.00326810,0.00976006,0.00646669,0.00472449
 ,-0.01067245,-0.11036484,-0.08427210,0.24299702\\0.00000682,-0.0000095
 5,-0.00002597,0.00000322,-0.00000317,-0.00001395,-0.00000546,0.0000096
 8,0.00002469,0.00000177,-0.00000210,-0.00000676,0.00000321,-0.00000378
 ,-0.00001603,0.00000037,0.00000035,-0.00000047,-0.00000252,0.00000305,
 0.00000689,0.00000099,-0.00000057,-0.00000300,-0.00000060,0.00000077,-
 0.00000402,-0.00000203,0.00001085,0.00001999,-0.00000237,0.00000378,0.
 00000612,0.00000034,0.00000316,0.00000343,-0.00000081,0.00000173,-0.00
 000245,-0.00000121,0.00000390,0.00000572,-0.00000391,0.00000592,0.0000
 1121,0.00000096,0.00000069,-0.00000129,-0.00000201,-0.00000013,0.00000
 282,0.00000075,0.00000141,0.00000173,-0.00000101,-0.00000084,-0.000002
 65,0.00000081,0.00000065,0.00000030,-0.00000151,0.00000217,0.00000323,
 0.00000105,0.00000110,0.00000213,-0.00000105,-0.00001032,-0.00001368,-
 0.00000289,0.00001094,0.00001235,-0.00000075,0.00000139,0.00000152,0.0
 0000090,0.00000025,0.00000039,-0.00000294,0.00000092,-0.00000130,-0.00
 000044,0.00000439,0.00000401,-0.00000168,0.00000390,0.00000570,0.00000
 234,-0.00000250,-0.00000229,-0.00000102,-0.00000326,-0.00000407,0.0000
 0123,-0.00000014,0.00000056,-0.00000154,-0.00000114,-0.00000146,0.0000
 0150,-0.00000057,-0.00000022,-0.00000168,-0.00000013,0.,0.00000154,-0.
 00000045,-0.00000014,-0.00000130,0.00000080,0.00000058,0.00000511,-0.0
 0001077,-0.00001186,-0.00000152,0.00000075,0.00000076,0.00000145,-0.00
 000018,-0.00000013,-0.00000055,0.00000015,-0.00000021,0.00000536,-0.00
 000608,-0.00000746,0.00000387,0.00000019,0.00001500,0.00000729,-0.0000
 0058,-0.00000832,0.00000109,-0.00000080,0.00000376,-0.00000398,-0.0000
 0121,0.00000389,0.00000312,-0.00000163,0.00000909,0.00003728,-0.000000
 85,-0.00003784,-0.00000393,-0.00000311,-0.00001311,0.00000876,-0.00000
 235,-0.00001070,-0.00000073,-0.00000191,-0.00000120,-0.00000022,-0.000
 00669,-0.00000219,-0.00000451,-0.00000306,-0.00001509,-0.00004846,-0.0
 0000300,0.00005101,-0.00000160,-0.00000254,-0.00000271,0.00000362,-0.0
 0000216,-0.00000243,-0.00000469,-0.00000371,-0.00001303,-0.00000124,-0
 .00000163,0.00000332,-0.00000084,-0.00000154,0.00000333,0.00000493,-0.
 00000135,-0.00000361,-0.00001933,-0.00003783,-0.00001043,-0.00000287,0
 .00000274,0.00000165,0.00001092,0.00002129,0.00000456,-0.00000112,0.,0
 .00000333,-0.00000288,-0.00000929,-0.00000290,0.00000698,0.00001177,0.
 00000051,-0.00000176,0.00000781,-0.00000166,-0.00000468,-0.00001524,-0
 .00000504,-0.00000245,0.00000506,0.00000004,0.00000298,0.00000224,-0.0
 0000028,-0.00000193,0.00000005,0.00000274,0.00000969,0.00001569,0.0000
 0322,-0.00000133,-0.00000559,0.00000414,-0.00000336,-0.00001071,-0.000
 00414,-0.00000132,0.00000648,0.00000075,0.00000064,-0.00000422,0.00000
 184,-0.00000231,-0.00000173,-0.00000043,0.00000325,0.00000409,-0.00000
 674,-0.00000152,-0.00000153,0.00000396,-0.00000158,-0.00001162,0.00001
 546,-0.00000300,0.00000722,-0.00000664,-0.00000152,-0.00001097,0.00001
 591,-0.00000164,-0.00000082,-0.00000039,0.00000112,0.00000185,-0.00000
 070,-0.00000144,0.00000115,-0.00000173,-0.00000003,0.00000457,0.000002
 72,-0.00000033,0.00000038,-0.00000454,0.00000433,0.00000763,-0.0000061
 5,-0.00000236,-0.00000082,-0.00000122,0.00000275,0.00000162,0.00000148
 ,-0.00000259,-0.00000163,-0.00000148,0.00000340,0.00000168,0.00000025,
 -0.00000285,-0.00000164,-0.00000022,0.00000373,0.00000108,0.00000117,-
 0.00000350,-0.00000039,-0.00000138,0.00000575,0.00001142,-0.00001329,-
 0.00000229,-0.00000669,0.00000459,0.00000301,-0.00000076,0.00000159,-0
 .00000334,0.00000069,-0.00000079,0.00000121,0.00001207,-0.00000713,-0.
 00000190,-0.00000326,0.00000138,-0.00000481,0.00003295,-0.00001023,0.0
 0000341,-0.00000723,-0.00000126,0.00000466,-0.00001501,0.00000835,-0.0
 0000836,0.00000878,-0.00000153,-0.00002825,0.00012708,-0.00005997,0.00
 000095,0.00000434,-0.00000169,0.00001113,-0.00004311,0.00002568,0.0000
 1441,-0.00002170,0.00000088,-0.00000239,0.00002888,-0.00001550,-0.0000
 0724,0.00000374,-0.00000032,0.00003631,-0.00014590,0.00007249,-0.00001
 588,0.00001841,-0.00000421,0.00000315,-0.00000755,0.00000649,-0.000001
 09,-0.00000179,-0.00000214,0.00000160,-0.00000464,0.00000478,-0.000001
 06,-0.00000174,-0.00000136,0.00000145,0.00000784,-0.00000002,-0.000000
 19,-0.00000353,-0.00000144,0.00001717,-0.00000143,0.00000265,-0.000005
 86,0.00001984,0.00001568,0.00000044,0.00000341,0.00000355,0.00000107,0
 .00000166,0.00000112,-0.00000220,0.00000217,0.00000271,-0.00000112,0.0
 0000178,-0.00000054,-0.00000288,0.00000128,0.00000125,-0.00000251,0.00
 000322,0.00000155,-0.00000061,0.00000177,0.00000044,0.00000134,-0.0000
 0208,-0.00000150,0.00000258,0.00000020,-0.00000032,0.00002835,0.000087
 89,-0.00010397,-0.00009060,0.00004706,0.00009556,0.00005438,-0.0001104
 3,0.00001480,0.00000086,-0.00000052,0.00000918,-0.00000651,0.00000376,
 -0.00000858,0.00000442,-0.00001238,-0.00000718,-0.00001294,0.00000523,
 0.00000739,0.00000671,0.00000752,-0.00001963,0.00000940,-0.00001947,0.
 00000375,0.00003109,-0.00001441,-0.00003907,-0.00002969,-0.00003111,0.
 00001384,0.00000607,0.00004228,0.00002048\\\@


 A leading authority is anyone who has guessed right more than once.
 -- Frank A. Clark
 Job cpu time:      12 days  7 hours  3 minutes 30.4 seconds.
 Elapsed time:       0 days  9 hours 14 minutes 49.9 seconds.
 File lengths (MBytes):  RWF=  29657 Int=      0 D2E=      0 Chk=    210 Scr=      1
 Normal termination of Gaussian 16 at Sat Aug 31 18:50:03 2019.
