 Entering Gaussian System, Link 0=g16
 Initial command:
 /apps/gaussian/g16-a03/l1.exe "/rds/general/user/atarzia/home/pd_ligand_matching/geom_steric/dft/cage_gs_1212/Gau-18494.inp" -scrdir="/rds/general/user/atarzia/home/pd_ligand_matching/geom_steric/dft/cage_gs_1212/"
 Entering Link 1 = /apps/gaussian/g16-a03/l1.exe PID=     18495.
  
 Copyright (c) 1988,1990,1992,1993,1995,1998,2003,2009,2016,
            Gaussian, Inc.  All Rights Reserved.
  
 This is part of the Gaussian(R) 16 program.  It is based on
 the Gaussian(R) 09 system (copyright 2009, Gaussian, Inc.),
 the Gaussian(R) 03 system (copyright 2003, Gaussian, Inc.),
 the Gaussian(R) 98 system (copyright 1998, Gaussian, Inc.),
 the Gaussian(R) 94 system (copyright 1995, Gaussian, Inc.),
 the Gaussian 92(TM) system (copyright 1992, Gaussian, Inc.),
 the Gaussian 90(TM) system (copyright 1990, Gaussian, Inc.),
 the Gaussian 88(TM) system (copyright 1988, Gaussian, Inc.),
 the Gaussian 86(TM) system (copyright 1986, Carnegie Mellon
 University), and the Gaussian 82(TM) system (copyright 1983,
 Carnegie Mellon University). Gaussian is a federally registered
 trademark of Gaussian, Inc.
  
 This software contains proprietary and confidential information,
 including trade secrets, belonging to Gaussian, Inc.
  
 This software is provided under written license and may be
 used, copied, transmitted, or stored only in accord with that
 written license.
  
 The following legend is applicable only to US Government
 contracts under FAR:
  
                    RESTRICTED RIGHTS LEGEND
  
 Use, reproduction and disclosure by the US Government is
 subject to restrictions as set forth in subparagraphs (a)
 and (c) of the Commercial Computer Software - Restricted
 Rights clause in FAR 52.227-19.
  
 Gaussian, Inc.
 340 Quinnipiac St., Bldg. 40, Wallingford CT 06492
  
  
 ---------------------------------------------------------------
 Warning -- This program may not be used in any manner that
 competes with the business of Gaussian, Inc. or will provide
 assistance to any competitor of Gaussian, Inc.  The licensee
 of this program is prohibited from giving any competitor of
 Gaussian, Inc. access to this program.  By using this program,
 the user acknowledges that Gaussian, Inc. is engaged in the
 business of creating and licensing software in the field of
 computational chemistry and represents and warrants to the
 licensee that it is not a competitor of Gaussian, Inc. and that
 it will not use this program in any manner prohibited above.
 ---------------------------------------------------------------
  

 Cite this work as:
 Gaussian 16, Revision A.03,
 M. J. Frisch, G. W. Trucks, H. B. Schlegel, G. E. Scuseria, 
 M. A. Robb, J. R. Cheeseman, G. Scalmani, V. Barone, 
 G. A. Petersson, H. Nakatsuji, X. Li, M. Caricato, A. V. Marenich, 
 J. Bloino, B. G. Janesko, R. Gomperts, B. Mennucci, H. P. Hratchian, 
 J. V. Ortiz, A. F. Izmaylov, J. L. Sonnenberg, D. Williams-Young, 
 F. Ding, F. Lipparini, F. Egidi, J. Goings, B. Peng, A. Petrone, 
 T. Henderson, D. Ranasinghe, V. G. Zakrzewski, J. Gao, N. Rega, 
 G. Zheng, W. Liang, M. Hada, M. Ehara, K. Toyota, R. Fukuda, 
 J. Hasegawa, M. Ishida, T. Nakajima, Y. Honda, O. Kitao, H. Nakai, 
 T. Vreven, K. Throssell, J. A. Montgomery, Jr., J. E. Peralta, 
 F. Ogliaro, M. J. Bearpark, J. J. Heyd, E. N. Brothers, K. N. Kudin, 
 V. N. Staroverov, T. A. Keith, R. Kobayashi, J. Normand, 
 K. Raghavachari, A. P. Rendell, J. C. Burant, S. S. Iyengar, 
 J. Tomasi, M. Cossi, J. M. Millam, M. Klene, C. Adamo, R. Cammi, 
 J. W. Ochterski, R. L. Martin, K. Morokuma, O. Farkas, 
 J. B. Foresman, and D. J. Fox, Gaussian, Inc., Wallingford CT, 2016.
 
 ******************************************
 Gaussian 16:  ES64L-G16RevA.03 25-Dec-2016
                 4-Aug-2019 
 ******************************************
 %chk=gs_1212_f.chk
 %mem=60000mb
 %nprocshared=32
 Will use up to   32 processors via shared memory.
 ----------------------------------------------------------------------
 #P B3LYP/GenECP freq geom=checkpoint SCF=(YQC,MaxCycle=1800) int=(Grid
 =Ultrafine) EmpiricalDispersion=GD3 SCRF=(PCM,Solvent=DiMethylSulfoxid
 e)
 ----------------------------------------------------------------------
 1/10=4,29=2,30=1,38=1/1,3;
 2/12=2,40=1/2;
 3/5=7,11=2,14=-4,16=1,17=8,25=1,30=1,70=2201,71=2,72=21,74=-5,75=-5,124=31,140=1/1,2,3;
 4//1;
 5/5=2,7=1800,8=4,13=1,38=1,53=21,98=1/8,2,8;
 8/6=4,10=90,11=11/1;
 11/6=1,8=1,9=11,15=111,16=1/1,2,10;
 10/6=1/2;
 6/7=2,8=2,9=2,10=2,28=1/1;
 7/8=1,10=1,25=1/1,2,3,16;
 1/10=4,30=1/3;
 99//99;
 Leave Link    1 at Sun Aug  4 18:14:35 2019, MaxMem=  7864320000 cpu:               5.3 elap:               0.2
 (Enter /apps/gaussian/g16-a03/l101.exe)
 ---------
 gs_1212_f
 ---------
 Structure from the checkpoint file:  "gs_1212_f.chk"
 Charge =  4 Multiplicity = 1
 Redundant internal coordinates found in file.  (old form).
 N,0,2.2866803069,4.1625856918,21.5219883283
 N,0,5.8724806123,5.6832964063,22.871184758
 C,0,2.1889001795,4.2239141575,20.1838267722
 C,0,6.1533630258,6.8430808676,22.2538666724
 H,0,3.0777365231,4.5066800566,19.6346305841
 H,0,5.3869386046,7.2693883868,21.6171384346
 C,0,0.9964506151,3.9367164989,19.5025842648
 C,0,7.3926032882,7.4865164286,22.3874843801
 C,0,-0.1213262199,3.5547853865,20.2645399758
 C,0,8.3479088175,6.8945912881,23.2360386305
 C,0,-0.0041599947,3.4896341462,21.6501775498
 C,0,8.0348055586,5.70293819,23.8825187085
 C,0,1.2084499739,3.8063335362,22.2520910179
 C,0,6.7928956708,5.1093916616,23.6727661508
 H,0,1.3315800033,3.7790560684,23.3263817112
 H,0,6.5238173923,4.164135176,24.1274370159
 C,0,0.984922342,4.0536545772,18.0847527001
 C,0,7.6265761534,8.669878105,21.6400066826
 C,0,1.0917844203,4.1898863987,16.88275692
 C,0,7.7630951651,9.6529888909,20.9385911696
 C,0,1.2713898476,4.3492981433,15.4763240867
 C,0,7.9602003859,10.8012683831,20.120252041
 C,0,1.4651554082,5.633197915,14.9369171206
 C,0,6.963390981,11.2136308676,19.2141785854
 H,0,1.4034534515,6.4908091327,15.5988159926
 H,0,6.0318393175,10.6588409244,19.1631791309
 C,0,1.7145749178,5.8051631818,13.5693124075
 C,0,7.158593425,12.3414693624,18.4083718459
 C,0,1.7559968699,4.6682296943,12.7419227561
 C,0,8.365713856,13.0558710442,18.5166485341
 H,0,1.9816575969,4.7725454842,11.68559107
 H,0,8.541840349,13.9164454116,17.878826207
 C,0,1.5404259648,3.3951317586,13.2682626651
 C,0,9.3544081453,12.6531256253,19.4138780933
 H,0,1.5764303562,2.5296476973,12.6141048674
 H,0,10.2822815537,13.2124799988,19.480472231
 C,0,1.2993193517,3.2254259937,14.6291713965
 C,0,9.1611960132,11.5322207151,20.2157740764
 H,0,1.1452786402,2.2353243644,15.0452001846
 H,0,9.9271835727,11.2127404998,20.9146141823
 C,0,1.9490539331,7.1525126884,12.9965804305
 C,0,6.1298634157,12.7939301359,17.4398945123
 C,0,2.5460153406,8.1692668086,13.7465968046
 C,0,5.4055254996,11.8881375227,16.6635107837
 H,0,2.8362381166,8.0073796463,14.7781581483
 H,0,5.5555138831,10.8209099828,16.7764568643
 N,0,2.8069390739,9.3954500825,13.2510758756
 N,0,4.5225666537,12.2685131515,15.7144512481
 C,0,2.5082075759,9.6981252852,11.9616306151
 C,0,4.2936209802,13.5863756406,15.4799209384
 C,0,2.8534371884,11.0552904469,11.4142949928
 C,0,3.3441270977,13.9972968537,14.390360518
 C,0,1.8910504405,8.73100398,11.164916798
 C,0,4.9622497731,14.5421832547,16.2499349899
 H,0,1.6348519599,8.9794922367,10.1413326191
 H,0,4.7635410249,15.5925944655,16.0703724349
 C,0,1.6048346361,7.4723409132,11.6739573299
 C,0,5.8749429125,14.156332816,17.2203022345
 H,0,1.1048132534,6.7428982081,11.0460174896
 H,0,6.3870073746,14.9090427468,17.8107290359
 N,0,5.5424516963,10.1851094208,13.981504842
 N,0,1.7762822456,11.1736445035,15.3341446453
 C,0,5.9880216498,9.0779213513,14.5984956516
 C,0,1.6896000056,11.0989649377,16.6723925965
 H,0,5.291583676,8.5457255303,15.2359189765
 C,0,7.3068870812,8.6196652088,14.4636814912
 C,0,0.4688533191,11.2114694952,17.3547635281
 C,0,8.1661870143,9.342939851,13.6142668099
 C,0,-0.6929865654,11.4283753703,16.5938742349
 C,0,7.6841153658,10.4770218738,12.9681457217
 C,0,-0.5877149504,11.5096284898,15.2081326183
 C,0,6.3698639588,10.8855294953,13.1790929443
 C,0,0.6573045907,11.370838647,14.6050698266
 H,0,5.9670250627,11.7821394326,12.7247253375
 H,0,0.7742213494,11.4154931971,13.5306669547
 C,0,7.7095511431,7.4823970364,15.2108723693
 C,0,0.47560716,11.0941886881,18.7725974704
 C,0,7.9868894607,6.5292504891,15.912102105
 C,0,0.6020953564,10.9748517889,19.9744842174
 C,0,8.3480778819,5.42138793,16.7301845409
 C,0,0.8040958563,10.8430622845,21.3807383824
 C,0,7.4218874915,4.8698144027,17.6371458047
 C,0,1.1812399428,9.6004866926,21.919878487
 H,0,6.4201888775,5.2846498677,17.6890369555
 H,0,1.2430663391,8.7428830199,21.2579811705
 C,0,7.778238273,3.7819054422,18.4426991785
 C,0,1.4541056143,9.4663286585,23.2872375205
 C,0,9.0755683306,3.2488080081,18.3332673097
 C,0,1.3321392187,10.5974328122,24.1146637725
 H,0,9.3743931577,2.4226172201,18.9708710466
 H,0,1.5714593782,10.526774274,25.170776732
 C,0,9.9951215743,3.7896964382,17.435156682
 C,0,0.9349829136,11.8261791332,23.5886104859
 H,0,10.9938232323,3.3698128398,17.3676738474
 H,0,0.8465848765,12.6878717761,24.2427916433
 C,0,9.6417426524,4.8710315313,16.6335122814
 C,0,0.6706777845,11.9592999942,22.2279391331
 H,0,10.3530866885,5.297459752,15.933990498
 H,0,0.3752694495,12.9168689037,21.8121201317
 C,0,6.8262933607,3.1860603642,19.412093258
 C,0,1.8807147618,8.1668331976,23.8596606063
 C,0,5.979757405,3.9781365327,20.1891967544
 C,0,2.6171827338,7.2465999784,23.1090195343
 H,0,5.9743611676,5.0558307922,20.0761752573
 H,0,2.880099781,7.4485236025,22.077196878
 N,0,5.161663821,3.4746215843,21.1390448551
 N,0,3.0524452751,6.0708138942,23.6042170701
 C,0,5.1251317647,2.1375412529,21.3737021045
 C,0,2.8016289233,5.7283634412,24.8939228671
 C,0,4.2457176681,1.5942262625,22.4641043507
 C,0,3.3392388488,4.435110127,25.4408482005
 C,0,5.9237483005,1.2879482602,20.6030158562
 C,0,2.0523654906,6.5965751105,25.6912762417
 H,0,5.8785661297,0.2198818863,20.7826945146
 H,0,1.8355851657,6.3138536253,26.7150846028
 C,0,6.7704619451,1.8011626177,19.6318366616
 C,0,1.5873830512,7.8008586941,25.1825845017
 H,0,7.3850603232,1.130012354,19.0408949115
 H,0,0.988108399,8.4507291521,25.81103887
 Pd,0,3.6465716719,10.7981595185,14.5241260658
 Pd,0,4.0841509264,4.8035617497,22.330289249
 H,0,8.7502148443,5.2191420052,24.5373602
 H,0,9.316911435,7.3623684043,23.3709035094
 H,0,-1.0588319696,3.3197314042,19.7728955969
 H,0,-0.8449157796,3.2003269653,22.2699041523
 H,0,-1.6541137048,11.5259858017,17.0864069658
 H,0,-1.4619490068,11.674785997,14.589207872
 H,0,2.6104065112,10.9472044932,17.2207422143
 H,0,8.321774626,11.0587587237,12.3126615745
 H,0,9.1923324473,9.0195907547,13.4784690932
 H,0,2.537775333,11.134107389,10.3720395285
 H,0,3.9335121232,11.2279281016,11.4568004084
 H,0,2.3686669375,11.8601768365,11.9765400366
 H,0,3.637888212,13.5612017038,13.4295536928
 H,0,3.3367149362,15.0842207101,14.2855212782
 H,0,2.3236915027,13.6684622695,14.6083263848
 H,0,4.4328770601,4.4198305596,25.397321007
 H,0,2.9749235241,3.5687553566,24.8790048694
 H,0,3.0391939992,4.311724362,26.4833930944
 H,0,4.3950213603,0.5175740223,22.5688784252
 H,0,3.1883618339,1.7726521026,22.2470932799
 H,0,4.4744861321,2.068147268,23.4246710955
 Recover connectivity data from disk.
 ITRead=  0  0  0  0  0  0  0  0  0  0  0  0  0  0  0  0  0  0  0  0
 ITRead=  0  0  0  0  0  0  0  0  0  0  0  0  0  0  0  0  0  0  0  0
 ITRead=  0  0  0  0  0  0  0  0  0  0  0  0  0  0  0  0  0  0  0  0
 ITRead=  0  0  0  0  0  0  0  0  0  0  0  0  0  0  0  0  0  0  0  0
 ITRead=  0  0  0  0  0  0  0  0  0  0  0  0  0  0  0  0  0  0  0  0
 ITRead=  0  0  0  0  0  0  0  0  0  0  0  0  0  0  0  0  0  0  0  0
 ITRead=  0  0  0  0  0  0  0  0  0  0  0  0  0  0  0  0  0  0  0  0
 ITRead=  0  0
 MicOpt= -1 -1 -1 -1 -1 -1 -1 -1 -1 -1 -1 -1 -1 -1 -1 -1 -1 -1 -1 -1
 MicOpt= -1 -1 -1 -1 -1 -1 -1 -1 -1 -1 -1 -1 -1 -1 -1 -1 -1 -1 -1 -1
 MicOpt= -1 -1 -1 -1 -1 -1 -1 -1 -1 -1 -1 -1 -1 -1 -1 -1 -1 -1 -1 -1
 MicOpt= -1 -1 -1 -1 -1 -1 -1 -1 -1 -1 -1 -1 -1 -1 -1 -1 -1 -1 -1 -1
 MicOpt= -1 -1 -1 -1 -1 -1 -1 -1 -1 -1 -1 -1 -1 -1 -1 -1 -1 -1 -1 -1
 MicOpt= -1 -1 -1 -1 -1 -1 -1 -1 -1 -1 -1 -1 -1 -1 -1 -1 -1 -1 -1 -1
 MicOpt= -1 -1 -1 -1 -1 -1 -1 -1 -1 -1 -1 -1 -1 -1 -1 -1 -1 -1 -1 -1
 MicOpt= -1 -1
 NAtoms=    142 NQM=      142 NQMF=       0 NMMI=      0 NMMIF=      0
                NMic=       0 NMicF=      0.
                    Isotopes and Nuclear Properties:
 (Nuclear quadrupole moments (NQMom) in fm**2, nuclear magnetic moments (NMagM)
  in nuclear magnetons)

  Atom         1           2           3           4           5           6           7           8           9          10
 IAtWgt=          14          14          12          12           1           1          12          12          12          12
 AtmWgt=  14.0030740  14.0030740  12.0000000  12.0000000   1.0078250   1.0078250  12.0000000  12.0000000  12.0000000  12.0000000
 NucSpn=           2           2           0           0           1           1           0           0           0           0
 AtZEff=   4.5500000   4.5500000   3.6000000   3.6000000   1.0000000   1.0000000   3.6000000   3.6000000   3.6000000   3.6000000
 NQMom=    2.0440000   2.0440000   0.0000000   0.0000000   0.0000000   0.0000000   0.0000000   0.0000000   0.0000000   0.0000000
 NMagM=    0.4037610   0.4037610   0.0000000   0.0000000   2.7928460   2.7928460   0.0000000   0.0000000   0.0000000   0.0000000
 AtZNuc=   7.0000000   7.0000000   6.0000000   6.0000000   1.0000000   1.0000000   6.0000000   6.0000000   6.0000000   6.0000000

  Atom        11          12          13          14          15          16          17          18          19          20
 IAtWgt=          12          12          12          12           1           1          12          12          12          12
 AtmWgt=  12.0000000  12.0000000  12.0000000  12.0000000   1.0078250   1.0078250  12.0000000  12.0000000  12.0000000  12.0000000
 NucSpn=           0           0           0           0           1           1           0           0           0           0
 AtZEff=   3.6000000   3.6000000   3.6000000   3.6000000   1.0000000   1.0000000   3.6000000   3.6000000   3.6000000   3.6000000
 NQMom=    0.0000000   0.0000000   0.0000000   0.0000000   0.0000000   0.0000000   0.0000000   0.0000000   0.0000000   0.0000000
 NMagM=    0.0000000   0.0000000   0.0000000   0.0000000   2.7928460   2.7928460   0.0000000   0.0000000   0.0000000   0.0000000
 AtZNuc=   6.0000000   6.0000000   6.0000000   6.0000000   1.0000000   1.0000000   6.0000000   6.0000000   6.0000000   6.0000000

  Atom        21          22          23          24          25          26          27          28          29          30
 IAtWgt=          12          12          12          12           1           1          12          12          12          12
 AtmWgt=  12.0000000  12.0000000  12.0000000  12.0000000   1.0078250   1.0078250  12.0000000  12.0000000  12.0000000  12.0000000
 NucSpn=           0           0           0           0           1           1           0           0           0           0
 AtZEff=   3.6000000   3.6000000   3.6000000   3.6000000   1.0000000   1.0000000   3.6000000   3.6000000   3.6000000   3.6000000
 NQMom=    0.0000000   0.0000000   0.0000000   0.0000000   0.0000000   0.0000000   0.0000000   0.0000000   0.0000000   0.0000000
 NMagM=    0.0000000   0.0000000   0.0000000   0.0000000   2.7928460   2.7928460   0.0000000   0.0000000   0.0000000   0.0000000
 AtZNuc=   6.0000000   6.0000000   6.0000000   6.0000000   1.0000000   1.0000000   6.0000000   6.0000000   6.0000000   6.0000000

  Atom        31          32          33          34          35          36          37          38          39          40
 IAtWgt=           1           1          12          12           1           1          12          12           1           1
 AtmWgt=   1.0078250   1.0078250  12.0000000  12.0000000   1.0078250   1.0078250  12.0000000  12.0000000   1.0078250   1.0078250
 NucSpn=           1           1           0           0           1           1           0           0           1           1
 AtZEff=   1.0000000   1.0000000   3.6000000   3.6000000   1.0000000   1.0000000   3.6000000   3.6000000   1.0000000   1.0000000
 NQMom=    0.0000000   0.0000000   0.0000000   0.0000000   0.0000000   0.0000000   0.0000000   0.0000000   0.0000000   0.0000000
 NMagM=    2.7928460   2.7928460   0.0000000   0.0000000   2.7928460   2.7928460   0.0000000   0.0000000   2.7928460   2.7928460
 AtZNuc=   1.0000000   1.0000000   6.0000000   6.0000000   1.0000000   1.0000000   6.0000000   6.0000000   1.0000000   1.0000000

  Atom        41          42          43          44          45          46          47          48          49          50
 IAtWgt=          12          12          12          12           1           1          14          14          12          12
 AtmWgt=  12.0000000  12.0000000  12.0000000  12.0000000   1.0078250   1.0078250  14.0030740  14.0030740  12.0000000  12.0000000
 NucSpn=           0           0           0           0           1           1           2           2           0           0
 AtZEff=   3.6000000   3.6000000   3.6000000   3.6000000   1.0000000   1.0000000   4.5500000   4.5500000   3.6000000   3.6000000
 NQMom=    0.0000000   0.0000000   0.0000000   0.0000000   0.0000000   0.0000000   2.0440000   2.0440000   0.0000000   0.0000000
 NMagM=    0.0000000   0.0000000   0.0000000   0.0000000   2.7928460   2.7928460   0.4037610   0.4037610   0.0000000   0.0000000
 AtZNuc=   6.0000000   6.0000000   6.0000000   6.0000000   1.0000000   1.0000000   7.0000000   7.0000000   6.0000000   6.0000000

  Atom        51          52          53          54          55          56          57          58          59          60
 IAtWgt=          12          12          12          12           1           1          12          12           1           1
 AtmWgt=  12.0000000  12.0000000  12.0000000  12.0000000   1.0078250   1.0078250  12.0000000  12.0000000   1.0078250   1.0078250
 NucSpn=           0           0           0           0           1           1           0           0           1           1
 AtZEff=   3.6000000   3.6000000   3.6000000   3.6000000   1.0000000   1.0000000   3.6000000   3.6000000   1.0000000   1.0000000
 NQMom=    0.0000000   0.0000000   0.0000000   0.0000000   0.0000000   0.0000000   0.0000000   0.0000000   0.0000000   0.0000000
 NMagM=    0.0000000   0.0000000   0.0000000   0.0000000   2.7928460   2.7928460   0.0000000   0.0000000   2.7928460   2.7928460
 AtZNuc=   6.0000000   6.0000000   6.0000000   6.0000000   1.0000000   1.0000000   6.0000000   6.0000000   1.0000000   1.0000000

  Atom        61          62          63          64          65          66          67          68          69          70
 IAtWgt=          14          14          12          12           1          12          12          12          12          12
 AtmWgt=  14.0030740  14.0030740  12.0000000  12.0000000   1.0078250  12.0000000  12.0000000  12.0000000  12.0000000  12.0000000
 NucSpn=           2           2           0           0           1           0           0           0           0           0
 AtZEff=   4.5500000   4.5500000   3.6000000   3.6000000   1.0000000   3.6000000   3.6000000   3.6000000   3.6000000   3.6000000
 NQMom=    2.0440000   2.0440000   0.0000000   0.0000000   0.0000000   0.0000000   0.0000000   0.0000000   0.0000000   0.0000000
 NMagM=    0.4037610   0.4037610   0.0000000   0.0000000   2.7928460   0.0000000   0.0000000   0.0000000   0.0000000   0.0000000
 AtZNuc=   7.0000000   7.0000000   6.0000000   6.0000000   1.0000000   6.0000000   6.0000000   6.0000000   6.0000000   6.0000000

  Atom        71          72          73          74          75          76          77          78          79          80
 IAtWgt=          12          12          12           1           1          12          12          12          12          12
 AtmWgt=  12.0000000  12.0000000  12.0000000   1.0078250   1.0078250  12.0000000  12.0000000  12.0000000  12.0000000  12.0000000
 NucSpn=           0           0           0           1           1           0           0           0           0           0
 AtZEff=   3.6000000   3.6000000   3.6000000   1.0000000   1.0000000   3.6000000   3.6000000   3.6000000   3.6000000   3.6000000
 NQMom=    0.0000000   0.0000000   0.0000000   0.0000000   0.0000000   0.0000000   0.0000000   0.0000000   0.0000000   0.0000000
 NMagM=    0.0000000   0.0000000   0.0000000   2.7928460   2.7928460   0.0000000   0.0000000   0.0000000   0.0000000   0.0000000
 AtZNuc=   6.0000000   6.0000000   6.0000000   1.0000000   1.0000000   6.0000000   6.0000000   6.0000000   6.0000000   6.0000000

  Atom        81          82          83          84          85          86          87          88          89          90
 IAtWgt=          12          12          12           1           1          12          12          12          12           1
 AtmWgt=  12.0000000  12.0000000  12.0000000   1.0078250   1.0078250  12.0000000  12.0000000  12.0000000  12.0000000   1.0078250
 NucSpn=           0           0           0           1           1           0           0           0           0           1
 AtZEff=   3.6000000   3.6000000   3.6000000   1.0000000   1.0000000   3.6000000   3.6000000   3.6000000   3.6000000   1.0000000
 NQMom=    0.0000000   0.0000000   0.0000000   0.0000000   0.0000000   0.0000000   0.0000000   0.0000000   0.0000000   0.0000000
 NMagM=    0.0000000   0.0000000   0.0000000   2.7928460   2.7928460   0.0000000   0.0000000   0.0000000   0.0000000   2.7928460
 AtZNuc=   6.0000000   6.0000000   6.0000000   1.0000000   1.0000000   6.0000000   6.0000000   6.0000000   6.0000000   1.0000000

  Atom        91          92          93          94          95          96          97          98          99         100
 IAtWgt=           1          12          12           1           1          12          12           1           1          12
 AtmWgt=   1.0078250  12.0000000  12.0000000   1.0078250   1.0078250  12.0000000  12.0000000   1.0078250   1.0078250  12.0000000
 NucSpn=           1           0           0           1           1           0           0           1           1           0
 AtZEff=   1.0000000   3.6000000   3.6000000   1.0000000   1.0000000   3.6000000   3.6000000   1.0000000   1.0000000   3.6000000
 NQMom=    0.0000000   0.0000000   0.0000000   0.0000000   0.0000000   0.0000000   0.0000000   0.0000000   0.0000000   0.0000000
 NMagM=    2.7928460   0.0000000   0.0000000   2.7928460   2.7928460   0.0000000   0.0000000   2.7928460   2.7928460   0.0000000
 AtZNuc=   1.0000000   6.0000000   6.0000000   1.0000000   1.0000000   6.0000000   6.0000000   1.0000000   1.0000000   6.0000000

  Atom       101         102         103         104         105         106         107         108         109         110
 IAtWgt=          12          12          12           1           1          14          14          12          12          12
 AtmWgt=  12.0000000  12.0000000  12.0000000   1.0078250   1.0078250  14.0030740  14.0030740  12.0000000  12.0000000  12.0000000
 NucSpn=           0           0           0           1           1           2           2           0           0           0
 AtZEff=   3.6000000   3.6000000   3.6000000   1.0000000   1.0000000   4.5500000   4.5500000   3.6000000   3.6000000   3.6000000
 NQMom=    0.0000000   0.0000000   0.0000000   0.0000000   0.0000000   2.0440000   2.0440000   0.0000000   0.0000000   0.0000000
 NMagM=    0.0000000   0.0000000   0.0000000   2.7928460   2.7928460   0.4037610   0.4037610   0.0000000   0.0000000   0.0000000
 AtZNuc=   6.0000000   6.0000000   6.0000000   1.0000000   1.0000000   7.0000000   7.0000000   6.0000000   6.0000000   6.0000000

  Atom       111         112         113         114         115         116         117         118         119         120
 IAtWgt=          12          12          12           1           1          12          12           1           1         106
 AtmWgt=  12.0000000  12.0000000  12.0000000   1.0078250   1.0078250  12.0000000  12.0000000   1.0078250   1.0078250 105.9032000
 NucSpn=           0           0           0           1           1           0           0           1           1           0
 AtZEff=   3.6000000   3.6000000   3.6000000   1.0000000   1.0000000   3.6000000   3.6000000   1.0000000   1.0000000 237.3600000
 NQMom=    0.0000000   0.0000000   0.0000000   0.0000000   0.0000000   0.0000000   0.0000000   0.0000000   0.0000000   0.0000000
 NMagM=    0.0000000   0.0000000   0.0000000   2.7928460   2.7928460   0.0000000   0.0000000   2.7928460   2.7928460   0.0000000
 AtZNuc=   6.0000000   6.0000000   6.0000000   1.0000000   1.0000000   6.0000000   6.0000000   1.0000000   1.0000000  46.0000000

  Atom       121         122         123         124         125         126         127         128         129         130
 IAtWgt=         106           1           1           1           1           1           1           1           1           1
 AtmWgt= 105.9032000   1.0078250   1.0078250   1.0078250   1.0078250   1.0078250   1.0078250   1.0078250   1.0078250   1.0078250
 NucSpn=           0           1           1           1           1           1           1           1           1           1
 AtZEff= 237.3600000   1.0000000   1.0000000   1.0000000   1.0000000   1.0000000   1.0000000   1.0000000   1.0000000   1.0000000
 NQMom=    0.0000000   0.0000000   0.0000000   0.0000000   0.0000000   0.0000000   0.0000000   0.0000000   0.0000000   0.0000000
 NMagM=    0.0000000   2.7928460   2.7928460   2.7928460   2.7928460   2.7928460   2.7928460   2.7928460   2.7928460   2.7928460
 AtZNuc=  46.0000000   1.0000000   1.0000000   1.0000000   1.0000000   1.0000000   1.0000000   1.0000000   1.0000000   1.0000000

  Atom       131         132         133         134         135         136         137         138         139         140
 IAtWgt=           1           1           1           1           1           1           1           1           1           1
 AtmWgt=   1.0078250   1.0078250   1.0078250   1.0078250   1.0078250   1.0078250   1.0078250   1.0078250   1.0078250   1.0078250
 NucSpn=           1           1           1           1           1           1           1           1           1           1
 AtZEff=   1.0000000   1.0000000   1.0000000   1.0000000   1.0000000   1.0000000   1.0000000   1.0000000   1.0000000   1.0000000
 NQMom=    0.0000000   0.0000000   0.0000000   0.0000000   0.0000000   0.0000000   0.0000000   0.0000000   0.0000000   0.0000000
 NMagM=    2.7928460   2.7928460   2.7928460   2.7928460   2.7928460   2.7928460   2.7928460   2.7928460   2.7928460   2.7928460
 AtZNuc=   1.0000000   1.0000000   1.0000000   1.0000000   1.0000000   1.0000000   1.0000000   1.0000000   1.0000000   1.0000000

  Atom       141         142
 IAtWgt=           1           1
 AtmWgt=   1.0078250   1.0078250
 NucSpn=           1           1
 AtZEff=   1.0000000   1.0000000
 NQMom=    0.0000000   0.0000000
 NMagM=    2.7928460   2.7928460
 AtZNuc=   1.0000000   1.0000000
 Center=      4.16657042      7.82266901     18.42707042
 Residue   1 PDB Number     1_0 MOL charge    0.00000000 layers R        AvRTP=      0.00000000      0.00000000      0.00000000
 Leave Link  101 at Sun Aug  4 18:14:36 2019, MaxMem=  7864320000 cpu:              29.8 elap:               0.9
 (Enter /apps/gaussian/g16-a03/l103.exe)

 GradGradGradGradGradGradGradGradGradGradGradGradGradGradGradGradGradGrad
 Berny optimization.
 Initialization pass.
                           ----------------------------
                           !    Initial Parameters    !
                           ! (Angstroms and Degrees)  !
 --------------------------                            --------------------------
 ! Name  Definition              Value          Derivative Info.                !
 --------------------------------------------------------------------------------
 ! R1    R(1,3)                  1.3431         calculate D2E/DX2 analytically  !
 ! R2    R(1,13)                 1.35           calculate D2E/DX2 analytically  !
 ! R3    R(1,121)                2.0725         calculate D2E/DX2 analytically  !
 ! R4    R(2,4)                  1.3435         calculate D2E/DX2 analytically  !
 ! R5    R(2,14)                 1.3487         calculate D2E/DX2 analytically  !
 ! R6    R(2,121)                2.0651         calculate D2E/DX2 analytically  !
 ! R7    R(3,5)                  1.0824         calculate D2E/DX2 analytically  !
 ! R8    R(3,7)                  1.403          calculate D2E/DX2 analytically  !
 ! R9    R(4,6)                  1.0838         calculate D2E/DX2 analytically  !
 ! R10   R(4,8)                  1.4027         calculate D2E/DX2 analytically  !
 ! R11   R(7,9)                  1.4057         calculate D2E/DX2 analytically  !
 ! R12   R(7,17)                 1.4227         calculate D2E/DX2 analytically  !
 ! R13   R(8,10)                 1.4082         calculate D2E/DX2 analytically  !
 ! R14   R(8,18)                 1.4191         calculate D2E/DX2 analytically  !
 ! R15   R(9,11)                 1.3921         calculate D2E/DX2 analytically  !
 ! R16   R(9,124)                1.0844         calculate D2E/DX2 analytically  !
 ! R17   R(10,12)                1.3914         calculate D2E/DX2 analytically  !
 ! R18   R(10,123)               1.0844         calculate D2E/DX2 analytically  !
 ! R19   R(11,13)                1.3903         calculate D2E/DX2 analytically  !
 ! R20   R(11,125)               1.0838         calculate D2E/DX2 analytically  !
 ! R21   R(12,14)                1.3923         calculate D2E/DX2 analytically  !
 ! R22   R(12,122)               1.0838         calculate D2E/DX2 analytically  !
 ! R23   R(13,15)                1.0817         calculate D2E/DX2 analytically  !
 ! R24   R(14,16)                1.0829         calculate D2E/DX2 analytically  !
 ! R25   R(17,19)                1.2144         calculate D2E/DX2 analytically  !
 ! R26   R(18,20)                1.2154         calculate D2E/DX2 analytically  !
 ! R27   R(19,21)                1.4268         calculate D2E/DX2 analytically  !
 ! R28   R(20,22)                1.4238         calculate D2E/DX2 analytically  !
 ! R29   R(21,23)                1.406          calculate D2E/DX2 analytically  !
 ! R30   R(21,37)                1.4077         calculate D2E/DX2 analytically  !
 ! R31   R(22,24)                1.4088         calculate D2E/DX2 analytically  !
 ! R32   R(22,38)                1.4092         calculate D2E/DX2 analytically  !
 ! R33   R(23,25)                1.0851         calculate D2E/DX2 analytically  !
 ! R34   R(23,27)                1.4008         calculate D2E/DX2 analytically  !
 ! R35   R(24,26)                1.0854         calculate D2E/DX2 analytically  !
 ! R36   R(24,28)                1.3998         calculate D2E/DX2 analytically  !
 ! R37   R(27,29)                1.4067         calculate D2E/DX2 analytically  !
 ! R38   R(27,41)                1.4827         calculate D2E/DX2 analytically  !
 ! R39   R(28,30)                1.4069         calculate D2E/DX2 analytically  !
 ! R40   R(28,42)                1.4836         calculate D2E/DX2 analytically  !
 ! R41   R(29,31)                1.0852         calculate D2E/DX2 analytically  !
 ! R42   R(29,33)                1.3944         calculate D2E/DX2 analytically  !
 ! R43   R(30,32)                1.0856         calculate D2E/DX2 analytically  !
 ! R44   R(30,34)                1.3945         calculate D2E/DX2 analytically  !
 ! R45   R(33,35)                1.0855         calculate D2E/DX2 analytically  !
 ! R46   R(33,37)                1.3925         calculate D2E/DX2 analytically  !
 ! R47   R(34,36)                1.0855         calculate D2E/DX2 analytically  !
 ! R48   R(34,38)                1.3917         calculate D2E/DX2 analytically  !
 ! R49   R(37,39)                1.0849         calculate D2E/DX2 analytically  !
 ! R50   R(38,40)                1.085          calculate D2E/DX2 analytically  !
 ! R51   R(41,43)                1.3974         calculate D2E/DX2 analytically  !
 ! R52   R(41,57)                1.4036         calculate D2E/DX2 analytically  !
 ! R53   R(42,44)                1.3957         calculate D2E/DX2 analytically  !
 ! R54   R(42,58)                1.4033         calculate D2E/DX2 analytically  !
 ! R55   R(43,45)                1.0838         calculate D2E/DX2 analytically  !
 ! R56   R(43,47)                1.348          calculate D2E/DX2 analytically  !
 ! R57   R(44,46)                1.0836         calculate D2E/DX2 analytically  !
 ! R58   R(44,48)                1.3509         calculate D2E/DX2 analytically  !
 ! R59   R(47,49)                1.3578         calculate D2E/DX2 analytically  !
 ! R60   R(47,120)               2.072          calculate D2E/DX2 analytically  !
 ! R61   R(48,50)                1.358          calculate D2E/DX2 analytically  !
 ! R62   R(48,120)               2.0847         calculate D2E/DX2 analytically  !
 ! R63   R(49,51)                1.5035         calculate D2E/DX2 analytically  !
 ! R64   R(49,53)                1.3968         calculate D2E/DX2 analytically  !
 ! R65   R(50,52)                1.5025         calculate D2E/DX2 analytically  !
 ! R66   R(50,54)                1.3977         calculate D2E/DX2 analytically  !
 ! R67   R(51,131)               1.0919         calculate D2E/DX2 analytically  !
 ! R68   R(51,132)               1.0946         calculate D2E/DX2 analytically  !
 ! R69   R(51,133)               1.095          calculate D2E/DX2 analytically  !
 ! R70   R(52,134)               1.0953         calculate D2E/DX2 analytically  !
 ! R71   R(52,135)               1.092          calculate D2E/DX2 analytically  !
 ! R72   R(52,136)               1.094          calculate D2E/DX2 analytically  !
 ! R73   R(53,55)                1.084          calculate D2E/DX2 analytically  !
 ! R74   R(53,57)                1.3875         calculate D2E/DX2 analytically  !
 ! R75   R(54,56)                1.084          calculate D2E/DX2 analytically  !
 ! R76   R(54,58)                1.3869         calculate D2E/DX2 analytically  !
 ! R77   R(57,59)                1.0846         calculate D2E/DX2 analytically  !
 ! R78   R(58,60)                1.0851         calculate D2E/DX2 analytically  !
 ! R79   R(61,63)                1.3435         calculate D2E/DX2 analytically  !
 ! R80   R(61,72)                1.3487         calculate D2E/DX2 analytically  !
 ! R81   R(61,120)               2.0651         calculate D2E/DX2 analytically  !
 ! R82   R(62,64)                1.3431         calculate D2E/DX2 analytically  !
 ! R83   R(62,73)                1.35           calculate D2E/DX2 analytically  !
 ! R84   R(62,120)               2.0725         calculate D2E/DX2 analytically  !
 ! R85   R(63,65)                1.0838         calculate D2E/DX2 analytically  !
 ! R86   R(63,66)                1.4027         calculate D2E/DX2 analytically  !
 ! R87   R(64,67)                1.403          calculate D2E/DX2 analytically  !
 ! R88   R(64,128)               1.0824         calculate D2E/DX2 analytically  !
 ! R89   R(66,68)                1.4082         calculate D2E/DX2 analytically  !
 ! R90   R(66,76)                1.4191         calculate D2E/DX2 analytically  !
 ! R91   R(67,69)                1.4057         calculate D2E/DX2 analytically  !
 ! R92   R(67,77)                1.4227         calculate D2E/DX2 analytically  !
 ! R93   R(68,70)                1.3914         calculate D2E/DX2 analytically  !
 ! R94   R(68,130)               1.0844         calculate D2E/DX2 analytically  !
 ! R95   R(69,71)                1.3921         calculate D2E/DX2 analytically  !
 ! R96   R(69,126)               1.0844         calculate D2E/DX2 analytically  !
 ! R97   R(70,72)                1.3923         calculate D2E/DX2 analytically  !
 ! R98   R(70,129)               1.0838         calculate D2E/DX2 analytically  !
 ! R99   R(71,73)                1.3903         calculate D2E/DX2 analytically  !
 ! R100  R(71,127)               1.0838         calculate D2E/DX2 analytically  !
 ! R101  R(72,74)                1.0829         calculate D2E/DX2 analytically  !
 ! R102  R(73,75)                1.0817         calculate D2E/DX2 analytically  !
 ! R103  R(76,78)                1.2154         calculate D2E/DX2 analytically  !
 ! R104  R(77,79)                1.2144         calculate D2E/DX2 analytically  !
 ! R105  R(78,80)                1.4238         calculate D2E/DX2 analytically  !
 ! R106  R(79,81)                1.4268         calculate D2E/DX2 analytically  !
 ! R107  R(80,82)                1.4088         calculate D2E/DX2 analytically  !
 ! R108  R(80,96)                1.4092         calculate D2E/DX2 analytically  !
 ! R109  R(81,83)                1.406          calculate D2E/DX2 analytically  !
 ! R110  R(81,97)                1.4077         calculate D2E/DX2 analytically  !
 ! R111  R(82,84)                1.0854         calculate D2E/DX2 analytically  !
 ! R112  R(82,86)                1.3998         calculate D2E/DX2 analytically  !
 ! R113  R(83,85)                1.0851         calculate D2E/DX2 analytically  !
 ! R114  R(83,87)                1.4008         calculate D2E/DX2 analytically  !
 ! R115  R(86,88)                1.4069         calculate D2E/DX2 analytically  !
 ! R116  R(86,100)               1.4836         calculate D2E/DX2 analytically  !
 ! R117  R(87,89)                1.4067         calculate D2E/DX2 analytically  !
 ! R118  R(87,101)               1.4827         calculate D2E/DX2 analytically  !
 ! R119  R(88,90)                1.0856         calculate D2E/DX2 analytically  !
 ! R120  R(88,92)                1.3945         calculate D2E/DX2 analytically  !
 ! R121  R(89,91)                1.0852         calculate D2E/DX2 analytically  !
 ! R122  R(89,93)                1.3944         calculate D2E/DX2 analytically  !
 ! R123  R(92,94)                1.0855         calculate D2E/DX2 analytically  !
 ! R124  R(92,96)                1.3917         calculate D2E/DX2 analytically  !
 ! R125  R(93,95)                1.0855         calculate D2E/DX2 analytically  !
 ! R126  R(93,97)                1.3925         calculate D2E/DX2 analytically  !
 ! R127  R(96,98)                1.085          calculate D2E/DX2 analytically  !
 ! R128  R(97,99)                1.0849         calculate D2E/DX2 analytically  !
 ! R129  R(100,102)              1.3957         calculate D2E/DX2 analytically  !
 ! R130  R(100,116)              1.4033         calculate D2E/DX2 analytically  !
 ! R131  R(101,103)              1.3974         calculate D2E/DX2 analytically  !
 ! R132  R(101,117)              1.4036         calculate D2E/DX2 analytically  !
 ! R133  R(102,104)              1.0836         calculate D2E/DX2 analytically  !
 ! R134  R(102,106)              1.3509         calculate D2E/DX2 analytically  !
 ! R135  R(103,105)              1.0838         calculate D2E/DX2 analytically  !
 ! R136  R(103,107)              1.348          calculate D2E/DX2 analytically  !
 ! R137  R(106,108)              1.358          calculate D2E/DX2 analytically  !
 ! R138  R(106,121)              2.0847         calculate D2E/DX2 analytically  !
 ! R139  R(107,109)              1.3578         calculate D2E/DX2 analytically  !
 ! R140  R(107,121)              2.072          calculate D2E/DX2 analytically  !
 ! R141  R(108,110)              1.5025         calculate D2E/DX2 analytically  !
 ! R142  R(108,112)              1.3977         calculate D2E/DX2 analytically  !
 ! R143  R(109,111)              1.5035         calculate D2E/DX2 analytically  !
 ! R144  R(109,113)              1.3968         calculate D2E/DX2 analytically  !
 ! R145  R(110,140)              1.092          calculate D2E/DX2 analytically  !
 ! R146  R(110,141)              1.094          calculate D2E/DX2 analytically  !
 ! R147  R(110,142)              1.0953         calculate D2E/DX2 analytically  !
 ! R148  R(111,137)              1.0946         calculate D2E/DX2 analytically  !
 ! R149  R(111,138)              1.095          calculate D2E/DX2 analytically  !
 ! R150  R(111,139)              1.0919         calculate D2E/DX2 analytically  !
 ! R151  R(112,114)              1.084          calculate D2E/DX2 analytically  !
 ! R152  R(112,116)              1.3869         calculate D2E/DX2 analytically  !
 ! R153  R(113,115)              1.084          calculate D2E/DX2 analytically  !
 ! R154  R(113,117)              1.3875         calculate D2E/DX2 analytically  !
 ! R155  R(116,118)              1.0851         calculate D2E/DX2 analytically  !
 ! R156  R(117,119)              1.0846         calculate D2E/DX2 analytically  !
 ! A1    A(3,1,13)             119.5192         calculate D2E/DX2 analytically  !
 ! A2    A(3,1,121)            115.9505         calculate D2E/DX2 analytically  !
 ! A3    A(13,1,121)           124.2907         calculate D2E/DX2 analytically  !
 ! A4    A(4,2,14)             119.8497         calculate D2E/DX2 analytically  !
 ! A5    A(4,2,121)            115.3684         calculate D2E/DX2 analytically  !
 ! A6    A(14,2,121)           124.4279         calculate D2E/DX2 analytically  !
 ! A7    A(1,3,5)              117.2359         calculate D2E/DX2 analytically  !
 ! A8    A(1,3,7)              122.4307         calculate D2E/DX2 analytically  !
 ! A9    A(5,3,7)              120.3334         calculate D2E/DX2 analytically  !
 ! A10   A(2,4,6)              117.4942         calculate D2E/DX2 analytically  !
 ! A11   A(2,4,8)              122.4733         calculate D2E/DX2 analytically  !
 ! A12   A(6,4,8)              120.0197         calculate D2E/DX2 analytically  !
 ! A13   A(3,7,9)              117.9217         calculate D2E/DX2 analytically  !
 ! A14   A(3,7,17)             118.2911         calculate D2E/DX2 analytically  !
 ! A15   A(9,7,17)             123.7866         calculate D2E/DX2 analytically  !
 ! A16   A(4,8,10)             117.6401         calculate D2E/DX2 analytically  !
 ! A17   A(4,8,18)             118.5549         calculate D2E/DX2 analytically  !
 ! A18   A(10,8,18)            123.7842         calculate D2E/DX2 analytically  !
 ! A19   A(7,9,11)             119.0343         calculate D2E/DX2 analytically  !
 ! A20   A(7,9,124)            120.0413         calculate D2E/DX2 analytically  !
 ! A21   A(11,9,124)           120.924          calculate D2E/DX2 analytically  !
 ! A22   A(8,10,12)            119.1643         calculate D2E/DX2 analytically  !
 ! A23   A(8,10,123)           119.9871         calculate D2E/DX2 analytically  !
 ! A24   A(12,10,123)          120.8457         calculate D2E/DX2 analytically  !
 ! A25   A(9,11,13)            119.5815         calculate D2E/DX2 analytically  !
 ! A26   A(9,11,125)           121.0879         calculate D2E/DX2 analytically  !
 ! A27   A(13,11,125)          119.3299         calculate D2E/DX2 analytically  !
 ! A28   A(10,12,14)           119.7233         calculate D2E/DX2 analytically  !
 ! A29   A(10,12,122)          120.9628         calculate D2E/DX2 analytically  !
 ! A30   A(14,12,122)          119.307          calculate D2E/DX2 analytically  !
 ! A31   A(1,13,11)            121.5045         calculate D2E/DX2 analytically  !
 ! A32   A(1,13,15)            116.9273         calculate D2E/DX2 analytically  !
 ! A33   A(11,13,15)           121.5682         calculate D2E/DX2 analytically  !
 ! A34   A(2,14,12)            121.1203         calculate D2E/DX2 analytically  !
 ! A35   A(2,14,16)            116.8337         calculate D2E/DX2 analytically  !
 ! A36   A(12,14,16)           122.039          calculate D2E/DX2 analytically  !
 ! A37   A(19,21,23)           119.8372         calculate D2E/DX2 analytically  !
 ! A38   A(19,21,37)           120.4324         calculate D2E/DX2 analytically  !
 ! A39   A(23,21,37)           119.6982         calculate D2E/DX2 analytically  !
 ! A40   A(20,22,24)           120.517          calculate D2E/DX2 analytically  !
 ! A41   A(20,22,38)           119.8262         calculate D2E/DX2 analytically  !
 ! A42   A(24,22,38)           119.6568         calculate D2E/DX2 analytically  !
 ! A43   A(21,23,25)           118.6761         calculate D2E/DX2 analytically  !
 ! A44   A(21,23,27)           120.7439         calculate D2E/DX2 analytically  !
 ! A45   A(25,23,27)           120.5742         calculate D2E/DX2 analytically  !
 ! A46   A(22,24,26)           119.2004         calculate D2E/DX2 analytically  !
 ! A47   A(22,24,28)           120.4916         calculate D2E/DX2 analytically  !
 ! A48   A(26,24,28)           120.2947         calculate D2E/DX2 analytically  !
 ! A49   A(23,27,29)           118.7027         calculate D2E/DX2 analytically  !
 ! A50   A(23,27,41)           121.1217         calculate D2E/DX2 analytically  !
 ! A51   A(29,27,41)           120.1711         calculate D2E/DX2 analytically  !
 ! A52   A(24,28,30)           118.979          calculate D2E/DX2 analytically  !
 ! A53   A(24,28,42)           121.6564         calculate D2E/DX2 analytically  !
 ! A54   A(30,28,42)           119.3633         calculate D2E/DX2 analytically  !
 ! A55   A(27,29,31)           120.0631         calculate D2E/DX2 analytically  !
 ! A56   A(27,29,33)           120.7534         calculate D2E/DX2 analytically  !
 ! A57   A(31,29,33)           119.1665         calculate D2E/DX2 analytically  !
 ! A58   A(28,30,32)           119.7721         calculate D2E/DX2 analytically  !
 ! A59   A(28,30,34)           120.7428         calculate D2E/DX2 analytically  !
 ! A60   A(32,30,34)           119.4685         calculate D2E/DX2 analytically  !
 ! A61   A(29,33,35)           119.6939         calculate D2E/DX2 analytically  !
 ! A62   A(29,33,37)           120.4613         calculate D2E/DX2 analytically  !
 ! A63   A(35,33,37)           119.8378         calculate D2E/DX2 analytically  !
 ! A64   A(30,34,36)           119.7811         calculate D2E/DX2 analytically  !
 ! A65   A(30,34,38)           120.3249         calculate D2E/DX2 analytically  !
 ! A66   A(36,34,38)           119.8921         calculate D2E/DX2 analytically  !
 ! A67   A(21,37,33)           119.6236         calculate D2E/DX2 analytically  !
 ! A68   A(21,37,39)           119.6705         calculate D2E/DX2 analytically  !
 ! A69   A(33,37,39)           120.7014         calculate D2E/DX2 analytically  !
 ! A70   A(22,38,34)           119.8046         calculate D2E/DX2 analytically  !
 ! A71   A(22,38,40)           119.5126         calculate D2E/DX2 analytically  !
 ! A72   A(34,38,40)           120.6828         calculate D2E/DX2 analytically  !
 ! A73   A(27,41,43)           121.4283         calculate D2E/DX2 analytically  !
 ! A74   A(27,41,57)           122.1592         calculate D2E/DX2 analytically  !
 ! A75   A(43,41,57)           116.4063         calculate D2E/DX2 analytically  !
 ! A76   A(28,42,44)           121.674          calculate D2E/DX2 analytically  !
 ! A77   A(28,42,58)           121.6144         calculate D2E/DX2 analytically  !
 ! A78   A(44,42,58)           116.6635         calculate D2E/DX2 analytically  !
 ! A79   A(41,43,45)           121.1036         calculate D2E/DX2 analytically  !
 ! A80   A(41,43,47)           123.1781         calculate D2E/DX2 analytically  !
 ! A81   A(45,43,47)           115.7169         calculate D2E/DX2 analytically  !
 ! A82   A(42,44,46)           120.6217         calculate D2E/DX2 analytically  !
 ! A83   A(42,44,48)           123.1799         calculate D2E/DX2 analytically  !
 ! A84   A(46,44,48)           116.1675         calculate D2E/DX2 analytically  !
 ! A85   A(43,47,49)           120.6162         calculate D2E/DX2 analytically  !
 ! A86   A(43,47,120)          117.9292         calculate D2E/DX2 analytically  !
 ! A87   A(49,47,120)          121.4485         calculate D2E/DX2 analytically  !
 ! A88   A(44,48,50)           120.3153         calculate D2E/DX2 analytically  !
 ! A89   A(44,48,120)          118.5005         calculate D2E/DX2 analytically  !
 ! A90   A(50,48,120)          120.997          calculate D2E/DX2 analytically  !
 ! A91   A(47,49,51)           119.763          calculate D2E/DX2 analytically  !
 ! A92   A(47,49,53)           118.9837         calculate D2E/DX2 analytically  !
 ! A93   A(51,49,53)           121.2518         calculate D2E/DX2 analytically  !
 ! A94   A(48,50,52)           119.8136         calculate D2E/DX2 analytically  !
 ! A95   A(48,50,54)           119.1984         calculate D2E/DX2 analytically  !
 ! A96   A(52,50,54)           120.983          calculate D2E/DX2 analytically  !
 ! A97   A(49,51,131)          110.2593         calculate D2E/DX2 analytically  !
 ! A98   A(49,51,132)          110.7803         calculate D2E/DX2 analytically  !
 ! A99   A(49,51,133)          112.0202         calculate D2E/DX2 analytically  !
 ! A100  A(131,51,132)         108.1164         calculate D2E/DX2 analytically  !
 ! A101  A(131,51,133)         108.0048         calculate D2E/DX2 analytically  !
 ! A102  A(132,51,133)         107.516          calculate D2E/DX2 analytically  !
 ! A103  A(50,52,134)          110.962          calculate D2E/DX2 analytically  !
 ! A104  A(50,52,135)          110.2508         calculate D2E/DX2 analytically  !
 ! A105  A(50,52,136)          111.2689         calculate D2E/DX2 analytically  !
 ! A106  A(134,52,135)         108.2952         calculate D2E/DX2 analytically  !
 ! A107  A(134,52,136)         107.7737         calculate D2E/DX2 analytically  !
 ! A108  A(135,52,136)         108.1779         calculate D2E/DX2 analytically  !
 ! A109  A(49,53,55)           118.9669         calculate D2E/DX2 analytically  !
 ! A110  A(49,53,57)           120.6619         calculate D2E/DX2 analytically  !
 ! A111  A(55,53,57)           120.3709         calculate D2E/DX2 analytically  !
 ! A112  A(50,54,56)           118.9272         calculate D2E/DX2 analytically  !
 ! A113  A(50,54,58)           120.6649         calculate D2E/DX2 analytically  !
 ! A114  A(56,54,58)           120.4053         calculate D2E/DX2 analytically  !
 ! A115  A(41,57,53)           120.1197         calculate D2E/DX2 analytically  !
 ! A116  A(41,57,59)           120.355          calculate D2E/DX2 analytically  !
 ! A117  A(53,57,59)           119.5223         calculate D2E/DX2 analytically  !
 ! A118  A(42,58,54)           119.9418         calculate D2E/DX2 analytically  !
 ! A119  A(42,58,60)           120.1715         calculate D2E/DX2 analytically  !
 ! A120  A(54,58,60)           119.8861         calculate D2E/DX2 analytically  !
 ! A121  A(63,61,72)           119.8497         calculate D2E/DX2 analytically  !
 ! A122  A(63,61,120)          115.3686         calculate D2E/DX2 analytically  !
 ! A123  A(72,61,120)          124.4277         calculate D2E/DX2 analytically  !
 ! A124  A(64,62,73)           119.5191         calculate D2E/DX2 analytically  !
 ! A125  A(64,62,120)          115.9506         calculate D2E/DX2 analytically  !
 ! A126  A(73,62,120)          124.2907         calculate D2E/DX2 analytically  !
 ! A127  A(61,63,65)           117.4942         calculate D2E/DX2 analytically  !
 ! A128  A(61,63,66)           122.4734         calculate D2E/DX2 analytically  !
 ! A129  A(65,63,66)           120.0197         calculate D2E/DX2 analytically  !
 ! A130  A(62,64,67)           122.4307         calculate D2E/DX2 analytically  !
 ! A131  A(62,64,128)          117.2359         calculate D2E/DX2 analytically  !
 ! A132  A(67,64,128)          120.3334         calculate D2E/DX2 analytically  !
 ! A133  A(63,66,68)           117.6401         calculate D2E/DX2 analytically  !
 ! A134  A(63,66,76)           118.5548         calculate D2E/DX2 analytically  !
 ! A135  A(68,66,76)           123.7843         calculate D2E/DX2 analytically  !
 ! A136  A(64,67,69)           117.9217         calculate D2E/DX2 analytically  !
 ! A137  A(64,67,77)           118.2911         calculate D2E/DX2 analytically  !
 ! A138  A(69,67,77)           123.7866         calculate D2E/DX2 analytically  !
 ! A139  A(66,68,70)           119.1642         calculate D2E/DX2 analytically  !
 ! A140  A(66,68,130)          119.9872         calculate D2E/DX2 analytically  !
 ! A141  A(70,68,130)          120.8457         calculate D2E/DX2 analytically  !
 ! A142  A(67,69,71)           119.0343         calculate D2E/DX2 analytically  !
 ! A143  A(67,69,126)          120.0413         calculate D2E/DX2 analytically  !
 ! A144  A(71,69,126)          120.924          calculate D2E/DX2 analytically  !
 ! A145  A(68,70,72)           119.7233         calculate D2E/DX2 analytically  !
 ! A146  A(68,70,129)          120.9628         calculate D2E/DX2 analytically  !
 ! A147  A(72,70,129)          119.307          calculate D2E/DX2 analytically  !
 ! A148  A(69,71,73)           119.5815         calculate D2E/DX2 analytically  !
 ! A149  A(69,71,127)          121.0879         calculate D2E/DX2 analytically  !
 ! A150  A(73,71,127)          119.3299         calculate D2E/DX2 analytically  !
 ! A151  A(61,72,70)           121.1203         calculate D2E/DX2 analytically  !
 ! A152  A(61,72,74)           116.8337         calculate D2E/DX2 analytically  !
 ! A153  A(70,72,74)           122.0389         calculate D2E/DX2 analytically  !
 ! A154  A(62,73,71)           121.5045         calculate D2E/DX2 analytically  !
 ! A155  A(62,73,75)           116.9274         calculate D2E/DX2 analytically  !
 ! A156  A(71,73,75)           121.5682         calculate D2E/DX2 analytically  !
 ! A157  A(78,80,82)           120.5171         calculate D2E/DX2 analytically  !
 ! A158  A(78,80,96)           119.8261         calculate D2E/DX2 analytically  !
 ! A159  A(82,80,96)           119.6568         calculate D2E/DX2 analytically  !
 ! A160  A(79,81,83)           119.8372         calculate D2E/DX2 analytically  !
 ! A161  A(79,81,97)           120.4324         calculate D2E/DX2 analytically  !
 ! A162  A(83,81,97)           119.6982         calculate D2E/DX2 analytically  !
 ! A163  A(80,82,84)           119.2004         calculate D2E/DX2 analytically  !
 ! A164  A(80,82,86)           120.4916         calculate D2E/DX2 analytically  !
 ! A165  A(84,82,86)           120.2947         calculate D2E/DX2 analytically  !
 ! A166  A(81,83,85)           118.6761         calculate D2E/DX2 analytically  !
 ! A167  A(81,83,87)           120.7438         calculate D2E/DX2 analytically  !
 ! A168  A(85,83,87)           120.5742         calculate D2E/DX2 analytically  !
 ! A169  A(82,86,88)           118.979          calculate D2E/DX2 analytically  !
 ! A170  A(82,86,100)          121.6564         calculate D2E/DX2 analytically  !
 ! A171  A(88,86,100)          119.3633         calculate D2E/DX2 analytically  !
 ! A172  A(83,87,89)           118.7027         calculate D2E/DX2 analytically  !
 ! A173  A(83,87,101)          121.1217         calculate D2E/DX2 analytically  !
 ! A174  A(89,87,101)          120.171          calculate D2E/DX2 analytically  !
 ! A175  A(86,88,90)           119.7721         calculate D2E/DX2 analytically  !
 ! A176  A(86,88,92)           120.7428         calculate D2E/DX2 analytically  !
 ! A177  A(90,88,92)           119.4685         calculate D2E/DX2 analytically  !
 ! A178  A(87,89,91)           120.0631         calculate D2E/DX2 analytically  !
 ! A179  A(87,89,93)           120.7534         calculate D2E/DX2 analytically  !
 ! A180  A(91,89,93)           119.1665         calculate D2E/DX2 analytically  !
 ! A181  A(88,92,94)           119.7811         calculate D2E/DX2 analytically  !
 ! A182  A(88,92,96)           120.3249         calculate D2E/DX2 analytically  !
 ! A183  A(94,92,96)           119.8921         calculate D2E/DX2 analytically  !
 ! A184  A(89,93,95)           119.6939         calculate D2E/DX2 analytically  !
 ! A185  A(89,93,97)           120.4613         calculate D2E/DX2 analytically  !
 ! A186  A(95,93,97)           119.8378         calculate D2E/DX2 analytically  !
 ! A187  A(80,96,92)           119.8046         calculate D2E/DX2 analytically  !
 ! A188  A(80,96,98)           119.5126         calculate D2E/DX2 analytically  !
 ! A189  A(92,96,98)           120.6828         calculate D2E/DX2 analytically  !
 ! A190  A(81,97,93)           119.6236         calculate D2E/DX2 analytically  !
 ! A191  A(81,97,99)           119.6705         calculate D2E/DX2 analytically  !
 ! A192  A(93,97,99)           120.7014         calculate D2E/DX2 analytically  !
 ! A193  A(86,100,102)         121.6739         calculate D2E/DX2 analytically  !
 ! A194  A(86,100,116)         121.6145         calculate D2E/DX2 analytically  !
 ! A195  A(102,100,116)        116.6635         calculate D2E/DX2 analytically  !
 ! A196  A(87,101,103)         121.4282         calculate D2E/DX2 analytically  !
 ! A197  A(87,101,117)         122.1592         calculate D2E/DX2 analytically  !
 ! A198  A(103,101,117)        116.4063         calculate D2E/DX2 analytically  !
 ! A199  A(100,102,104)        120.6217         calculate D2E/DX2 analytically  !
 ! A200  A(100,102,106)        123.1799         calculate D2E/DX2 analytically  !
 ! A201  A(104,102,106)        116.1676         calculate D2E/DX2 analytically  !
 ! A202  A(101,103,105)        121.1037         calculate D2E/DX2 analytically  !
 ! A203  A(101,103,107)        123.1781         calculate D2E/DX2 analytically  !
 ! A204  A(105,103,107)        115.7169         calculate D2E/DX2 analytically  !
 ! A205  A(102,106,108)        120.3153         calculate D2E/DX2 analytically  !
 ! A206  A(102,106,121)        118.5004         calculate D2E/DX2 analytically  !
 ! A207  A(108,106,121)        120.9971         calculate D2E/DX2 analytically  !
 ! A208  A(103,107,109)        120.6162         calculate D2E/DX2 analytically  !
 ! A209  A(103,107,121)        117.9292         calculate D2E/DX2 analytically  !
 ! A210  A(109,107,121)        121.4485         calculate D2E/DX2 analytically  !
 ! A211  A(106,108,110)        119.8135         calculate D2E/DX2 analytically  !
 ! A212  A(106,108,112)        119.1984         calculate D2E/DX2 analytically  !
 ! A213  A(110,108,112)        120.9831         calculate D2E/DX2 analytically  !
 ! A214  A(107,109,111)        119.7629         calculate D2E/DX2 analytically  !
 ! A215  A(107,109,113)        118.9837         calculate D2E/DX2 analytically  !
 ! A216  A(111,109,113)        121.2518         calculate D2E/DX2 analytically  !
 ! A217  A(108,110,140)        110.2508         calculate D2E/DX2 analytically  !
 ! A218  A(108,110,141)        111.2688         calculate D2E/DX2 analytically  !
 ! A219  A(108,110,142)        110.962          calculate D2E/DX2 analytically  !
 ! A220  A(140,110,141)        108.178          calculate D2E/DX2 analytically  !
 ! A221  A(140,110,142)        108.2952         calculate D2E/DX2 analytically  !
 ! A222  A(141,110,142)        107.7737         calculate D2E/DX2 analytically  !
 ! A223  A(109,111,137)        110.7803         calculate D2E/DX2 analytically  !
 ! A224  A(109,111,138)        112.0202         calculate D2E/DX2 analytically  !
 ! A225  A(109,111,139)        110.2593         calculate D2E/DX2 analytically  !
 ! A226  A(137,111,138)        107.516          calculate D2E/DX2 analytically  !
 ! A227  A(137,111,139)        108.1165         calculate D2E/DX2 analytically  !
 ! A228  A(138,111,139)        108.0047         calculate D2E/DX2 analytically  !
 ! A229  A(108,112,114)        118.9272         calculate D2E/DX2 analytically  !
 ! A230  A(108,112,116)        120.6649         calculate D2E/DX2 analytically  !
 ! A231  A(114,112,116)        120.4053         calculate D2E/DX2 analytically  !
 ! A232  A(109,113,115)        118.9669         calculate D2E/DX2 analytically  !
 ! A233  A(109,113,117)        120.6618         calculate D2E/DX2 analytically  !
 ! A234  A(115,113,117)        120.3709         calculate D2E/DX2 analytically  !
 ! A235  A(100,116,112)        119.9418         calculate D2E/DX2 analytically  !
 ! A236  A(100,116,118)        120.1715         calculate D2E/DX2 analytically  !
 ! A237  A(112,116,118)        119.8861         calculate D2E/DX2 analytically  !
 ! A238  A(101,117,113)        120.1197         calculate D2E/DX2 analytically  !
 ! A239  A(101,117,119)        120.3549         calculate D2E/DX2 analytically  !
 ! A240  A(113,117,119)        119.5223         calculate D2E/DX2 analytically  !
 ! A241  A(47,120,61)           90.5507         calculate D2E/DX2 analytically  !
 ! A242  A(47,120,62)           89.8337         calculate D2E/DX2 analytically  !
 ! A243  A(48,120,61)           88.4895         calculate D2E/DX2 analytically  !
 ! A244  A(48,120,62)           91.6192         calculate D2E/DX2 analytically  !
 ! A245  A(1,121,106)           91.6193         calculate D2E/DX2 analytically  !
 ! A246  A(1,121,107)           89.8337         calculate D2E/DX2 analytically  !
 ! A247  A(2,121,106)           88.4894         calculate D2E/DX2 analytically  !
 ! A248  A(2,121,107)           90.5506         calculate D2E/DX2 analytically  !
 ! A249  L(7,17,19,18,-1)      174.5178         calculate D2E/DX2 analytically  !
 ! A250  L(8,18,20,17,-1)      175.6072         calculate D2E/DX2 analytically  !
 ! A251  L(17,19,21,20,-1)     178.3288         calculate D2E/DX2 analytically  !
 ! A252  L(18,20,22,19,-1)     181.0781         calculate D2E/DX2 analytically  !
 ! A253  L(66,76,78,17,-1)     176.5576         calculate D2E/DX2 analytically  !
 ! A254  L(67,77,79,17,-1)     178.6522         calculate D2E/DX2 analytically  !
 ! A255  L(76,78,80,7,-1)      181.4662         calculate D2E/DX2 analytically  !
 ! A256  L(77,79,81,3,-1)      179.8439         calculate D2E/DX2 analytically  !
 ! A257  L(47,120,48,62,-1)    181.4529         calculate D2E/DX2 analytically  !
 ! A258  L(61,120,62,48,-1)    180.1087         calculate D2E/DX2 analytically  !
 ! A259  L(1,121,2,107,-1)     180.3843         calculate D2E/DX2 analytically  !
 ! A260  L(106,121,107,2,-1)   179.04           calculate D2E/DX2 analytically  !
 ! A261  L(7,17,19,18,-2)      178.0551         calculate D2E/DX2 analytically  !
 ! A262  L(8,18,20,17,-2)      180.4262         calculate D2E/DX2 analytically  !
 ! A263  L(17,19,21,20,-2)     178.5358         calculate D2E/DX2 analytically  !
 ! A264  L(18,20,22,19,-2)     181.1082         calculate D2E/DX2 analytically  !
 ! A265  L(66,76,78,17,-2)     182.9124         calculate D2E/DX2 analytically  !
 ! A266  L(67,77,79,17,-2)     174.3756         calculate D2E/DX2 analytically  !
 ! A267  L(76,78,80,7,-2)      180.3701         calculate D2E/DX2 analytically  !
 ! A268  L(77,79,81,3,-2)      177.7972         calculate D2E/DX2 analytically  !
 ! A269  L(47,120,48,62,-2)    182.7301         calculate D2E/DX2 analytically  !
 ! A270  L(61,120,62,48,-2)    189.9451         calculate D2E/DX2 analytically  !
 ! A271  L(1,121,2,107,-2)     189.9348         calculate D2E/DX2 analytically  !
 ! A272  L(106,121,107,2,-2)   182.9399         calculate D2E/DX2 analytically  !
 ! D1    D(13,1,3,5)          -179.5773         calculate D2E/DX2 analytically  !
 ! D2    D(13,1,3,7)             0.3499         calculate D2E/DX2 analytically  !
 ! D3    D(121,1,3,5)            5.8045         calculate D2E/DX2 analytically  !
 ! D4    D(121,1,3,7)         -174.2683         calculate D2E/DX2 analytically  !
 ! D5    D(3,1,13,11)            0.5068         calculate D2E/DX2 analytically  !
 ! D6    D(3,1,13,15)         -179.474          calculate D2E/DX2 analytically  !
 ! D7    D(121,1,13,11)        174.648          calculate D2E/DX2 analytically  !
 ! D8    D(121,1,13,15)         -5.3328         calculate D2E/DX2 analytically  !
 ! D9    D(3,1,121,106)        -55.0475         calculate D2E/DX2 analytically  !
 ! D10   D(3,1,121,107)        127.6824         calculate D2E/DX2 analytically  !
 ! D11   D(13,1,121,106)       130.6218         calculate D2E/DX2 analytically  !
 ! D12   D(13,1,121,107)       -46.6483         calculate D2E/DX2 analytically  !
 ! D13   D(14,2,4,6)           179.8807         calculate D2E/DX2 analytically  !
 ! D14   D(14,2,4,8)             1.183          calculate D2E/DX2 analytically  !
 ! D15   D(121,2,4,6)            6.4114         calculate D2E/DX2 analytically  !
 ! D16   D(121,2,4,8)         -172.2863         calculate D2E/DX2 analytically  !
 ! D17   D(4,2,14,12)            0.4292         calculate D2E/DX2 analytically  !
 ! D18   D(4,2,14,16)         -178.6251         calculate D2E/DX2 analytically  !
 ! D19   D(121,2,14,12)        173.272          calculate D2E/DX2 analytically  !
 ! D20   D(121,2,14,16)         -5.7823         calculate D2E/DX2 analytically  !
 ! D21   D(4,2,121,106)        102.2057         calculate D2E/DX2 analytically  !
 ! D22   D(4,2,121,107)        -80.7342         calculate D2E/DX2 analytically  !
 ! D23   D(14,2,121,106)       -70.9256         calculate D2E/DX2 analytically  !
 ! D24   D(14,2,121,107)       106.1346         calculate D2E/DX2 analytically  !
 ! D25   D(1,3,7,9)             -0.8876         calculate D2E/DX2 analytically  !
 ! D26   D(1,3,7,17)           178.8435         calculate D2E/DX2 analytically  !
 ! D27   D(5,3,7,9)            179.0374         calculate D2E/DX2 analytically  !
 ! D28   D(5,3,7,17)            -1.2315         calculate D2E/DX2 analytically  !
 ! D29   D(2,4,8,10)            -1.8402         calculate D2E/DX2 analytically  !
 ! D30   D(2,4,8,18)           176.5654         calculate D2E/DX2 analytically  !
 ! D31   D(6,4,8,10)           179.4939         calculate D2E/DX2 analytically  !
 ! D32   D(6,4,8,18)            -2.1004         calculate D2E/DX2 analytically  !
 ! D33   D(3,7,9,11)             0.5757         calculate D2E/DX2 analytically  !
 ! D34   D(3,7,9,124)         -179.6653         calculate D2E/DX2 analytically  !
 ! D35   D(17,7,9,11)         -179.1394         calculate D2E/DX2 analytically  !
 ! D36   D(17,7,9,124)           0.6196         calculate D2E/DX2 analytically  !
 ! D37   D(3,7,21,23)          -67.0317         calculate D2E/DX2 analytically  !
 ! D38   D(3,7,21,37)          107.0822         calculate D2E/DX2 analytically  !
 ! D39   D(9,7,21,23)          112.8071         calculate D2E/DX2 analytically  !
 ! D40   D(9,7,21,37)          -73.079          calculate D2E/DX2 analytically  !
 ! D41   D(4,8,10,12)            0.9076         calculate D2E/DX2 analytically  !
 ! D42   D(4,8,10,123)        -179.7104         calculate D2E/DX2 analytically  !
 ! D43   D(18,8,10,12)        -177.4074         calculate D2E/DX2 analytically  !
 ! D44   D(18,8,10,123)          1.9746         calculate D2E/DX2 analytically  !
 ! D45   D(4,8,22,24)           -2.8172         calculate D2E/DX2 analytically  !
 ! D46   D(4,8,22,38)          178.3101         calculate D2E/DX2 analytically  !
 ! D47   D(10,8,22,24)         173.7429         calculate D2E/DX2 analytically  !
 ! D48   D(10,8,22,38)          -5.1299         calculate D2E/DX2 analytically  !
 ! D49   D(7,9,11,13)            0.2221         calculate D2E/DX2 analytically  !
 ! D50   D(7,9,11,125)         179.9223         calculate D2E/DX2 analytically  !
 ! D51   D(124,9,11,13)       -179.5347         calculate D2E/DX2 analytically  !
 ! D52   D(124,9,11,125)         0.1655         calculate D2E/DX2 analytically  !
 ! D53   D(8,10,12,14)           0.5915         calculate D2E/DX2 analytically  !
 ! D54   D(8,10,12,122)        179.6347         calculate D2E/DX2 analytically  !
 ! D55   D(123,10,12,14)      -178.785          calculate D2E/DX2 analytically  !
 ! D56   D(123,10,12,122)        0.2582         calculate D2E/DX2 analytically  !
 ! D57   D(9,11,13,1)           -0.7912         calculate D2E/DX2 analytically  !
 ! D58   D(9,11,13,15)         179.1887         calculate D2E/DX2 analytically  !
 ! D59   D(125,11,13,1)        179.5033         calculate D2E/DX2 analytically  !
 ! D60   D(125,11,13,15)        -0.5168         calculate D2E/DX2 analytically  !
 ! D61   D(10,12,14,2)          -1.3093         calculate D2E/DX2 analytically  !
 ! D62   D(10,12,14,16)        177.6952         calculate D2E/DX2 analytically  !
 ! D63   D(122,12,14,2)        179.6316         calculate D2E/DX2 analytically  !
 ! D64   D(122,12,14,16)        -1.3639         calculate D2E/DX2 analytically  !
 ! D65   D(19,21,23,25)         -4.3118         calculate D2E/DX2 analytically  !
 ! D66   D(19,21,23,27)        176.5626         calculate D2E/DX2 analytically  !
 ! D67   D(37,21,23,25)        177.7416         calculate D2E/DX2 analytically  !
 ! D68   D(37,21,23,27)         -1.3839         calculate D2E/DX2 analytically  !
 ! D69   D(19,21,37,33)       -176.8894         calculate D2E/DX2 analytically  !
 ! D70   D(19,21,37,39)          2.3417         calculate D2E/DX2 analytically  !
 ! D71   D(23,21,37,33)          1.0447         calculate D2E/DX2 analytically  !
 ! D72   D(23,21,37,39)       -179.7241         calculate D2E/DX2 analytically  !
 ! D73   D(20,22,24,26)          1.4244         calculate D2E/DX2 analytically  !
 ! D74   D(20,22,24,28)       -179.9004         calculate D2E/DX2 analytically  !
 ! D75   D(38,22,24,26)       -178.5855         calculate D2E/DX2 analytically  !
 ! D76   D(38,22,24,28)          0.0897         calculate D2E/DX2 analytically  !
 ! D77   D(20,22,38,34)        179.8812         calculate D2E/DX2 analytically  !
 ! D78   D(20,22,38,40)         -0.0299         calculate D2E/DX2 analytically  !
 ! D79   D(24,22,38,34)         -0.1089         calculate D2E/DX2 analytically  !
 ! D80   D(24,22,38,40)        179.98           calculate D2E/DX2 analytically  !
 ! D81   D(21,23,27,29)          0.5535         calculate D2E/DX2 analytically  !
 ! D82   D(21,23,27,41)       -178.6699         calculate D2E/DX2 analytically  !
 ! D83   D(25,23,27,29)       -178.5554         calculate D2E/DX2 analytically  !
 ! D84   D(25,23,27,41)          2.2212         calculate D2E/DX2 analytically  !
 ! D85   D(22,24,28,30)          0.0499         calculate D2E/DX2 analytically  !
 ! D86   D(22,24,28,42)        179.6298         calculate D2E/DX2 analytically  !
 ! D87   D(26,24,28,30)        178.7106         calculate D2E/DX2 analytically  !
 ! D88   D(26,24,28,42)         -1.7096         calculate D2E/DX2 analytically  !
 ! D89   D(23,27,29,31)       -177.8714         calculate D2E/DX2 analytically  !
 ! D90   D(23,27,29,33)          0.6155         calculate D2E/DX2 analytically  !
 ! D91   D(41,27,29,31)          1.3596         calculate D2E/DX2 analytically  !
 ! D92   D(41,27,29,33)        179.8465         calculate D2E/DX2 analytically  !
 ! D93   D(23,27,41,43)         30.695          calculate D2E/DX2 analytically  !
 ! D94   D(23,27,41,57)       -150.2486         calculate D2E/DX2 analytically  !
 ! D95   D(29,27,41,43)       -148.5171         calculate D2E/DX2 analytically  !
 ! D96   D(29,27,41,57)         30.5393         calculate D2E/DX2 analytically  !
 ! D97   D(24,28,30,32)        178.3397         calculate D2E/DX2 analytically  !
 ! D98   D(24,28,30,34)         -0.173          calculate D2E/DX2 analytically  !
 ! D99   D(42,28,30,32)         -1.2499         calculate D2E/DX2 analytically  !
 ! D100  D(42,28,30,34)       -179.7627         calculate D2E/DX2 analytically  !
 ! D101  D(24,28,42,44)        -40.5272         calculate D2E/DX2 analytically  !
 ! D102  D(24,28,42,58)        142.0806         calculate D2E/DX2 analytically  !
 ! D103  D(30,28,42,44)        139.0511         calculate D2E/DX2 analytically  !
 ! D104  D(30,28,42,58)        -38.3411         calculate D2E/DX2 analytically  !
 ! D105  D(27,29,33,35)       -179.9947         calculate D2E/DX2 analytically  !
 ! D106  D(27,29,33,37)         -0.9524         calculate D2E/DX2 analytically  !
 ! D107  D(31,29,33,35)         -1.4944         calculate D2E/DX2 analytically  !
 ! D108  D(31,29,33,37)        177.5479         calculate D2E/DX2 analytically  !
 ! D109  D(28,30,34,36)        179.6442         calculate D2E/DX2 analytically  !
 ! D110  D(28,30,34,38)          0.1554         calculate D2E/DX2 analytically  !
 ! D111  D(32,30,34,36)          1.127          calculate D2E/DX2 analytically  !
 ! D112  D(32,30,34,38)       -178.3618         calculate D2E/DX2 analytically  !
 ! D113  D(29,33,37,21)          0.1102         calculate D2E/DX2 analytically  !
 ! D114  D(29,33,37,39)       -179.1128         calculate D2E/DX2 analytically  !
 ! D115  D(35,33,37,21)        179.1512         calculate D2E/DX2 analytically  !
 ! D116  D(35,33,37,39)         -0.0718         calculate D2E/DX2 analytically  !
 ! D117  D(30,34,38,22)         -0.0126         calculate D2E/DX2 analytically  !
 ! D118  D(30,34,38,40)        179.8975         calculate D2E/DX2 analytically  !
 ! D119  D(36,34,38,22)       -179.5008         calculate D2E/DX2 analytically  !
 ! D120  D(36,34,38,40)          0.4092         calculate D2E/DX2 analytically  !
 ! D121  D(27,41,43,45)         -1.3156         calculate D2E/DX2 analytically  !
 ! D122  D(27,41,43,47)        178.2428         calculate D2E/DX2 analytically  !
 ! D123  D(57,41,43,45)        179.5763         calculate D2E/DX2 analytically  !
 ! D124  D(57,41,43,47)         -0.8653         calculate D2E/DX2 analytically  !
 ! D125  D(27,41,57,53)       -177.4686         calculate D2E/DX2 analytically  !
 ! D126  D(27,41,57,59)          3.1677         calculate D2E/DX2 analytically  !
 ! D127  D(43,41,57,53)          1.6325         calculate D2E/DX2 analytically  !
 ! D128  D(43,41,57,59)       -177.7312         calculate D2E/DX2 analytically  !
 ! D129  D(28,42,44,46)          2.1524         calculate D2E/DX2 analytically  !
 ! D130  D(28,42,44,48)       -175.751          calculate D2E/DX2 analytically  !
 ! D131  D(58,42,44,46)        179.6674         calculate D2E/DX2 analytically  !
 ! D132  D(58,42,44,48)          1.764          calculate D2E/DX2 analytically  !
 ! D133  D(28,42,58,54)        176.1624         calculate D2E/DX2 analytically  !
 ! D134  D(28,42,58,60)         -4.0977         calculate D2E/DX2 analytically  !
 ! D135  D(44,42,58,54)         -1.3543         calculate D2E/DX2 analytically  !
 ! D136  D(44,42,58,60)        178.3857         calculate D2E/DX2 analytically  !
 ! D137  D(41,43,47,49)         -0.8636         calculate D2E/DX2 analytically  !
 ! D138  D(41,43,47,120)       178.2458         calculate D2E/DX2 analytically  !
 ! D139  D(45,43,47,49)        178.7167         calculate D2E/DX2 analytically  !
 ! D140  D(45,43,47,120)        -2.1739         calculate D2E/DX2 analytically  !
 ! D141  D(42,44,48,50)         -0.4575         calculate D2E/DX2 analytically  !
 ! D142  D(42,44,48,120)       174.6207         calculate D2E/DX2 analytically  !
 ! D143  D(46,44,48,50)       -178.4473         calculate D2E/DX2 analytically  !
 ! D144  D(46,44,48,120)        -3.369          calculate D2E/DX2 analytically  !
 ! D145  D(43,47,49,51)       -177.7625         calculate D2E/DX2 analytically  !
 ! D146  D(43,47,49,53)          1.7842         calculate D2E/DX2 analytically  !
 ! D147  D(120,47,49,51)         3.1599         calculate D2E/DX2 analytically  !
 ! D148  D(120,47,49,53)      -177.2934         calculate D2E/DX2 analytically  !
 ! D149  D(43,47,120,61)        89.9841         calculate D2E/DX2 analytically  !
 ! D150  D(43,47,120,62)       -80.0812         calculate D2E/DX2 analytically  !
 ! D151  D(49,47,120,61)       -90.9144         calculate D2E/DX2 analytically  !
 ! D152  D(49,47,120,62)        99.0203         calculate D2E/DX2 analytically  !
 ! D153  D(44,48,50,52)        177.9381         calculate D2E/DX2 analytically  !
 ! D154  D(44,48,50,54)         -1.2623         calculate D2E/DX2 analytically  !
 ! D155  D(120,48,50,52)         2.9843         calculate D2E/DX2 analytically  !
 ! D156  D(120,48,50,54)      -176.2161         calculate D2E/DX2 analytically  !
 ! D157  D(44,48,120,61)       -56.3771         calculate D2E/DX2 analytically  !
 ! D158  D(44,48,120,62)       113.6778         calculate D2E/DX2 analytically  !
 ! D159  D(50,48,120,61)       118.6662         calculate D2E/DX2 analytically  !
 ! D160  D(50,48,120,62)       -71.2789         calculate D2E/DX2 analytically  !
 ! D161  D(47,49,51,131)      -179.4755         calculate D2E/DX2 analytically  !
 ! D162  D(47,49,51,132)        60.8824         calculate D2E/DX2 analytically  !
 ! D163  D(47,49,51,133)       -59.1651         calculate D2E/DX2 analytically  !
 ! D164  D(53,49,51,131)         0.9884         calculate D2E/DX2 analytically  !
 ! D165  D(53,49,51,132)      -118.6538         calculate D2E/DX2 analytically  !
 ! D166  D(53,49,51,133)       121.2988         calculate D2E/DX2 analytically  !
 ! D167  D(47,49,53,55)        178.8            calculate D2E/DX2 analytically  !
 ! D168  D(47,49,53,57)         -0.9829         calculate D2E/DX2 analytically  !
 ! D169  D(51,49,53,55)         -1.6603         calculate D2E/DX2 analytically  !
 ! D170  D(51,49,53,57)        178.5568         calculate D2E/DX2 analytically  !
 ! D171  D(48,50,52,134)       -55.5808         calculate D2E/DX2 analytically  !
 ! D172  D(48,50,52,135)      -175.5576         calculate D2E/DX2 analytically  !
 ! D173  D(48,50,52,136)        64.4133         calculate D2E/DX2 analytically  !
 ! D174  D(54,50,52,134)       123.605          calculate D2E/DX2 analytically  !
 ! D175  D(54,50,52,135)         3.6282         calculate D2E/DX2 analytically  !
 ! D176  D(54,50,52,136)      -116.4008         calculate D2E/DX2 analytically  !
 ! D177  D(48,50,54,56)       -178.9717         calculate D2E/DX2 analytically  !
 ! D178  D(48,50,54,58)          1.6195         calculate D2E/DX2 analytically  !
 ! D179  D(52,50,54,56)          1.8375         calculate D2E/DX2 analytically  !
 ! D180  D(52,50,54,58)       -177.5713         calculate D2E/DX2 analytically  !
 ! D181  D(49,53,57,41)         -0.7574         calculate D2E/DX2 analytically  !
 ! D182  D(49,53,57,59)        178.6117         calculate D2E/DX2 analytically  !
 ! D183  D(55,53,57,41)        179.4628         calculate D2E/DX2 analytically  !
 ! D184  D(55,53,57,59)         -1.1682         calculate D2E/DX2 analytically  !
 ! D185  D(50,54,58,42)         -0.2705         calculate D2E/DX2 analytically  !
 ! D186  D(50,54,58,60)        179.9888         calculate D2E/DX2 analytically  !
 ! D187  D(56,54,58,42)       -179.6706         calculate D2E/DX2 analytically  !
 ! D188  D(56,54,58,60)          0.5887         calculate D2E/DX2 analytically  !
 ! D189  D(72,61,63,65)        179.8807         calculate D2E/DX2 analytically  !
 ! D190  D(72,61,63,66)          1.1829         calculate D2E/DX2 analytically  !
 ! D191  D(120,61,63,65)         6.4116         calculate D2E/DX2 analytically  !
 ! D192  D(120,61,63,66)      -172.2861         calculate D2E/DX2 analytically  !
 ! D193  D(63,61,72,70)          0.4291         calculate D2E/DX2 analytically  !
 ! D194  D(63,61,72,74)       -178.6251         calculate D2E/DX2 analytically  !
 ! D195  D(120,61,72,70)       173.2717         calculate D2E/DX2 analytically  !
 ! D196  D(120,61,72,74)        -5.7826         calculate D2E/DX2 analytically  !
 ! D197  D(63,61,120,47)       -80.7352         calculate D2E/DX2 analytically  !
 ! D198  D(63,61,120,48)       102.2049         calculate D2E/DX2 analytically  !
 ! D199  D(72,61,120,47)       106.1339         calculate D2E/DX2 analytically  !
 ! D200  D(72,61,120,48)       -70.9261         calculate D2E/DX2 analytically  !
 ! D201  D(73,62,64,67)          0.35           calculate D2E/DX2 analytically  !
 ! D202  D(73,62,64,128)      -179.5771         calculate D2E/DX2 analytically  !
 ! D203  D(120,62,64,67)      -174.2676         calculate D2E/DX2 analytically  !
 ! D204  D(120,62,64,128)        5.8053         calculate D2E/DX2 analytically  !
[...]
 ,0.00001270,-0.00001847,0.00001152,0.00000982,0.00001361,0.00002393,-0
 .00000135,0.00007236,-0.00003656,-0.00008810,-0.00007940,-0.00005338,0
 .00007178,-0.00009824,0.00016373,-0.00006139,0.00005282,0.00000981,-0.
 00018055,0.00018334,0.00039755,0.00000385,0.00000648,0.00001414,-0.000
 00840,0.00000218,-0.00000422,0.00000180,0.00000014,-0.00000113,0.00000
 132,-0.00000459,0.00000256,-0.00000050,-0.00000020,-0.00000312,0.00000
 040,0.00000115,-0.00000055,0.00000005,0.00000124,0.00000212,0.00000041
 ,-0.00000006,0.00000071,0.00000014,0.00000049,-0.00000084,0.00000027,0
 .00000053,-0.00000063,-0.00000014,0.00000014,0.00000056,-0.00000010,0.
 00000013,0.00000009,-0.00000004,-0.00000040,0.00000120,-0.00000005,-0.
 00000011,0.00000010,-0.00000013,-0.00000007,0.00000024,0.00000001,-0.0
 0000012,0.00000008,-0.00000006,0.00000035,0.00000020,-0.00000026,0.000
 00009,-0.00000010,-0.00000014,0.00000017,0.00000064,-0.00000014,-0.000
 00014,0.00000004,-0.00000057,-0.00000309,0.00000219,0.00000019,-0.0000
 0067,0.00000052,0.00000008,0.00000009,-0.00000019,-0.00000001,0.000000
 07,-0.00000006,0.00000043,0.00000111,0.00000074,-0.00000008,-0.0000008
 5,-0.00000016,-0.00000091,-0.00000068,-0.00000053,0.00000057,0.0000005
 6,0.00000060,-0.00000042,0.00000019,0.00000049,-0.00000016,-0.00000020
 ,0.00000014,0.00000008,-0.00000018,0.00000044,-0.00000043,-0.00000048,
 -0.00000016,0.00000016,0.00000068,-0.00000043,-0.00000047,0.00000028,-
 0.00000082,-0.00000020,-0.00000013,-0.00000012,0.00000014,0.00000002,0
 .00000006,-0.00000015,-0.00000040,0.00000013,0.00000027,-0.00000005,0.
 00000049,0.00000004,-0.00000005,0.00000015,0.00000001,-0.00000013,-0.0
 0000004,-0.00000013,-0.00000018,-0.00000032,-0.00000016,0.00000041,-0.
 00000022,0.00000004,0.00000014,-0.00000006,-0.00000001,-0.00000003,-0.
 00000012,0.00000043,-0.00000115,0.00000079,0.00000016,-0.00000105,0.00
 000032,0.00000362,-0.00000388,0.00000159,-0.00000039,-0.00000014,0.000
 00158,-0.00000009,0.00000005,-0.00000008,-0.00000557,0.00001341,-0.000
 00949,0.00000032,0.00000057,-0.00000493,0.00000209,-0.00000430,0.00000
 287,-0.00000075,-0.00000008,0.00000132,-0.00000070,0.00000164,-0.00000
 106,-0.00000013,-0.00000010,0.00000004,0.00000241,-0.00000324,0.000001
 42,0.00000010,0.00000007,0.00000043,0.00000025,-0.00000007,-0.00000004
 ,-0.00000011,0.00000010,0.00000014,0.00000584,-0.00001859,0.00001503,0
 .00000187,-0.00000037,0.00000711,-0.00001092,0.00001265,-0.00000711,-0
 .00000081,-0.00000150,-0.00000548,0.00000324,-0.00000729,-0.00000728,-
 0.00000126,-0.00000411,-0.00000369,-0.00004993,0.00001105,0.00003591,0
 .00000546,-0.00000818,-0.00000285,0.00000458,0.00000197,-0.00000318,-0
 .00000182,0.00000143,-0.00000262,0.00008756,0.00000139,0.00004595,-0.0
 0000104,0.00000944,-0.00001296,0.00001440,-0.00003836,0.00000032,0.000
 00077,-0.00000829,0.00001492,0.00001558,-0.00000310,-0.00000579,-0.000
 00009,0.00000367,-0.00000004,-0.00000453,-0.00001533,0.00003097,0.0000
 0162,-0.00000048,0.00000165,-0.00000683,0.00000050,0.00000650,0.000000
 94,-0.00000300,-0.00000016,-0.00002418,0.00000433,0.00000805,0.0000022
 3,-0.00000694,0.00000419,-0.00000284,-0.00000355,0.00000104,0.00000035
 ,-0.00000120,0.00000067,0.00022263,-0.00003447,-0.00008936,-0.00000793
 ,0.00000739,0.00003483,-0.00077680,0.00004804,-0.00014029,0.00004405,-
 0.00002770,-0.00006243,-0.00003271,-0.00000387,-0.00005221,-0.00000077
 ,-0.00000860,-0.00000704,0.00096472,0.00114349,-0.00057206,0.00000514,
 -0.00014212,-0.00000369,0.00262336,0.00964082,0.02135657,-0.00009423,0
 .00005627,-0.00013423,-0.05649859,-0.02703459,-0.05135300,-0.00024627,
 0.00043749,0.00036868,-0.00158885,-0.00160815,0.00118656,0.00005159,-0
 .00009852,0.00003321,0.00036461,-0.00005569,0.00036369,-0.00000503,0.0
 0000113,-0.00000371,-0.00124142,0.00023809,-0.00041971,0.00001484,0.00
 002223,-0.00002694,-0.00004927,-0.00005637,0.00025370,0.00000291,-0.00
 001153,-0.00000102,-0.00000162,0.00000126,0.00000024,-0.00001186,0.001
 00150,-0.00053459,-0.00000696,-0.00000293,-0.00000388,-0.00000010,0.00
 000523,-0.00000297,0.00000228,0.00000035,0.00000313,0.00000674,-0.0000
 0237,0.00000021,0.,0.00000011,-0.00000025,0.00000012,0.,0.00000022,-0.
 00000009,0.00000072,0.00000007,-0.00000002,-0.00000056,0.00000035,-0.0
 0000005,0.00000031,-0.00000022,0.00000013,0.,0.00000019,-0.00000026,0.
 00000003,-0.00000030,-0.00000008,0.00000001,-0.00000016,0.00000007,0.0
 0000022,0.,-0.00000001,-0.00000017,0.,-0.00000001,0.00000020,0.0000000
 1,-0.00003598,0.00004861,0.00004737,-0.00050551,0.00020188,0.00057936,
 -0.00000652,-0.00014360,-0.00007772,0.00035420,0.00197773,0.00526607,-
 0.00583708,-0.01479980,-0.02818371,0.06228825,0.00015981,0.00008770,0.
 00013061,0.00006768,0.00015399,-0.00011169,-0.00010839,-0.00001693,0.0
 0005367,0.00008269,-0.00000208,0.00005294,-0.00001504,0.00002719,0.000
 00099,-0.00001093,-0.00003289,0.00001761,-0.00002566,-0.00003756,0.000
 02060,0.00000248,-0.00001659,0.00002883,-0.00000336,0.00000107,-0.0000
 3460,0.00001616,0.00000959,-0.00000666,-0.00000234,0.00000405,0.000010
 83,0.00002458,0.00002838,-0.00000126,0.00010764,0.00001141,-0.00005108
 ,-0.00000806,0.00002802,0.00005201,0.00001660,-0.00000782,-0.00000737,
 -0.00002095,0.00058351,-0.00032625,-0.00000416,-0.00000172,-0.00002154
 ,0.00001779,0.00002480,-0.00001495,-0.00000312,-0.00000184,-0.00000065
 ,-0.00000209,-0.00000690,0.00000294,0.00000023,-0.00000036,0.00000939,
 -0.00000163,-0.00000292,0.00000241,-0.00000060,-0.00000438,-0.00000640
 ,0.00000590,0.00000276,-0.00000010,-0.00000029,-0.00000068,0.00000162,
 -0.00000087,-0.00000125,0.00000137,0.00000063,-0.00000007,-0.00000158,
 0.00000316,0.00000251,-0.00000020,0.00000023,0.00000133,-0.00000409,-0
 .00000072,0.00000470,-0.00000334,0.00000038,0.00000028,-0.00000073,-0.
 00000003,0.00000056,-0.00000068,-0.00000046,-0.00000010,-0.00000083,-0
 .00000152,0.00000023,-0.00000130,0.00000026,-0.00000047,-0.00000156,0.
 00000095,0.00000123,-0.00000047,0.00000216,0.00000719,-0.00000633,-0.0
 0000556,0.00000342,-0.00000609,0.00000004,0.00000013,0.00000132,-0.000
 00013,-0.00000070,0.00000068,-0.00000056,-0.00000394,-0.00000045,0.000
 00333,0.00000013,0.00000237,0.00000099,0.00000048,0.00000060,-0.000000
 63,0.,-0.00000068,-0.00000012,-0.00000056,-0.00000028,0.00000014,0.000
 00059,0.00000087,-0.00000024,0.00000090,-0.00000061,-0.00000067,0.0000
 0085,-0.00000052,-0.00000042,-0.00000026,0.00000003,-0.00000002,0.0000
 0018,0.00000040,0.00000014,0.00000018,0.00000039,-0.00000036,-0.000000
 29,-0.00000009,0.00000034,0.00000046,0.00000013,-0.00000012,-0.0000002
 9,-0.00000061,0.00000001,0.00000025,-0.00000021,-0.00000022,0.00000019
 ,-0.00000017,0.00000025,0.00000128,-0.00000002,-0.00000114,-0.00000013
 ,-0.00000072,0.,-0.00000032,0.00000038,0.00000028,-0.00000050,0.000000
 27,0.00000115,-0.00000124,-0.00000013,0.00000099,0.00000072,-0.0000006
 6,0.00000140,-0.00000332,0.00000230,0.00000111,0.00000016,-0.00000109,
 -0.00000018,0.00000016,-0.00000003,-0.00000466,0.00001281,-0.00000915,
 -0.00000035,-0.00000073,0.00000515,0.00000154,-0.00000467,0.00000319,0
 .00000089,0.00000008,-0.00000144,-0.00000083,0.00000213,-0.00000118,0.
 00000032,0.00000013,0.00000012,0.00000285,-0.00000371,0.00000180,-0.00
 000006,-0.00000004,-0.00000139,0.00000015,-0.00000005,-0.00000010,0.00
 000005,-0.00000012,-0.00000008,0.00000585,-0.00001823,0.00001417,-0.00
 000187,0.00000055,-0.00000735,-0.00000797,0.00001434,-0.00000788,0.000
 00077,0.00000177,0.00000562,-0.00000050,-0.00000020,-0.00001528,0.0000
 0182,0.00000467,0.00000371,-0.00003501,0.00001838,0.00003250,-0.000005
 67,0.00000847,0.00000189,0.00000721,-0.00000165,-0.00000408,0.00000023
 ,-0.00000111,0.00000243,-0.00002472,0.00002213,-0.00012040,0.00000203,
 -0.00001257,0.00001453,-0.00000636,-0.00005459,0.00002852,-0.00000203,
 0.00000962,-0.00001495,0.00000261,-0.00000752,-0.00001112,0.00000025,-
 0.00000391,-0.00000013,0.00000560,0.00000678,0.00003654,-0.00000115,0.
 00000042,-0.00000155,-0.00000676,0.00000030,0.00000627,-0.00000095,0.0
 0000323,0.00000014,-0.00002837,-0.00000416,0.00001506,-0.00000320,0.00
 000722,-0.00000457,-0.00000233,-0.00000423,-0.00000058,-0.00000029,0.0
 0000129,-0.00000073,0.00019485,-0.00033365,0.00019025,0.00000884,-0.00
 000133,-0.00001194,-0.00034852,0.00030955,-0.00004872,-0.00002266,0.00
 001949,0.00006104,-0.00008126,-0.00000492,-0.00011696,0.00000769,-0.00
 001219,0.00001622,-0.00053035,0.00001302,0.00092906,-0.00001205,-0.000
 04955,-0.00016340,0.00468295,0.00560927,0.01229875,0.00005499,-0.00004
 520,0.00005292,-0.02759555,-0.10086916,-0.10146045,0.00050726,-0.00019
 170,-0.00054667,-0.00070852,-0.00044121,0.00034675,-0.00002210,0.00008
 504,-0.00001381,-0.00016953,0.00027689,0.00005331,-0.00000036,0.000001
 93,0.00000238,-0.00007192,0.00035133,-0.00039881,-0.00000802,-0.000007
 81,0.00002504,0.00000172,-0.00001075,0.00006093,-0.00000797,0.00000779
 ,0.00000047,-0.00000402,0.00000072,0.00000099,0.00046804,-0.00311232,0
 .00043333,0.00001269,0.00000845,0.00000358,0.00000551,0.00000656,-0.00
 000184,-0.00000457,0.00000037,-0.00000292,-0.00001339,-0.00000130,-0.0
 0000535,0.,-0.00000013,0.00000022,-0.00000003,-0.00000004,-0.00000030,
 0.00000001,-0.00000073,-0.00000002,0.00000013,-0.00000047,0.00000025,0
 .,0.00000033,-0.00000018,0.00000005,0.00000007,-0.00000015,0.00000005,
 0.00000030,-0.00000026,0.00000008,0.00000017,-0.00000003,-0.00000022,0
 .00000003,-0.00000022,0.,0.00000015,-0.00000007,-0.00000012,-0.0000000
 5,-0.00000012,0.00015785,-0.00034416,-0.00030059,0.00051404,-0.0002829
 0,-0.00094811,-0.00003278,0.00011686,0.00004967,-0.00763689,-0.0116671
 9,-0.02829451,0.00141064,0.00254166,0.00592185,0.02904544,0.10718553,0
 .00010252,0.00002169,0.00008893,0.00012732,0.00021761,-0.00007635,0.00
 011883,0.00000858,-0.00003147,-0.00003516,-0.00002212,0.00000018,0.000
 00768,-0.00000877,0.00000995,-0.00000123,0.00000732,-0.00001835,0.0000
 0873,0.00000222,0.00002255,-0.00000249,0.00001165,-0.00001309,0.000005
 15,-0.00000632,0.00001166,-0.00001368,-0.00000434,0.00000283,0.0000280
 0,0.00001458,-0.00000010,0.00000281,-0.00003651,0.00001767,-0.00009682
 ,-0.00000099,0.00004777,0.00022376,0.00024946,-0.00005080,-0.00001199,
 -0.00000578,-0.00001216,0.00058090,-0.00017149,-0.00048205,0.00000552,
 0.00000398,0.00000590,-0.00000719,-0.00001183,0.00000912,0.00000107,-0
 .00000033,0.00000307,0.00000149,0.00000277,-0.00000092,-0.00000029,0.0
 0000008,-0.00000194,0.00000039,0.00000099,-0.00000129,-0.00000065,0.00
 000077,0.00000169,-0.00000378,-0.00000197,0.00000004,0.00000025,-0.000
 00010,-0.00000033,0.00000043,-0.00000001,-0.00000023,0.00000004,0.0000
 0015,0.00000049,-0.00000153,-0.00000136,0.00000003,-0.00000035,-0.0000
 0046,0.00000112,0.00000036,-0.00000246,0.00000181,0.00000007,0.,0.0000
 0014,0.00000001,-0.00000023,0.00000026,-0.00000002,0.00000035,0.000000
 15,0.00000088,-0.00000014,0.00000078,0.00000010,0.00000002,0.00000044,
 -0.00000037,-0.00000055,0.00000021,-0.00000072,-0.00000197,0.00000154,
 0.00000270,-0.00000152,0.00000289,0.00000048,0.00000011,0.00000002,0.0
 0000010,0.00000027,-0.00000034,-0.00000016,0.00000036,-0.00000023,-0.0
 0000167,0.00000084,-0.00000119,0.00000032,0.00000065,0.00000037,-0.000
 00024,-0.00000055,-0.00000029,0.00000054,-0.00000004,-0.00000048,0.000
 00017,-0.00000006,-0.00000089,0.00000015,0.00000005,-0.00000005,0.0000
 0091,0.,0.00000051,0.00000011,-0.00000060,0.00000027,0.00000061,-0.000
 00042,0.00000067,0.00000023,0.00000006,0.00000003,0.00000013,0.0000001
 2,0.,0.00000006,0.00000022,-0.00000008,-0.00000021,0.00000027,-0.00000
 009,0.,-0.00000008,-0.00000006,0.00000013,0.00000004,0.00000011,0.,-0.
 00000032,0.00000035,0.00000081,-0.00000037,0.00000062,0.00000003,-0.00
 000003,-0.00000010,-0.00000011,0.00000032,-0.00000007,-0.00000156,0.00
 000225,-0.00000050,-0.00000119,0.00000061,0.00000044,-0.00000542,0.000
 00672,-0.00000317,-0.00000060,0.00000009,-0.00000035,0.00000025,-0.000
 00032,-0.00000029,0.00000969,-0.00002470,0.00001728,-0.00000008,0.0000
 0016,-0.00000066,-0.00000351,0.00000824,-0.00000557,-0.00000002,-0.000
 00001,0.00000026,0.00000130,-0.00000337,0.00000209,-0.00000023,0.00000
 004,-0.00000017,-0.00000470,0.00000644,-0.00000304,-0.00000007,-0.0000
 0010,0.00000115,-0.00000035,0.00000004,0.00000004,0.00000010,-0.000000
 06,-0.00000008,-0.00001044,0.00003427,-0.00002733,0.00000003,-0.000000
 15,0.00000102,0.00001846,-0.00002431,0.00001578,-0.00000007,-0.0000000
 8,-0.00000061,0.00001565,0.00000994,0.00001706,-0.00000012,-0.00000017
 ,-0.00000037,0.00007812,-0.00004406,-0.00005292,0.00000031,-0.00000085
 ,0.00000055,-0.00000737,-0.00001179,0.00000523,-0.00000075,0.00000153,
 -0.00000049,-0.00009568,0.00004299,-0.00008520,-0.00000160,0.00000113,
 -0.00000435,-0.00003582,0.00006885,0.00000778,0.00000056,-0.00000163,0
 .00000178,-0.00001911,-0.00000320,0.00000557,0.00000004,0.00000055,0.0
 0000006,0.00000038,0.00002891,-0.00004559,-0.00000005,-0.00000045,-0.0
 0000032,0.00001109,-0.00000172,-0.00000890,0.00000015,-0.00000036,0.00
 000007,0.00003950,0.00000258,-0.00002037,0.00000054,-0.00000071,0.0000
 0029,0.00000356,0.00000290,-0.00000456,-0.00000001,-0.00000016,0.00000
 005,-0.00061116,0.00056974,0.00037946,0.00001075,0.00000701,-0.0000077
 3,0.00171158,0.00027703,-0.00045080,0.00001796,-0.00001010,-0.00000657
 ,0.00005142,0.00000873,0.00001551,-0.00000650,0.00000174,-0.00002473,-
 0.00028731,-0.00203599,-0.00006882,-0.00008827,0.00001020,0.00019720,-
 0.00295699,-0.00923133,-0.02191118,0.00001118,0.00001381,-0.00000196,-
 0.05137228,-0.10183267,-0.25091109,0.00033902,-0.00008839,-0.00031955,
 0.00117757,0.00222128,-0.00161349,0.00001987,0.00001160,0.00000137,-0.
 00029802,0.00003989,-0.00012617,-0.00000118,-0.00000042,-0.00000097,0.
 00070144,-0.00067983,0.00060265,0.00000401,-0.00000534,-0.00000277,0.0
 0009335,0.00007997,-0.00021758,-0.00000323,-0.00000176,-0.00000381,0.0
 0000555,-0.00000249,-0.00000188,-0.00080014,-0.00025923,-0.00027255,-0
 .00000259,0.00000119,-0.00000229,-0.00000270,-0.00000479,0.00000158,0.
 00000067,0.00000010,0.00000078,0.00000771,0.00000152,0.00000353,-0.000
 00005,0.,-0.00000002,-0.00000010,0.,0.00000007,0.00000021,-0.00000040,
 -0.00000016,-0.00000010,0.00000095,-0.00000059,0.00000002,-0.00000063,
 0.00000038,-0.00000016,-0.00000001,-0.00000011,0.00000028,-0.00000024,
 0.00000044,0.,0.,0.00000014,0.00000003,-0.00000022,0.00000017,0.,0.000
 00009,0.00000002,0.00000006,-0.00000014,0.00000003,0.00000824,0.000020
 21,-0.00011728,0.00006864,-0.00021263,-0.00005564,-0.00000845,-0.00000
 441,-0.00001198,0.00119002,0.00145844,0.00490636,-0.00155896,-0.002835
 42,-0.00517386,0.05154252,0.11211916,0.27584098\\-0.00000015,-0.000002
 14,-0.00000219,0.00000051,-0.00000337,-0.00000148,0.00000021,-0.000001
 18,-0.00000246,0.,-0.00000269,-0.00000078,0.00000005,-0.00000079,-0.00
 000224,0.00000019,-0.00000214,-0.00000050,0.00000005,-0.00000077,-0.00
 000249,0.00000027,-0.00000272,-0.00000048,0.00000008,-0.00000124,-0.00
 000269,0.00000022,-0.00000328,-0.00000088,0.00000018,-0.00000221,-0.00
 000280,0.00000015,-0.00000374,-0.00000169,0.00000013,-0.00000271,-0.00
 000278,0.00000031,-0.00000347,-0.00000200,0.00000032,-0.00000334,-0.00
 000263,0.00000021,-0.00000395,-0.00000267,-0.00000003,0.00000028,-0.00
 000257,0.00000015,-0.00000228,0.00000045,-0.00000008,0.00000112,-0.000
 00232,0.00000006,-0.00000163,0.00000133,-0.00000014,0.00000207,-0.0000
 0227,0.00000015,-0.00000122,0.00000170,-0.00000011,0.00000237,-0.00000
 144,0.00000003,-0.00000052,0.00000216,-0.00000011,0.00000192,-0.000000
 80,0.00000007,-0.00000053,0.00000188,-0.00000033,0.00000330,-0.0000010
 7,0.00000004,0.00000011,0.00000289,-0.00000028,0.00000384,-0.00000207,
 -0.00000005,-0.00000015,0.00000344,-0.00000033,0.00000461,-0.00000196,
 -0.00000002,0.00000037,0.00000399,-0.00000026,0.00000357,-0.00000299,-
 0.00000001,-0.00000070,0.00000306,-0.00000030,0.00000399,-0.00000350,0
 .00000004,-0.00000073,0.00000342,-0.00000021,0.00000264,-0.00000300,0.
 00000013,-0.00000117,0.00000230,-0.00000015,0.00000232,-0.00000371,0.0
 0000012,-0.00000173,0.00000204,-0.00000021,0.00000385,-0.00000039,-0.0
 0000002,0.00000075,0.00000345,-0.00000033,0.00000307,0.00000036,-0.000
 00006,0.00000109,0.00000282,-0.00000022,0.00000257,0.00000011,-0.00000
 009,0.00000116,0.00000193,-0.00000018,0.00000356,0.00000125,-0.0000000
 9,0.00000197,0.00000285,-0.00000026,0.00000451,0.00000147,-0.00000021,
 0.00000207,0.00000398,-0.00000041,0.00000514,0.00000233,-0.00000024,0.
 00000269,0.00000420,-0.00000044,0.00000490,0.00000073,-0.00000011,0.00
 000158,0.00000461,-0.00000042,0.00000574,0.00000092,-0.00000011,0.0000
 0161,0.00000533,-0.00000029,0.00000478,-0.00000015,0.,0.00000069,0.000
 00429,-0.00000037,0.00000513,-0.00000059,-0.00000005,0.00000044,0.0000
 0475,-0.00000003,0.00000285,0.00000155,-0.00000013,0.00000221,0.000002
 29,-0.00000027,0.00000272,0.00000075,-0.00000008,0.00000118,0.00000248
 ,-0.00000012,0.00000219,0.00000044,-0.00000015,0.00000274,0.00000039,-
 0.00000016,0.00000065,0.00000243,-0.00000032,0.00000326,0.00000094,-0.
 00000010,0.00000123,0.00000270,-0.00000028,0.00000374,0.00000166,-0.00
 000012,0.00000218,0.00000278,-0.00000022,0.00000369,0.00000195,-0.0000
 0022,0.00000268,0.00000263,-0.00000033,0.00000393,0.00000264,-0.000000
 21,0.00000340,0.00000264,-0.00000015,0.00000222,-0.00000044,-0.0000000
 1,-0.00000030,0.00000257,-0.00000006,0.00000182,-0.00000116,0.00000036
 ,-0.00000088,0.00000224,-0.00000014,0.00000109,-0.00000178,-0.00000004
 ,-0.00000209,0.00000234,0.00000001,0.00000055,-0.00000216,0.00000012,-
 0.00000245,0.00000144,-0.00000002,0.00000046,-0.00000188,0.00000013,-0
 .00000199,0.00000079,0.00000003,0.00000012,-0.00000304,0.00000026,-0.0
 0000320,0.00000114,-0.00000003,0.00000007,-0.00000341,0.00000030,-0.00
 000396,0.00000205,0.00000002,-0.00000036,-0.00000401,0.00000034,-0.000
 00470,0.00000200,-0.00000008,0.00000069,-0.00000305,0.00000030,-0.0000
 0362,0.00000291,-0.00000005,0.00000074,-0.00000342,0.00000027,-0.00000
 399,0.00000350,-0.00000012,0.00000120,-0.00000227,0.00000022,-0.000002
 67,0.00000300,-0.00000011,0.00000172,-0.00000205,0.00000016,-0.0000023
 2,0.00000370,0.00000016,-0.00000098,-0.00000333,0.00000022,-0.00000383
 ,0.00000046,0.00000011,-0.00000102,-0.00000278,0.00000020,-0.00000315,
 -0.00000017,0.,-0.00000116,-0.00000204,0.00000023,-0.00000254,-0.00000
 023,0.,-0.00000178,-0.00000286,0.00000020,-0.00000323,-0.00000140,0.00
 000029,-0.00000224,-0.00000406,0.00000039,-0.00000472,-0.00000131,0.00
 000030,-0.00000292,-0.00000410,0.00000042,-0.00000483,-0.00000231,0.00
 000013,-0.00000146,-0.00000464,0.00000030,-0.00000495,-0.00000075,0.00
 000008,-0.00000161,-0.00000532,0.00000043,-0.00000571,-0.00000091,0.00
 000006,-0.00000071,-0.00000423,0.00000032,-0.00000465,0.00000008,0.000
 00001,-0.00000044,-0.00000475,0.00000036,-0.00000504,0.00000057,-0.000
 00027,0.00000255,0.00000225,0.00000032,-0.00000282,-0.00000201,0.00000
 030,-0.00000422,-0.00000202,0.00000023,-0.00000341,-0.00000057,0.00000
 007,-0.00000094,-0.00000284,0.00000020,-0.00000265,-0.00000294,-0.0000
 0006,0.00000095,0.00000285,-0.00000018,0.00000266,0.00000293,-0.000000
 05,0.00000088,0.00000223,-0.00000029,0.00000421,0.00000202,-0.00000025
 ,0.00000341,0.00000057,-0.00000037,0.00000550,0.00000231,-0.00000030,0
 .00000475,0.00000229,-0.00000041,0.00000433,0.00000288,-0.00000024,0.0
 0000344,0.00000400,-0.00000019,0.00000288,0.00000504,-0.00000017,0.000
 00263,0.00000410,0.00000045,-0.00000471,-0.00000233,0.00000026,-0.0000
 0443,-0.00000281,0.00000037,-0.00000555,-0.00000238,0.00000021,-0.0000
 0277,-0.00000506,-0.00000002,-0.00000251,-0.00000417,0.00000023,-0.000
 00343,-0.00000405\\\@


 FRICTION IS A DRAG,
 AND ENTROPY AIN'T WHAT IT USED TO BE.
 Job cpu time:       9 days  5 hours 58 minutes 46.6 seconds.
 Elapsed time:       0 days  6 hours 57 minutes  8.6 seconds.
 File lengths (MBytes):  RWF=  29651 Int=      0 D2E=      0 Chk=    203 Scr=      1
 Normal termination of Gaussian 16 at Mon Aug  5 01:12:45 2019.
