 Entering Gaussian System
 *********************************************
 Gaussian 98:
 frequency output generated by the xtb code
 *********************************************
                         Standard orientation:
 --------------------------------------------------------------------
  Center     Atomic     Atomic              Coordinates (Angstroms)
  Number     Number      Type              X           Y           Z
 --------------------------------------------------------------------
    1         46             0        0.125826    5.029499   -0.038809
    2         46             0       -1.973319   -4.492887    1.364715
    3          6             0        4.910404    1.238073   -0.763919
    4          6             0        4.936508    2.345272   -1.249221
    5          6             0        5.082413    3.625370   -1.815424
    6          6             0        6.263312    3.948763   -2.459929
    7          6             0        6.464317    5.219861   -3.006832
    8          6             0        5.498822    6.190266   -2.905730
    9          6             0        4.284023    5.906974   -2.256225
   10          6             0        3.261929    6.869179   -2.100223
   11          6             0        2.109229    6.536286   -1.453219
   12          7             0        1.888724    5.290188   -0.963716
   13          6             0        2.819019    4.362983   -1.089417
   14          6             0        4.052718    4.609076   -1.713622
   15          1             0        7.043008    3.206559   -2.538230
   16          1             0        7.397016    5.435555   -3.505335
   17          1             0        5.659726    7.175065   -3.315432
   18          1             0        3.406032    7.864478   -2.488826
   19          1             0        1.314133    7.262591   -1.309817
   20          1             0        2.592715    3.381685   -0.681615
   21          6             0        4.864499   -0.049326   -0.189017
   22          6             0        6.051296   -0.738432    0.080780
   23          6             0        5.997892   -2.000930    0.642783
   24          6             0        4.780190   -2.595223    0.925888
   25          6             0        3.588392   -1.914718    0.662691
   26          6             0        3.637697   -0.636019    0.112288
   27          1             0        7.001198   -0.280337   -0.148324
   28          1             0        6.914390   -2.528835    0.858280
   29          1             0        4.758786   -3.571223    1.383690
   30          1             0        2.730199   -0.106815   -0.130009
   31          6             0        2.294490   -2.531210    0.958196
   32          6             0        2.076382   -3.898010    0.762000
   33          6             0        0.841380   -4.431703    1.027105
   34          7             0       -0.169414   -3.676297    1.483907
   35          6             0        0.014393   -2.363997    1.677604
   36          6             0        1.223196   -1.765704    1.429399
   37          1             0        2.860078   -4.531714    0.379398
   38          1             0        0.611874   -5.483402    0.891407
   39          1             0       -0.846602   -1.825692    2.050306
   40          1             0        1.343802   -0.711004    1.614497
   41          6             0        2.603920    0.798694    4.645890
   42          6             0        2.649326    1.992594    4.445487
   43          6             0        2.905933    3.378593    4.524784
   44          6             0        3.719439    3.763890    5.581080
   45          6             0        4.059447    5.099089    5.802077
   46          6             0        3.593449    6.078890    4.962977
   47          6             0        2.771244    5.735492    3.876780
   48          6             0        2.275046    6.717393    2.991280
   49          6             0        1.485740    6.349896    1.945284
   50          7             0        1.145532    5.051597    1.710087
   51          6             0        1.585230    4.106796    2.519987
   52          6             0        2.408036    4.375694    3.632984
   53          1             0        4.092438    3.006589    6.253480
   54          1             0        4.691051    5.352587    6.639574
   55          1             0        3.848255    7.114689    5.123274
   56          1             0        2.528852    7.752692    3.154078
   57          1             0        1.095042    7.100096    1.253184
   58          1             0        1.275024    3.092297    2.297690
   59          6             0        2.600814   -0.586305    4.928492
   60          6             0        3.741713   -1.148010    5.514489
   61          6             0        3.754207   -2.489109    5.847991
   62          6             0        2.654502   -3.291004    5.591696
   63          6             0        1.511803   -2.746899    5.004300
   64          6             0        1.490109   -1.388600    4.683697
   65          1             0        4.605017   -0.529814    5.706785
   66          1             0        4.629607   -2.916113    6.313289
   67          1             0        2.674798   -4.330004    5.879898
   68          1             0        0.615710   -0.945096    4.235200
   69          6             0        0.361397   -3.577494    4.636305
   70          6             0        0.511889   -4.884695    4.163307
   71          6             0       -0.541717   -5.496291    3.510311
   72          7             0       -1.711314   -4.876985    3.312914
   73          6             0       -1.928806   -3.705083    3.932713
   74          6             0       -0.933500   -3.041187    4.616509
   75          1             0        1.464087   -5.386200    4.224704
   76          1             0       -0.453723   -6.491092    3.085213
   77          1             0       -2.931604   -3.288778    3.859616
   78          1             0       -1.143093   -2.097485    5.094208
   79          6             0       -5.144797    1.552225   -1.358385
   80          6             0       -5.005389    2.574525   -0.725687
   81          6             0       -5.147080    3.750927    0.042711
   82          6             0       -6.442077    4.171934    0.294715
   83          6             0       -6.705868    5.290437    1.090314
   84          6             0       -5.677263    6.006933    1.646209
   85          6             0       -4.346166    5.626525    1.400805
   86          6             0       -3.252760    6.344620    1.930000
   87          6             0       -1.978863    5.976513    1.612396
   88          7             0       -1.704871    4.916710    0.805897
   89          6             0       -2.703277    4.188315    0.333302
   90          6             0       -4.055074    4.490122    0.587406
   91          1             0       -7.265182    3.616238   -0.127981
   92          1             0       -7.729966    5.581443    1.266817
   93          1             0       -5.872356    6.866935    2.267409
   94          1             0       -3.435753    7.193122    2.569799
   95          1             0       -1.131759    6.522109    2.015693
   96          1             0       -2.442184    3.333412   -0.283497
   97          6             0       -5.336405    0.284225   -1.955782
   98          6             0       -5.798111    0.138825   -3.265180
   99          6             0       -6.057119   -1.128475   -3.758677
  100          6             0       -5.856222   -2.254075   -2.976476
  101          6             0       -5.390217   -2.122275   -1.667777
  102          6             0       -5.132209   -0.846375   -1.168781
  103          1             0       -5.962508    1.009424   -3.881281
  104          1             0       -6.427223   -1.241275   -4.766575
  105          1             0       -6.093829   -3.228274   -3.373673
  106          1             0       -4.766604   -0.711475   -0.162982
  107          6             0       -5.079620   -3.269875   -0.810477
  108          6             0       -5.189915   -3.163472    0.585224
  109          6             0       -4.548517   -4.085774    1.385123
  110          7             0       -3.831524   -5.103278    0.871722
  111          6             0       -3.915129   -5.334780   -0.445177
  112          6             0       -4.536128   -4.456079   -1.313176
  113          1             0       -5.741609   -2.351768    1.032424
  114          1             0       -4.620913   -4.052071    2.469423
  115          1             0       -3.430335   -6.235483   -0.801977
  116          1             0       -4.510433   -4.644581   -2.374076
  117          6             0        0.220091    1.693090   -5.040804
  118          6             0       -0.229203    2.808592   -5.162504
  119          6             0       -0.766097    4.102495   -5.311604
  120          6             0       -1.114599    4.584694   -6.558204
  121          6             0       -1.678093    5.857397   -6.705504
  122          6             0       -1.897085    6.663700   -5.616305
  123          6             0       -1.544183    6.218301   -4.329705
  124          6             0       -1.720674    7.007503   -3.170706
  125          6             0       -1.319373    6.532503   -1.957107
  126          7             0       -0.760379    5.302301   -1.811507
  127          6             0       -0.601286    4.525898   -2.866106
  128          6             0       -0.970289    4.924698   -4.161605
  129          1             0       -0.955005    3.968292   -7.429704
  130          1             0       -1.942994    6.201597   -7.693604
  131          1             0       -2.333780    7.643002   -5.733605
  132          1             0       -2.160870    7.987806   -3.259206
  133          1             0       -1.435866    7.121706   -1.049107
  134          1             0       -0.156391    3.550096   -2.693706
  135          6             0        0.673286    0.389688   -4.737803
  136          6             0        1.868981   -0.121019   -5.245206
  137          6             0        2.287276   -1.381120   -4.853906
  138          6             0        1.542775   -2.130415   -3.959502
  139          6             0        0.339579   -1.631808   -3.447498
  140          6             0       -0.093215   -0.372306   -3.858799
  141          1             0        2.459282    0.467077   -5.930709
  142          1             0        3.211472   -1.779326   -5.243608
  143          1             0        1.918771   -3.087916   -3.638401
  144          1             0       -1.043512    0.021999   -3.535996
  145          6             0       -0.432321   -2.377402   -2.452094
  146          6             0       -0.387128   -3.772602   -2.362992
  147          6             0       -1.054428   -4.413297   -1.346589
  148          7             0       -1.782921   -3.740091   -0.447287
  149          6             0       -1.887415   -2.407691   -0.542589
  150          6             0       -1.223714   -1.701796   -1.511793
  151          1             0        0.164466   -4.356906   -3.081193
  152          1             0       -1.038233   -5.489597   -1.219587
  153          1             0       -2.523509   -1.934986    0.198812
  154          1             0       -1.295609   -0.626596   -1.514294
 --------------------------------------------------------------------
     1 basis functions        1 primitive gaussians
     1 alpha electrons        1 beta electrons
 
 Harmonic frequencies (cm**-1), IR intensities (KM/Mole),
 Raman scattering activities (A**4/amu), Raman depolarization ratios,
 reduced masses (AMU), force constants (mDyne/A) and normal coordinates:
                      1                      2                      3
                        a                      a                      a 
 Frequencies --     6.8026                10.0628                11.0570
 Red. masses --    14.6033                14.2423                16.1263
 Frc consts  --     0.0000                 0.0000                 0.0000
 IR Inten    --     0.3316                 0.1856                 0.2487
 Raman Activ --     0.0000                 0.0000                 0.0000
 Depolar     --     0.0000                 0.0000                 0.0000
 Atom AN      X      Y      Z        X      Y      Z        X      Y      Z
   1  46     0.01  -0.01  -0.07    -0.11  -0.11   0.03     0.06   0.09  -0.17
   2  46    -0.01  -0.02  -0.18    -0.02   0.08  -0.00    -0.02  -0.09  -0.07
   3   6     0.01   0.01   0.04     0.02   0.03   0.08     0.04   0.01   0.08
   4   6     0.00  -0.00   0.01     0.03   0.04   0.10     0.07   0.03   0.12
   5   6    -0.01  -0.02  -0.03     0.03   0.05   0.13     0.10   0.04   0.16
   6   6    -0.01  -0.03  -0.04     0.05   0.08   0.18     0.15   0.06   0.26
   7   6    -0.02  -0.04  -0.08     0.05   0.09   0.21     0.18   0.07   0.29
   8   6    -0.03  -0.04  -0.10     0.03   0.07   0.18     0.16   0.06   0.23
   9   6    -0.02  -0.03  -0.08     0.01   0.04   0.12     0.12   0.04   0.13
  10   6    -0.03  -0.04  -0.10    -0.02   0.02   0.08     0.09   0.03   0.06
  11   6    -0.02  -0.03  -0.08    -0.04  -0.01   0.03     0.05   0.01  -0.02
  12   7    -0.01  -0.02  -0.05    -0.04  -0.02   0.02     0.03   0.01  -0.04
  13   6    -0.01  -0.01  -0.04    -0.01   0.00   0.04     0.05   0.02   0.02
  14   6    -0.01  -0.02  -0.05     0.01   0.03   0.10     0.09   0.03   0.10
  15   1    -0.00  -0.01  -0.01     0.02   0.03   0.06     0.05   0.02   0.09
  16   1    -0.01  -0.01  -0.03     0.02   0.03   0.07     0.06   0.03   0.11
  17   1    -0.01  -0.02  -0.04     0.01   0.02   0.06     0.05   0.02   0.07
  18   1    -0.01  -0.01  -0.04    -0.01   0.01   0.03     0.03   0.01   0.02
  19   1    -0.01  -0.01  -0.03    -0.02  -0.01   0.00     0.01   0.00  -0.02
  20   1     0.00  -0.00  -0.00    -0.00  -0.00   0.01     0.01   0.00  -0.00
  21   6     0.01   0.02   0.07     0.02   0.02   0.06     0.02  -0.00   0.04
  22   6     0.00   0.04   0.12     0.01   0.02   0.08     0.01  -0.02   0.05
  23   6     0.00   0.05   0.15     0.00   0.02   0.06    -0.00  -0.03   0.01
  24   6    -0.00   0.05   0.13    -0.00   0.02   0.04    -0.01  -0.03  -0.02
  25   6    -0.00   0.03   0.07     0.00   0.02   0.03    -0.00  -0.02  -0.02
  26   6     0.00   0.02   0.05     0.01   0.02   0.03     0.01  -0.01   0.01
  27   1     0.00   0.01   0.04     0.00   0.01   0.03     0.01  -0.00   0.02
  28   1    -0.00   0.02   0.06     0.00   0.00   0.02    -0.00  -0.01   0.00
  29   1    -0.00   0.02   0.04    -0.00   0.00   0.01    -0.01  -0.01  -0.01
  30   1     0.00   0.00   0.00     0.00   0.01   0.01     0.01   0.00   0.00
  31   6    -0.00   0.02   0.04    -0.00   0.02   0.01    -0.01  -0.02  -0.05
  32   6     0.01   0.02   0.06    -0.00   0.02   0.02    -0.01  -0.01  -0.06
  33   6     0.01   0.02   0.03    -0.00   0.02   0.01    -0.01  -0.02  -0.07
  34   7    -0.02   0.02  -0.02    -0.01   0.03   0.00    -0.01  -0.02  -0.06
  35   6    -0.03   0.02  -0.03    -0.01   0.02  -0.01    -0.01  -0.02  -0.05
  36   6    -0.03   0.02  -0.00    -0.00   0.02   0.00    -0.01  -0.02  -0.04
  37   1     0.01   0.01   0.03     0.00   0.00   0.01    -0.00  -0.00  -0.02
  38   1     0.00   0.00   0.01    -0.00   0.01   0.00    -0.00  -0.00  -0.02
  39   1    -0.01   0.01  -0.02    -0.00   0.01  -0.00    -0.00  -0.01  -0.01
  40   1    -0.01   0.01  -0.00    -0.00   0.01  -0.00    -0.00  -0.01  -0.01
  41   6    -0.05   0.03   0.02     0.08  -0.02  -0.03    -0.02   0.04  -0.03
  42   6    -0.02   0.02   0.00     0.11  -0.03  -0.07    -0.04   0.04  -0.02
  43   6     0.02   0.02  -0.03     0.16  -0.03  -0.11    -0.06   0.04  -0.00
  44   6     0.04   0.02  -0.04     0.26  -0.04  -0.19    -0.09   0.05   0.02
  45   6     0.07   0.01  -0.07     0.31  -0.04  -0.23    -0.10   0.05   0.03
  46   6     0.09   0.01  -0.08     0.24  -0.04  -0.20    -0.08   0.05   0.02
  47   6     0.07   0.01  -0.07     0.14  -0.04  -0.12    -0.05   0.04  -0.01
  48   6     0.07   0.01  -0.08     0.07  -0.03  -0.08    -0.02   0.04  -0.03
  49   6     0.05   0.01  -0.06    -0.01  -0.03  -0.02     0.01   0.04  -0.05
  50   7     0.03   0.01  -0.04    -0.02  -0.04   0.00     0.01   0.04  -0.05
  51   6     0.02   0.01  -0.03     0.03  -0.03  -0.03    -0.01   0.04  -0.03
  52   6     0.03   0.01  -0.04     0.11  -0.03  -0.09    -0.04   0.04  -0.02
  53   1     0.01   0.01  -0.01     0.09  -0.01  -0.06    -0.03   0.01   0.01
  54   1     0.03   0.00  -0.02     0.11  -0.01  -0.08    -0.04   0.02   0.02
  55   1     0.03   0.00  -0.03     0.08  -0.01  -0.06    -0.03   0.01   0.01
  56   1     0.03   0.00  -0.03     0.02  -0.01  -0.03    -0.01   0.01  -0.01
  57   1     0.02   0.00  -0.02    -0.02  -0.01   0.01     0.01   0.01  -0.02
  58   1    -0.00   0.00  -0.00     0.00  -0.01  -0.00    -0.00   0.01  -0.01
  59   6    -0.08   0.03   0.05     0.04  -0.01   0.00    -0.00   0.04  -0.04
  60   6    -0.11   0.03   0.11     0.02  -0.02   0.03     0.01   0.05  -0.05
  61   6    -0.13   0.04   0.13    -0.01  -0.02   0.05     0.03   0.05  -0.06
  62   6    -0.13   0.04   0.09    -0.02  -0.00   0.04     0.03   0.03  -0.06
  63   6    -0.10   0.04   0.03    -0.00   0.01   0.02     0.03   0.02  -0.05
  64   6    -0.07   0.04   0.01     0.03   0.00  -0.00     0.01   0.02  -0.04
  65   1    -0.03   0.01   0.04     0.01  -0.01   0.01    -0.00   0.02  -0.01
  66   1    -0.04   0.01   0.05    -0.01  -0.01   0.02     0.01   0.02  -0.02
  67   1    -0.04   0.01   0.03    -0.01  -0.00   0.02     0.01   0.01  -0.02
  68   1    -0.01   0.01  -0.01     0.01   0.00  -0.01     0.00   0.00  -0.01
  69   6    -0.09   0.04   0.00    -0.01   0.02   0.01     0.03   0.01  -0.04
  70   6    -0.08   0.04   0.02    -0.02   0.02   0.02     0.04   0.01  -0.05
  71   6    -0.06   0.03  -0.00    -0.02   0.03   0.01     0.04   0.00  -0.04
  72   7    -0.05   0.03  -0.05    -0.02   0.04   0.00     0.04  -0.01  -0.03
  73   6    -0.07   0.04  -0.07    -0.00   0.05  -0.01     0.03  -0.01  -0.02
  74   6    -0.08   0.05  -0.05    -0.00   0.04  -0.00     0.03  -0.00  -0.03
  75   1    -0.02   0.01   0.02    -0.01   0.00   0.01     0.01   0.01  -0.02
  76   1    -0.01   0.01   0.00    -0.01   0.01   0.00     0.01   0.00  -0.01
  77   1    -0.02   0.01  -0.03     0.00   0.02  -0.00     0.01  -0.01  -0.00
  78   1    -0.03   0.02  -0.02     0.00   0.01  -0.00     0.01  -0.00  -0.01
  79   6    -0.01   0.00   0.10    -0.04  -0.00  -0.06    -0.01  -0.02   0.09
  80   6    -0.01  -0.02   0.13    -0.04   0.00  -0.07     0.00  -0.03   0.09
  81   6     0.01  -0.04   0.17    -0.04   0.00  -0.07     0.01  -0.02   0.09
  82   6     0.01  -0.08   0.25    -0.04   0.03  -0.10     0.01  -0.05   0.14
  83   6     0.03  -0.10   0.28    -0.04   0.03  -0.10     0.02  -0.05   0.14
  84   6     0.04  -0.08   0.23    -0.04  -0.00  -0.06     0.03  -0.01   0.08
  85   6     0.04  -0.04   0.15    -0.04  -0.03  -0.03     0.03   0.01   0.03
  86   6     0.05  -0.02   0.10    -0.04  -0.06   0.01     0.03   0.05  -0.03
  87   6     0.04   0.00   0.03    -0.04  -0.07   0.03     0.03   0.07  -0.07
  88   7     0.02   0.01   0.02    -0.04  -0.06   0.01     0.02   0.06  -0.05
  89   6     0.01  -0.00   0.06    -0.04  -0.04  -0.02     0.02   0.03  -0.00
  90   6     0.02  -0.03   0.13    -0.04  -0.02  -0.04     0.02   0.01   0.04
  91   1     0.00  -0.03   0.08    -0.01   0.01  -0.04     0.00  -0.02   0.05
  92   1     0.01  -0.04   0.10    -0.01   0.01  -0.04     0.01  -0.02   0.05
  93   1     0.02  -0.03   0.07    -0.01  -0.00  -0.02     0.01  -0.00   0.02
  94   1     0.02  -0.01   0.03    -0.01  -0.02   0.01     0.01   0.02  -0.01
  95   1     0.01   0.01  -0.00    -0.01  -0.03   0.02     0.01   0.03  -0.03
  96   1    -0.00   0.00   0.01    -0.01  -0.01  -0.01     0.00   0.01   0.00
  97   6    -0.01   0.02   0.06    -0.04  -0.01  -0.05    -0.03  -0.02   0.09
  98   6    -0.01   0.06   0.05    -0.06  -0.02  -0.04    -0.05  -0.01   0.09
  99   6    -0.00   0.07   0.01    -0.06  -0.03  -0.03    -0.07  -0.00   0.09
 100   6    -0.00   0.05  -0.02    -0.04  -0.02  -0.02    -0.07  -0.01   0.08
 101   6    -0.01   0.01  -0.01    -0.03  -0.01  -0.02    -0.05  -0.02   0.07
 102   6    -0.02  -0.00   0.03    -0.03  -0.00  -0.04    -0.03  -0.03   0.08
 103   1    -0.00   0.02   0.02    -0.02  -0.01  -0.01    -0.02  -0.00   0.03
 104   1     0.00   0.03   0.00    -0.02  -0.01  -0.01    -0.02   0.00   0.03
 105   1     0.00   0.02  -0.01    -0.01  -0.01  -0.00    -0.02  -0.00   0.02
 106   1    -0.01  -0.01   0.01    -0.01   0.00  -0.01    -0.01  -0.01   0.02
 107   6    -0.00  -0.01  -0.05    -0.02   0.00  -0.01    -0.04  -0.03   0.06
 108   6    -0.02  -0.06  -0.04    -0.02   0.02  -0.02    -0.02  -0.04   0.06
 109   6    -0.01  -0.08  -0.07    -0.01   0.03  -0.01    -0.00  -0.05   0.04
 110   7     0.02  -0.05  -0.10    -0.01   0.03  -0.00    -0.02  -0.05   0.02
 111   6     0.03  -0.00  -0.10    -0.01   0.01   0.00    -0.04  -0.04   0.02
 112   6     0.02   0.01  -0.08    -0.01   0.00  -0.00    -0.05  -0.03   0.04
 113   1    -0.01  -0.02  -0.01    -0.01   0.01  -0.01    -0.00  -0.01   0.02
 114   1    -0.01  -0.03  -0.02    -0.00   0.01  -0.00     0.00  -0.02   0.01
 115   1     0.01   0.00  -0.04    -0.00   0.00   0.00    -0.01  -0.01   0.00
 116   1     0.01   0.01  -0.02    -0.00  -0.00  -0.00    -0.02  -0.01   0.01
 117   6     0.04   0.00  -0.02    -0.00  -0.00  -0.01    -0.04  -0.04  -0.03
 118   6     0.02  -0.00  -0.02    -0.01  -0.00  -0.01    -0.04  -0.03  -0.03
 119   6     0.00  -0.01  -0.01    -0.03  -0.01   0.00    -0.03  -0.03  -0.04
 120   6    -0.00  -0.02  -0.01    -0.03  -0.00   0.01    -0.05  -0.05  -0.04
 121   6    -0.02  -0.03  -0.01    -0.05  -0.01   0.02    -0.04  -0.05  -0.05
 122   6    -0.04  -0.03  -0.01    -0.05  -0.02   0.02    -0.02  -0.03  -0.06
 123   6    -0.03  -0.03  -0.01    -0.05  -0.02   0.02    -0.00  -0.01  -0.06
 124   6    -0.04  -0.03  -0.01    -0.06  -0.04   0.03     0.02   0.00  -0.07
 125   6    -0.04  -0.03  -0.01    -0.05  -0.04   0.02     0.03   0.02  -0.07
 126   7    -0.02  -0.02  -0.01    -0.04  -0.04   0.01     0.02   0.02  -0.06
 127   6    -0.01  -0.02  -0.01    -0.03  -0.03   0.00     0.00   0.00  -0.05
 128   6    -0.01  -0.02  -0.01    -0.03  -0.02   0.01    -0.01  -0.01  -0.05
 129   1     0.00  -0.00  -0.00    -0.01   0.00   0.00    -0.02  -0.02  -0.01
 130   1    -0.01  -0.01  -0.00    -0.01  -0.00   0.01    -0.02  -0.02  -0.02
 131   1    -0.01  -0.01  -0.00    -0.02  -0.01   0.01    -0.00  -0.01  -0.02
 132   1    -0.02  -0.01  -0.00    -0.02  -0.01   0.01     0.01   0.00  -0.02
 133   1    -0.01  -0.01  -0.00    -0.02  -0.01   0.01     0.01   0.01  -0.02
 134   1    -0.00  -0.00  -0.00    -0.01  -0.01  -0.00     0.00   0.00  -0.01
 135   6     0.06   0.01  -0.01     0.00   0.00  -0.01    -0.05  -0.04  -0.03
 136   6     0.08   0.03   0.02     0.01   0.01  -0.00    -0.05  -0.04  -0.04
 137   6     0.10   0.04   0.03     0.01   0.01   0.00    -0.05  -0.04  -0.04
 138   6     0.09   0.03   0.01     0.01   0.01   0.00    -0.05  -0.04  -0.04
 139   6     0.07   0.00  -0.02     0.00   0.01  -0.00    -0.05  -0.04  -0.03
 140   6     0.05  -0.01  -0.03     0.00   0.00  -0.01    -0.05  -0.03  -0.03
 141   1     0.03   0.01   0.01     0.00   0.00  -0.00    -0.02  -0.01  -0.01
 142   1     0.03   0.02   0.02     0.00   0.00   0.00    -0.02  -0.01  -0.01
 143   1     0.03   0.01   0.01     0.00   0.00   0.00    -0.02  -0.01  -0.01
 144   1     0.01  -0.01  -0.02    -0.00  -0.00  -0.00    -0.01  -0.01  -0.01
 145   6     0.06  -0.01  -0.04     0.00   0.01  -0.00    -0.05  -0.04  -0.03
 146   6     0.08  -0.01  -0.03     0.01   0.01   0.00    -0.05  -0.04  -0.04
 147   6     0.07  -0.02  -0.04     0.00   0.01   0.00    -0.05  -0.04  -0.04
 148   7     0.04  -0.03  -0.07    -0.00   0.01  -0.01    -0.05  -0.04  -0.03
 149   6     0.01  -0.03  -0.07    -0.01   0.01  -0.01    -0.04  -0.03  -0.03
 150   6     0.02  -0.02  -0.06    -0.00   0.01  -0.01    -0.04  -0.03  -0.03
 151   1     0.03  -0.00  -0.00     0.00   0.00   0.00    -0.02  -0.01  -0.01
 152   1     0.03  -0.00  -0.01     0.00   0.00   0.00    -0.02  -0.01  -0.01
 153   1    -0.00  -0.01  -0.03    -0.00   0.00  -0.00    -0.01  -0.01  -0.01
 154   1     0.00  -0.01  -0.02    -0.00   0.00  -0.00    -0.01  -0.01  -0.01
                      4                      5                      6
                        a                      a                      a 
 Frequencies --    12.2102                15.2881                20.7587
 Red. masses --    13.5922                15.8964                19.3186
 Frc consts  --     0.0000                 0.0000                 0.0000
 IR Inten    --     0.2092                 0.1820                 0.2033
 Raman Activ --     0.0000                 0.0000                 0.0000
 Depolar     --     0.0000                 0.0000                 0.0000
 Atom AN      X      Y      Z        X      Y      Z        X      Y      Z
   1  46     0.12  -0.00  -0.08    -0.01  -0.11  -0.01     0.16  -0.10   0.14
   2  46     0.04   0.01   0.04     0.15  -0.03  -0.12    -0.07   0.04  -0.15
   3   6     0.03  -0.03   0.03     0.05  -0.01   0.04     0.03   0.02   0.01
   4   6     0.04  -0.03   0.03     0.03  -0.01   0.03     0.04   0.01  -0.01
   5   6     0.05  -0.03   0.02     0.01  -0.02   0.01     0.02   0.01  -0.03
   6   6     0.06  -0.04   0.04     0.01  -0.02   0.00     0.00  -0.00  -0.07
   7   6     0.07  -0.04   0.03    -0.01  -0.02  -0.02    -0.02  -0.01  -0.10
   8   6     0.07  -0.04   0.01    -0.02  -0.03  -0.04    -0.02  -0.01  -0.08
   9   6     0.06  -0.03  -0.01    -0.02  -0.04  -0.03     0.00  -0.00  -0.04
  10   6     0.06  -0.03  -0.03    -0.03  -0.05  -0.04     0.01  -0.00  -0.02
  11   6     0.05  -0.02  -0.04    -0.02  -0.05  -0.04     0.03  -0.00   0.02
  12   7     0.04  -0.02  -0.04    -0.01  -0.05  -0.02     0.05   0.00   0.04
  13   6     0.04  -0.02  -0.01     0.00  -0.04  -0.00     0.04   0.01   0.02
  14   6     0.05  -0.03   0.00     0.00  -0.03  -0.01     0.02   0.00  -0.02
  15   1     0.02  -0.01   0.02     0.01  -0.00   0.00     0.00   0.00  -0.03
  16   1     0.02  -0.01   0.01    -0.00  -0.01  -0.01    -0.01  -0.00  -0.04
  17   1     0.02  -0.01   0.00    -0.01  -0.01  -0.02    -0.01  -0.00  -0.03
  18   1     0.02  -0.01  -0.01    -0.01  -0.02  -0.02    -0.00  -0.00  -0.01
  19   1     0.01  -0.01  -0.02    -0.01  -0.02  -0.01     0.01  -0.00   0.01
  20   1     0.01  -0.00  -0.00     0.00  -0.01   0.00     0.02   0.00   0.01
  21   6     0.03  -0.02   0.04     0.06  -0.00   0.05     0.02   0.04   0.04
  22   6     0.02  -0.02   0.05     0.06   0.01   0.07     0.01   0.05   0.11
  23   6     0.02  -0.02   0.05     0.06   0.01   0.08    -0.01   0.06   0.13
  24   6     0.02  -0.02   0.05     0.07   0.00   0.06    -0.02   0.06   0.08
  25   6     0.02  -0.02   0.04     0.06  -0.01   0.04    -0.01   0.04   0.01
  26   6     0.02  -0.02   0.03     0.06  -0.01   0.04     0.00   0.03  -0.01
  27   1     0.01  -0.01   0.01     0.02   0.01   0.03     0.00   0.01   0.04
  28   1     0.01  -0.01   0.02     0.02   0.01   0.03    -0.01   0.02   0.05
  29   1     0.00  -0.01   0.01     0.02   0.00   0.02    -0.01   0.02   0.03
  30   1     0.01  -0.01   0.01     0.02  -0.01   0.01     0.00   0.01  -0.02
  31   6     0.02  -0.02   0.04     0.06  -0.02   0.03    -0.03   0.04  -0.04
  32   6     0.01  -0.02   0.04     0.07  -0.02   0.02    -0.02   0.05  -0.05
  33   6     0.01  -0.01   0.04     0.07  -0.02  -0.00    -0.03   0.05  -0.08
  34   7     0.02  -0.01   0.04     0.06  -0.03  -0.02    -0.04   0.05  -0.11
  35   6     0.02  -0.01   0.04     0.05  -0.03  -0.01    -0.04   0.05  -0.09
  36   6     0.02  -0.01   0.04     0.05  -0.02   0.01    -0.04   0.05  -0.06
  37   1     0.00  -0.01   0.01     0.02  -0.00   0.01    -0.00   0.01  -0.01
  38   1     0.00  -0.00   0.01     0.02  -0.01  -0.00    -0.01   0.01  -0.03
  39   1     0.01  -0.00   0.01     0.01  -0.01  -0.01    -0.01   0.01  -0.03
  40   1     0.01  -0.00   0.01     0.01  -0.01   0.00    -0.01   0.01  -0.02
  41   6    -0.03  -0.01   0.03    -0.01  -0.02   0.03     0.06   0.07   0.08
  42   6    -0.03  -0.01   0.02    -0.03  -0.02   0.03     0.07   0.07   0.09
  43   6    -0.03  -0.01   0.02    -0.04  -0.02   0.04     0.05   0.07   0.09
  44   6    -0.05  -0.01   0.04    -0.07  -0.01   0.06     0.03   0.10   0.09
  45   6    -0.05  -0.01   0.04    -0.09  -0.00   0.06     0.00   0.11   0.08
  46   6    -0.02  -0.02   0.03    -0.07  -0.01   0.04    -0.01   0.09   0.06
  47   6     0.00  -0.02   0.01    -0.04  -0.02   0.02     0.01   0.06   0.06
  48   6     0.03  -0.02  -0.01    -0.01  -0.03  -0.00     0.00   0.04   0.04
  49   6     0.05  -0.02  -0.03     0.01  -0.03  -0.01     0.02   0.01   0.04
  50   7     0.05  -0.02  -0.03     0.01  -0.04  -0.01     0.06   0.00   0.05
  51   6     0.02  -0.02  -0.01    -0.01  -0.03   0.01     0.06   0.02   0.06
  52   6    -0.00  -0.02   0.01    -0.03  -0.02   0.02     0.04   0.05   0.07
  53   1    -0.02  -0.00   0.02    -0.03  -0.00   0.02     0.01   0.03   0.03
  54   1    -0.02  -0.00   0.02    -0.03   0.00   0.02    -0.00   0.04   0.02
  55   1    -0.01  -0.00   0.01    -0.02  -0.00   0.01    -0.01   0.03   0.02
  56   1     0.01  -0.01  -0.00    -0.00  -0.01  -0.00    -0.01   0.01   0.01
  57   1     0.02  -0.01  -0.01     0.01  -0.01  -0.01     0.00  -0.00   0.01
  58   1     0.01  -0.00  -0.00    -0.00  -0.01   0.00     0.03   0.00   0.02
  59   6    -0.04  -0.01   0.03    -0.00  -0.02   0.03     0.04   0.07   0.07
  60   6    -0.04  -0.01   0.04    -0.00  -0.01   0.04     0.00   0.06   0.13
  61   6    -0.04  -0.01   0.05     0.00  -0.01   0.04    -0.02   0.06   0.12
  62   6    -0.04  -0.01   0.05     0.01  -0.02   0.02    -0.01   0.06   0.06
  63   6    -0.04  -0.01   0.04     0.01  -0.03   0.01     0.02   0.07   0.01
  64   6    -0.04  -0.01   0.03     0.01  -0.03   0.02     0.05   0.07   0.01
  65   1    -0.01  -0.00   0.01    -0.00  -0.00   0.02    -0.00   0.02   0.05
  66   1    -0.01  -0.00   0.01    -0.00  -0.00   0.01    -0.01   0.01   0.05
  67   1    -0.01  -0.00   0.01     0.00  -0.01   0.01    -0.01   0.02   0.02
  68   1    -0.01  -0.00   0.01     0.00  -0.01   0.00     0.02   0.02  -0.01
  69   6    -0.03  -0.01   0.03     0.02  -0.03  -0.00     0.03   0.08  -0.03
  70   6    -0.03  -0.01   0.04     0.03  -0.03  -0.01     0.03   0.08  -0.03
  71   6    -0.02  -0.02   0.03     0.03  -0.02  -0.02     0.03   0.08  -0.04
  72   7    -0.02  -0.02   0.02     0.04  -0.02  -0.04     0.04   0.09  -0.05
  73   6    -0.03  -0.02   0.01     0.03  -0.03  -0.03     0.03   0.09  -0.06
  74   6    -0.03  -0.02   0.02     0.02  -0.03  -0.01     0.03   0.09  -0.06
  75   1    -0.01  -0.00   0.01     0.01  -0.01  -0.00     0.01   0.02  -0.01
  76   1    -0.00  -0.00   0.01     0.01  -0.01  -0.01     0.01   0.02  -0.01
  77   1    -0.01  -0.01   0.00     0.01  -0.01  -0.01     0.01   0.03  -0.02
  78   1    -0.01  -0.00   0.01     0.00  -0.01  -0.00     0.01   0.03  -0.02
  79   6     0.07   0.02  -0.05    -0.11   0.06   0.04     0.03  -0.07  -0.03
  80   6     0.06   0.01  -0.05    -0.07   0.08   0.00     0.06  -0.06  -0.05
  81   6     0.05   0.01  -0.04    -0.04   0.11  -0.04     0.06  -0.05  -0.07
  82   6     0.05   0.01  -0.05    -0.02   0.19  -0.09     0.06  -0.03  -0.12
  83   6     0.05   0.01  -0.04     0.00   0.22  -0.13     0.04  -0.02  -0.13
  84   6     0.04   0.00  -0.04     0.02   0.18  -0.12     0.03  -0.04  -0.09
  85   6     0.04   0.00  -0.03     0.01   0.11  -0.07     0.04  -0.06  -0.04
  86   6     0.04  -0.00  -0.02     0.03   0.07  -0.05     0.03  -0.09   0.01
  87   6     0.04  -0.00  -0.02     0.02   0.01  -0.01     0.03  -0.09   0.05
  88   7     0.05   0.00  -0.02    -0.00  -0.01   0.01     0.05  -0.09   0.04
  89   6     0.05   0.00  -0.02    -0.02   0.02   0.00     0.06  -0.07   0.01
  90   6     0.05   0.01  -0.03    -0.02   0.08  -0.03     0.05  -0.07  -0.03
  91   1     0.01   0.00  -0.02    -0.01   0.06  -0.03     0.02  -0.00  -0.04
  92   1     0.01   0.00  -0.01     0.00   0.08  -0.05     0.01  -0.00  -0.05
  93   1     0.01   0.00  -0.01     0.01   0.06  -0.04     0.01  -0.01  -0.03
  94   1     0.01  -0.00  -0.01     0.01   0.03  -0.02     0.00  -0.03   0.00
  95   1     0.01  -0.00  -0.00     0.01  -0.01   0.00     0.01  -0.03   0.03
  96   1     0.01   0.00  -0.01    -0.01   0.00   0.01     0.02  -0.02   0.00
  97   6     0.09   0.02  -0.06    -0.15   0.06   0.07    -0.01  -0.08  -0.01
  98   6     0.13   0.02  -0.08    -0.27   0.06   0.11    -0.03  -0.08  -0.00
  99   6     0.15   0.02  -0.09    -0.31   0.06   0.13    -0.06  -0.08   0.02
 100   6     0.13   0.02  -0.08    -0.22   0.06   0.10    -0.08  -0.08   0.03
 101   6     0.08   0.02  -0.07    -0.11   0.06   0.06    -0.06  -0.07   0.02
 102   6     0.07   0.02  -0.06    -0.07   0.05   0.04    -0.02  -0.07   0.00
 103   1     0.04   0.00  -0.02    -0.10   0.02   0.04    -0.00  -0.03  -0.00
 104   1     0.05   0.00  -0.03    -0.12   0.02   0.05    -0.02  -0.03   0.01
 105   1     0.04   0.00  -0.03    -0.07   0.02   0.03    -0.03  -0.02   0.01
 106   1     0.01   0.01  -0.01     0.01   0.01   0.00    -0.00  -0.02  -0.00
 107   6     0.06   0.02  -0.06    -0.04   0.05   0.03    -0.06  -0.07   0.03
 108   6     0.03   0.02  -0.06     0.01   0.03   0.03    -0.03  -0.05   0.03
 109   6     0.01   0.02  -0.04     0.04   0.02  -0.01    -0.02  -0.05   0.03
 110   7     0.02   0.02  -0.02     0.04   0.04  -0.05    -0.03  -0.06   0.02
 111   6     0.04   0.01  -0.02     0.01   0.07  -0.05    -0.06  -0.07   0.03
 112   6     0.07   0.01  -0.04    -0.03   0.07  -0.01    -0.07  -0.08   0.03
 113   1     0.00   0.01  -0.02     0.00   0.00   0.02    -0.00  -0.01   0.01
 114   1    -0.00   0.01  -0.01     0.02  -0.00  -0.00     0.00  -0.01   0.01
 115   1     0.01   0.00  -0.00     0.00   0.02  -0.03    -0.02  -0.02   0.01
 116   1     0.03   0.00  -0.01    -0.02   0.03  -0.01    -0.03  -0.02   0.01
 117   6    -0.16   0.02  -0.04     0.03   0.00  -0.02    -0.03  -0.01  -0.03
 118   6    -0.19   0.01  -0.03    -0.00  -0.01  -0.01    -0.02  -0.00   0.01
 119   6    -0.23   0.00   0.00    -0.03  -0.02  -0.00    -0.01   0.01   0.03
 120   6    -0.33  -0.02   0.02    -0.06  -0.03   0.00    -0.03   0.02   0.05
 121   6    -0.36  -0.02   0.06    -0.09  -0.04   0.01    -0.03   0.03   0.07
 122   6    -0.28  -0.01   0.07    -0.09  -0.05   0.02    -0.01   0.01   0.09
 123   6    -0.17   0.00   0.04    -0.06  -0.04   0.01     0.01  -0.01   0.07
 124   6    -0.09   0.01   0.05    -0.06  -0.05   0.02     0.02  -0.02   0.09
 125   6     0.00   0.02   0.02    -0.03  -0.04   0.01     0.04  -0.04   0.07
 126   7     0.01   0.03  -0.01    -0.02  -0.04   0.00     0.05  -0.04   0.05
 127   6    -0.06   0.02  -0.01    -0.02  -0.03  -0.00     0.03  -0.02   0.04
 128   6    -0.15   0.01   0.01    -0.04  -0.03   0.00     0.01  -0.01   0.05
 129   1    -0.11  -0.01   0.01    -0.02  -0.01  -0.00    -0.01   0.01   0.01
 130   1    -0.13  -0.01   0.02    -0.03  -0.01   0.01    -0.01   0.01   0.02
 131   1    -0.09  -0.01   0.03    -0.03  -0.02   0.01    -0.00   0.00   0.03
 132   1    -0.03   0.00   0.02    -0.02  -0.02   0.01     0.01  -0.01   0.03
 133   1     0.02   0.01   0.01    -0.01  -0.01   0.00     0.01  -0.01   0.02
 134   1    -0.01   0.01  -0.01    -0.00  -0.01  -0.00     0.01  -0.01   0.01
 135   6    -0.12   0.04  -0.04     0.05   0.01  -0.02    -0.05  -0.02  -0.06
 136   6    -0.11   0.07  -0.05     0.07   0.03   0.00    -0.06  -0.03  -0.07
 137   6    -0.07   0.08  -0.04     0.08   0.04   0.01    -0.08  -0.04  -0.09
 138   6    -0.03   0.07  -0.02     0.09   0.03   0.00    -0.08  -0.04  -0.09
 139   6    -0.03   0.05  -0.00     0.07   0.01  -0.02    -0.08  -0.04  -0.08
 140   6    -0.08   0.03  -0.01     0.05  -0.00  -0.03    -0.06  -0.03  -0.07
 141   1    -0.04   0.02  -0.02     0.02   0.01   0.00    -0.02  -0.01  -0.02
 142   1    -0.02   0.03  -0.02     0.03   0.02   0.01    -0.02  -0.01  -0.03
 143   1     0.00   0.03  -0.00     0.03   0.01   0.00    -0.03  -0.02  -0.03
 144   1    -0.02   0.00   0.00     0.01  -0.01  -0.01    -0.02  -0.01  -0.02
 145   6    -0.00   0.04   0.01     0.07  -0.00  -0.02    -0.08  -0.04  -0.09
 146   6     0.02   0.04   0.02     0.08  -0.00  -0.02    -0.09  -0.04  -0.08
 147   6     0.04   0.03   0.02     0.07  -0.01  -0.03    -0.08  -0.03  -0.08
 148   7     0.04   0.02   0.03     0.07  -0.01  -0.04    -0.08  -0.03  -0.08
 149   6     0.02   0.02   0.03     0.05  -0.01  -0.04    -0.07  -0.03  -0.08
 150   6     0.01   0.03   0.03     0.06  -0.01  -0.03    -0.08  -0.03  -0.09
 151   1     0.01   0.01   0.00     0.03   0.00  -0.01    -0.03  -0.01  -0.02
 152   1     0.01   0.01   0.01     0.02  -0.00  -0.01    -0.02  -0.01  -0.02
 153   1     0.01   0.00   0.01     0.01  -0.00  -0.01    -0.02  -0.01  -0.02
 154   1    -0.00   0.01   0.01     0.01  -0.00  -0.01    -0.02  -0.01  -0.03
                      7                      8                      9
                        a                      a                      a 
 Frequencies --    21.4730                23.1330                28.7153
 Red. masses --    24.5146                16.7485                15.9537
 Frc consts  --     0.0000                 0.0000                 0.0000
 IR Inten    --     0.1343                 0.0900                 0.2126
 Raman Activ --     0.0000                 0.0000                 0.0000
 Depolar     --     0.0000                 0.0000                 0.0000
 Atom AN      X      Y      Z        X      Y      Z        X      Y      Z
   1  46    -0.01  -0.25  -0.02    -0.06  -0.13  -0.13    -0.12  -0.04   0.13
   2  46    -0.05   0.27   0.05     0.12   0.06   0.07     0.11  -0.07  -0.02
   3   6     0.05  -0.01  -0.02     0.05  -0.02   0.05     0.01  -0.06  -0.05
   4   6     0.04  -0.00   0.00     0.03  -0.03   0.04    -0.03  -0.04  -0.01
   5   6     0.03   0.01   0.02     0.01  -0.04   0.02    -0.03  -0.03   0.02
   6   6     0.04   0.04   0.05     0.02  -0.04   0.03    -0.03  -0.01   0.03
   7   6     0.03   0.05   0.07     0.01  -0.04   0.01    -0.03  -0.00   0.06
   8   6     0.00   0.02   0.05     0.00  -0.05  -0.02    -0.03  -0.01   0.07
   9   6    -0.01  -0.01   0.02     0.00  -0.05  -0.03    -0.03  -0.02   0.06
  10   6    -0.04  -0.03  -0.01    -0.01  -0.06  -0.05    -0.04  -0.03   0.06
  11   6    -0.04  -0.06  -0.03    -0.01  -0.05  -0.05    -0.04  -0.04   0.05
  12   7    -0.02  -0.07  -0.03    -0.01  -0.05  -0.05    -0.04  -0.05   0.04
  13   6     0.01  -0.04  -0.01    -0.00  -0.05  -0.02    -0.04  -0.04   0.03
  14   6     0.01  -0.02   0.01     0.00  -0.05  -0.01    -0.03  -0.03   0.04
  15   1     0.02   0.02   0.02     0.01  -0.01   0.01    -0.01  -0.00   0.01
  16   1     0.01   0.02   0.03     0.01  -0.01   0.00    -0.01   0.00   0.02
  17   1    -0.00   0.01   0.02     0.00  -0.02  -0.01    -0.01  -0.00   0.03
  18   1    -0.02  -0.01  -0.00    -0.00  -0.02  -0.02    -0.01  -0.01   0.02
  19   1    -0.02  -0.02  -0.01    -0.00  -0.02  -0.02    -0.01  -0.01   0.01
  20   1     0.01  -0.01  -0.00    -0.00  -0.01  -0.01    -0.01  -0.01   0.01
  21   6     0.04  -0.02  -0.04     0.06  -0.02   0.06     0.03  -0.07  -0.07
  22   6     0.03  -0.05  -0.07     0.06  -0.01   0.09     0.03  -0.07  -0.10
  23   6     0.02  -0.05  -0.09     0.06  -0.00   0.10     0.04  -0.08  -0.11
  24   6     0.01  -0.03  -0.07     0.06  -0.01   0.08     0.05  -0.08  -0.08
  25   6     0.02  -0.01  -0.04     0.06  -0.02   0.06     0.04  -0.08  -0.06
  26   6     0.03  -0.00  -0.02     0.06  -0.03   0.05     0.03  -0.08  -0.06
  27   1     0.01  -0.02  -0.03     0.02  -0.00   0.03     0.01  -0.02  -0.03
  28   1     0.00  -0.02  -0.03     0.02   0.00   0.03     0.01  -0.02  -0.04
  29   1     0.00  -0.01  -0.02     0.02  -0.00   0.02     0.02  -0.02  -0.02
  30   1     0.01   0.01  -0.00     0.02  -0.01   0.01     0.01  -0.02  -0.01
  31   6     0.01   0.02  -0.02     0.06  -0.02   0.05     0.05  -0.08  -0.04
  32   6    -0.01   0.02  -0.01     0.05  -0.02   0.03     0.04  -0.08  -0.02
  33   6    -0.02   0.04   0.00     0.04  -0.01   0.02     0.03  -0.06   0.00
  34   7    -0.00   0.06   0.01     0.05  -0.01   0.03     0.05  -0.05  -0.00
  35   6     0.02   0.05   0.00     0.06  -0.01   0.04     0.06  -0.05  -0.01
  36   6     0.03   0.03  -0.01     0.06  -0.02   0.05     0.06  -0.06  -0.03
  37   1    -0.01   0.00  -0.01     0.01  -0.00   0.01     0.01  -0.02  -0.01
  38   1    -0.01   0.01   0.00     0.01  -0.00   0.00     0.01  -0.02   0.01
  39   1     0.01   0.02   0.00     0.02  -0.00   0.01     0.02  -0.01  -0.00
  40   1     0.01   0.01  -0.00     0.02  -0.01   0.02     0.02  -0.02  -0.01
  41   6     0.05   0.02   0.01    -0.01  -0.02   0.04    -0.03   0.07   0.05
  42   6     0.03   0.02   0.03    -0.02  -0.02   0.01    -0.01   0.06   0.04
  43   6    -0.02   0.03   0.05    -0.03  -0.02  -0.01     0.01   0.06   0.02
  44   6    -0.08   0.06   0.08    -0.04  -0.00  -0.00     0.04   0.07  -0.00
  45   6    -0.13   0.08   0.09    -0.05  -0.00  -0.02     0.05   0.07  -0.03
  46   6    -0.13   0.06   0.06    -0.04  -0.01  -0.04     0.04   0.06  -0.03
  47   6    -0.07   0.02   0.03    -0.03  -0.03  -0.04     0.01   0.05  -0.01
  48   6    -0.06  -0.00  -0.01    -0.02  -0.04  -0.05    -0.01   0.04  -0.01
  49   6    -0.02  -0.03  -0.03    -0.02  -0.05  -0.05    -0.03   0.03   0.01
  50   7     0.02  -0.05  -0.02    -0.02  -0.06  -0.04    -0.04   0.03   0.04
  51   6     0.02  -0.02   0.00    -0.02  -0.05  -0.03    -0.03   0.04   0.04
  52   6    -0.02   0.01   0.02    -0.03  -0.03  -0.02    -0.00   0.05   0.02
  53   1    -0.02   0.02   0.03    -0.01   0.00   0.00     0.01   0.02   0.00
  54   1    -0.05   0.03   0.03    -0.02   0.00  -0.00     0.02   0.02  -0.01
  55   1    -0.05   0.02   0.02    -0.01  -0.00  -0.01     0.01   0.02  -0.01
  56   1    -0.03   0.00  -0.00    -0.01  -0.01  -0.02    -0.00   0.01  -0.01
  57   1    -0.00  -0.02  -0.01    -0.00  -0.02  -0.02    -0.01   0.01   0.00
  58   1     0.01  -0.01   0.00    -0.00  -0.01  -0.00    -0.01   0.01   0.02
  59   6     0.06   0.01  -0.02    -0.01  -0.02   0.06    -0.05   0.07   0.06
  60   6     0.07  -0.01  -0.06    -0.01  -0.00   0.08    -0.06   0.07   0.09
  61   6     0.06  -0.01  -0.08    -0.00   0.00   0.09    -0.07   0.08   0.10
  62   6     0.05   0.00  -0.06     0.01  -0.01   0.08    -0.06   0.08   0.08
  63   6     0.04   0.02  -0.03     0.01  -0.02   0.07    -0.05   0.07   0.05
  64   6     0.05   0.03  -0.01     0.00  -0.02   0.06    -0.04   0.06   0.03
  65   1     0.02  -0.01  -0.02    -0.00   0.00   0.02    -0.02   0.02   0.03
  66   1     0.02  -0.01  -0.03    -0.00   0.00   0.03    -0.02   0.02   0.04
  67   1     0.01  -0.00  -0.02     0.00  -0.00   0.03    -0.02   0.02   0.03
  68   1     0.01   0.01   0.01     0.00  -0.01   0.01    -0.01   0.02   0.00
  69   6     0.02   0.04  -0.01     0.02  -0.03   0.06    -0.04   0.06   0.03
  70   6    -0.01   0.04  -0.01     0.03  -0.02   0.04    -0.02   0.05   0.06
  71   6    -0.03   0.06   0.00     0.04  -0.02   0.02     0.00   0.03   0.05
  72   7    -0.02   0.09   0.02     0.04  -0.03   0.02     0.00   0.02   0.01
  73   6     0.01   0.09   0.02     0.02  -0.04   0.03    -0.02   0.03  -0.02
  74   6     0.03   0.07   0.01     0.01  -0.04   0.05    -0.04   0.05  -0.01
  75   1    -0.01   0.01  -0.01     0.01  -0.01   0.01    -0.00   0.02   0.02
  76   1    -0.02   0.02   0.00     0.02  -0.00   0.00     0.00   0.01   0.02
  77   1     0.00   0.03   0.01     0.01  -0.01   0.01    -0.01   0.01  -0.01
  78   1     0.01   0.02   0.00     0.00  -0.01   0.02    -0.02   0.02  -0.01
  79   6    -0.03   0.06  -0.10    -0.05  -0.01  -0.04     0.01   0.06   0.05
  80   6    -0.03   0.03  -0.06    -0.04  -0.02  -0.03    -0.04   0.07   0.05
  81   6    -0.02  -0.01   0.01    -0.03  -0.04  -0.00    -0.05   0.08   0.04
  82   6    -0.01  -0.01   0.05    -0.03  -0.06   0.03    -0.04   0.10   0.02
  83   6     0.02  -0.06   0.13    -0.02  -0.08   0.07    -0.03   0.11  -0.00
  84   6     0.03  -0.11   0.17    -0.01  -0.09   0.07    -0.03   0.11  -0.00
  85   6     0.02  -0.11   0.13    -0.01  -0.07   0.03    -0.03   0.08   0.02
  86   6     0.04  -0.16   0.16    -0.01  -0.08   0.03    -0.03   0.07   0.02
  87   6     0.03  -0.15   0.11    -0.01  -0.07  -0.01    -0.03   0.05   0.04
  88   7     0.01  -0.11   0.04    -0.02  -0.05  -0.04    -0.04   0.03   0.06
  89   6    -0.01  -0.06   0.00    -0.02  -0.03  -0.04    -0.05   0.04   0.06
  90   6     0.00  -0.06   0.04    -0.02  -0.05  -0.01    -0.04   0.07   0.04
  91   1    -0.01   0.01   0.01    -0.01  -0.01   0.01    -0.01   0.03   0.00
  92   1     0.01  -0.02   0.05    -0.00  -0.03   0.03    -0.01   0.04  -0.01
  93   1     0.01  -0.04   0.07    -0.00  -0.03   0.03    -0.01   0.03  -0.01
  94   1     0.02  -0.06   0.06     0.00  -0.03   0.02    -0.00   0.02   0.00
  95   1     0.01  -0.05   0.04    -0.00  -0.02  -0.00    -0.01   0.01   0.01
  96   1    -0.01  -0.01  -0.02    -0.01  -0.00  -0.02    -0.02   0.01   0.02
  97   6    -0.02   0.06  -0.10    -0.06  -0.02  -0.03     0.05   0.07   0.03
  98   6    -0.03   0.04  -0.10    -0.09  -0.03  -0.02     0.09   0.08   0.02
  99   6    -0.02   0.03  -0.08    -0.10  -0.04  -0.00     0.13   0.08  -0.01
 100   6    -0.02   0.04  -0.06    -0.06  -0.03   0.00     0.13   0.07  -0.02
 101   6    -0.01   0.07  -0.06    -0.03  -0.02  -0.01     0.09   0.06  -0.01
 102   6    -0.02   0.07  -0.09    -0.03  -0.01  -0.03     0.05   0.06   0.02
 103   1    -0.01   0.01  -0.03    -0.03  -0.01  -0.01     0.03   0.03   0.01
 104   1    -0.01   0.00  -0.02    -0.03  -0.02   0.00     0.05   0.03  -0.01
 105   1    -0.00   0.01  -0.01    -0.02  -0.01   0.01     0.04   0.02  -0.01
 106   1    -0.00   0.03  -0.03    -0.00   0.00  -0.01     0.01   0.01   0.01
 107   6    -0.02   0.09  -0.04    -0.01   0.00   0.00     0.07   0.05  -0.02
 108   6    -0.02   0.13  -0.04     0.00   0.02   0.00     0.06   0.02  -0.02
 109   6    -0.02   0.15  -0.01     0.02   0.04   0.01     0.04   0.00  -0.03
 110   7    -0.03   0.14   0.02     0.04   0.05   0.02     0.03   0.00  -0.04
 111   6    -0.03   0.09   0.03     0.03   0.02   0.02     0.04   0.02  -0.04
 112   6    -0.02   0.07  -0.00     0.01   0.00   0.02     0.06   0.05  -0.03
 113   1    -0.00   0.04  -0.02    -0.00   0.01  -0.00     0.02   0.01  -0.00
 114   1    -0.00   0.05  -0.00     0.01   0.02   0.00     0.01  -0.00  -0.01
 115   1    -0.01   0.02   0.02     0.01   0.01   0.01     0.01   0.01  -0.01
 116   1    -0.01   0.01   0.00     0.00  -0.00   0.01     0.02   0.02  -0.01
 117   6     0.08  -0.03  -0.05    -0.12   0.07  -0.07    -0.04  -0.06  -0.06
 118   6     0.06  -0.04  -0.04    -0.06   0.09  -0.09    -0.02  -0.04   0.00
 119   6     0.03  -0.05  -0.02     0.02   0.12  -0.07     0.01  -0.03   0.02
 120   6     0.02  -0.04  -0.01     0.10   0.19  -0.07     0.05  -0.01   0.01
 121   6    -0.02  -0.06   0.00     0.18   0.23  -0.05     0.08   0.01   0.01
 122   6    -0.06  -0.08   0.02     0.18   0.20  -0.03     0.06  -0.00   0.02
 123   6    -0.05  -0.09   0.01     0.11   0.14  -0.03     0.03  -0.02   0.02
 124   6    -0.09  -0.12   0.03     0.10   0.10  -0.01     0.01  -0.03   0.02
 125   6    -0.07  -0.13   0.02     0.03   0.04  -0.01    -0.02  -0.04   0.03
 126   7    -0.03  -0.12   0.00    -0.02   0.01  -0.04    -0.04  -0.05   0.03
 127   6    -0.00  -0.09  -0.01    -0.02   0.04  -0.06    -0.03  -0.05   0.03
 128   6    -0.01  -0.08  -0.01     0.03   0.10  -0.05     0.00  -0.03   0.02
 129   1     0.01  -0.01  -0.01     0.03   0.06  -0.02     0.02  -0.00   0.00
 130   1    -0.01  -0.01   0.00     0.07   0.08  -0.01     0.03   0.01   0.00
 131   1    -0.03  -0.03   0.01     0.07   0.07  -0.00     0.02   0.00   0.00
 132   1    -0.03  -0.04   0.01     0.04   0.04   0.00     0.01  -0.01   0.01
 133   1    -0.03  -0.04   0.01     0.01   0.00   0.00    -0.01  -0.01   0.01
 134   1     0.01  -0.02  -0.01    -0.02   0.00  -0.02    -0.01  -0.01   0.01
 135   6     0.07  -0.03  -0.04    -0.13   0.06  -0.07    -0.06  -0.08  -0.11
 136   6     0.06  -0.06  -0.03    -0.16   0.05  -0.12    -0.11  -0.10  -0.20
 137   6     0.04  -0.06  -0.02    -0.14   0.06  -0.11    -0.12  -0.12  -0.23
 138   6     0.03  -0.03  -0.00    -0.10   0.07  -0.07    -0.08  -0.10  -0.18
 139   6     0.04  -0.01  -0.01    -0.08   0.08  -0.03    -0.03  -0.08  -0.11
 140   6     0.06  -0.01  -0.02    -0.10   0.08  -0.02    -0.03  -0.07  -0.07
 141   1     0.02  -0.02  -0.01    -0.05   0.01  -0.04    -0.04  -0.03  -0.07
 142   1     0.01  -0.02  -0.00    -0.05   0.01  -0.04    -0.04  -0.04  -0.09
 143   1     0.01  -0.01   0.00    -0.03   0.02  -0.02    -0.02  -0.03  -0.06
 144   1     0.02   0.00  -0.01    -0.02   0.03   0.00    -0.00  -0.01  -0.01
 145   6     0.03   0.02   0.00    -0.05   0.08  -0.00     0.00  -0.07  -0.07
 146   6     0.00   0.02   0.02    -0.04   0.08  -0.01     0.01  -0.07  -0.05
 147   6    -0.02   0.05   0.02     0.00   0.07   0.01     0.04  -0.05  -0.02
 148   7    -0.01   0.08   0.01     0.03   0.06   0.04     0.07  -0.05  -0.01
 149   6     0.02   0.07  -0.00     0.01   0.06   0.05     0.06  -0.05  -0.02
 150   6     0.04   0.05  -0.01    -0.02   0.07   0.03     0.04  -0.06  -0.05
 151   1    -0.00   0.00   0.01    -0.02   0.03  -0.01    -0.00  -0.02  -0.02
 152   1    -0.01   0.01   0.01     0.00   0.02   0.00     0.01  -0.02  -0.00
 153   1     0.01   0.03  -0.00     0.01   0.01   0.02     0.02  -0.01  -0.00
 154   1     0.02   0.01  -0.01    -0.01   0.02   0.01     0.01  -0.02  -0.02
                     10                     11                     12
                        a                      a                      a 
 Frequencies --    29.7521                30.0719                36.6805
 Red. masses --    14.0195                12.3857                18.6287
 Frc consts  --     0.0000                 0.0000                 0.0000
 IR Inten    --     0.3164                 0.0807                 0.0931
 Raman Activ --     0.0000                 0.0000                 0.0000
 Depolar     --     0.0000                 0.0000                 0.0000
 Atom AN      X      Y      Z        X      Y      Z        X      Y      Z
   1  46     0.12   0.04  -0.02    -0.04   0.05   0.05    -0.02  -0.26  -0.09
   2  46     0.07   0.03   0.08    -0.02  -0.01  -0.07    -0.05   0.04  -0.02
   3   6    -0.05   0.01  -0.17     0.04  -0.14  -0.01     0.00   0.00  -0.07
   4   6    -0.01   0.02  -0.14    -0.02  -0.12   0.02     0.03   0.02  -0.05
   5   6     0.01   0.05  -0.08    -0.02  -0.12   0.03     0.03   0.03  -0.00
   6   6     0.02   0.06  -0.06    -0.02  -0.14   0.02     0.06   0.08   0.07
   7   6     0.05   0.09   0.03     0.01  -0.15   0.02     0.05   0.10   0.11
   8   6     0.07   0.11   0.09     0.03  -0.13   0.02     0.01   0.07   0.06
   9   6     0.06   0.09   0.07     0.03  -0.10   0.03    -0.01   0.02  -0.01
  10   6     0.08   0.10   0.12     0.05  -0.08   0.03    -0.06  -0.02  -0.05
  11   6     0.07   0.08   0.09     0.04  -0.05   0.03    -0.07  -0.06  -0.09
  12   7     0.05   0.06   0.02     0.01  -0.04   0.04    -0.05  -0.08  -0.11
  13   6     0.03   0.05  -0.03    -0.01  -0.06   0.04    -0.01  -0.04  -0.08
  14   6     0.04   0.06  -0.01    -0.00  -0.10   0.04     0.00   0.00  -0.04
  15   1     0.00   0.01  -0.03    -0.01  -0.05   0.00     0.03   0.03   0.03
  16   1     0.02   0.03   0.01     0.00  -0.05   0.00     0.02   0.04   0.05
  17   1     0.03   0.04   0.04     0.01  -0.04   0.01     0.00   0.02   0.03
  18   1     0.03   0.03   0.05     0.02  -0.02   0.01    -0.02  -0.00  -0.01
  19   1     0.02   0.02   0.03     0.02  -0.01   0.01    -0.03  -0.03  -0.04
  20   1     0.00   0.01  -0.02    -0.01  -0.02   0.01     0.00  -0.01  -0.03
  21   6    -0.04   0.00  -0.18     0.06  -0.15  -0.04    -0.01  -0.00  -0.09
  22   6    -0.03  -0.01  -0.25     0.05  -0.18  -0.10    -0.02  -0.04  -0.15
  23   6    -0.01   0.00  -0.22     0.05  -0.19  -0.13    -0.03  -0.04  -0.15
  24   6     0.00   0.03  -0.12     0.05  -0.17  -0.08    -0.04  -0.01  -0.10
  25   6    -0.01   0.03  -0.07     0.06  -0.14  -0.03    -0.03   0.02  -0.05
  26   6    -0.03   0.02  -0.10     0.06  -0.13  -0.00    -0.02   0.03  -0.05
  27   1    -0.01  -0.01  -0.09     0.02  -0.06  -0.04    -0.01  -0.02  -0.06
  28   1    -0.00  -0.00  -0.08     0.01  -0.06  -0.05    -0.01  -0.02  -0.06
  29   1     0.01   0.01  -0.03     0.02  -0.05  -0.03    -0.01  -0.00  -0.03
  30   1    -0.01   0.01  -0.01     0.02  -0.03   0.01    -0.00   0.02  -0.00
  31   6     0.01   0.03  -0.00     0.05  -0.12  -0.01    -0.03   0.04  -0.03
  32   6     0.02   0.02   0.06     0.01  -0.11  -0.01    -0.04   0.04  -0.02
  33   6     0.03   0.02   0.11    -0.01  -0.07  -0.02    -0.04   0.05  -0.01
  34   7     0.03   0.02   0.10     0.00  -0.04  -0.04    -0.04   0.06  -0.01
  35   6     0.02   0.03   0.04     0.04  -0.04  -0.04    -0.03   0.06  -0.01
  36   6     0.01   0.03   0.00     0.07  -0.08  -0.02    -0.03   0.05  -0.02
  37   1     0.00   0.00   0.02    -0.00  -0.04   0.00    -0.02   0.01  -0.01
  38   1     0.01   0.00   0.05    -0.01  -0.02  -0.01    -0.01   0.01  -0.00
  39   1     0.01   0.01   0.01     0.02  -0.00  -0.02    -0.01   0.02  -0.00
  40   1    -0.00   0.01  -0.01     0.03  -0.03  -0.00    -0.01   0.01  -0.00
  41   6    -0.03  -0.02   0.02     0.02   0.09  -0.01    -0.00  -0.01   0.04
  42   6    -0.01  -0.02   0.01     0.04   0.09   0.01    -0.01  -0.01   0.04
  43   6     0.00  -0.02   0.01     0.04   0.09   0.00    -0.02  -0.00   0.03
  44   6     0.00  -0.03   0.02     0.06   0.11  -0.02    -0.07   0.02   0.05
  45   6     0.00  -0.04   0.03     0.05   0.11  -0.04    -0.08   0.03   0.03
  46   6     0.00  -0.03   0.04     0.01   0.10  -0.03    -0.03   0.01  -0.02
  47   6     0.00  -0.02   0.03    -0.01   0.08  -0.01     0.01  -0.02  -0.04
  48   6     0.00  -0.01   0.04    -0.04   0.07  -0.01     0.04  -0.04  -0.09
  49   6     0.01  -0.00   0.03    -0.05   0.05   0.01     0.06  -0.07  -0.10
  50   7     0.02  -0.00   0.01    -0.04   0.04   0.02     0.06  -0.08  -0.07
  51   6     0.02  -0.01   0.01    -0.01   0.05   0.02     0.04  -0.05  -0.03
  52   6     0.01  -0.02   0.02     0.01   0.08   0.01     0.01  -0.03  -0.02
  53   1    -0.00  -0.01   0.00     0.02   0.03  -0.01    -0.03   0.01   0.03
  54   1     0.00  -0.01   0.01     0.02   0.04  -0.02    -0.03   0.02   0.01
  55   1     0.00  -0.01   0.01     0.00   0.03  -0.01    -0.01   0.00  -0.01
  56   1    -0.00  -0.00   0.02    -0.02   0.02  -0.01     0.01  -0.01  -0.03
  57   1     0.00   0.00   0.01    -0.02   0.01   0.00     0.02  -0.02  -0.04
  58   1     0.01  -0.00  -0.00     0.00   0.01   0.01     0.01  -0.02  -0.00
  59   6    -0.05  -0.01   0.04     0.01   0.09  -0.02    -0.01  -0.00   0.05
  60   6    -0.07  -0.02   0.05     0.01   0.08  -0.02    -0.02  -0.01   0.06
  61   6    -0.09  -0.02   0.09     0.00   0.08  -0.03    -0.04  -0.01   0.06
  62   6    -0.11   0.00   0.10    -0.00   0.08  -0.03    -0.04  -0.00   0.05
  63   6    -0.10   0.01   0.08    -0.00   0.09  -0.03    -0.03   0.00   0.03
  64   6    -0.07   0.00   0.05     0.01   0.09  -0.03    -0.01   0.00   0.03
  65   1    -0.02  -0.01   0.01     0.00   0.02  -0.01    -0.01  -0.01   0.02
  66   1    -0.03  -0.01   0.03    -0.00   0.02  -0.01    -0.01  -0.01   0.02
  67   1    -0.04   0.00   0.04    -0.00   0.02  -0.01    -0.02  -0.00   0.01
  68   1    -0.02   0.00   0.01     0.00   0.03  -0.01    -0.00   0.00   0.00
  69   6    -0.11   0.02   0.08    -0.00   0.09  -0.03    -0.03   0.01   0.01
  70   6    -0.12   0.01   0.12    -0.00   0.08   0.01    -0.03   0.01   0.01
  71   6    -0.11   0.02   0.10     0.00   0.06   0.02    -0.03   0.02   0.00
  72   7    -0.10   0.04   0.05     0.00   0.06  -0.01    -0.02   0.03  -0.01
  73   6    -0.09   0.05   0.02     0.00   0.08  -0.05    -0.02   0.03  -0.02
  74   6    -0.09   0.05   0.04     0.00   0.09  -0.06    -0.02   0.02  -0.00
  75   1    -0.04  -0.00   0.04    -0.00   0.02   0.01    -0.01   0.00   0.01
  76   1    -0.03   0.00   0.03     0.00   0.01   0.01    -0.01   0.01   0.00
  77   1    -0.02   0.02  -0.01     0.00   0.02  -0.02    -0.00   0.01  -0.01
  78   1    -0.03   0.02   0.00    -0.00   0.03  -0.02    -0.01   0.01  -0.00
  79   6    -0.04  -0.05  -0.03    -0.01  -0.04  -0.02     0.01  -0.05   0.13
  80   6     0.02  -0.05  -0.03     0.00  -0.04  -0.02    -0.01  -0.02   0.10
  81   6     0.03  -0.06  -0.02    -0.01  -0.05  -0.02     0.00   0.02   0.03
  82   6     0.03  -0.07  -0.00    -0.02  -0.07  -0.01     0.02   0.09  -0.03
  83   6     0.02  -0.08   0.01    -0.04  -0.08  -0.01     0.04   0.15  -0.11
  84   6     0.02  -0.08   0.01    -0.05  -0.06  -0.01     0.06   0.13  -0.11
  85   6     0.02  -0.06  -0.01    -0.05  -0.03  -0.02     0.05   0.05  -0.04
  86   6     0.02  -0.05  -0.01    -0.06  -0.01  -0.01     0.07   0.02  -0.03
  87   6     0.02  -0.04  -0.02    -0.05   0.02  -0.01     0.06  -0.04   0.01
  88   7     0.03  -0.03  -0.03    -0.03   0.03  -0.01     0.03  -0.08   0.05
  89   6     0.03  -0.03  -0.04    -0.01   0.01  -0.02     0.01  -0.06   0.06
  90   6     0.03  -0.05  -0.02    -0.02  -0.02  -0.02     0.02   0.00   0.02
  91   1     0.01  -0.02  -0.00    -0.00  -0.03  -0.00     0.00   0.03  -0.01
  92   1     0.01  -0.03   0.01    -0.01  -0.03  -0.00     0.02   0.06  -0.05
  93   1     0.01  -0.02   0.01    -0.02  -0.02  -0.00     0.02   0.05  -0.05
  94   1     0.00  -0.02  -0.00    -0.02  -0.00  -0.00     0.03   0.02  -0.02
  95   1     0.00  -0.01  -0.01    -0.02   0.01  -0.00     0.02  -0.02   0.00
  96   1     0.01  -0.01  -0.01     0.00   0.00  -0.01    -0.00  -0.03   0.03
  97   6    -0.09  -0.05  -0.01    -0.03  -0.04  -0.02     0.04  -0.05   0.12
  98   6    -0.19  -0.04   0.02    -0.05  -0.04  -0.01     0.11  -0.03   0.09
  99   6    -0.23  -0.04   0.04    -0.07  -0.04   0.00     0.15  -0.02   0.05
 100   6    -0.17  -0.04   0.02    -0.07  -0.04   0.00     0.12  -0.03   0.04
 101   6    -0.07  -0.04  -0.01    -0.05  -0.04  -0.01     0.05  -0.05   0.07
 102   6    -0.03  -0.05  -0.03    -0.03  -0.04  -0.01     0.00  -0.06   0.11
 103   1    -0.07  -0.01   0.01    -0.02  -0.01  -0.00     0.04  -0.00   0.03
 104   1    -0.09  -0.01   0.02    -0.02  -0.01   0.00     0.06  -0.00   0.01
 105   1    -0.06  -0.01   0.01    -0.02  -0.01   0.00     0.04  -0.01   0.00
 106   1     0.01  -0.02  -0.02    -0.00  -0.01  -0.01    -0.02  -0.02   0.04
 107   6    -0.02  -0.04  -0.03    -0.04  -0.04  -0.01     0.03  -0.08   0.05
 108   6    -0.02  -0.05  -0.03    -0.03  -0.03  -0.01     0.01  -0.12   0.05
 109   6     0.01  -0.04  -0.03    -0.02  -0.02  -0.01    -0.00  -0.14   0.03
 110   7     0.05  -0.01  -0.05    -0.01  -0.01  -0.01     0.02  -0.13   0.01
 111   6     0.06   0.00  -0.05    -0.01  -0.02  -0.00     0.04  -0.08  -0.00
 112   6     0.02  -0.01  -0.04    -0.02  -0.03  -0.01     0.05  -0.06   0.02
 113   1    -0.01  -0.02  -0.01    -0.01  -0.01  -0.00    -0.00  -0.04   0.02
 114   1     0.00  -0.02  -0.01    -0.00  -0.01  -0.00    -0.01  -0.05   0.01
 115   1     0.03   0.01  -0.02     0.00  -0.00  -0.00     0.02  -0.02  -0.01
 116   1     0.01  -0.00  -0.01    -0.01  -0.01  -0.00     0.02  -0.01   0.00
 117   6    -0.03  -0.01  -0.02     0.01   0.07   0.06     0.00   0.06   0.01
 118   6    -0.03  -0.01  -0.01    -0.01   0.06   0.02     0.01   0.05  -0.04
 119   6    -0.02  -0.01  -0.00    -0.03   0.05   0.01     0.02   0.06  -0.03
 120   6    -0.05  -0.02   0.00    -0.05   0.05   0.02     0.07   0.11  -0.03
 121   6    -0.04  -0.01   0.00    -0.06   0.05   0.03     0.08   0.12   0.00
 122   6     0.00   0.00   0.00    -0.04   0.05   0.03     0.03   0.07   0.03
 123   6     0.03   0.01  -0.00    -0.02   0.05   0.03    -0.02   0.02   0.02
 124   6     0.06   0.03  -0.01     0.00   0.05   0.03    -0.06  -0.03   0.05
 125   6     0.08   0.03  -0.01     0.01   0.04   0.02    -0.09  -0.07   0.04
 126   7     0.07   0.03  -0.01     0.01   0.04   0.01    -0.09  -0.07   0.01
 127   6     0.04   0.01  -0.01    -0.01   0.04   0.01    -0.06  -0.03  -0.01
 128   6     0.02   0.01  -0.00    -0.02   0.05   0.01    -0.02   0.02  -0.01
 129   1    -0.02  -0.01   0.00    -0.02   0.02   0.00     0.03   0.04  -0.01
 130   1    -0.02  -0.01   0.00    -0.02   0.01   0.01     0.04   0.05   0.00
 131   1     0.00   0.00   0.00    -0.01   0.01   0.01     0.01   0.02   0.01
 132   1     0.02   0.01  -0.00     0.00   0.02   0.01    -0.02  -0.01   0.02
 133   1     0.03   0.01  -0.00     0.01   0.01   0.01    -0.03  -0.03   0.02
 134   1     0.01   0.00  -0.00    -0.00   0.01   0.00    -0.02  -0.01  -0.01
 135   6    -0.02  -0.01  -0.03     0.04   0.09   0.09     0.01   0.07   0.04
 136   6    -0.02   0.00  -0.05     0.08   0.13   0.14     0.04   0.09   0.09
 137   6     0.00   0.01  -0.05     0.10   0.14   0.16     0.05   0.10   0.11
 138   6     0.02   0.00  -0.04     0.08   0.11   0.11     0.03   0.09   0.08
 139   6     0.02  -0.01  -0.02     0.04   0.08   0.06     0.00   0.07   0.04
 140   6     0.00  -0.02  -0.02     0.02   0.06   0.05    -0.00   0.06   0.02
 141   1    -0.01   0.00  -0.02     0.03   0.04   0.05     0.01   0.03   0.03
 142   1     0.00   0.01  -0.02     0.04   0.05   0.06     0.02   0.03   0.04
 143   1     0.01   0.00  -0.01     0.03   0.03   0.04     0.01   0.03   0.03
 144   1    -0.00  -0.01  -0.00    -0.00   0.01   0.00    -0.01   0.01  -0.00
 145   6     0.05  -0.02  -0.01     0.02   0.05   0.03    -0.01   0.06   0.02
 146   6     0.09  -0.02   0.02     0.03   0.05  -0.00    -0.00   0.06   0.01
 147   6     0.11  -0.02   0.03     0.01   0.02  -0.03    -0.01   0.04  -0.01
 148   7     0.10  -0.02   0.02    -0.01  -0.00  -0.03    -0.03   0.02  -0.01
 149   6     0.05  -0.03  -0.01    -0.02  -0.00  -0.00    -0.04   0.02   0.00
 150   6     0.03  -0.03  -0.02    -0.00   0.02   0.02    -0.03   0.04   0.02
 151   1     0.03  -0.00   0.01     0.01   0.02  -0.00     0.00   0.02   0.00
 152   1     0.04  -0.00   0.02     0.00   0.00  -0.02    -0.00   0.01  -0.01
 153   1     0.01  -0.01  -0.00    -0.01  -0.01  -0.00    -0.01   0.00   0.00
 154   1    -0.00  -0.01  -0.01    -0.00   0.01   0.01    -0.01   0.01   0.01
                     13                     14                     15
                        a                      a                      a 
 Frequencies --    39.6441                43.5316                49.3618
 Red. masses --    13.4287                17.3800                15.6201
 Frc consts  --     0.0000                 0.0000                 0.0000
 IR Inten    --     0.1307                 0.1745                 0.2009
 Raman Activ --     0.0000                 0.0000                 0.0000
 Depolar     --     0.0000                 0.0000                 0.0000
 Atom AN      X      Y      Z        X      Y      Z        X      Y      Z
   1  46    -0.02  -0.06   0.04     0.06   0.02   0.04    -0.02  -0.07  -0.07
   2  46    -0.03   0.13   0.04     0.01  -0.23   0.09     0.03  -0.20   0.03
   3   6     0.04  -0.02   0.04    -0.06   0.04   0.07    -0.07  -0.02  -0.11
   4   6     0.01  -0.03   0.02    -0.02   0.04   0.07    -0.06  -0.02  -0.12
   5   6     0.00  -0.03   0.01    -0.00   0.03   0.05    -0.03  -0.01  -0.08
   6   6    -0.01  -0.03  -0.00     0.01   0.02   0.08    -0.02   0.01  -0.04
   7   6    -0.01  -0.04  -0.01     0.01  -0.00   0.04     0.02   0.04   0.05
   8   6    -0.01  -0.04  -0.00    -0.00  -0.01  -0.04     0.04   0.05   0.10
   9   6    -0.00  -0.03   0.01    -0.02   0.00  -0.05     0.02   0.04   0.06
  10   6    -0.00  -0.03   0.02    -0.03  -0.00  -0.12     0.04   0.05   0.10
  11   6     0.00  -0.03   0.03    -0.03   0.02  -0.11     0.02   0.03   0.05
  12   7     0.00  -0.04   0.03    -0.02   0.04  -0.06    -0.02  -0.00  -0.03
  13   6     0.00  -0.03   0.02    -0.02   0.04  -0.01    -0.03  -0.01  -0.07
  14   6    -0.00  -0.03   0.01    -0.01   0.02  -0.00    -0.02   0.01  -0.04
  15   1    -0.00  -0.01  -0.00     0.01   0.01   0.04    -0.01  -0.00  -0.02
  16   1    -0.01  -0.01  -0.01     0.01  -0.00   0.02     0.01   0.01   0.02
  17   1    -0.01  -0.01  -0.00    -0.00  -0.01  -0.02     0.02   0.02   0.05
  18   1    -0.00  -0.01   0.01    -0.01  -0.01  -0.05     0.02   0.02   0.05
  19   1     0.00  -0.01   0.01    -0.01   0.00  -0.04     0.01   0.01   0.02
  20   1     0.00  -0.01   0.00    -0.00   0.02   0.01    -0.02  -0.01  -0.04
  21   6     0.03  -0.01   0.06    -0.06   0.03   0.05    -0.06   0.00  -0.06
  22   6     0.02  -0.01   0.10    -0.06   0.03   0.03    -0.04   0.07   0.04
  23   6     0.00   0.00   0.12    -0.05   0.01  -0.01    -0.02   0.10   0.11
  24   6    -0.00   0.01   0.10    -0.04  -0.00  -0.02    -0.01   0.06   0.09
  25   6     0.00   0.01   0.06    -0.05  -0.00   0.00    -0.02  -0.00  -0.01
  26   6     0.02  -0.00   0.03    -0.06   0.02   0.04    -0.05  -0.03  -0.09
  27   1     0.01  -0.00   0.03    -0.02   0.01   0.01    -0.01   0.03   0.02
  28   1    -0.00   0.00   0.04    -0.01   0.00  -0.01    -0.00   0.04   0.06
  29   1    -0.00   0.01   0.03    -0.01  -0.00  -0.02     0.00   0.03   0.04
  30   1     0.01  -0.00  -0.00    -0.02   0.01   0.02    -0.02  -0.02  -0.05
  31   6    -0.01   0.03   0.07    -0.04  -0.02   0.01    -0.01  -0.03  -0.02
  32   6    -0.01   0.02   0.15    -0.02  -0.02   0.02     0.04  -0.05   0.04
  33   6    -0.02   0.04   0.15     0.00  -0.05   0.05     0.04  -0.07   0.04
  34   7    -0.03   0.08   0.08    -0.00  -0.07   0.07     0.02  -0.09  -0.01
  35   6    -0.03   0.09  -0.01    -0.03  -0.06   0.05    -0.03  -0.06  -0.08
  36   6    -0.02   0.06  -0.01    -0.04  -0.04   0.02    -0.04  -0.04  -0.09
  37   1    -0.00  -0.00   0.06    -0.00  -0.00   0.00     0.02  -0.01   0.03
  38   1    -0.00   0.01   0.06     0.01  -0.02   0.02     0.02  -0.02   0.02
  39   1    -0.01   0.03  -0.02    -0.01  -0.02   0.02    -0.01  -0.02  -0.03
  40   1    -0.01   0.02  -0.02    -0.02  -0.01   0.00    -0.02  -0.01  -0.04
  41   6     0.13  -0.03  -0.12    -0.12   0.09  -0.04     0.11  -0.00  -0.04
  42   6     0.10  -0.02  -0.08    -0.06   0.09   0.02     0.09  -0.00  -0.05
  43   6     0.05  -0.02  -0.03    -0.02   0.08   0.02     0.05   0.01  -0.03
  44   6     0.02  -0.01  -0.01    -0.03   0.08   0.03     0.01   0.03  -0.01
  45   6    -0.05  -0.00   0.04     0.01   0.08  -0.00    -0.06   0.04   0.02
  46   6    -0.09   0.00   0.07     0.07   0.07  -0.04    -0.09   0.03   0.03
  47   6    -0.06  -0.00   0.05     0.07   0.08  -0.05    -0.05   0.01   0.01
  48   6    -0.08   0.00   0.06     0.10   0.07  -0.07    -0.08   0.00   0.01
  49   6    -0.05  -0.01   0.04     0.09   0.06  -0.06    -0.04  -0.02  -0.01
  50   7    -0.02  -0.01   0.02     0.07   0.07  -0.04     0.02  -0.03  -0.04
  51   6     0.01  -0.01  -0.00     0.04   0.07  -0.01     0.05  -0.02  -0.04
  52   6     0.00  -0.01   0.00     0.03   0.08  -0.01     0.02  -0.00  -0.02
  53   1     0.02  -0.01  -0.01    -0.02   0.03   0.02     0.01   0.01  -0.01
  54   1    -0.02  -0.00   0.02     0.00   0.02   0.00    -0.03   0.02   0.01
  55   1    -0.04   0.00   0.03     0.03   0.02  -0.02    -0.04   0.01   0.02
  56   1    -0.04   0.00   0.03     0.04   0.02  -0.03    -0.04   0.00   0.01
  57   1    -0.02  -0.00   0.01     0.03   0.01  -0.02    -0.02  -0.01  -0.00
  58   1     0.01  -0.01  -0.01     0.00   0.02   0.00     0.03  -0.01  -0.02
  59   6     0.12  -0.04  -0.16    -0.10   0.07  -0.09     0.09   0.00  -0.02
  60   6     0.13  -0.09  -0.23    -0.05   0.08  -0.18     0.04   0.01   0.07
  61   6     0.08  -0.09  -0.24     0.00   0.07  -0.23     0.00   0.02   0.11
  62   6     0.02  -0.04  -0.17     0.00   0.06  -0.19     0.01   0.02   0.07
  63   6     0.01   0.01  -0.10    -0.05   0.05  -0.10     0.05   0.02  -0.02
  64   6     0.06   0.02  -0.10    -0.10   0.06  -0.05     0.09   0.01  -0.07
  65   1     0.05  -0.04  -0.08    -0.01   0.03  -0.06     0.01   0.00   0.03
  66   1     0.03  -0.04  -0.09     0.01   0.02  -0.09    -0.01   0.01   0.05
  67   1    -0.00  -0.01  -0.05     0.01   0.01  -0.06    -0.01   0.01   0.03
  68   1     0.02   0.02  -0.01    -0.04   0.02   0.01     0.04   0.00  -0.04
  69   6    -0.04   0.07  -0.03    -0.04   0.01  -0.05     0.05   0.03  -0.03
  70   6    -0.13   0.03   0.04    -0.01   0.01  -0.03     0.03   0.01   0.02
  71   6    -0.17   0.06   0.08    -0.01  -0.05   0.02     0.02  -0.00   0.04
  72   7    -0.14   0.14   0.05    -0.04  -0.10   0.04     0.03  -0.00   0.02
  73   6    -0.05   0.18  -0.02    -0.06  -0.08   0.02     0.05   0.03  -0.03
  74   6    -0.01   0.15  -0.06    -0.06  -0.04  -0.02     0.06   0.05  -0.06
  75   1    -0.05  -0.01   0.02     0.00   0.01  -0.02     0.01  -0.00   0.01
  76   1    -0.07   0.01   0.04     0.00  -0.02   0.01     0.00  -0.01   0.02
  77   1    -0.01   0.07  -0.02    -0.02  -0.03   0.01     0.01   0.01  -0.01
  78   1     0.01   0.05  -0.03    -0.02  -0.01  -0.01     0.02   0.02  -0.03
  79   6    -0.02  -0.04   0.08     0.02   0.01  -0.05    -0.03   0.07  -0.04
  80   6    -0.02  -0.03   0.07     0.05   0.01  -0.06    -0.05   0.08  -0.04
  81   6    -0.02  -0.01   0.04     0.06   0.02  -0.06    -0.03   0.07  -0.03
  82   6    -0.02  -0.00   0.03     0.06   0.06  -0.12    -0.02   0.10  -0.02
  83   6    -0.02   0.03  -0.02     0.07   0.05  -0.09     0.01   0.07   0.02
  84   6    -0.02   0.05  -0.05     0.06  -0.02   0.00     0.03   0.01   0.07
  85   6    -0.02   0.04  -0.03     0.06  -0.06   0.05     0.02  -0.01   0.06
  86   6    -0.02   0.06  -0.06     0.06  -0.12   0.13     0.04  -0.07   0.10
  87   6    -0.02   0.04  -0.04     0.06  -0.12   0.14     0.03  -0.08   0.07
  88   7    -0.02   0.01   0.00     0.07  -0.08   0.09     0.00  -0.04   0.00
  89   6    -0.02  -0.00   0.03     0.06  -0.05   0.03    -0.02   0.00  -0.02
  90   6    -0.02   0.01   0.01     0.06  -0.04   0.01    -0.01   0.02   0.00
  91   1    -0.01  -0.01   0.02     0.02   0.03  -0.05    -0.01   0.04  -0.01
  92   1    -0.01   0.01  -0.01     0.02   0.02  -0.04     0.01   0.03   0.01
  93   1    -0.01   0.02  -0.02     0.02  -0.01   0.01     0.01  -0.00   0.03
  94   1    -0.01   0.02  -0.03     0.02  -0.04   0.05     0.02  -0.03   0.04
  95   1    -0.01   0.01  -0.01     0.02  -0.05   0.05     0.01  -0.04   0.03
  96   1    -0.01  -0.01   0.02     0.02  -0.01  -0.00    -0.01   0.01  -0.02
  97   6    -0.01  -0.03   0.07    -0.01   0.01  -0.03    -0.01   0.06  -0.03
  98   6     0.01  -0.01   0.06    -0.10   0.01  -0.00     0.05   0.06  -0.05
  99   6     0.03   0.00   0.02    -0.13   0.01   0.01     0.07   0.05  -0.05
 100   6     0.04  -0.01  -0.00    -0.07   0.01  -0.01     0.05   0.06  -0.04
 101   6     0.01  -0.04   0.01     0.01   0.01  -0.04    -0.00   0.06  -0.02
 102   6    -0.01  -0.05   0.05     0.04   0.00  -0.05    -0.03   0.07  -0.02
 103   1     0.00   0.00   0.02    -0.04   0.00   0.00     0.02   0.01  -0.02
 104   1     0.01   0.01   0.00    -0.06   0.00   0.01     0.03   0.01  -0.02
 105   1     0.02  -0.00  -0.01    -0.03   0.00   0.00     0.02   0.02  -0.01
 106   1    -0.01  -0.02   0.02     0.03  -0.00  -0.02    -0.02   0.02  -0.00
 107   6     0.02  -0.05  -0.02     0.04   0.00  -0.05    -0.02   0.06  -0.01
 108   6    -0.01  -0.10  -0.02     0.03  -0.01  -0.05    -0.02   0.06  -0.01
 109   6    -0.00  -0.11  -0.03     0.01  -0.03  -0.06    -0.02   0.06  -0.01
 110   7     0.05  -0.07  -0.05     0.01  -0.02  -0.06    -0.03   0.06  -0.01
 111   6     0.08  -0.03  -0.06     0.04   0.00  -0.07    -0.03   0.05  -0.00
 112   6     0.07  -0.02  -0.04     0.05   0.01  -0.06    -0.02   0.06  -0.01
 113   1    -0.01  -0.04  -0.00     0.01  -0.00  -0.01    -0.01   0.02  -0.00
 114   1    -0.01  -0.04  -0.01    -0.00  -0.01  -0.02    -0.00   0.02  -0.00
 115   1     0.04   0.00  -0.02     0.01   0.00  -0.02    -0.01   0.01  -0.00
 116   1     0.03   0.00  -0.01     0.02   0.01  -0.02    -0.01   0.02  -0.00
 117   6    -0.08  -0.02  -0.05    -0.06  -0.01   0.04    -0.13  -0.04   0.03
 118   6    -0.06  -0.01  -0.02    -0.03   0.00   0.03    -0.13  -0.04   0.01
 119   6    -0.03   0.01  -0.00     0.00   0.02   0.03    -0.08  -0.02  -0.00
 120   6    -0.02   0.03   0.00     0.06   0.05   0.03    -0.05  -0.01  -0.01
 121   6     0.03   0.05   0.01     0.09   0.07   0.04     0.05   0.03  -0.02
 122   6     0.06   0.05   0.01     0.07   0.05   0.04     0.11   0.06  -0.03
 123   6     0.04   0.02   0.01     0.02   0.02   0.05     0.07   0.04  -0.02
 124   6     0.06   0.02   0.01    -0.01  -0.00   0.06     0.11   0.06  -0.03
 125   6     0.04   0.00   0.01    -0.04  -0.03   0.06     0.07   0.03  -0.02
 126   7     0.00  -0.02   0.01    -0.05  -0.03   0.05    -0.01   0.00  -0.01
 127   6    -0.02  -0.01   0.00    -0.04  -0.02   0.04    -0.06  -0.02  -0.01
 128   6    -0.01   0.00   0.00    -0.01   0.00   0.04    -0.02   0.00  -0.01
 129   1    -0.01   0.01  -0.00     0.02   0.02   0.01    -0.03  -0.01  -0.00
 130   1     0.01   0.02   0.00     0.04   0.03   0.01     0.02   0.01  -0.01
 131   1     0.03   0.02   0.01     0.03   0.02   0.01     0.05   0.03  -0.01
 132   1     0.03   0.01   0.01     0.00   0.00   0.02     0.05   0.03  -0.01
 133   1     0.01  -0.00   0.00    -0.02  -0.01   0.02     0.03   0.01  -0.01
 134   1    -0.01  -0.01  -0.00    -0.01  -0.01   0.01    -0.03  -0.01   0.00
 135   6    -0.06  -0.02  -0.07    -0.06  -0.01   0.03    -0.09  -0.02   0.06
 136   6    -0.06   0.01  -0.09    -0.07  -0.00  -0.00     0.01   0.09   0.18
 137   6    -0.02   0.02  -0.08    -0.04   0.00  -0.01     0.07   0.11   0.21
 138   6     0.02   0.01  -0.06    -0.01  -0.00   0.01     0.04   0.04   0.12
 139   6     0.01  -0.02  -0.04    -0.00  -0.01   0.04    -0.04  -0.05   0.01
 140   6    -0.03  -0.03  -0.05    -0.03  -0.02   0.05    -0.12  -0.09  -0.03
 141   1    -0.02   0.00  -0.03    -0.03   0.00  -0.01     0.01   0.04   0.07
 142   1    -0.00   0.01  -0.03    -0.01   0.00  -0.01     0.04   0.06   0.09
 143   1     0.02   0.01  -0.01     0.00   0.00   0.00     0.02   0.02   0.04
 144   1    -0.01  -0.02  -0.01    -0.01  -0.01   0.02    -0.05  -0.05  -0.04
 145   6     0.05  -0.02  -0.02     0.03  -0.03   0.05    -0.04  -0.09  -0.02
 146   6     0.11  -0.02   0.02     0.05  -0.03   0.05     0.04  -0.09   0.02
 147   6     0.13  -0.02   0.03     0.07  -0.04   0.05     0.05  -0.10   0.02
 148   7     0.08  -0.03  -0.00     0.06  -0.06   0.06     0.01  -0.12   0.00
 149   6     0.02  -0.03  -0.04     0.03  -0.05   0.06    -0.06  -0.12  -0.03
 150   6     0.01  -0.03  -0.05     0.02  -0.04   0.06    -0.10  -0.11  -0.05
 151   1     0.04  -0.01   0.02     0.02  -0.00   0.02     0.02  -0.02   0.01
 152   1     0.05  -0.00   0.02     0.02  -0.01   0.01     0.03  -0.03   0.02
 153   1    -0.00  -0.01  -0.02     0.01  -0.02   0.02    -0.02  -0.04  -0.01
 154   1    -0.01  -0.01  -0.02    -0.00  -0.01   0.02    -0.05  -0.03  -0.02
                     16                     17                     18
                        a                      a                      a 
 Frequencies --    55.6423                59.6028                61.9921
 Red. masses --    16.3726                13.5339                11.7068
 Frc consts  --     0.0000                 0.0000                 0.0000
 IR Inten    --     0.1426                 0.1740                 0.1271
 Raman Activ --     0.0000                 0.0000                 0.0000
 Depolar     --     0.0000                 0.0000                 0.0000
 Atom AN      X      Y      Z        X      Y      Z        X      Y      Z
   1  46     0.02  -0.22   0.03     0.01  -0.10   0.09    -0.03   0.03   0.01
   2  46    -0.06  -0.00  -0.00     0.08   0.05   0.01    -0.08  -0.01   0.01
   3   6    -0.00  -0.03  -0.08     0.07   0.07   0.07     0.04   0.06   0.15
   4   6     0.02  -0.05  -0.11     0.09   0.08   0.08     0.07   0.07   0.18
   5   6     0.02  -0.04  -0.09     0.06   0.07   0.05     0.05   0.05   0.12
   6   6    -0.01  -0.03  -0.12     0.04   0.09   0.02     0.05   0.05   0.11
   7   6    -0.00   0.01  -0.05    -0.03   0.07  -0.05    -0.02  -0.00  -0.03
   8   6     0.03   0.02   0.07    -0.07   0.03  -0.10    -0.07  -0.04  -0.15
   9   6     0.04   0.00   0.09    -0.05   0.01  -0.05    -0.05  -0.03  -0.11
  10   6     0.06   0.00   0.18    -0.08  -0.02  -0.07    -0.08  -0.05  -0.18
  11   6     0.06  -0.03   0.16    -0.05  -0.03  -0.02    -0.05  -0.03  -0.11
  12   7     0.05  -0.07   0.08     0.01  -0.02   0.04    -0.00   0.01   0.00
  13   6     0.04  -0.07   0.00     0.04   0.01   0.06     0.03   0.03   0.07
  14   6     0.03  -0.03   0.00     0.02   0.03   0.02     0.01   0.02   0.03
  15   1    -0.01  -0.01  -0.06     0.02   0.03   0.01     0.02   0.02   0.05
  16   1    -0.01   0.01  -0.02    -0.01   0.02  -0.02    -0.01  -0.00  -0.02
  17   1     0.01   0.02   0.04    -0.04   0.00  -0.05    -0.03  -0.02  -0.08
  18   1     0.02   0.01   0.07    -0.04  -0.01  -0.04    -0.04  -0.02  -0.08
  19   1     0.02  -0.01   0.06    -0.02  -0.01  -0.01    -0.02  -0.01  -0.04
  20   1     0.01  -0.03  -0.02     0.03   0.01   0.03     0.02   0.02   0.05
  21   6    -0.03  -0.01  -0.03     0.06   0.05   0.02     0.00   0.03   0.06
  22   6    -0.04  -0.03  -0.01     0.06   0.02  -0.05    -0.02  -0.06  -0.05
  23   6    -0.07   0.00   0.05     0.06  -0.01  -0.11    -0.07  -0.11  -0.16
  24   6    -0.08   0.04   0.07     0.06   0.00  -0.09    -0.08  -0.07  -0.16
  25   6    -0.06   0.06   0.05     0.06   0.03  -0.02    -0.06   0.02  -0.06
  26   6    -0.04   0.04   0.01     0.06   0.06   0.04    -0.02   0.06   0.05
  27   1    -0.01  -0.02  -0.01     0.02   0.00  -0.02    -0.00  -0.03  -0.01
  28   1    -0.02  -0.00   0.02     0.02  -0.01  -0.05    -0.02  -0.05  -0.07
  29   1    -0.03   0.02   0.03     0.02  -0.00  -0.04    -0.03  -0.03  -0.07
  30   1    -0.01   0.02   0.00     0.02   0.02   0.03     0.00   0.04   0.04
  31   6    -0.07   0.07   0.04     0.06   0.02  -0.01    -0.07   0.04  -0.06
  32   6    -0.06   0.08   0.00     0.07   0.02  -0.01    -0.09   0.05  -0.09
  33   6    -0.06   0.07  -0.01     0.07   0.01  -0.00    -0.08   0.04  -0.05
  34   7    -0.06   0.06   0.02     0.07  -0.00  -0.00    -0.07   0.05  -0.01
  35   6    -0.07   0.05   0.04     0.06  -0.00  -0.00    -0.05   0.04   0.00
  36   6    -0.08   0.06   0.05     0.06   0.01   0.00    -0.05   0.04  -0.02
  37   1    -0.02   0.03  -0.00     0.02   0.01  -0.01    -0.03   0.01  -0.04
  38   1    -0.02   0.02  -0.01     0.03   0.00   0.00    -0.02   0.01  -0.01
  39   1    -0.02   0.01   0.02     0.02  -0.00  -0.00    -0.01   0.01   0.01
  40   1    -0.02   0.02   0.02     0.01   0.00   0.00    -0.01   0.01   0.00
  41   6    -0.08   0.07   0.11    -0.10   0.02   0.08     0.11  -0.03   0.05
  42   6    -0.04   0.07   0.13    -0.09   0.02   0.11     0.07  -0.03   0.01
  43   6    -0.01   0.06   0.08    -0.05   0.01   0.08     0.03  -0.02   0.01
  44   6     0.04   0.09   0.03    -0.03   0.01   0.07     0.03  -0.01   0.00
  45   6     0.09   0.09  -0.05     0.06   0.00   0.00    -0.01  -0.00   0.02
  46   6     0.09   0.06  -0.08     0.11  -0.01  -0.04    -0.03  -0.01   0.03
  47   6     0.03   0.04  -0.02     0.07  -0.01  -0.02    -0.02  -0.02   0.03
  48   6     0.01   0.01  -0.04     0.11  -0.02  -0.05    -0.03  -0.03   0.03
  49   6    -0.03  -0.02   0.00     0.06  -0.02  -0.01    -0.02  -0.03   0.02
  50   7    -0.05  -0.03   0.05    -0.01  -0.01   0.05    -0.01  -0.03   0.02
  51   6    -0.04   0.00   0.08    -0.04   0.00   0.07    -0.00  -0.03   0.02
  52   6    -0.01   0.04   0.05    -0.01   0.00   0.05     0.00  -0.03   0.02
  53   1     0.01   0.03   0.02    -0.02   0.01   0.03     0.02  -0.00  -0.00
[...]
  62   6    -0.00  -0.01   0.00     0.00   0.03  -0.01    -0.00  -0.00   0.00
  63   6     0.00   0.00   0.00    -0.00  -0.00  -0.00     0.00   0.00   0.00
  64   6     0.02  -0.01   0.01    -0.10   0.05  -0.05     0.01  -0.00   0.00
  65   1    -0.00  -0.00  -0.00     0.00   0.00   0.00     0.00   0.00   0.00
  66   1    -0.00   0.00  -0.00     0.02  -0.01   0.01    -0.00   0.00  -0.00
  67   1    -0.00   0.02  -0.01     0.00  -0.10   0.03    -0.00   0.00  -0.00
  68   1    -0.08   0.04  -0.04     0.34  -0.17   0.17    -0.03   0.01  -0.02
  69   6     0.00   0.00   0.00    -0.00  -0.00  -0.00     0.00   0.00   0.00
  70   6     0.04  -0.02   0.00    -0.20   0.10  -0.01     0.01  -0.01   0.00
  71   6     0.00  -0.00  -0.00    -0.00   0.02   0.01     0.00  -0.00  -0.00
  72   7    -0.00   0.00  -0.00     0.00  -0.00  -0.00    -0.00   0.00   0.00
  73   6     0.00  -0.00   0.00    -0.00   0.00  -0.00     0.00  -0.00   0.00
  74   6     0.00  -0.01  -0.01    -0.01   0.05   0.03     0.00  -0.00  -0.00
  75   1    -0.14   0.07  -0.01     0.68  -0.36   0.05    -0.03   0.02  -0.00
  76   1    -0.00   0.01   0.00     0.00  -0.03  -0.01    -0.00   0.00   0.00
  77   1    -0.00   0.00  -0.00     0.01  -0.00   0.00    -0.00   0.00   0.00
  78   1    -0.01   0.05   0.02     0.04  -0.17  -0.09    -0.00   0.01   0.01
  79   6    -0.00   0.00  -0.00    -0.00   0.00  -0.00    -0.00   0.00  -0.00
  80   6    -0.00   0.00  -0.00     0.00  -0.00  -0.00     0.00   0.00   0.00
  81   6    -0.00   0.00   0.00    -0.00  -0.00   0.00    -0.00   0.00   0.00
  82   6     0.00   0.00   0.00    -0.00  -0.00  -0.00     0.00   0.00   0.00
  83   6     0.00  -0.00  -0.00    -0.00   0.00   0.00     0.00  -0.00  -0.00
  84   6     0.00  -0.00  -0.00    -0.00   0.00   0.00     0.00  -0.00  -0.00
  85   6     0.00  -0.00  -0.00    -0.00   0.00   0.00     0.00  -0.00  -0.00
  86   6     0.00  -0.00  -0.00    -0.00   0.00   0.00     0.00  -0.00  -0.00
  87   6    -0.00  -0.00  -0.00     0.00   0.00   0.00    -0.00  -0.00  -0.00
  88   7     0.00   0.00  -0.00     0.00  -0.00  -0.00     0.00   0.00   0.00
  89   6     0.00  -0.00  -0.00     0.00  -0.00  -0.00    -0.00   0.00   0.00
  90   6     0.00   0.00   0.00     0.00  -0.00  -0.00     0.00   0.00   0.00
  91   1    -0.00  -0.00  -0.00     0.00   0.00   0.00    -0.00  -0.00  -0.00
  92   1    -0.00   0.00   0.00     0.00  -0.00  -0.00    -0.00   0.00   0.00
  93   1    -0.00   0.00   0.00     0.00  -0.00  -0.00    -0.00   0.00   0.00
  94   1    -0.00   0.00   0.00     0.00  -0.00  -0.00    -0.00   0.00   0.00
  95   1     0.00   0.00   0.00    -0.00  -0.00  -0.00     0.00   0.00   0.00
  96   1    -0.00   0.00   0.00    -0.00   0.00   0.00     0.00  -0.00  -0.00
  97   6    -0.00   0.00   0.00    -0.00   0.00   0.00    -0.00  -0.00  -0.00
  98   6    -0.00   0.00  -0.00    -0.00   0.00  -0.00    -0.00   0.00  -0.00
  99   6    -0.00  -0.00  -0.00    -0.00  -0.00  -0.00    -0.00  -0.00  -0.00
 100   6    -0.00  -0.00  -0.00    -0.00  -0.00  -0.00    -0.01  -0.02  -0.01
 101   6     0.00  -0.00   0.00     0.00  -0.00   0.00     0.00  -0.00  -0.00
 102   6    -0.00  -0.00  -0.00    -0.00   0.00  -0.00    -0.00  -0.00  -0.01
 103   1     0.00  -0.00   0.00     0.00  -0.00   0.00     0.00  -0.00   0.00
 104   1     0.00   0.00   0.00     0.00   0.00   0.00     0.00   0.00   0.01
 105   1     0.00   0.00   0.00     0.00   0.01   0.00     0.02   0.08   0.04
 106   1     0.00   0.00   0.00     0.00   0.00   0.00     0.02   0.01   0.05
 107   6    -0.00   0.00  -0.00    -0.00   0.00  -0.00    -0.00   0.00  -0.00
 108   6     0.00  -0.00  -0.00     0.00  -0.00  -0.00     0.01  -0.02  -0.01
 109   6    -0.00   0.00  -0.00    -0.00   0.00  -0.00     0.00   0.00  -0.00
 110   7     0.00   0.00   0.00     0.00   0.00   0.00    -0.00   0.00   0.00
 111   6     0.00  -0.00  -0.00     0.00  -0.00  -0.00     0.01  -0.02  -0.01
 112   6     0.00  -0.00  -0.00     0.00  -0.00  -0.02     0.00  -0.05  -0.27
 113   1    -0.00   0.00   0.00    -0.00   0.00   0.00    -0.04   0.06   0.03
 114   1    -0.00  -0.00   0.00     0.00  -0.00   0.00    -0.00   0.00   0.00
 115   1     0.00  -0.00   0.00    -0.00   0.00   0.00    -0.03   0.05   0.02
 116   1    -0.00   0.00   0.00    -0.00   0.01   0.07    -0.02   0.17   0.93
 117   6    -0.00   0.00  -0.00    -0.00   0.00  -0.00     0.00  -0.00   0.00
 118   6     0.00  -0.00   0.00     0.00  -0.00   0.00    -0.00   0.00  -0.00
 119   6    -0.00   0.00  -0.00    -0.00   0.00  -0.00     0.00  -0.00   0.00
 120   6     0.00  -0.00  -0.00     0.00  -0.00  -0.00    -0.00   0.00   0.00
 121   6    -0.00   0.00  -0.00    -0.00   0.00  -0.00     0.00  -0.00   0.00
 122   6    -0.00   0.00  -0.00    -0.00   0.00  -0.00     0.00  -0.00   0.00
 123   6     0.00   0.00   0.00    -0.00   0.00   0.00     0.00  -0.00  -0.00
 124   6    -0.00   0.00  -0.00    -0.00   0.00  -0.00     0.00  -0.00   0.00
 125   6     0.00   0.00   0.00    -0.00   0.00   0.00     0.00  -0.00  -0.00
 126   7     0.00  -0.00  -0.00     0.00  -0.00  -0.00    -0.00   0.00   0.00
 127   6     0.00  -0.00   0.00     0.00  -0.00   0.00    -0.00   0.00  -0.00
 128   6    -0.00   0.00  -0.00     0.00  -0.00  -0.00    -0.00   0.00   0.00
 129   1    -0.00   0.00   0.00    -0.00   0.00   0.00     0.00  -0.00  -0.00
 130   1     0.00  -0.00   0.00     0.00  -0.00   0.00    -0.00   0.00  -0.00
 131   1     0.00  -0.00   0.00     0.00  -0.00   0.00    -0.00   0.00  -0.00
 132   1     0.00  -0.00   0.00     0.00  -0.00   0.00    -0.00   0.00  -0.00
 133   1     0.00  -0.00  -0.00     0.00  -0.00  -0.00    -0.00   0.00   0.00
 134   1    -0.00   0.00   0.00    -0.00   0.00  -0.00     0.00  -0.00   0.00
 135   6    -0.00   0.00   0.00    -0.00   0.00   0.00    -0.00   0.00  -0.00
 136   6     0.02   0.02  -0.02     0.00   0.00  -0.00    -0.00  -0.00   0.00
 137   6     0.07  -0.03  -0.03     0.01  -0.00  -0.00    -0.00   0.00   0.00
 138   6     0.08  -0.20   0.07     0.01  -0.03   0.01    -0.00   0.00  -0.00
 139   6    -0.00  -0.00   0.00    -0.00  -0.00   0.00    -0.00   0.00   0.00
 140   6    -0.01   0.01   0.00    -0.00   0.00   0.00    -0.00   0.00   0.00
 141   1    -0.06  -0.06   0.07    -0.01  -0.01   0.01     0.00   0.00  -0.00
 142   1    -0.21   0.09   0.09    -0.03   0.01   0.01     0.00  -0.00  -0.00
 143   1    -0.27   0.70  -0.23    -0.04   0.11  -0.04     0.00  -0.00   0.00
 144   1     0.04  -0.02  -0.02     0.01  -0.00  -0.00     0.01  -0.00  -0.00
 145   6    -0.00  -0.00   0.00     0.00  -0.00   0.00    -0.00  -0.00   0.00
 146   6    -0.06   0.06   0.07    -0.00   0.00   0.01    -0.00   0.00   0.00
 147   6     0.00   0.01  -0.00     0.00   0.00  -0.00    -0.00  -0.00   0.00
 148   7     0.00  -0.00  -0.00     0.00  -0.00   0.00     0.00   0.00  -0.00
 149   6    -0.00  -0.00   0.00    -0.00   0.00   0.00    -0.00  -0.00  -0.00
 150   6    -0.00   0.02  -0.00    -0.00   0.00  -0.00    -0.00   0.00   0.00
 151   1     0.19  -0.20  -0.25     0.01  -0.01  -0.02     0.00  -0.00  -0.00
 152   1     0.00  -0.02   0.00     0.00  -0.00   0.00    -0.00   0.00  -0.00
 153   1     0.00  -0.00  -0.00     0.00  -0.00  -0.00     0.00   0.00  -0.00
 154   1     0.00  -0.05   0.00     0.00  -0.02   0.00     0.00  -0.01   0.00
                    454                    455                    456
                        a                      a                      a 
 Frequencies --  3120.0834              3120.8696              3121.6279
 Red. masses --     1.8605                 1.8598                 1.8540
 Frc consts  --     0.0000                 0.0000                 0.0000
 IR Inten    --     0.0625                 0.0631                 0.0755
 Raman Activ --     0.0000                 0.0000                 0.0000
 Depolar     --     0.0000                 0.0000                 0.0000
 Atom AN      X      Y      Z        X      Y      Z        X      Y      Z
   1  46     0.00  -0.00  -0.00     0.00   0.00  -0.00    -0.00   0.00   0.00
   2  46    -0.00  -0.00   0.00     0.00   0.00   0.00     0.00   0.00  -0.00
   3   6     0.00   0.00  -0.00    -0.00  -0.00   0.00    -0.00  -0.00   0.00
   4   6    -0.00  -0.00   0.00     0.00   0.00  -0.00     0.00   0.00  -0.00
   5   6    -0.00   0.00  -0.00    -0.00  -0.00   0.00    -0.00  -0.00   0.00
   6   6     0.00  -0.00  -0.00    -0.00   0.00   0.00    -0.00   0.00   0.00
   7   6     0.00   0.00  -0.00    -0.00  -0.00   0.00    -0.00  -0.00   0.00
   8   6     0.00   0.00  -0.00    -0.00  -0.00   0.00    -0.00  -0.00   0.00
   9   6    -0.00   0.00  -0.00     0.00  -0.00  -0.00     0.00  -0.00  -0.00
  10   6     0.00   0.00  -0.00    -0.00  -0.00   0.00    -0.00  -0.00   0.00
  11   6    -0.00   0.00  -0.00    -0.00   0.00  -0.00    -0.00   0.00   0.00
  12   7    -0.00  -0.00   0.00    -0.00   0.00   0.00    -0.00   0.00  -0.00
  13   6    -0.00  -0.00   0.00     0.00  -0.00  -0.00     0.00   0.00  -0.00
  14   6     0.00  -0.00   0.00    -0.00  -0.00   0.00    -0.00   0.00   0.00
  15   1    -0.00   0.00   0.00     0.00  -0.00  -0.00     0.00  -0.00  -0.00
  16   1    -0.00  -0.00   0.00     0.00   0.00  -0.00     0.00   0.00  -0.00
  17   1    -0.00  -0.00   0.00     0.00   0.00  -0.00     0.00   0.00  -0.00
  18   1    -0.00  -0.00   0.00     0.00   0.00  -0.00     0.00   0.00  -0.00
  19   1     0.00  -0.00  -0.00     0.00  -0.00  -0.00     0.00  -0.00  -0.00
  20   1     0.00   0.00  -0.00     0.00   0.00  -0.00     0.00  -0.00   0.00
  21   6    -0.00   0.00  -0.00     0.00   0.00  -0.00     0.00   0.00  -0.00
  22   6     0.00   0.00  -0.00    -0.00  -0.00   0.00    -0.00  -0.00   0.00
  23   6    -0.00   0.00  -0.00    -0.00   0.00  -0.00    -0.00   0.00  -0.00
  24   6     0.00   0.00  -0.00     0.00   0.01  -0.01     0.00   0.01  -0.00
  25   6    -0.00   0.00   0.00    -0.00   0.00   0.00    -0.00   0.00   0.00
  26   6    -0.00   0.00  -0.00    -0.04   0.02  -0.01    -0.02   0.01  -0.00
  27   1    -0.00  -0.00   0.00     0.01   0.00  -0.00     0.01   0.00  -0.00
  28   1     0.00  -0.00   0.00     0.02  -0.01   0.00     0.01  -0.01   0.00
  29   1    -0.00  -0.01   0.01    -0.00  -0.04   0.02    -0.00  -0.03   0.01
  30   1     0.01  -0.00   0.00     0.13  -0.07   0.03     0.06  -0.04   0.02
  31   6     0.00   0.00  -0.00     0.00   0.00  -0.00     0.00   0.00  -0.00
  32   6    -0.02   0.01   0.01    -0.01   0.01   0.01    -0.01   0.01   0.01
  33   6     0.00   0.00   0.00     0.00   0.00   0.00     0.00   0.00   0.00
  34   7     0.00  -0.00  -0.00    -0.00  -0.00  -0.00    -0.00  -0.00  -0.00
  35   6    -0.00   0.00   0.00    -0.02   0.01   0.01    -0.01   0.01   0.01
  36   6     0.01   0.05   0.01     0.03   0.22   0.04     0.02   0.12   0.02
  37   1     0.07  -0.05  -0.03     0.04  -0.03  -0.02     0.04  -0.03  -0.02
  38   1    -0.00  -0.01  -0.00    -0.00  -0.00  -0.00    -0.00  -0.00  -0.00
  39   1     0.01  -0.01  -0.00     0.06  -0.04  -0.03     0.04  -0.02  -0.02
  40   1    -0.02  -0.17  -0.03    -0.09  -0.78  -0.13    -0.05  -0.43  -0.07
  41   6    -0.00  -0.00  -0.00    -0.00  -0.00  -0.00    -0.00  -0.00  -0.00
  42   6     0.00  -0.00  -0.00    -0.00   0.00  -0.00    -0.00   0.00  -0.00
  43   6    -0.00  -0.00  -0.00     0.00   0.00   0.00     0.00   0.00   0.00
  44   6     0.00  -0.00   0.00     0.00   0.00   0.00    -0.00   0.00  -0.00
  45   6     0.00   0.00   0.00    -0.00  -0.00  -0.00    -0.00  -0.00  -0.00
  46   6     0.00   0.00   0.00    -0.00  -0.00  -0.00    -0.00  -0.00  -0.00
  47   6    -0.00   0.00  -0.00     0.00   0.00   0.00     0.00  -0.00   0.00
  48   6     0.00   0.00   0.00    -0.00  -0.00  -0.00    -0.00  -0.00  -0.00
  49   6     0.00   0.00   0.00    -0.00   0.00  -0.00    -0.00   0.00  -0.00
  50   7    -0.00  -0.00  -0.00    -0.00  -0.00  -0.00    -0.00  -0.00  -0.00
  51   6    -0.00  -0.00  -0.00    -0.00  -0.00  -0.00    -0.00  -0.00  -0.00
  52   6    -0.00  -0.00  -0.00    -0.00  -0.00  -0.00    -0.00  -0.00  -0.00
  53   1    -0.00   0.00  -0.00    -0.00   0.00  -0.00     0.00  -0.00   0.00
  54   1    -0.00  -0.00  -0.00     0.00   0.00   0.00     0.00   0.00   0.00
  55   1    -0.00  -0.00  -0.00     0.00   0.00   0.00     0.00   0.00   0.00
  56   1    -0.00  -0.00  -0.00     0.00   0.00   0.00     0.00   0.00   0.00
  57   1    -0.00  -0.00  -0.00     0.00  -0.00   0.00     0.00  -0.00   0.00
  58   1     0.00   0.00   0.00     0.00   0.01   0.00     0.00   0.00   0.00
  59   6    -0.00   0.00  -0.00    -0.00   0.00  -0.00    -0.00   0.00  -0.00
  60   6     0.00   0.00   0.00    -0.00  -0.00  -0.00    -0.00  -0.00  -0.00
  61   6     0.00  -0.00   0.00    -0.00   0.00  -0.00    -0.00   0.00  -0.00
  62   6     0.00   0.00  -0.00     0.00   0.01  -0.00     0.00   0.00  -0.00
  63   6    -0.00  -0.00  -0.00    -0.00  -0.00  -0.00    -0.00  -0.00  -0.00
  64   6    -0.01   0.00  -0.00    -0.03   0.01  -0.01    -0.01   0.01  -0.01
  65   1    -0.00  -0.00  -0.00     0.01   0.00   0.00     0.01   0.00   0.00
  66   1    -0.00   0.00  -0.00     0.01  -0.00   0.00     0.01  -0.00   0.00
  67   1     0.00  -0.00   0.00     0.00  -0.02   0.01     0.00  -0.01   0.00
  68   1     0.02  -0.01   0.01     0.09  -0.04   0.04     0.05  -0.03   0.03
  69   6    -0.00  -0.00  -0.00     0.00   0.00   0.00     0.00   0.00   0.00
  70   6    -0.01   0.00  -0.00    -0.01   0.00  -0.00    -0.00   0.00  -0.00
  71   6     0.00   0.00   0.00    -0.00   0.00   0.00    -0.00   0.00   0.00
  72   7     0.00  -0.00  -0.00     0.00  -0.00  -0.00     0.00  -0.00   0.00
  73   6    -0.00   0.00   0.00    -0.00   0.00  -0.00    -0.00   0.00  -0.00
  74   6    -0.00   0.00   0.00    -0.00   0.01   0.00    -0.00   0.01   0.00
  75   1     0.02  -0.01   0.00     0.03  -0.01   0.00     0.02  -0.01   0.00
  76   1     0.00  -0.00  -0.00     0.00  -0.00  -0.00     0.00  -0.00  -0.00
  77   1     0.00  -0.00   0.00     0.00  -0.00   0.00     0.00  -0.00   0.00
  78   1     0.00  -0.00  -0.00     0.01  -0.03  -0.01     0.01  -0.02  -0.01
  79   6     0.00   0.00   0.00     0.00   0.00   0.00    -0.00  -0.00  -0.00
  80   6    -0.00  -0.00  -0.00    -0.00  -0.00  -0.00     0.00   0.00   0.00
  81   6     0.00  -0.00  -0.00    -0.00   0.00   0.00    -0.00   0.00   0.00
  82   6    -0.00  -0.00  -0.00     0.00   0.00   0.00     0.00   0.00   0.00
  83   6    -0.00   0.00   0.00     0.00  -0.00  -0.00     0.00  -0.00  -0.00
  84   6    -0.00   0.00   0.00     0.00  -0.00  -0.00     0.00  -0.00  -0.00
  85   6     0.00   0.00   0.00    -0.00  -0.00  -0.00    -0.00  -0.00  -0.00
  86   6    -0.00   0.00   0.00     0.00  -0.00  -0.00     0.00  -0.00  -0.00
  87   6     0.00   0.00   0.00    -0.00  -0.00  -0.00     0.00   0.00   0.00
  88   7    -0.00   0.00   0.00    -0.00   0.00   0.00     0.00  -0.00  -0.00
  89   6    -0.00   0.00   0.00    -0.00   0.00   0.00     0.00  -0.00  -0.00
  90   6     0.00   0.00   0.00     0.00   0.00   0.00    -0.00  -0.00  -0.00
  91   1     0.00   0.00   0.00    -0.00  -0.00  -0.00    -0.00  -0.00  -0.00
  92   1     0.00  -0.00  -0.00    -0.00   0.00   0.00    -0.00   0.00   0.00
  93   1     0.00  -0.00  -0.00    -0.00   0.00   0.00    -0.00   0.00   0.00
  94   1     0.00  -0.00  -0.00    -0.00   0.00   0.00    -0.00   0.00   0.00
  95   1    -0.00  -0.00  -0.00     0.00   0.00   0.00    -0.00  -0.00  -0.00
  96   1     0.00  -0.01  -0.00     0.00  -0.00  -0.00    -0.00   0.01   0.01
  97   6    -0.00   0.00  -0.00     0.00   0.00  -0.00     0.00   0.00   0.00
  98   6    -0.00   0.00  -0.00     0.00  -0.00   0.00     0.00  -0.00   0.00
  99   6    -0.00  -0.00  -0.00     0.00   0.00   0.00     0.00   0.00   0.00
 100   6    -0.00  -0.00  -0.00     0.00   0.00   0.00     0.00   0.00   0.00
 101   6    -0.00  -0.00  -0.00    -0.00   0.00  -0.00     0.00  -0.00   0.00
 102   6    -0.00  -0.00  -0.00    -0.00  -0.00  -0.00     0.00   0.00   0.01
 103   1     0.00  -0.00   0.00    -0.00   0.00  -0.00    -0.00   0.00  -0.00
 104   1     0.00   0.00   0.00    -0.00  -0.00  -0.00    -0.00  -0.00  -0.01
 105   1     0.00   0.00   0.00    -0.00  -0.00  -0.00    -0.00  -0.01  -0.00
 106   1     0.00   0.00   0.01     0.00   0.00   0.00    -0.01  -0.00  -0.02
 107   6    -0.00   0.00  -0.00    -0.00  -0.00   0.00    -0.00   0.00  -0.00
 108   6     0.00  -0.00  -0.00    -0.00   0.00   0.00    -0.00   0.00   0.00
 109   6     0.00   0.00  -0.00     0.00  -0.00   0.00     0.00  -0.00   0.00
 110   7    -0.00   0.00   0.00    -0.00   0.00  -0.00    -0.00  -0.00  -0.00
 111   6    -0.00   0.00   0.00     0.00  -0.00   0.00    -0.00   0.00   0.00
 112   6     0.00  -0.00  -0.00     0.00  -0.00  -0.00    -0.00   0.00   0.00
 113   1    -0.00   0.00   0.00     0.00  -0.00  -0.00     0.01  -0.01  -0.00
 114   1    -0.00  -0.00   0.00     0.00   0.00  -0.00     0.00  -0.00  -0.00
 115   1     0.00  -0.00  -0.00    -0.00   0.00  -0.00     0.00  -0.00  -0.00
 116   1    -0.00   0.00   0.01    -0.00   0.00   0.00     0.00  -0.00  -0.00
 117   6     0.00  -0.00   0.00     0.00   0.00  -0.00     0.00  -0.00   0.00
 118   6    -0.00   0.00  -0.00    -0.00  -0.00   0.00     0.00   0.00  -0.00
 119   6     0.00  -0.00   0.00    -0.00   0.00  -0.00    -0.00  -0.00  -0.00
 120   6     0.00  -0.00  -0.00    -0.00   0.00   0.00    -0.00   0.00   0.00
 121   6    -0.00   0.00  -0.00     0.00  -0.00   0.00     0.00  -0.00   0.00
 122   6    -0.00   0.00  -0.00     0.00  -0.00   0.00     0.00  -0.00   0.00
 123   6    -0.00  -0.00   0.00     0.00  -0.00  -0.00     0.00  -0.00  -0.00
 124   6    -0.00   0.00  -0.00     0.00  -0.00   0.00     0.00  -0.00   0.00
 125   6    -0.00  -0.00   0.00     0.00  -0.00  -0.00     0.00   0.00   0.00
 126   7     0.00  -0.00  -0.00    -0.00  -0.00  -0.00    -0.00   0.00   0.00
 127   6     0.00  -0.00   0.00     0.00  -0.00   0.00    -0.00   0.00  -0.00
 128   6    -0.00  -0.00  -0.00    -0.00   0.00  -0.00    -0.00   0.00   0.00
 129   1    -0.00   0.00   0.00     0.00  -0.00  -0.00     0.00  -0.00  -0.00
 130   1     0.00  -0.00   0.00    -0.00   0.00  -0.00    -0.00   0.00  -0.00
 131   1     0.00  -0.00   0.00    -0.00   0.00  -0.00    -0.00   0.00  -0.00
 132   1     0.00  -0.00   0.00    -0.00   0.00  -0.00    -0.00   0.00  -0.00
 133   1    -0.00   0.00   0.00    -0.00   0.00   0.00     0.00  -0.00  -0.00
 134   1    -0.00   0.00  -0.00    -0.00   0.00   0.00     0.00  -0.00   0.00
 135   6     0.00  -0.00   0.00     0.00  -0.00   0.00    -0.00   0.00  -0.00
 136   6    -0.00  -0.00   0.00     0.00   0.00  -0.00    -0.00  -0.00   0.00
 137   6    -0.02   0.01   0.01     0.01  -0.01  -0.00    -0.01   0.01   0.01
 138   6    -0.03   0.08  -0.03     0.02  -0.05   0.02    -0.02   0.05  -0.02
 139   6     0.00   0.00  -0.00    -0.00  -0.00   0.00    -0.00   0.00  -0.00
 140   6     0.02  -0.01  -0.01     0.02  -0.01  -0.01    -0.04   0.02   0.01
 141   1     0.01   0.01  -0.01    -0.01  -0.01   0.01     0.01   0.01  -0.01
 142   1     0.05  -0.02  -0.02    -0.04   0.02   0.02     0.05  -0.02  -0.02
 143   1     0.10  -0.27   0.09    -0.06   0.16  -0.05     0.07  -0.17   0.06
 144   1    -0.06   0.03   0.02    -0.06   0.03   0.02     0.14  -0.06  -0.05
 145   6    -0.00  -0.00   0.01     0.00   0.00  -0.00     0.00   0.00  -0.00
 146   6    -0.11   0.11   0.14     0.05  -0.05  -0.07    -0.05   0.05   0.06
 147   6     0.00   0.02  -0.00    -0.00  -0.01   0.00    -0.00   0.01  -0.00
 148   7     0.00   0.00  -0.00    -0.00   0.00   0.00     0.00  -0.00  -0.00
 149   6     0.01  -0.00  -0.01     0.00  -0.00  -0.00    -0.01   0.01   0.01
 150   6     0.01  -0.14   0.00     0.00  -0.08   0.00    -0.01   0.21  -0.00
 151   1     0.38  -0.39  -0.49    -0.17   0.18   0.23     0.16  -0.17  -0.21
 152   1     0.00  -0.04   0.00    -0.00   0.02  -0.00     0.00  -0.01   0.00
 153   1    -0.02   0.01   0.02    -0.01   0.01   0.01     0.02  -0.02  -0.03
 154   1    -0.03   0.50  -0.00    -0.02   0.29  -0.00     0.05  -0.74   0.01
