      -----------------------------------------------------------      
     |                   =====================                   |     
     |                           x T B                           |     
     |                   =====================                   |     
     |                         S. Grimme                         |     
     |          Mulliken Center for Theoretical Chemistry        |     
     |                    University of Bonn                     |     
     |                Version 6.2 RC2 (SAW190805)                |     
      -----------------------------------------------------------      

   This program is distributed in the hope that it will be useful,
   but WITHOUT ANY WARRANTY; without even the implied warranty of
   MERCHANTABILITY or FITNESS FOR A PARTICULAR PURPOSE.
   
   FOR NON-COMMERCIAL, ACADEMIA USE ONLY.
   
   Cite this work as:
   * S. Grimme, C. Bannwarth, P. Shushkov, J. Chem. Theory Comput., 2017,
     13, 1989-2009. DOI: 10.1021/acs.jctc.7b00118
   * C. Bannwarth, S. Ehlert and S. Grimme., J. Chem. Theory Comput., 2019,
     15, 1652-1671. DOI: 10.1021/acs.jctc.8b01176
   * P. Pracht, E. Caldeweyher, S. Ehlert, S. Grimme, ChemRxiv, 2019, preprint.
     DOI: 10.26434/chemrxiv.8326202.v1
   
   for DFT-D4:
   * E. Caldeweyher, C. Bannwarth and S. Grimme, J. Chem. Phys., 2017,
     147, 034112. DOI: 10.1063/1.4993215
   * E. Caldeweyher, S. Ehlert, A. Hansen, H. Neugebauer, S. Spicher,
     C. Bannwarth and S. Grimme, J. Chem. Phys., 2019, 150, 154122.
     DOI: 10.1063/1.5090222
   
   for sTDA-xTB:
   * S. Grimme and C. Bannwarth, J. Chem. Phys., 2016, 145, 054103.
     DOI: 10.1063/1.4959605
   
   in the mass-spec context:
   * V. Asgeirsson, C. Bauer and S. Grimme, Chem. Sci., 2017, 8, 4879.
     DOI: 10.1039/c7sc00601b
   
   for metadynamics refer to:
   * S. Grimme, J. Chem. Theory Comput., 2019, 155, 2847-2862
     DOI: 10.1021/acs.jctc.9b00143
   
   with help from (in alphabetical order)
   C. Bannwarth, F. Bohle, G. Brandenburg, E. Caldeweyher, M. Checinski,
   S. Dohm, S. Ehlert, S. Ehrlich, F. März, H. Neugebauer, J. Pisarek,
   P. Pracht, P. Shushkov, and S. Spicher.
   
 * started run on 2021/06/21 at 19:24:33.053     

           -------------------------------------------------
          |                Calculation Setup                |
           -------------------------------------------------

          program call               : /home/atarzia/software/xtb-190806/bin/xtb /data/atarzia/projects/unsymm/screening/production/free_energy_calculations/fe_4d2_d/input_structure.xyz --gfn 2 --hess --parallel 6 --etemp 300 --gbsa dmso --chrg 4 --uhf 0 -I det_control.in
          coordinate file            : /data/atarzia/projects/unsymm/screening/production/free_energy_calculations/fe_4d2_d/input_structure.xyz
          omp threads                :                     6
          number of atoms            :                   154
          number of electrons        :                   464
          charge                     :                     4
          spin                       :                   0.0
          first test random number   :      0.16182696155984


molecular fragmentation (1/2 indicates fragments):
111111111111111111111111111111111111111111111111111111111111111111111111
111111111111111111111121111111111111111111212222222222222222222222222222
2222222222
# atoms in fragment 1/2:   114    40
 fragment masses (1/2) :     1129.88      308.38
CMA distance (Bohr)    :  10.205
constraining FC (au)   :  0.0500

########################################################################
# WARNING! Please study the warnings concerning your input carefully
#  - XTBHOME is not set, using HOME instead
#  - XTBPATH is not set, using XTBHOME instead
#  - Process number higher than OMP_NUM_THREADS, I hope you know what you are doing.
########################################################################

           ------------------------------------------------- 
          |                 G F N 2 - x T B                 |
          | Geometry, Frequencies, Noncovalent interactions |
          |            JCTC 2019 parametrisation            |
           ------------------------------------------------- 
             k(s)              :                1.8500
             k(p)              :                2.2300
             k(d)              :                2.2300
             k(f)              :                2.0000
             kEN (H0ij)        :               -2.0000
             D4 a1             :                0.5200
             D4 a2             :                5.0000
             D4 s6             :                1.0000
             D4 s8             :                2.7000
             D4 s9             :                5.0000
             alphaj            :                2.0000

  Z AO/shell   Hii/eV     exponent
  1     Wed Apr 25 08:07:45 CEST 2018   EN: 2.200 GM2: 0.406  GM3: 0.0800  RAES: 1.40
     1s    -10.707211    1.230000
  6     Wed Apr 25 08:07:45 CEST 2018   EN: 2.550 GM2: 0.538  GM3: 0.1500  RAES: 3.00
     2s    -13.970922    2.096432
     2p    -10.063292    1.800000
  7     Wed Apr 25 08:07:45 CEST 2018   EN: 3.040 GM2: 0.461  GM3:-0.0640  RAES: 1.90
     2s    -16.686243    2.339881
     2p    -12.523956    2.014332
 46     Wed Apr 25 16:26:58 CEST 2018   EN: 2.200 GM2: 0.273  GM3: 0.0800  RAES: 5.00
     4d    -11.963518    2.353691
     5s     -9.714059    1.828354
     5p     -2.035281    1.333352

 Solvent             : dmso
 Using internal parameter file: .param_gbsa2_dmso
 Gsolv ref. state (COSMO-RS): gsolv [1 M gas/solution]
 temperature (mdtemp)       :    298.150000000000     
 dielectric constant        :    46.6800000000000     
 rho                        :    1.10000000000000     
 mass                       :    78.1300000000000     
 surface tension            :    15.5689454083859     
 probe radius               :   0.949087640000000     
 vdW radii scaling          :    1.00000000000000     
 Gshift (Eh)                :   5.161738145414381E-003
 c1                         :    1.63948621000000     
 soset                      :   1.179665000000000E-002
 HB correction              :  T
           ------------------------------------------------- 
          |        Self-Consistent Charge Iterations        |
           ------------------------------------------------- 

          ...................................................
          :                      SETUP                      :
          :.................................................:
          :  # basis functions                 460          :
          :  # atomic orbitals                 458          :
          :  # shells                          254          :
          :  # electrons                       464          :
          :  max. iterations                   250          :
          :  Hamiltonian                  GFN2-xTB          :
          :  restarted?                      false          :
          :  GBSA solvation                   true          :
          :  PC potential                    false          :
          :  electronic temp.          300.0000000     K    :
          :  accuracy                    1.0000000          :
          :  -> integral cutoff          0.2500000E+02      :
          :  -> integral neglect         0.1000000E-07      :
          :  -> SCF convergence          0.1000000E-05 Eh   :
          :  -> wf. convergence          0.1000000E-03 e    :
          :  Broyden damping             0.4000000          :
          ...................................................

 iter      E             dE          RMSdq      gap      omega  full diag
   1   -252.1371821 -0.252137E+03  0.576E+00    2.17       0.0  T
   2   -252.5598403 -0.422658E+00  0.379E+00    1.16       1.0  T
   3   -252.4002878  0.159552E+00  0.203E+00    1.81       1.0  T
   4   -252.7122799 -0.311992E+00  0.930E-01    1.76       1.0  T
   5   -252.7900767 -0.777969E-01  0.351E-01    1.87       1.0  T
   6   -252.7957922 -0.571545E-02  0.182E-01    1.93       1.0  T
   7   -252.7958952 -0.102956E-03  0.100E-01    1.95       1.0  T
   8   -252.7962395 -0.344373E-03  0.475E-02    1.94       1.0  T
   9   -252.7964981 -0.258605E-03  0.191E-02    1.94       1.0  T
  10   -252.7965262 -0.280896E-04  0.879E-03    1.94       1.0  T
  11   -252.7965271 -0.853069E-06  0.546E-03    1.94       1.5  T
  12   -252.7965281 -0.103213E-05  0.328E-03    1.94       2.5  T
  13   -252.7965289 -0.806391E-06  0.180E-03    1.94       4.5  T
  14   -252.7965291 -0.170307E-06  0.931E-04    1.94       8.7  T
  15   -252.7965291 -0.464631E-07  0.479E-04    1.94      16.8  T

   *** convergence criteria satisfied after 15 iterations ***

         #    Occupation            Energy/Eh            Energy/eV
      -------------------------------------------------------------
         1        2.0000           -0.7324671             -19.9314
       ...           ...                  ...                  ...
       226        2.0000           -0.4232404             -11.5170
       227        2.0000           -0.4210462             -11.4572
       228        2.0000           -0.4196085             -11.4181
       229        2.0000           -0.4058076             -11.0426
       230        2.0000           -0.4053707             -11.0307
       231        2.0000           -0.4023669             -10.9490
       232        2.0000           -0.4018398             -10.9346 (HOMO)
       233                         -0.3306260              -8.9968 (LUMO)
       234                         -0.3293626              -8.9624
       235                         -0.3266364              -8.8882
       236                         -0.3254914              -8.8571
       237                         -0.3218865              -8.7590
       ...                                ...                  ...
       458                          1.4895331              40.5323
      -------------------------------------------------------------
                  HL-Gap            0.0712138 Eh            1.9378 eV
             Fermi-level           -0.3662329 Eh           -9.9657 eV

 SCC (total)                   0 d,  0 h,  0 min,  1.872 sec
 SCC setup                      ...        0 min,  0.088 sec (  4.721%)
 Dispersion                     ...        0 min,  0.046 sec (  2.435%)
 integral evaluation            ...        0 min,  0.247 sec ( 13.218%)
 zeroth order Hamiltonian       ...        0 min,  0.004 sec (  0.203%)
 iterations                     ...        0 min,  1.266 sec ( 67.666%)
 molecular gradient             ...        0 min,  0.215 sec ( 11.462%)
 printout                       ...        0 min,  0.005 sec (  0.292%)

         :::::::::::::::::::::::::::::::::::::::::::::::::::::
         ::                     SUMMARY                     ::
         :::::::::::::::::::::::::::::::::::::::::::::::::::::
         :: total energy            -248.225124679845 Eh    ::
         :: total w/o Gsasa/hb      -248.123395134236 Eh    ::
         :: gradient norm              0.000575284054 Eh/a0 ::
         :: HOMO-LUMO gap              1.937827436364 eV    ::
         ::.................................................::
         :: SCC energy              -252.884071602054 Eh    ::
         :: -> isotropic ES            0.655504849564 Eh    ::
         :: -> anisotropic ES         -0.088452324714 Eh    ::
         :: -> anisotropic XC          0.171261396060 Eh    ::
         :: -> dispersion             -0.249586618964 Eh    ::
         :: -> Gsolv                  -0.660964011765 Eh    ::
         ::    -> Gborn               -0.559234466156 Eh    ::
         ::    -> Gsasa               -0.092704207225 Eh    ::
         ::    -> Ghb                 -0.014187076530 Eh    ::
         ::    -> Gshift               0.005161738145 Eh    ::
         :: repulsion energy           4.652136020235 Eh    ::
         :: add. restraining           0.000000000000 Eh    ::
         :::::::::::::::::::::::::::::::::::::::::::::::::::::

           ------------------------------------------------- 
          |                Numerical Hessian                |
           ------------------------------------------------- 
step length          :   0.00500
SCC accuracy         :   0.30000
Hessian scale factor :   1.00000
frozen atoms in %    :   0.00000    0
RMS gradient         :   0.00058
estimated CPU  time     79.77 min
estimated wall time     20.07 min

writing file <hessian>.

 projected vibrational frequencies (cm-1)
eigval :       -0.00    -0.00    -0.00     0.00     0.00     0.00
eigval :        8.49     8.76    11.74    15.13    15.53    17.94
eigval :       19.12    24.70    27.55    31.90    35.73    36.76
eigval :       41.06    41.49    43.53    45.85    55.82    57.27
eigval :       58.74    61.62    65.04    68.85    70.83    71.87
eigval :       72.77    82.63    84.52    88.42    89.58    91.60
eigval :       95.37   105.10   106.28   118.59   120.81   121.03
eigval :      124.24   128.08   130.66   133.07   140.20   141.93
eigval :      143.76   150.37   156.32   158.02   159.30   161.85
eigval :      164.53   166.08   168.87   175.83   186.14   188.23
eigval :      197.03   202.59   208.75   209.81   212.31   217.10
eigval :      219.05   223.23   229.66   233.00   243.02   245.74
eigval :      253.72   254.50   272.90   274.75   281.90   283.51
eigval :      288.75   292.03   295.59   297.09   331.05   332.41
eigval :      333.47   333.57   339.74   341.99   343.45   345.13
eigval :      347.68   350.25   351.65   355.06   355.61   359.54
eigval :      363.32   364.11   370.26   374.66   397.00   397.16
eigval :      397.43   398.80   403.77   407.69   420.54   422.96
eigval :      426.37   428.06   441.19   441.47   448.53   448.92
eigval :      472.54   472.81   473.88   474.15   475.13   475.79
eigval :      483.82   485.41   496.21   496.88   498.61   500.65
eigval :      505.51   506.97   507.89   508.94   518.64   518.67
eigval :      520.27   520.92   532.82   533.36   534.44   534.70
eigval :      577.37   577.64   581.72   582.62   583.28   584.50
eigval :      586.73   587.35   598.12   598.60   603.92   605.30
eigval :      619.40   620.07   621.49   622.07   623.90   625.01
eigval :      628.96   632.86   653.62   654.28   654.85   655.71
eigval :      670.06   670.94   671.52   673.35   696.64   697.58
eigval :      702.31   702.52   725.36   725.43   725.87   726.24
eigval :      736.17   736.55   738.59   738.87   770.52   771.27
eigval :      772.92   773.74   777.69   778.61   779.26   780.98
eigval :      797.32   797.51   801.56   801.81   807.43   808.46
eigval :      810.49   814.15   817.77   818.60   821.53   822.00
eigval :      847.14   847.76   849.48   849.61   853.73   854.44
eigval :      856.97   859.26   861.00   862.13   862.96   863.32
eigval :      863.95   865.96   869.10   869.59   889.58   890.08
eigval :      891.60   892.81   893.07   894.06   894.70   896.00
eigval :      897.32   898.61   898.79   899.69   900.78   901.84
eigval :      902.23   902.51   902.65   902.81   903.28   903.71
eigval :      913.57   914.57   915.52   915.89   934.87   935.23
eigval :      935.67   935.93   935.94   936.31   936.54   936.72
eigval :      977.02   978.44   978.64   978.79   996.69   997.11
eigval :     1004.21  1005.11  1049.48  1051.06  1051.42  1051.51
eigval :     1060.52  1062.86  1067.28  1070.75  1073.74  1073.91
eigval :     1077.91  1078.31  1084.24  1084.68  1090.89  1093.63
eigval :     1110.63  1110.91  1112.42  1113.20  1115.74  1116.03
eigval :     1116.73  1117.80  1129.03  1131.79  1132.41  1132.61
eigval :     1156.08  1156.99  1164.26  1165.41  1171.43  1171.47
eigval :     1171.78  1172.61  1182.44  1183.86  1184.66  1185.37
eigval :     1189.39  1190.09  1191.16  1191.52  1193.95  1196.65
eigval :     1198.20  1198.43  1211.22  1211.60  1212.58  1213.27
eigval :     1219.99  1222.11  1224.23  1226.42  1237.40  1238.29
eigval :     1242.34  1242.94  1249.27  1251.72  1253.25  1253.61
eigval :     1269.60  1270.27  1271.02  1271.64  1285.62  1286.28
eigval :     1290.72  1292.28  1293.00  1294.36  1296.14  1297.65
eigval :     1315.68  1315.95  1317.07  1317.38  1318.61  1319.10
eigval :     1320.48  1322.53  1351.18  1352.13  1354.18  1355.21
eigval :     1367.38  1368.66  1369.46  1370.65  1372.73  1374.58
eigval :     1378.71  1381.14  1398.15  1398.30  1399.83  1400.34
eigval :     1403.59  1403.77  1404.46  1405.50  1419.17  1419.80
eigval :     1420.64  1421.66  1446.78  1448.02  1448.08  1449.71
eigval :     1463.51  1463.72  1468.76  1469.44  1471.87  1472.22
eigval :     1473.37  1474.36  1511.59  1511.95  1518.37  1519.64
eigval :     1525.78  1525.94  1528.12  1528.44  1545.84  1546.31
eigval :     1548.13  1548.34  1554.62  1554.75  1555.82  1556.17
eigval :     1560.87  1561.10  1561.89  1562.72  1567.80  1567.94
eigval :     1571.32  1572.47  1575.45  1575.77  1576.59  1577.20
eigval :     2293.03  2293.18  2299.04  2301.05  2888.01  2896.43
eigval :     2896.74  2903.74  2909.79  2916.68  2949.82  2954.41
eigval :     3027.84  3031.68  3047.38  3049.90  3053.88  3055.01
eigval :     3068.21  3070.15  3089.32  3089.46  3091.17  3091.70
eigval :     3094.67  3094.74  3097.04  3097.17  3101.81  3102.02
eigval :     3103.58  3104.17  3104.74  3105.61  3106.34  3106.89
eigval :     3107.68  3108.72  3109.59  3109.68  3109.94  3110.17
eigval :     3110.43  3110.64  3111.32  3111.75  3111.87  3112.33
eigval :     3112.53  3112.67  3114.09  3116.22  3117.66  3117.73
eigval :     3119.36  3120.50  3120.87  3121.65  3121.69  3124.96
           -------------------------------------------------
          |                Property Printout                |
           -------------------------------------------------

    * Orbital Energies and Occupations

         #    Occupation            Energy/Eh            Energy/eV
      -------------------------------------------------------------
         1        2.0000           -0.7324703             -19.9315
       ...           ...                  ...                  ...
       220        2.0000           -0.4295142             -11.6877
       221        2.0000           -0.4288292             -11.6690
       222        2.0000           -0.4275615             -11.6345
       223        2.0000           -0.4262647             -11.5993
       224        2.0000           -0.4255195             -11.5790
       225        2.0000           -0.4249985             -11.5648
       226        2.0000           -0.4232424             -11.5170
       227        2.0000           -0.4210484             -11.4573
       228        2.0000           -0.4196110             -11.4182
       229        2.0000           -0.4058132             -11.0427
       230        2.0000           -0.4053759             -11.0308
       231        2.0000           -0.4023695             -10.9490
       232        2.0000           -0.4018424             -10.9347 (HOMO)
       233                         -0.3306299              -8.9969 (LUMO)
       234                         -0.3293666              -8.9625
       235                         -0.3266405              -8.8883
       236                         -0.3254957              -8.8572
       237                         -0.3218889              -8.7590
       238                         -0.3215321              -8.7493
       239                         -0.3160796              -8.6010
       240                         -0.3150099              -8.5719
       241                         -0.2991894              -8.1414
       242                         -0.2974580              -8.0942
       243                         -0.2888748              -7.8607
       ...                                ...                  ...
       458                          1.4895296              40.5322
      -------------------------------------------------------------
                  HL-Gap            0.0712125 Eh            1.9378 eV
             Fermi-level           -0.3662361 Eh           -9.9658 eV

     #   Z        covCN         q      C6AA      α(0)
     1  46 Pd     3.811    -0.132   369.658    35.191
     2  46 Pd     3.808    -0.135   369.544    35.196
     3   6 C      1.982    -0.017    31.512     9.065
     4   6 C      1.982    -0.032    31.905     9.122
     5   6 C      2.964     0.045    26.995     8.522
     6   6 C      2.929    -0.021    28.526     8.759
     7   6 C      2.914    -0.015    28.386     8.737
     8   6 C      2.915    -0.030    28.741     8.791
     9   6 C      2.990     0.028    27.365     8.581
    10   6 C      2.912    -0.031    28.765     8.795
    11   6 C      2.971     0.052    26.827     8.496
    12   7 N      2.664    -0.085    22.903     7.108
    13   6 C      2.881     0.058    26.701     8.471
    14   6 C      2.983    -0.004    28.110     8.697
    15   1 H      0.926     0.065     2.136     2.285
    16   1 H      0.926     0.058     2.219     2.329
    17   1 H      0.926     0.065     2.144     2.290
    18   1 H      0.926     0.092     1.863     2.134
    19   1 H      0.924     0.139     1.466     1.893
    20   1 H      0.925     0.120     1.611     1.985
    21   6 C      2.969     0.041    27.075     8.535
    22   6 C      2.925    -0.020    28.513     8.757
    23   6 C      2.916    -0.025    28.618     8.772
    24   6 C      2.921    -0.024    28.611     8.772
    25   6 C      2.973     0.001    28.000     8.680
    26   6 C      2.934    -0.039    28.965     8.826
    27   1 H      0.926     0.050     2.323     2.383
    28   1 H      0.926     0.045     2.379     2.412
    29   1 H      0.926     0.059     2.208     2.324
    30   1 H      0.926     0.082     1.953     2.186
    31   6 C      2.980     0.033    27.253     8.563
    32   6 C      2.920    -0.041    29.015     8.833
    33   6 C      2.958     0.053    26.798     8.491
    34   7 N      2.665    -0.081    22.825     7.096
    35   6 C      2.885     0.061    26.640     8.462
    36   6 C      2.918    -0.028    28.700     8.785
    37   1 H      0.926     0.120     1.612     1.985
    38   1 H      0.924     0.155     1.358     1.822
    39   1 H      0.925     0.121     1.608     1.983
    40   1 H      0.926     0.093     1.846     2.125
    41   6 C      1.983    -0.018    31.525     9.067
    42   6 C      1.983    -0.032    31.904     9.122
    43   6 C      2.965     0.045    26.989     8.521
    44   6 C      2.929    -0.021    28.527     8.759
    45   6 C      2.914    -0.015    28.386     8.737
    46   6 C      2.915    -0.030    28.741     8.791
    47   6 C      2.990     0.028    27.364     8.581
    48   6 C      2.912    -0.030    28.750     8.792
    49   6 C      2.976     0.051    26.844     8.499
    50   7 N      2.664    -0.076    22.730     7.081
    51   6 C      2.880     0.057    26.727     8.475
    52   6 C      2.983    -0.003    28.097     8.695
    53   1 H      0.926     0.065     2.144     2.290
    54   1 H      0.926     0.058     2.223     2.331
    55   1 H      0.926     0.065     2.143     2.289
    56   1 H      0.926     0.092     1.860     2.132
    57   1 H      0.924     0.141     1.451     1.884
    58   1 H      0.925     0.125     1.573     1.961
    59   6 C      2.969     0.041    27.070     8.534
    60   6 C      2.926    -0.020    28.513     8.757
    61   6 C      2.916    -0.025    28.622     8.773
    62   6 C      2.922    -0.025    28.621     8.773
    63   6 C      2.973     0.001    27.993     8.679
    64   6 C      2.933    -0.038    28.949     8.824
    65   1 H      0.926     0.050     2.322     2.383
    66   1 H      0.926     0.046     2.375     2.410
    67   1 H      0.926     0.059     2.212     2.326
    68   1 H      0.926     0.084     1.936     2.176
    69   6 C      2.980     0.034    27.242     8.561
    70   6 C      2.918    -0.029    28.714     8.787
    71   6 C      2.885     0.062    26.614     8.458
    72   7 N      2.666    -0.087    22.950     7.115
    73   6 C      2.963     0.055    26.773     8.487
    74   6 C      2.920    -0.040    28.986     8.829
    75   1 H      0.926     0.093     1.853     2.129
    76   1 H      0.925     0.119     1.618     1.989
    77   1 H      0.924     0.156     1.350     1.817
    78   1 H      0.926     0.118     1.629     1.996
    79   6 C      1.983    -0.016    31.477     9.060
    80   6 C      1.986    -0.032    31.908     9.122
    81   6 C      2.964     0.043    27.044     8.530
    82   6 C      2.934    -0.020    28.511     8.757
    83   6 C      2.913    -0.014    28.367     8.734
    84   6 C      2.916    -0.028    28.706     8.786
    85   6 C      2.991     0.026    27.418     8.589
    86   6 C      2.912    -0.031    28.771     8.795
    87   6 C      3.021     0.059    26.649     8.468
    88   7 N      2.646    -0.133    23.896     7.260
    89   6 C      2.878     0.060    26.656     8.464
    90   6 C      2.981    -0.016    28.398     8.741
    91   1 H      0.926     0.068     2.103     2.268
    92   1 H      0.926     0.062     2.174     2.306
    93   1 H      0.926     0.068     2.103     2.268
    94   1 H      0.926     0.095     1.829     2.115
    95   1 H      0.924     0.139     1.468     1.895
    96   1 H      0.925     0.117     1.634     1.999
    97   6 C      2.969     0.034    27.226     8.559
    98   6 C      2.926    -0.020    28.503     8.755
    99   6 C      2.917    -0.025    28.623     8.773
   100   6 C      2.921    -0.022    28.553     8.763
   101   6 C      2.973    -0.006    28.161     8.705
   102   6 C      2.935    -0.041    29.030     8.836
   103   1 H      0.926     0.053     2.282     2.362
   104   1 H      0.926     0.049     2.330     2.387
   105   1 H      0.926     0.057     2.240     2.341
   106   1 H      0.926     0.085     1.925     2.170
   107   6 C      2.981     0.023    27.487     8.600
   108   6 C      2.918    -0.036    28.884     8.813
   109   6 C      2.892     0.057    26.718     8.475
   110   7 N      2.637    -0.131    23.858     7.254
   111   6 C      3.088     0.062    26.505     8.439
   112   6 C      2.919    -0.040    28.992     8.830
   113   1 H      0.926     0.080     1.978     2.199
   114   1 H      0.925     0.100     1.781     2.087
   115   1 H      0.924     0.141     1.454     1.885
   116   1 H      0.926     0.114     1.664     2.017
   117   6 C      1.983    -0.016    31.467     9.059
   118   6 C      1.985    -0.032    31.899     9.121
   119   6 C      2.964     0.043    27.035     8.529
   120   6 C      2.933    -0.020    28.501     8.755
   121   6 C      2.913    -0.014    28.360     8.733
   122   6 C      2.916    -0.028    28.699     8.785
   123   6 C      2.991     0.026    27.404     8.587
   124   6 C      2.912    -0.031    28.761     8.794
   125   6 C      3.015     0.061    26.615     8.462
   126   7 N      2.644    -0.148    24.216     7.308
   127   6 C      2.878     0.062    26.618     8.458
   128   6 C      2.981    -0.016    28.407     8.743
   129   1 H      0.926     0.069     2.097     2.264
   130   1 H      0.926     0.063     2.170     2.303
   131   1 H      0.926     0.069     2.100     2.266
   132   1 H      0.926     0.095     1.828     2.115
   133   1 H      0.924     0.140     1.464     1.892
   134   1 H      0.925     0.114     1.663     2.017
   135   6 C      2.969     0.034    27.227     8.559
   136   6 C      2.927    -0.020    28.502     8.755
   137   6 C      2.916    -0.025    28.621     8.773
   138   6 C      2.921    -0.022    28.550     8.762
   139   6 C      2.973    -0.006    28.158     8.704
   140   6 C      2.934    -0.041    29.028     8.836
   141   1 H      0.926     0.053     2.280     2.361
   142   1 H      0.926     0.049     2.331     2.388
   143   1 H      0.926     0.056     2.242     2.341
   144   1 H      0.926     0.086     1.918     2.166
   145   6 C      2.981     0.023    27.480     8.599
   146   6 C      2.919    -0.040    29.002     8.831
   147   6 C      3.076     0.061    26.555     8.449
   148   7 N      2.640    -0.124    23.707     7.231
   149   6 C      2.892     0.056    26.745     8.479
   150   6 C      2.918    -0.035    28.879     8.812
   151   1 H      0.926     0.115     1.650     2.009
   152   1 H      0.924     0.143     1.443     1.879
   153   1 H      0.925     0.101     1.776     2.084
   154   1 H      0.926     0.080     1.979     2.200

 Mol. C6AA /au·bohr⁶  :     386725.962771
 Mol. C8AA /au·bohr⁸  :   11102981.176943
 Mol. α(0) /au        :       1014.868088


Wiberg/Mayer (AO) data.
largest (>0.10) Wiberg bond orders for each atom
          total WBO             WBO to atom ...
     1  Pd  3.564        N   34 0.650    N   50 0.626    N  126 0.537    N  110 0.511    C  111 0.145    C  125 0.124    C   33 0.118    C   49 0.115
     2  Pd  3.571        N   72 0.641    N   12 0.614    N   88 0.549    N  148 0.523    C  147 0.144    C   87 0.126    C   73 0.122    C   11 0.112
     3  C   3.942        C    4 2.641    C   21 1.128
     4  C   3.952        C    3 2.641    C    5 1.141
     5  C   3.983        C    6 1.441    C   14 1.204    C    4 1.141
     6  C   3.968        C    5 1.441    C    7 1.352    H   15 0.967
     7  C   3.982        C    8 1.517    C    6 1.352    H   16 0.967
     8  C   3.947        C    7 1.517    C    9 1.295    H   17 0.965
     9  C   3.987        C    8 1.295    C   10 1.269    C   14 1.231
    10  C   3.978        C   11 1.557    C    9 1.269    H   18 0.959    C   13 0.102
    11  C   3.970        C   10 1.557    N   12 1.237    H   19 0.880    Pd   2 0.112
    12  N   3.544        C   13 1.438    C   11 1.237    Pd   2 0.614
    13  C   3.965        N   12 1.438    C   14 1.312    H   20 0.924    C   10 0.102
    14  C   3.979        C   13 1.312    C    9 1.231    C    5 1.204
    15  H   0.995        C    6 0.967
    16  H   0.995        C    7 0.967
    17  H   0.995        C    8 0.965
    18  H   0.990        C   10 0.959
    19  H   0.980        C   11 0.880
    20  H   0.984        C   13 0.924
    21  C   3.988        C   26 1.372    C   22 1.343    C    3 1.128
    22  C   3.963        C   23 1.450    C   21 1.343    H   27 0.970
    23  C   3.989        C   22 1.450    C   24 1.442    H   28 0.969
    24  C   3.952        C   23 1.442    C   25 1.367    H   29 0.966
    25  C   3.986        C   26 1.386    C   24 1.367    C   31 1.071
    26  C   3.967        C   25 1.386    C   21 1.372    H   30 0.961
    27  H   0.997        C   22 0.970
    28  H   0.996        C   23 0.969
    29  H   0.996        C   24 0.966
    30  H   0.993        C   26 0.961
    31  C   3.979        C   36 1.379    C   32 1.346    C   25 1.071
    32  C   3.977        C   33 1.485    C   31 1.346    H   37 0.951
    33  C   3.965        C   32 1.485    N   34 1.306    H   38 0.878    Pd   1 0.118
    34  N   3.560        C   35 1.356    C   33 1.306    Pd   1 0.650
    35  C   3.962        C   36 1.444    N   34 1.356    H   39 0.929
    36  C   3.981        C   35 1.444    C   31 1.379    H   40 0.958
    37  H   0.985        C   32 0.951
    38  H   0.975        C   33 0.878
    39  H   0.984        C   35 0.929
    40  H   0.990        C   36 0.958
    41  C   3.942        C   42 2.641    C   59 1.128
    42  C   3.952        C   41 2.641    C   43 1.142
    43  C   3.983        C   44 1.440    C   52 1.205    C   42 1.142
    44  C   3.967        C   43 1.440    C   45 1.353    H   53 0.967
    45  C   3.982        C   46 1.517    C   44 1.353    H   54 0.967
    46  C   3.947        C   45 1.517    C   47 1.295    H   55 0.965
    47  C   3.987        C   46 1.295    C   48 1.268    C   52 1.232
    48  C   3.978        C   49 1.559    C   47 1.268    H   56 0.959    C   51 0.102
    49  C   3.971        C   48 1.559    N   50 1.234    H   57 0.877    Pd   1 0.115
    50  N   3.551        C   51 1.440    C   49 1.234    Pd   1 0.626
    51  C   3.963        N   50 1.440    C   52 1.310    H   58 0.925    C   48 0.102
    52  C   3.979        C   51 1.310    C   47 1.232    C   43 1.205
    53  H   0.995        C   44 0.967
    54  H   0.995        C   45 0.967
    55  H   0.995        C   46 0.965
    56  H   0.990        C   48 0.959
    57  H   0.979        C   49 0.877
    58  H   0.983        C   51 0.925
    59  C   3.988        C   64 1.373    C   60 1.342    C   41 1.128
    60  C   3.962        C   61 1.450    C   59 1.342    H   65 0.970
    61  C   3.989        C   60 1.450    C   62 1.442    H   66 0.968
    62  C   3.952        C   61 1.442    C   63 1.365    H   67 0.965
    63  C   3.986        C   64 1.385    C   62 1.365    C   69 1.074
    64  C   3.966        C   63 1.385    C   59 1.373    H   68 0.960
    65  H   0.997        C   60 0.970
    66  H   0.996        C   61 0.968
    67  H   0.996        C   62 0.965
    68  H   0.993        C   64 0.960
    69  C   3.980        C   70 1.377    C   74 1.344    C   63 1.074
    70  C   3.981        C   71 1.445    C   69 1.377    H   75 0.958
    71  C   3.962        C   70 1.445    N   72 1.357    H   76 0.928
    72  N   3.555        C   71 1.357    C   73 1.305    Pd   2 0.641
    73  C   3.964        C   74 1.486    N   72 1.305    H   77 0.873    Pd   2 0.122
    74  C   3.977        C   73 1.486    C   69 1.344    H   78 0.951
    75  H   0.990        C   70 0.958
    76  H   0.984        C   71 0.928
    77  H   0.975        C   73 0.873
    78  H   0.985        C   74 0.951
    79  C   3.941        C   80 2.635    C   97 1.129
    80  C   3.949        C   79 2.635    C   81 1.142
    81  C   3.983        C   82 1.433    C   90 1.209    C   80 1.142
    82  C   3.974        C   81 1.433    C   83 1.357    H   91 0.966
    83  C   3.981        C   84 1.512    C   82 1.357    H   92 0.967
    84  C   3.946        C   83 1.512    C   85 1.299    H   93 0.965
    85  C   3.987        C   84 1.299    C   86 1.265    C   90 1.230
    86  C   3.977        C   87 1.561    C   85 1.265    H   94 0.958    C   89 0.101
    87  C   3.972        C   86 1.561    N   88 1.226    H   95 0.870    Pd   2 0.126
    88  N   3.481        C   89 1.446    C   87 1.226    Pd   2 0.549
    89  C   3.962        N   88 1.446    C   90 1.310    H   96 0.933    C   86 0.101
    90  C   3.979        C   89 1.310    C   85 1.230    C   81 1.209
    91  H   0.995        C   82 0.966
    92  H   0.994        C   83 0.967
    93  H   0.994        C   84 0.965
    94  H   0.990        C   86 0.958
    95  H   0.980        C   87 0.870
    96  H   0.985        C   89 0.933
    97  C   3.987        C  102 1.373    C   98 1.339    C   79 1.129
    98  C   3.969        C   99 1.453    C   97 1.339    H  103 0.969
    99  C   3.989        C   98 1.453    C  100 1.440    H  104 0.968
   100  C   3.951        C   99 1.440    C  101 1.368    H  105 0.965
   101  C   3.986        C  102 1.383    C  100 1.368    C  107 1.073
   102  C   3.965        C  101 1.383    C   97 1.373    H  106 0.959
   103  H   0.997        C   98 0.969
   104  H   0.996        C   99 0.968
   105  H   0.997        C  100 0.965
   106  H   0.993        C  102 0.959
   107  C   3.978        C  108 1.375    C  112 1.344    C  101 1.073
   108  C   3.983        C  109 1.447    C  107 1.375    H  113 0.959
   109  C   3.967        C  108 1.447    N  110 1.358    H  114 0.941
   110  N   3.418        C  109 1.358    C  111 1.294    Pd   1 0.511
   111  C   3.969        C  112 1.468    N  110 1.294    H  115 0.890    Pd   1 0.145
   112  C   3.979        C  111 1.468    C  107 1.344    H  116 0.952
   113  H   0.993        C  108 0.959
   114  H   0.989        C  109 0.941
   115  H   0.979        C  111 0.890
   116  H   0.987        C  112 0.952
   117  C   3.941        C  118 2.635    C  135 1.129
   118  C   3.950        C  117 2.635    C  119 1.143
   119  C   3.983        C  120 1.434    C  128 1.207    C  118 1.143
   120  C   3.974        C  119 1.434    C  121 1.356    H  129 0.966
   121  C   3.981        C  122 1.512    C  120 1.356    H  130 0.967
   122  C   3.946        C  121 1.512    C  123 1.299    H  131 0.965
   123  C   3.987        C  122 1.299    C  124 1.266    C  128 1.229
   124  C   3.977        C  125 1.561    C  123 1.266    H  132 0.958    C  127 0.100
   125  C   3.971        C  124 1.561    N  126 1.227    H  133 0.872    Pd   1 0.124
   126  N   3.468        C  127 1.442    C  125 1.227    Pd   1 0.537
   127  C   3.963        N  126 1.442    C  128 1.312    H  134 0.933    C  124 0.100
   128  C   3.979        C  127 1.312    C  123 1.229    C  119 1.207
   129  H   0.994        C  120 0.966
   130  H   0.994        C  121 0.967
   131  H   0.994        C  122 0.965
   132  H   0.990        C  124 0.958
   133  H   0.980        C  125 0.872
   134  H   0.986        C  127 0.933
   135  C   3.987        C  140 1.373    C  136 1.339    C  117 1.129
   136  C   3.969        C  137 1.453    C  135 1.339    H  141 0.969
   137  C   3.989        C  136 1.453    C  138 1.440    H  142 0.968
   138  C   3.951        C  137 1.440    C  139 1.369    H  143 0.965
   139  C   3.986        C  140 1.383    C  138 1.369    C  145 1.073
   140  C   3.965        C  139 1.383    C  135 1.373    H  144 0.959
   141  H   0.997        C  136 0.969
   142  H   0.996        C  137 0.968
   143  H   0.997        C  138 0.965
   144  H   0.993        C  140 0.959
   145  C   3.978        C  150 1.376    C  146 1.343    C  139 1.073
   146  C   3.979        C  147 1.470    C  145 1.343    H  151 0.952
   147  C   3.968        C  146 1.470    N  148 1.294    H  152 0.888    Pd   2 0.144
   148  N   3.430        C  149 1.359    C  147 1.294    Pd   2 0.523
   149  C   3.967        C  150 1.446    N  148 1.359    H  153 0.941
   150  C   3.983        C  149 1.446    C  145 1.376    H  154 0.959
   151  H   0.986        C  146 0.952
   152  H   0.979        C  147 0.888
   153  H   0.989        C  149 0.941
   154  H   0.993        C  150 0.959

molecular dipole:
                 x           y           z       tot (Debye)
 q only:        1.117      -5.402       1.421
   full:        0.765      -5.403       1.059      14.128
molecular quadrupole (traceless):
                xx          xy          yy          xz          yz          zz
 q only:     -112.579     -14.790     222.253      66.441       2.339    -109.673
  q+dip:     -126.712     -11.079     250.148      87.765      -3.184    -123.436
   full:     -114.072     -16.681     225.363      76.735       3.206    -111.291

           -------------------------------------------------
          |               Frequency Printout                |
           -------------------------------------------------
 projected vibrational frequencies (cm-1)
eigval :       -0.00    -0.00    -0.00     0.00     0.00     0.00
eigval :        8.49     8.76    11.74    15.13    15.53    17.94
eigval :       19.12    24.70    27.55    31.90    35.73    36.76
eigval :       41.06    41.49    43.53    45.85    55.82    57.27
eigval :       58.74    61.62    65.04    68.85    70.83    71.87
eigval :       72.77    82.63    84.52    88.42    89.58    91.60
eigval :       95.37   105.10   106.28   118.59   120.81   121.03
eigval :      124.24   128.08   130.66   133.07   140.20   141.93
eigval :      143.76   150.37   156.32   158.02   159.30   161.85
eigval :      164.53   166.08   168.87   175.83   186.14   188.23
eigval :      197.03   202.59   208.75   209.81   212.31   217.10
eigval :      219.05   223.23   229.66   233.00   243.02   245.74
eigval :      253.72   254.50   272.90   274.75   281.90   283.51
eigval :      288.75   292.03   295.59   297.09   331.05   332.41
eigval :      333.47   333.57   339.74   341.99   343.45   345.13
eigval :      347.68   350.25   351.65   355.06   355.61   359.54
eigval :      363.32   364.11   370.26   374.66   397.00   397.16
eigval :      397.43   398.80   403.77   407.69   420.54   422.96
eigval :      426.37   428.06   441.19   441.47   448.53   448.92
eigval :      472.54   472.81   473.88   474.15   475.13   475.79
eigval :      483.82   485.41   496.21   496.88   498.61   500.65
eigval :      505.51   506.97   507.89   508.94   518.64   518.67
eigval :      520.27   520.92   532.82   533.36   534.44   534.70
eigval :      577.37   577.64   581.72   582.62   583.28   584.50
eigval :      586.73   587.35   598.12   598.60   603.92   605.30
eigval :      619.40   620.07   621.49   622.07   623.90   625.01
eigval :      628.96   632.86   653.62   654.28   654.85   655.71
eigval :      670.06   670.94   671.52   673.35   696.64   697.58
eigval :      702.31   702.52   725.36   725.43   725.87   726.24
eigval :      736.17   736.55   738.59   738.87   770.52   771.27
eigval :      772.92   773.74   777.69   778.61   779.26   780.98
eigval :      797.32   797.51   801.56   801.81   807.43   808.46
eigval :      810.49   814.15   817.77   818.60   821.53   822.00
eigval :      847.14   847.76   849.48   849.61   853.73   854.44
eigval :      856.97   859.26   861.00   862.13   862.96   863.32
eigval :      863.95   865.96   869.10   869.59   889.58   890.08
eigval :      891.60   892.81   893.07   894.06   894.70   896.00
eigval :      897.32   898.61   898.79   899.69   900.78   901.84
eigval :      902.23   902.51   902.65   902.81   903.28   903.71
eigval :      913.57   914.57   915.52   915.89   934.87   935.23
eigval :      935.67   935.93   935.94   936.31   936.54   936.72
eigval :      977.02   978.44   978.64   978.79   996.69   997.11
eigval :     1004.21  1005.11  1049.48  1051.06  1051.42  1051.51
eigval :     1060.52  1062.86  1067.28  1070.75  1073.74  1073.91
eigval :     1077.91  1078.31  1084.24  1084.68  1090.89  1093.63
eigval :     1110.63  1110.91  1112.42  1113.20  1115.74  1116.03
eigval :     1116.73  1117.80  1129.03  1131.79  1132.41  1132.61
eigval :     1156.08  1156.99  1164.26  1165.41  1171.43  1171.47
eigval :     1171.78  1172.61  1182.44  1183.86  1184.66  1185.37
eigval :     1189.39  1190.09  1191.16  1191.52  1193.95  1196.65
eigval :     1198.20  1198.43  1211.22  1211.60  1212.58  1213.27
eigval :     1219.99  1222.11  1224.23  1226.42  1237.40  1238.29
eigval :     1242.34  1242.94  1249.27  1251.72  1253.25  1253.61
eigval :     1269.60  1270.27  1271.02  1271.64  1285.62  1286.28
eigval :     1290.72  1292.28  1293.00  1294.36  1296.14  1297.65
eigval :     1315.68  1315.95  1317.07  1317.38  1318.61  1319.10
eigval :     1320.48  1322.53  1351.18  1352.13  1354.18  1355.21
eigval :     1367.38  1368.66  1369.46  1370.65  1372.73  1374.58
eigval :     1378.71  1381.14  1398.15  1398.30  1399.83  1400.34
eigval :     1403.59  1403.77  1404.46  1405.50  1419.17  1419.80
eigval :     1420.64  1421.66  1446.78  1448.02  1448.08  1449.71
eigval :     1463.51  1463.72  1468.76  1469.44  1471.87  1472.22
eigval :     1473.37  1474.36  1511.59  1511.95  1518.37  1519.64
eigval :     1525.78  1525.94  1528.12  1528.44  1545.84  1546.31
eigval :     1548.13  1548.34  1554.62  1554.75  1555.82  1556.17
eigval :     1560.87  1561.10  1561.89  1562.72  1567.80  1567.94
eigval :     1571.32  1572.47  1575.45  1575.77  1576.59  1577.20
eigval :     2293.03  2293.18  2299.04  2301.05  2888.01  2896.43
eigval :     2896.74  2903.74  2909.79  2916.68  2949.82  2954.41
eigval :     3027.84  3031.68  3047.38  3049.90  3053.88  3055.01
eigval :     3068.21  3070.15  3089.32  3089.46  3091.17  3091.70
eigval :     3094.67  3094.74  3097.04  3097.17  3101.81  3102.02
eigval :     3103.58  3104.17  3104.74  3105.61  3106.34  3106.89
eigval :     3107.68  3108.72  3109.59  3109.68  3109.94  3110.17
eigval :     3110.43  3110.64  3111.32  3111.75  3111.87  3112.33
eigval :     3112.53  3112.67  3114.09  3116.22  3117.66  3117.73
eigval :     3119.36  3120.50  3120.87  3121.65  3121.69  3124.96
 reduced masses (amu)
   1: 23.19   2: 16.95   3: 23.17   4: 25.43   5: 23.24   6: 21.98   7: 13.00   8: 11.84
   9: 16.92  10: 19.90  11: 16.24  12: 11.92  13: 13.83  14: 33.49  15: 22.27  16: 15.37
  17: 11.76  18: 13.14  19: 12.90  20: 12.22  21: 11.77  22: 13.00  23: 25.90  24: 13.36
  25: 14.81  26: 14.01  27: 12.90  28: 12.04  29: 12.24  30: 11.93  31: 12.96  32: 13.22
  33: 11.67  34: 12.81  35: 14.01  36: 12.88  37: 14.58  38: 14.34  39: 16.96  40: 13.81
  41: 14.09  42: 13.13  43: 14.36  44: 13.80  45: 12.86  46: 14.36  47: 13.09  48: 14.63
  49: 17.86  50: 12.83  51: 21.94  52: 17.34  53: 17.89  54: 15.14  55: 12.47  56: 13.67
  57: 14.24  58: 20.63  59: 23.55  60: 28.56  61: 16.68  62: 16.96  63: 20.20  64: 12.39
  65: 23.56  66: 36.45  67: 35.10  68: 15.14  69: 25.41  70: 24.61  71: 24.58  72: 28.86
  73: 19.34  74: 20.89  75: 14.51  76: 17.14  77: 15.13  78: 12.74  79: 15.57  80: 21.40
  81: 25.37  82: 22.99  83: 11.03  84: 11.18  85: 11.82  86: 11.79  87: 11.57  88: 10.92
  89: 12.08  90: 11.76  91: 11.62  92: 13.04  93: 11.54  94: 12.79  95: 12.83  96: 10.98
  97: 14.98  98: 14.13  99: 13.31 100: 12.92 101:  9.80 102:  9.64 103:  9.83 104:  9.98
 105: 10.94 106: 11.08 107: 10.47 108: 10.46 109: 11.07 110: 11.10 111: 10.44 112: 10.39
 113: 11.58 114: 11.64 115: 11.06 116: 11.16 117: 11.09 118: 11.14 119: 11.22 120: 11.25
 121: 11.29 122: 11.28 123: 12.55 124: 12.61 125: 11.79 126: 11.42 127: 10.69 128: 10.96
 129: 10.95 130: 10.92 131: 11.35 132: 11.36 133: 11.31 134: 11.27 135: 10.22 136: 10.23
 137: 10.25 138: 10.28 139: 12.39 140: 12.36 141: 10.75 142: 11.04 143: 11.38 144: 11.41
 145: 11.08 146: 10.84 147: 12.26 148: 12.27 149: 11.63 150: 11.66 151: 11.38 152: 11.40
 153: 11.44 154: 11.44 155: 11.60 156: 11.60 157: 11.47 158: 11.52 159:  9.13 160:  9.18
 161:  9.18 162:  9.21 163: 11.31 164: 11.39 165: 11.40 166: 11.37 167: 10.78 168: 10.80
 169: 11.08 170: 11.09 171: 10.63 172: 10.61 173: 10.79 174: 10.78 175: 11.35 176: 11.35
 177: 11.41 178: 11.41 179:  3.73 180:  3.72 181:  3.73 182:  3.68 183:  4.10 184:  4.14
 185:  4.14 186:  4.21 187: 11.41 188: 11.43 189: 11.26 190: 11.38 191:  5.39 192:  5.24
 193:  5.23 194:  5.13 195:  4.13 196:  4.14 197:  4.20 198:  4.14 199:  9.79 200: 10.34
 201: 10.04 202:  9.91 203:  3.92 204:  4.12 205:  3.97 206:  3.99 207:  4.03 208:  4.04
 209:  4.35 210:  4.19 211:  4.07 212:  4.26 213:  4.30 214:  4.36 215:  7.66 216:  7.38
 217:  6.14 218:  3.60 219:  3.56 220:  3.78 221:  4.78 222:  7.65 223:  8.57 224:  4.80
 225:  5.78 226:  4.79 227:  4.11 228:  4.04 229:  4.62 230:  4.18 231:  4.09 232:  4.51
 233:  4.40 234:  4.83 235:  4.05 236:  3.86 237:  3.84 238:  4.05 239:  3.59 240:  3.59
 241:  3.73 242:  3.73 243:  3.72 244:  3.63 245:  3.68 246:  3.59 247: 11.30 248: 11.31
 249: 11.24 250: 11.24 251: 11.32 252: 11.33 253: 11.24 254: 11.27 255: 10.72 256: 10.67
 257: 10.69 258: 10.49 259:  7.52 260:  7.53 261:  7.41 262:  7.41 263:  5.70 264:  5.74
 265:  5.02 266:  5.03 267:  8.31 268:  8.32 269:  9.20 270:  9.04 271:  6.00 272:  5.98
 273:  5.76 274:  5.64 275:  3.99 276:  4.03 277:  3.98 278:  3.79 279:  4.62 280:  4.64
 281:  4.64 282:  4.64 283:  3.18 284:  3.15 285:  3.70 286:  3.65 287:  3.90 288:  3.99
 289:  3.91 290:  3.50 291:  2.07 292:  1.98 293:  1.95 294:  1.91 295:  3.85 296:  4.03
 297:  3.94 298:  3.98 299:  2.29 300:  2.12 301:  2.10 302:  2.06 303:  5.49 304:  5.56
 305:  5.49 306:  5.69 307:  5.45 308:  4.86 309:  4.98 310:  4.68 311:  3.30 312:  3.32
 313:  3.37 314:  3.36 315:  4.95 316:  4.89 317:  4.90 318:  4.97 319:  6.06 320:  5.79
 321:  5.76 322:  5.70 323: 10.97 324: 11.13 325:  8.80 326:  9.04 327:  9.50 328:  8.58
 329: 10.60 330: 10.93 331: 10.36 332: 10.67 333: 11.24 334: 11.73 335: 10.81 336: 11.15
 337: 10.28 338: 10.25 339: 10.41 340: 10.39 341: 10.36 342: 10.50 343:  9.67 344:  9.53
 345:  9.41 346:  9.22 347: 10.11 348:  9.93 349: 10.25 350: 10.20 351: 10.98 352: 10.92
 353: 11.02 354: 11.07 355:  9.84 356:  9.86 357:  9.93 358:  9.91 359: 10.07 360: 10.07
 361:  9.96 362:  9.90 363: 11.03 364: 10.96 365: 11.02 366: 10.83 367: 10.98 368: 10.99
 369: 10.90 370: 11.10 371: 10.22 372: 10.21 373: 10.27 374: 10.46 375: 11.92 376: 11.93
 377: 12.04 378: 12.03 379: 11.75 380: 11.75 381: 11.82 382: 11.82 383: 11.43 384: 11.43
 385: 11.43 386: 11.44 387: 11.49 388: 11.49 389: 11.51 390: 11.50 391: 11.48 392: 11.48
 393: 11.48 394: 11.47 395: 11.49 396: 11.49 397: 11.55 398: 11.52 399: 11.55 400: 11.55
 401: 11.56 402: 11.56 403: 12.01 404: 12.01 405: 12.01 406: 12.01 407:  1.87 408:  1.86
 409:  1.87 410:  1.87 411:  1.86 412:  1.86 413:  1.85 414:  1.85 415:  1.83 416:  1.84
 417:  1.85 418:  1.84 419:  1.83 420:  1.83 421:  1.83 422:  1.83 423:  1.78 424:  1.78
 425:  1.78 426:  1.78 427:  1.78 428:  1.78 429:  1.78 430:  1.78 431:  1.84 432:  1.85
 433:  1.84 434:  1.84 435:  1.84 436:  1.84 437:  1.84 438:  1.84 439:  1.89 440:  1.88
 441:  1.86 442:  1.90 443:  1.90 444:  1.87 445:  1.89 446:  1.88 447:  1.83 448:  1.86
 449:  1.86 450:  1.89 451:  1.87 452:  1.90 453:  1.85 454:  1.83 455:  1.84 456:  1.83
 457:  1.85 458:  1.84 459:  1.86 460:  1.85 461:  1.85 462:  1.85
 IR intensities (amu)
   1:  0.55   2:  0.22   3:  0.40   4:  0.82   5:  0.55   6:  0.48   7:  0.36   8:  0.14
   9:  0.42  10:  0.32  11:  0.25  12:  0.19  13:  0.06  14:  0.09  15:  0.15  16:  0.10
  17:  0.02  18:  0.17  19:  0.10  20:  0.07  21:  0.03  22:  0.04  23:  0.05  24:  0.16
  25:  0.05  26:  0.12  27:  0.21  28:  0.15  29:  0.12  30:  0.10  31:  0.13  32:  0.25
  33:  0.06  34:  0.13  35:  0.09  36:  0.12  37:  0.22  38:  0.23  39:  0.20  40:  0.27
  41:  0.13  42:  0.21  43:  0.25  44:  0.20  45:  0.06  46:  0.06  47:  0.14  48:  0.18
  49:  0.12  50:  0.35  51:  0.41  52:  0.28  53:  0.14  54:  0.25  55:  0.08  56:  0.34
  57:  0.20  58:  0.39  59:  0.69  60:  0.61  61:  0.14  62:  0.38  63:  0.74  64:  0.11
  65:  0.65  66:  0.54  67:  0.51  68:  0.16  69:  0.81  70:  0.50  71:  0.74  72:  0.76
  73:  0.45  74:  0.49  75:  0.14  76:  0.40  77:  0.39  78:  0.25  79:  0.72  80:  0.65
  81:  0.57  82:  0.65  83:  0.14  84:  0.16  85:  0.26  86:  0.23  87:  0.22  88:  0.11
  89:  0.30  90:  0.25  91:  0.22  92:  0.32  93:  0.23  94:  0.30  95:  0.22  96:  0.27
  97:  0.76  98:  0.45  99:  0.30 100:  0.20 101:  0.07 102:  0.07 103:  0.08 104:  0.26
 105:  0.18 106:  0.28 107:  0.18 108:  0.18 109:  0.35 110:  0.28 111:  0.12 112:  0.13
 113:  0.20 114:  0.22 115:  0.07 116:  0.17 117:  0.19 118:  0.25 119:  0.07 120:  0.08
 121:  0.06 122:  0.15 123:  0.35 124:  0.38 125:  0.61 126:  0.24 127:  0.12 128:  0.28
 129:  0.22 130:  0.19 131:  0.15 132:  0.14 133:  0.07 134:  0.09 135:  0.08 136:  0.12
 137:  0.11 138:  0.28 139:  0.65 140:  0.55 141:  0.11 142:  0.13 143:  0.18 144:  0.12
 145:  0.31 146:  0.03 147:  0.58 148:  0.61 149:  0.17 150:  0.33 151:  0.07 152:  0.07
 153:  0.08 154:  0.10 155:  0.23 156:  0.23 157:  0.19 158:  0.20 159:  0.10 160:  0.05
 161:  0.04 162:  0.03 163:  0.18 164:  0.07 165:  0.08 166:  0.10 167:  0.10 168:  0.14
 169:  0.39 170:  0.30 171:  0.09 172:  0.09 173:  0.12 174:  0.15 175:  0.50 176:  0.23
 177:  0.34 178:  0.23 179:  0.05 180:  0.07 181:  0.06 182:  0.06 183:  0.39 184:  0.20
 185:  0.21 186:  0.26 187:  0.42 188:  0.54 189:  0.38 190:  0.51 191:  0.12 192:  0.09
 193:  0.13 194:  0.18 195:  0.36 196:  0.34 197:  0.14 198:  0.19 199:  0.04 200:  0.14
 201:  0.22 202:  0.28 203:  0.04 204:  0.08 205:  0.05 206:  0.19 207:  0.23 208:  0.25
 209:  0.18 210:  0.17 211:  0.18 212:  0.19 213:  0.12 214:  0.09 215:  0.26 216:  0.35
 217:  0.24 218:  0.06 219:  0.06 220:  0.07 221:  0.11 222:  0.24 223:  0.14 224:  0.12
 225:  0.15 226:  0.22 227:  0.11 228:  0.08 229:  0.19 230:  0.08 231:  0.08 232:  0.07
 233:  0.09 234:  0.15 235:  0.05 236:  0.09 237:  0.09 238:  0.05 239:  0.08 240:  0.10
 241:  0.04 242:  0.03 243:  0.02 244:  0.07 245:  0.06 246:  0.09 247:  0.19 248:  0.05
 249:  0.20 250:  0.26 251:  0.51 252:  0.58 253:  0.38 254:  0.35 255:  0.26 256:  0.51
 257:  0.31 258:  0.20 259:  0.56 260:  0.58 261:  0.39 262:  0.34 263:  0.53 264:  0.59
 265:  0.25 266:  0.15 267:  0.38 268:  0.30 269:  0.40 270:  0.41 271:  0.37 272:  0.33
 273:  0.33 274:  0.32 275:  0.15 276:  0.15 277:  0.39 278:  0.19 279:  0.20 280:  0.31
 281:  0.23 282:  0.23 283:  0.59 284:  0.46 285:  0.48 286:  0.20 287:  0.14 288:  0.17
 289:  0.12 290:  0.13 291:  0.11 292:  0.15 293:  0.10 294:  0.06 295:  0.31 296:  0.32
 297:  0.10 298:  0.72 299:  0.33 300:  0.45 301:  0.45 302:  0.35 303:  0.28 304:  0.20
 305:  0.25 306:  0.09 307:  0.26 308:  0.17 309:  0.24 310:  0.22 311:  0.06 312:  0.10
 313:  0.12 314:  0.12 315:  0.63 316:  0.61 317:  0.49 318:  0.74 319:  0.58 320:  0.54
 321:  0.50 322:  0.51 323:  0.34 324:  0.38 325:  0.31 326:  0.81 327:  0.12 328:  0.04
 329:  0.35 330:  0.34 331:  0.58 332:  0.24 333:  0.33 334:  0.14 335:  0.39 336:  0.25
 337:  0.33 338:  0.30 339:  0.61 340:  0.57 341:  0.19 342:  1.59 343:  0.79 344:  0.42
 345:  0.61 346:  1.05 347:  0.62 348:  0.08 349:  0.76 350:  0.34 351:  1.38 352:  1.77
 353:  0.43 354:  0.89 355:  0.13 356:  0.24 357:  0.21 358:  0.19 359:  0.24 360:  0.14
 361:  0.22 362:  0.88 363:  0.83 364:  0.97 365:  0.89 366:  0.22 367:  0.51 368:  0.54
 369:  0.10 370:  0.08 371:  0.50 372:  0.56 373:  0.38 374:  0.42 375:  0.32 376:  0.21
 377:  0.16 378:  0.14 379:  1.03 380:  0.89 381:  1.42 382:  0.87 383:  1.44 384:  2.60
 385:  1.45 386:  2.19 387:  1.70 388:  1.21 389:  0.84 390:  0.36 391:  0.38 392:  0.82
 393:  0.36 394:  1.25 395:  0.54 396:  0.78 397:  0.71 398:  0.62 399:  0.19 400:  0.42
 401:  0.53 402:  0.73 403:  0.76 404:  1.76 405:  1.30 406:  1.33 407:  0.18 408:  0.07
 409:  0.11 410:  0.11 411:  0.15 412:  0.14 413:  0.10 414:  0.10 415:  0.11 416:  0.10
 417:  0.02 418:  0.02 419:  0.15 420:  0.12 421:  0.09 422:  0.09 423:  0.18 424:  0.17
 425:  0.17 426:  0.21 427:  0.12 428:  0.13 429:  0.12 430:  0.12 431:  0.20 432:  0.22
 433:  0.17 434:  0.15 435:  0.14 436:  0.17 437:  0.13 438:  0.13 439:  0.36 440:  0.32
 441:  0.08 442:  0.33 443:  0.30 444:  0.06 445:  0.20 446:  0.49 447:  0.06 448:  0.14
 449:  0.14 450:  0.30 451:  0.20 452:  0.34 453:  0.06 454:  0.04 455:  0.06 456:  0.03
 457:  0.03 458:  0.03 459:  0.02 460:  0.07 461:  0.06 462:  0.06
 Raman intensities (amu)
   1:  0.00   2:  0.00   3:  0.00   4:  0.00   5:  0.00   6:  0.00   7:  0.00   8:  0.00
   9:  0.00  10:  0.00  11:  0.00  12:  0.00  13:  0.00  14:  0.00  15:  0.00  16:  0.00
  17:  0.00  18:  0.00  19:  0.00  20:  0.00  21:  0.00  22:  0.00  23:  0.00  24:  0.00
  25:  0.00  26:  0.00  27:  0.00  28:  0.00  29:  0.00  30:  0.00  31:  0.00  32:  0.00
  33:  0.00  34:  0.00  35:  0.00  36:  0.00  37:  0.00  38:  0.00  39:  0.00  40:  0.00
  41:  0.00  42:  0.00  43:  0.00  44:  0.00  45:  0.00  46:  0.00  47:  0.00  48:  0.00
  49:  0.00  50:  0.00  51:  0.00  52:  0.00  53:  0.00  54:  0.00  55:  0.00  56:  0.00
  57:  0.00  58:  0.00  59:  0.00  60:  0.00  61:  0.00  62:  0.00  63:  0.00  64:  0.00
  65:  0.00  66:  0.00  67:  0.00  68:  0.00  69:  0.00  70:  0.00  71:  0.00  72:  0.00
  73:  0.00  74:  0.00  75:  0.00  76:  0.00  77:  0.00  78:  0.00  79:  0.00  80:  0.00
  81:  0.00  82:  0.00  83:  0.00  84:  0.00  85:  0.00  86:  0.00  87:  0.00  88:  0.00
  89:  0.00  90:  0.00  91:  0.00  92:  0.00  93:  0.00  94:  0.00  95:  0.00  96:  0.00
  97:  0.00  98:  0.00  99:  0.00 100:  0.00 101:  0.00 102:  0.00 103:  0.00 104:  0.00
 105:  0.00 106:  0.00 107:  0.00 108:  0.00 109:  0.00 110:  0.00 111:  0.00 112:  0.00
 113:  0.00 114:  0.00 115:  0.00 116:  0.00 117:  0.00 118:  0.00 119:  0.00 120:  0.00
 121:  0.00 122:  0.00 123:  0.00 124:  0.00 125:  0.00 126:  0.00 127:  0.00 128:  0.00
 129:  0.00 130:  0.00 131:  0.00 132:  0.00 133:  0.00 134:  0.00 135:  0.00 136:  0.00
 137:  0.00 138:  0.00 139:  0.00 140:  0.00 141:  0.00 142:  0.00 143:  0.00 144:  0.00
 145:  0.00 146:  0.00 147:  0.00 148:  0.00 149:  0.00 150:  0.00 151:  0.00 152:  0.00
 153:  0.00 154:  0.00 155:  0.00 156:  0.00 157:  0.00 158:  0.00 159:  0.00 160:  0.00
 161:  0.00 162:  0.00 163:  0.00 164:  0.00 165:  0.00 166:  0.00 167:  0.00 168:  0.00
 169:  0.00 170:  0.00 171:  0.00 172:  0.00 173:  0.00 174:  0.00 175:  0.00 176:  0.00
 177:  0.00 178:  0.00 179:  0.00 180:  0.00 181:  0.00 182:  0.00 183:  0.00 184:  0.00
 185:  0.00 186:  0.00 187:  0.00 188:  0.00 189:  0.00 190:  0.00 191:  0.00 192:  0.00
 193:  0.00 194:  0.00 195:  0.00 196:  0.00 197:  0.00 198:  0.00 199:  0.00 200:  0.00
 201:  0.00 202:  0.00 203:  0.00 204:  0.00 205:  0.00 206:  0.00 207:  0.00 208:  0.00
 209:  0.00 210:  0.00 211:  0.00 212:  0.00 213:  0.00 214:  0.00 215:  0.00 216:  0.00
 217:  0.00 218:  0.00 219:  0.00 220:  0.00 221:  0.00 222:  0.00 223:  0.00 224:  0.00
 225:  0.00 226:  0.00 227:  0.00 228:  0.00 229:  0.00 230:  0.00 231:  0.00 232:  0.00
 233:  0.00 234:  0.00 235:  0.00 236:  0.00 237:  0.00 238:  0.00 239:  0.00 240:  0.00
 241:  0.00 242:  0.00 243:  0.00 244:  0.00 245:  0.00 246:  0.00 247:  0.00 248:  0.00
 249:  0.00 250:  0.00 251:  0.00 252:  0.00 253:  0.00 254:  0.00 255:  0.00 256:  0.00
 257:  0.00 258:  0.00 259:  0.00 260:  0.00 261:  0.00 262:  0.00 263:  0.00 264:  0.00
 265:  0.00 266:  0.00 267:  0.00 268:  0.00 269:  0.00 270:  0.00 271:  0.00 272:  0.00
 273:  0.00 274:  0.00 275:  0.00 276:  0.00 277:  0.00 278:  0.00 279:  0.00 280:  0.00
 281:  0.00 282:  0.00 283:  0.00 284:  0.00 285:  0.00 286:  0.00 287:  0.00 288:  0.00
 289:  0.00 290:  0.00 291:  0.00 292:  0.00 293:  0.00 294:  0.00 295:  0.00 296:  0.00
 297:  0.00 298:  0.00 299:  0.00 300:  0.00 301:  0.00 302:  0.00 303:  0.00 304:  0.00
 305:  0.00 306:  0.00 307:  0.00 308:  0.00 309:  0.00 310:  0.00 311:  0.00 312:  0.00
 313:  0.00 314:  0.00 315:  0.00 316:  0.00 317:  0.00 318:  0.00 319:  0.00 320:  0.00
 321:  0.00 322:  0.00 323:  0.00 324:  0.00 325:  0.00 326:  0.00 327:  0.00 328:  0.00
 329:  0.00 330:  0.00 331:  0.00 332:  0.00 333:  0.00 334:  0.00 335:  0.00 336:  0.00
 337:  0.00 338:  0.00 339:  0.00 340:  0.00 341:  0.00 342:  0.00 343:  0.00 344:  0.00
 345:  0.00 346:  0.00 347:  0.00 348:  0.00 349:  0.00 350:  0.00 351:  0.00 352:  0.00
 353:  0.00 354:  0.00 355:  0.00 356:  0.00 357:  0.00 358:  0.00 359:  0.00 360:  0.00
 361:  0.00 362:  0.00 363:  0.00 364:  0.00 365:  0.00 366:  0.00 367:  0.00 368:  0.00
 369:  0.00 370:  0.00 371:  0.00 372:  0.00 373:  0.00 374:  0.00 375:  0.00 376:  0.00
 377:  0.00 378:  0.00 379:  0.00 380:  0.00 381:  0.00 382:  0.00 383:  0.00 384:  0.00
 385:  0.00 386:  0.00 387:  0.00 388:  0.00 389:  0.00 390:  0.00 391:  0.00 392:  0.00
 393:  0.00 394:  0.00 395:  0.00 396:  0.00 397:  0.00 398:  0.00 399:  0.00 400:  0.00
 401:  0.00 402:  0.00 403:  0.00 404:  0.00 405:  0.00 406:  0.00 407:  0.00 408:  0.00
 409:  0.00 410:  0.00 411:  0.00 412:  0.00 413:  0.00 414:  0.00 415:  0.00 416:  0.00
 417:  0.00 418:  0.00 419:  0.00 420:  0.00 421:  0.00 422:  0.00 423:  0.00 424:  0.00
 425:  0.00 426:  0.00 427:  0.00 428:  0.00 429:  0.00 430:  0.00 431:  0.00 432:  0.00
 433:  0.00 434:  0.00 435:  0.00 436:  0.00 437:  0.00 438:  0.00 439:  0.00 440:  0.00
 441:  0.00 442:  0.00 443:  0.00 444:  0.00 445:  0.00 446:  0.00 447:  0.00 448:  0.00
 449:  0.00 450:  0.00 451:  0.00 452:  0.00 453:  0.00 454:  0.00 455:  0.00 456:  0.00
 457:  0.00 458:  0.00 459:  0.00 460:  0.00 461:  0.00 462:  0.00
 output can be read by thermo (or use thermo option).
 writing <g98.out> molden fake output.
 recommended (thermochemical) frequency scaling factor: 1.0
           -------------------------------------------------
          |             Thermodynamic Functions             |
           -------------------------------------------------

Molecule has no symmetry elements
It seems to be the C1 point group
c1  symmetry found (for desy threshold:  0.10E+00) used in thermo

          ...................................................
          :                      SETUP                      :
          :.................................................:
          :  # frequencies                         456      :
          :  # imaginary freq.                       0      :
          :  linear?                             false      :
          :  only rotor calc.                    false      :
          :  symmetry                               c1      :
          :  rotational number                       1      :
          :  scaling factor                  1.0000000      :
          :  rotor cutoff                   50.0000000 cm⁻¹ :
          :  imag. cutoff                  -20.0000000 cm⁻¹ :
          :.................................................:

    mode    ω/cm⁻¹     T·S(HO)/kcal·mol⁻¹    T·S(FR)/kcal·mol⁻¹   T·S(vib)
   ------------------------------------------------------------------------
       1      8.49    -2.48535 (  0.08%)    -1.58176 ( 99.92%)    -1.58251
       2      8.76    -2.46697 (  0.09%)    -1.57256 ( 99.91%)    -1.57341
       3     11.74    -2.29366 (  0.30%)    -1.48589 ( 99.70%)    -1.48834
       4     15.13    -2.14306 (  0.83%)    -1.41057 ( 99.17%)    -1.41667
       5     15.53    -2.12759 (  0.92%)    -1.40283 ( 99.08%)    -1.40952
       6     17.94    -2.04246 (  1.63%)    -1.36025 ( 98.37%)    -1.37136
       7     19.12    -2.00467 (  2.09%)    -1.34134 ( 97.91%)    -1.35522
       8     24.70    -1.85313 (  5.62%)    -1.26550 ( 94.38%)    -1.29851
       9     27.55    -1.78841 (  8.44%)    -1.23310 ( 91.56%)    -1.27997
      10     31.90    -1.70168 ( 14.22%)    -1.18966 ( 85.78%)    -1.26246
      11     35.73    -1.63472 ( 20.68%)    -1.15611 ( 79.32%)    -1.25509
      12     36.76    -1.61794 ( 22.60%)    -1.14770 ( 77.40%)    -1.25400
      13     41.06    -1.55255 ( 31.26%)    -1.11490 ( 68.74%)    -1.25171
      14     41.49    -1.54638 ( 32.17%)    -1.11181 ( 67.83%)    -1.25159
      15     43.53    -1.51801 ( 36.49%)    -1.09757 ( 63.51%)    -1.25101
      16     45.85    -1.48741 ( 41.42%)    -1.08222 ( 58.58%)    -1.25005
      17     55.82    -1.37146 ( 60.83%)    -1.02395 ( 39.17%)    -1.23534
      18     57.27    -1.35627 ( 63.26%)    -1.01631 ( 36.74%)    -1.23136
      19     58.74    -1.34139 ( 65.58%)    -1.00882 ( 34.42%)    -1.22691
      20     61.62    -1.31321 ( 69.76%)    -0.99463 ( 30.24%)    -1.21688
      21     65.04    -1.28145 ( 74.12%)    -0.97863 ( 25.88%)    -1.20307
      22     68.85    -1.24803 ( 78.24%)    -0.96177 ( 21.76%)    -1.18574
      23     70.83    -1.23139 ( 80.11%)    -0.95337 ( 19.89%)    -1.17609
      24     71.87    -1.22285 ( 81.02%)    -0.94906 ( 18.98%)    -1.17088
      25     72.77    -1.21559 ( 81.77%)    -0.94539 ( 18.23%)    -1.16633
      26     82.63    -1.14117 ( 88.18%)    -0.90774 ( 11.82%)    -1.11357
      27     84.52    -1.12793 ( 89.09%)    -0.90103 ( 10.91%)    -1.10317
      28     88.42    -1.10161 ( 90.72%)    -0.88768 (  9.28%)    -1.08176
      29     89.58    -1.09394 ( 91.15%)    -0.88379 (  8.85%)    -1.07536
      30     91.60    -1.08097 ( 91.85%)    -0.87720 (  8.15%)    -1.06435
      31     95.37    -1.05746 ( 92.98%)    -0.86524 (  7.02%)    -1.04396
      32    105.10    -1.00100 ( 95.13%)    -0.83646 (  4.87%)    -0.99299
      33    106.28    -0.99456 ( 95.33%)    -0.83317 (  4.67%)    -0.98702
      34    118.59    -0.93117 ( 96.94%)    -0.80069 (  3.06%)    -0.92718
      35    120.81    -0.92049 ( 97.15%)    -0.79520 (  2.85%)    -0.91692
      36    121.03    -0.91943 ( 97.17%)    -0.79466 (  2.83%)    -0.91590
      37    124.24    -0.90437 ( 97.44%)    -0.78690 (  2.56%)    -0.90137
      38    128.08    -0.88690 ( 97.73%)    -0.77790 (  2.27%)    -0.88443
      39    130.66    -0.87545 ( 97.90%)    -0.77198 (  2.10%)    -0.87328
      40    133.07    -0.86499 ( 98.05%)    -0.76657 (  1.95%)    -0.86306
      41    140.20    -0.83517 ( 98.41%)    -0.75111 (  1.59%)    -0.83383
      42    141.93    -0.82815 ( 98.48%)    -0.74747 (  1.52%)    -0.82693
      43    143.76    -0.82089 ( 98.56%)    -0.74369 (  1.44%)    -0.81978
      44    150.37    -0.79532 ( 98.79%)    -0.73036 (  1.21%)    -0.79454
      45    156.32    -0.77334 ( 98.96%)    -0.71886 (  1.04%)    -0.77278
      46    158.02    -0.76726 ( 99.01%)    -0.71567 (  0.99%)    -0.76675
      47    159.30    -0.76269 ( 99.04%)    -0.71328 (  0.96%)    -0.76222
      48    161.85    -0.75375 ( 99.10%)    -0.70857 (  0.90%)    -0.75334
      49    164.53    -0.74450 ( 99.15%)    -0.70371 (  0.85%)    -0.74416
      50    166.08    -0.73922 ( 99.19%)    -0.70092 (  0.81%)    -0.73890
      51    168.87    -0.72988 ( 99.24%)    -0.69600 (  0.76%)    -0.72963
      52    175.83    -0.70729 ( 99.35%)    -0.68403 (  0.65%)    -0.70714
      53    186.14    -0.67559 ( 99.48%)    -0.66715 (  0.52%)    -0.67555
      54    188.23    -0.66940 ( 99.50%)    -0.66384 (  0.50%)    -0.66938
      55    197.03    -0.64421 ( 99.59%)    -0.65031 (  0.41%)    -0.64423
      56    202.59    -0.62894 ( 99.63%)    -0.64207 (  0.37%)    -0.62899
      57    208.75    -0.61257 ( 99.67%)    -0.63319 (  0.33%)    -0.61264
      58    209.81    -0.60982 ( 99.68%)    -0.63169 (  0.32%)    -0.60989
      59    212.31    -0.60337 ( 99.69%)    -0.62818 (  0.31%)    -0.60345
      60    217.10    -0.59128 ( 99.72%)    -0.62157 (  0.28%)    -0.59137
      61    219.05    -0.58645 ( 99.73%)    -0.61892 (  0.27%)    -0.58654
      62    223.23    -0.57626 ( 99.75%)    -0.61332 (  0.25%)    -0.57635
      63    229.66    -0.56101 ( 99.78%)    -0.60491 (  0.22%)    -0.56110
      64    233.00    -0.55328 ( 99.79%)    -0.60063 (  0.21%)    -0.55338
      65    243.02    -0.53091 ( 99.82%)    -0.58816 (  0.18%)    -0.53101
      66    245.74    -0.52502 ( 99.83%)    -0.58485 (  0.17%)    -0.52512
      67    253.72    -0.50822 ( 99.85%)    -0.57539 (  0.15%)    -0.50833
      68    254.50    -0.50662 ( 99.85%)    -0.57449 (  0.15%)    -0.50672
      69    272.90    -0.47042 ( 99.89%)    -0.55381 (  0.11%)    -0.47051
      70    274.75    -0.46694 ( 99.89%)    -0.55180 (  0.11%)    -0.46703
      71    281.90    -0.45382 ( 99.90%)    -0.54419 (  0.10%)    -0.45391
      72    283.51    -0.45093 ( 99.90%)    -0.54251 (  0.10%)    -0.45102
      73    288.75    -0.44163 ( 99.91%)    -0.53707 (  0.09%)    -0.44172
      74    292.03    -0.43594 ( 99.91%)    -0.53373 (  0.09%)    -0.43602
      75    295.59    -0.42985 ( 99.92%)    -0.53014 (  0.08%)    -0.42993
      76    297.09    -0.42733 ( 99.92%)    -0.52865 (  0.08%)    -0.42741
   ------------------------------------------------------------------------

   temp. (K)  partition function   enthalpy   heat capacity  entropy
                                   cal/mol     cal/K/mol   cal/K/mol   J/K/mol
 298.15  VIB  0.921E+39            49992.744    323.981    313.630
         ROT  0.556E+09              888.752      2.981     42.996
         INT  0.512E+48            50881.496    326.962    356.626
         TR   0.528E+29             1481.254      4.968     47.643
         TOT                       52362.7499   331.9305   404.2692  1691.4621

       T/K    H(0)-H(T)+PV         H(T)/Eh          T*S/Eh         G(T)/Eh
   ------------------------------------------------------------------------
    298.15    0.834454E-01    0.122840E+01    0.192081E+00    0.103632E+01
   ------------------------------------------------------------------------

         :::::::::::::::::::::::::::::::::::::::::::::::::::::
         ::                  THERMODYNAMIC                  ::
         :::::::::::::::::::::::::::::::::::::::::::::::::::::
         :: total free energy        -247.188801895602 Eh   ::
         ::.................................................::
         :: total energy             -248.225124983960 Eh   ::
         :: zero point energy           1.144959053750 Eh   ::
         :: G(RRHO) w/o ZPVE           -0.108635965392 Eh   ::
         :: G(RRHO) contrib.            1.036323088358 Eh   ::
         :::::::::::::::::::::::::::::::::::::::::::::::::::::

           -------------------------------------------------
          | TOTAL ENERGY             -248.225124983960 Eh   |
          | TOTAL ENTHALPY           -246.996720576737 Eh   |
          | TOTAL FREE ENERGY        -247.188801895602 Eh   |
          | GRADIENT NORM               0.000575264954 Eh/α |
          | HOMO-LUMO GAP               1.937789812223 eV   |
           -------------------------------------------------

------------------------------------------------------------------------
 * finished run on 2021/06/21 at 19:34:40.814     
------------------------------------------------------------------------
 total:
 * wall-time:     0 d,  0 h, 10 min,  7.761 sec
 *  cpu-time:     0 d,  0 h, 40 min, 12.116 sec
 * ratio c/w:     3.969 speedup
 SCF:
 * wall-time:     0 d,  0 h,  0 min,  1.880 sec
 *  cpu-time:     0 d,  0 h,  0 min,  6.577 sec
 * ratio c/w:     3.499 speedup
 numerical hessian:
 * wall-time:     0 d,  0 h, 10 min,  4.221 sec
 *  cpu-time:     0 d,  0 h, 40 min,  3.880 sec
 * ratio c/w:     3.978 speedup

