 Entering Gaussian System
 *********************************************
 Gaussian 98:
 frequency output generated by the xtb code
 *********************************************
                         Standard orientation:
 --------------------------------------------------------------------
  Center     Atomic     Atomic              Coordinates (Angstroms)
  Number     Number      Type              X           Y           Z
 --------------------------------------------------------------------
    1         46             0       -0.206361    7.765000   -0.359613
    2         46             0        0.053370   -5.936800    0.266010
    3          6             0        4.745287   -2.525025    0.053788
    4          6             0        4.534380   -3.085825   -0.997410
    5          6             0        4.354472   -3.849527   -2.170108
    6          6             0        5.242469   -3.761333   -3.224112
    7          6             0        5.141261   -4.625734   -4.321710
    8          6             0        4.186655   -5.611430   -4.367105
    9          6             0        3.255958   -5.733123   -3.319201
   10          6             0        2.267653   -6.741318   -3.260896
   11          6             0        1.396557   -6.787211   -2.209693
   12          7             0        1.398865   -5.851509   -1.225795
   13          6             0        2.315870   -4.901714   -1.244200
   14          6             0        3.305467   -4.814721   -2.232703
   15          1             0        6.036673   -3.031537   -3.190716
   16          1             0        5.850258   -4.527140   -5.129713
   17          1             0        4.143549   -6.302131   -5.194403
   18          1             0        2.215147   -7.478919   -4.045695
   19          1             0        0.656253   -7.574907   -2.122889
   20          1             0        2.292777   -4.153113   -0.456301
   21          6             0        5.100994   -1.916224    1.278386
   22          6             0        5.972294   -2.623728    2.126584
   23          6             0        6.435201   -2.071328    3.300081
   24          6             0        6.014509   -0.788525    3.623480
   25          7             0        6.355016   -0.002825    4.692878
   26          6             0        5.722522    1.202878    4.588078
   27          6             0        5.790031    2.314179    5.420576
   28          6             0        5.053536    3.424782    5.077776
   29          6             0        4.249632    3.437885    3.922679
   30          6             0        4.172223    2.320784    3.090881
   31          6             0        4.914718    1.201980    3.421981
   32          6             0        5.110809   -0.078822    2.795682
   33          6             0        4.651302   -0.644122    1.616485
   34          1             0        6.297787   -3.609830    1.831584
   35          1             0        7.119800   -2.611330    3.935880
   36          1             0        7.017318   -0.252027    5.408576
   37          1             0        6.412434    2.309377    6.302274
   38          1             0        5.091442    4.309783    5.694375
   39          1             0        3.558520    2.340785    2.205383
   40          1             0        3.983303   -0.106319    0.963986
   41          6             0        3.557937    4.610588    3.577080
   42          6             0        3.002341    5.632190    3.242980
   43          6             0        2.384246    6.816192    2.812380
   44          6             0        2.544154    8.031293    3.496577
   45          6             0        1.930158    9.167595    3.004677
   46          6             0        1.166354    9.082797    1.849280
   47          7             0        1.012546    7.924097    1.202383
   48          6             0        1.596641    6.816895    1.656083
   49          1             0        3.144258    8.066691    4.392275
   50          1             0        2.039265   10.114495    3.508175
   51          1             0        0.664457    9.948599    1.425280
   52          1             0        1.441735    5.903994    1.081485
   53          6             0       -0.990057    5.054114    4.876195
   54          6             0       -1.935655    5.671218    4.440697
   55          6             0       -3.024452    6.472923    4.038799
   56          6             0       -4.136949    6.589330    4.851003
   57          6             0       -5.170245    7.478935    4.534305
   58          6             0       -5.094545    8.291433    3.430203
   59          6             0       -3.982448    8.206225    2.573600
   60          6             0       -3.806148    9.036222    1.443698
   61          6             0       -2.699251    8.894415    0.657094
   62          7             0       -1.767655    7.934511    0.887792
   63          6             0       -1.894256    7.148113    1.940494
   64          6             0       -2.955152    7.258820    2.850298
   65          1             0       -4.200049    5.996432    5.750604
   66          1             0       -6.026142    7.539041    5.189208
   67          1             0       -5.874942    9.003536    3.212705
   68          1             0       -4.545645    9.787526    1.217199
   69          1             0       -2.519551    9.543413   -0.194008
   70          1             0       -1.138459    6.382510    2.097793
   71          6             0        0.095942    4.416409    5.516992
   72          6             0        0.649850    5.078108    6.629089
   73          6             0        1.663949    4.511304    7.367286
   74          6             0        2.115541    3.254301    6.988387
   75          7             0        3.061439    2.459597    7.579185
   76          6             0        3.149731    1.280696    6.897187
   77          6             0        3.941726    0.168792    7.159386
   78          6             0        3.832517   -0.912509    6.316588
   79          6             0        2.947814   -0.898206    5.220791
   80          6             0        2.154618    0.217397    4.954592
   81          6             0        2.252927    1.310698    5.797590
   82          6             0        1.581334    2.583302    5.860990
   83          6             0        0.570034    3.171506    5.115792
   84          1             0        0.256856    6.043911    6.908489
   85          1             0        2.077455    5.019003    8.225084
   86          1             0        3.563243    2.684596    8.422283
   87          1             0        4.613229    0.152390    8.004084
   88          1             0        4.421813   -1.798812    6.495588
   89          1             0        1.477716    0.218599    4.116294
   90          1             0        0.139429    2.667107    4.266395
   91          6             0        2.860605   -2.053707    4.426294
   92          6             0        2.796197   -3.085108    3.796796
   93          6             0        2.698888   -4.308709    3.116498
   94          6             0        3.619784   -5.343613    3.344997
   95          6             0        3.462975   -6.546213    2.683199
   96          6             0        2.398371   -6.705809    1.807703
   97          7             0        1.526676   -5.717805    1.587105
   98          6             0        1.659984   -4.548505    2.211602
   99          1             0        4.434387   -5.189916    4.034794
  100          1             0        4.154171   -7.357917    2.842498
  101          1             0        2.230964   -7.633709    1.266606
  102          1             0        0.915887   -3.783501    1.993703
  103          6             0       -5.149014   -3.081972    0.681223
  104          6             0       -4.783613   -3.685472    1.664623
  105          6             0       -4.464914   -4.468772    2.793523
  106          6             0       -5.342110   -4.537465    3.859727
  107          6             0       -5.107611   -5.407865    4.930627
  108          6             0       -4.021815   -6.247970    4.938525
  109          6             0       -3.101019   -6.211377    3.876022
  110          6             0       -1.984224   -7.072183    3.785319
  111          6             0       -1.132227   -6.977389    2.722616
  112          7             0       -1.285025   -6.036290    1.756415
  113          6             0       -2.323121   -5.222185    1.803117
  114          6             0       -3.294618   -5.284078    2.812021
  115          1             0       -6.228607   -3.921961    3.856529
  116          1             0       -5.811808   -5.430760    5.748430
  117          1             0       -3.867316   -6.944870    5.747126
  118          1             0       -1.819325   -7.809683    4.554520
  119          1             0       -0.288931   -7.650894    2.608114
  120          1             0       -2.417620   -4.472486    1.021216
  121          6             0       -5.711014   -2.456471   -0.454276
  122          6             0       -6.807420   -3.104166   -1.054271
  123          6             0       -7.472721   -2.544965   -2.121569
  124          6             0       -7.036516   -1.309468   -2.580773
  125          7             0       -7.552715   -0.524467   -3.577073
  126          6             0       -6.836409    0.634629   -3.654577
  127          6             0       -7.025007    1.732429   -4.486079
  128          6             0       -6.161901    2.795125   -4.355183
  129          6             0       -5.117897    2.776021   -3.409987
  130          6             0       -4.925400    1.674421   -2.576886
  131          6             0       -5.789706    0.600126   -2.696781
  132          6             0       -5.923610   -0.653272   -1.999778
  133          6             0       -5.251610   -1.234174   -0.934480
  134          1             0       -7.133524   -4.052464   -0.654768
  135          1             0       -8.319125   -3.041561   -2.570666
  136          1             0       -8.372018   -0.741063   -4.120169
  137          1             0       -7.830309    1.752932   -5.204376
  138          1             0       -6.284598    3.670524   -4.974384
  139          1             0       -4.126498    1.669518   -1.853889
  140          1             0       -4.414706   -0.740278   -0.468683
  141          6             0       -4.299691    3.913417   -3.305392
  142          6             0       -3.648185    4.930313   -3.230196
  143          6             0       -2.943079    6.139110   -3.124000
  144          6             0       -3.091977    7.155009   -4.081502
  145          6             0       -2.409370    8.344806   -3.916306
  146          6             0       -1.591765    8.510403   -2.807509
  147          7             0       -1.446567    7.540104   -1.900808
  148          6             0       -2.092474    6.383407   -2.041104
  149          1             0       -3.738181    6.997211   -4.930399
  150          1             0       -2.508068    9.141905   -4.635207
  151          1             0       -1.037360    9.428901   -2.632013
  152          1             0       -1.936975    5.632808   -1.267303
  153          6             0        0.185005    4.229990   -4.946608
  154          6             0        1.236809    4.769885   -4.689313
  155          6             0        2.416813    5.508980   -4.460718
  156          6             0        3.517310    5.372072   -5.283722
  157          6             0        4.629215    6.211867   -5.140527
  158          6             0        4.645323    7.220768   -4.209529
  159          6             0        3.549427    7.392076   -3.344225
  160          6             0        3.460636    8.426678   -2.386027
  161          6             0        2.362939    8.520685   -1.578323
  162          7             0        1.357134    7.609290   -1.614518
  163          6             0        1.403326    6.635988   -2.505416
  164          6             0        2.444222    6.499381   -3.433920
  165          1             0        3.510703    4.622671   -6.060320
  166          1             0        5.473612    6.075161   -5.798930
  167          1             0        5.486327    7.891964   -4.135633
  168          1             0        4.259840    9.146274   -2.306431
  169          1             0        2.254346    9.329087   -0.863824
  170          1             0        0.596422    5.907592   -2.509612
  171          6             0       -1.033000    3.642696   -5.356803
  172          6             0       -1.812499    4.348699   -6.291201
  173          6             0       -2.972104    3.813704   -6.806596
  174          6             0       -3.351609    2.550106   -6.374793
  175          7             0       -4.420214    1.782611   -6.756488
  176          6             0       -4.382118    0.590912   -6.090686
  177          6             0       -5.238124   -0.500983   -6.178881
  178          6             0       -4.965927   -1.600783   -5.397880
  179          6             0       -3.858324   -1.621888   -4.529784
  180          6             0       -3.003618   -0.523992   -4.431989
  181          6             0       -3.263515    0.583608   -5.218390
  182          6             0       -2.594209    1.843304   -5.409194
  183          6             0       -1.428405    2.390899   -4.897099
  184          1             0       -1.474495    5.318896   -6.622504
  185          1             0       -3.554404    4.351805   -7.538695
  186          1             0       -5.091015    2.032514   -7.463986
  187          1             0       -6.083026   -0.490280   -6.850078
  188          1             0       -5.602132   -2.471080   -5.449676
  189          1             0       -2.154616   -0.550195   -3.768892
  190          1             0       -0.828505    1.854097   -4.180700
  191          6             0       -3.582328   -2.784988   -3.791983
  192          6             0       -3.306131   -3.799888   -3.193982
  193          6             0       -2.941335   -4.977889   -2.524181
  194          6             0       -3.646242   -6.179686   -2.693776
  195          6             0       -3.219045   -7.311687   -2.025676
  196          6             0       -2.106842   -7.235391   -1.199280
  197          7             0       -1.440336   -6.089094   -1.036484
  198          6             0       -1.831832   -4.986493   -1.672085
  199          1             0       -4.507144   -6.208782   -3.343073
  200          1             0       -3.739551   -8.248584   -2.140673
  201          1             0       -1.734345   -8.098192   -0.653180
  202          1             0       -1.243727   -4.084096   -1.506589
 --------------------------------------------------------------------
     1 basis functions        1 primitive gaussians
     1 alpha electrons        1 beta electrons
 
 Harmonic frequencies (cm**-1), IR intensities (KM/Mole),
 Raman scattering activities (A**4/amu), Raman depolarization ratios,
 reduced masses (AMU), force constants (mDyne/A) and normal coordinates:
                      1                      2                      3
                        a                      a                      a 
 Frequencies --     4.8993                 6.5064                 7.8790
 Red. masses --    17.0860                11.8452                13.2226
 Frc consts  --     0.0000                 0.0000                 0.0000
 IR Inten    --     0.5890                 0.0395                 0.3907
 Raman Activ --     0.0000                 0.0000                 0.0000
 Depolar     --     0.0000                 0.0000                 0.0000
 Atom AN      X      Y      Z        X      Y      Z        X      Y      Z
   1  46    -0.14   0.03   0.09    -0.01  -0.04  -0.00    -0.07  -0.01   0.05
   2  46    -0.10  -0.02   0.13     0.00   0.04   0.03    -0.06   0.02   0.08
   3   6    -0.01  -0.04  -0.02     0.07  -0.06   0.08    -0.03   0.05  -0.02
   4   6    -0.02  -0.05  -0.01     0.09  -0.07   0.09    -0.05   0.05  -0.01
   5   6    -0.03  -0.07   0.00     0.10  -0.08   0.09    -0.06   0.05  -0.01
   6   6    -0.03  -0.09  -0.00     0.14  -0.12   0.12    -0.08   0.07  -0.03
   7   6    -0.04  -0.10   0.01     0.15  -0.13   0.13    -0.09   0.07  -0.03
   8   6    -0.05  -0.10   0.03     0.13  -0.11   0.11    -0.07   0.05  -0.01
   9   6    -0.04  -0.08   0.03     0.09  -0.07   0.08    -0.05   0.04   0.00
  10   6    -0.05  -0.07   0.05     0.06  -0.05   0.06    -0.03   0.02   0.02
  11   6    -0.05  -0.05   0.05     0.03  -0.01   0.04    -0.02   0.01   0.03
  12   7    -0.04  -0.04   0.05     0.03  -0.00   0.03    -0.02   0.01   0.03
  13   6    -0.03  -0.05   0.03     0.05  -0.02   0.04    -0.03   0.02   0.02
  14   6    -0.03  -0.06   0.02     0.08  -0.06   0.07    -0.05   0.04   0.00
  15   1    -0.01  -0.03  -0.00     0.05  -0.04   0.04    -0.03   0.02  -0.01
  16   1    -0.01  -0.03   0.00     0.05  -0.05   0.04    -0.03   0.02  -0.01
  17   1    -0.02  -0.03   0.01     0.04  -0.03   0.03    -0.02   0.02  -0.00
  18   1    -0.02  -0.02   0.02     0.02  -0.02   0.02    -0.01   0.01   0.01
  19   1    -0.01  -0.01   0.02     0.00   0.00   0.01    -0.00  -0.00   0.01
  20   1    -0.01  -0.01   0.01     0.01  -0.00   0.01    -0.01   0.01   0.01
  21   6     0.01  -0.02  -0.03     0.06  -0.04   0.08    -0.01   0.05  -0.02
  22   6     0.03  -0.01  -0.04     0.06  -0.03   0.09     0.00   0.05  -0.04
  23   6     0.06   0.00  -0.06     0.05  -0.01   0.08     0.03   0.05  -0.05
  24   6     0.05   0.00  -0.06     0.05  -0.01   0.07     0.04   0.05  -0.04
  25   7     0.08   0.01  -0.08     0.04   0.01   0.06     0.07   0.06  -0.06
  26   6     0.06   0.01  -0.07     0.03   0.00   0.04     0.06   0.06  -0.04
  27   6     0.07   0.01  -0.08     0.02   0.01   0.03     0.08   0.06  -0.05
  28   6     0.06   0.00  -0.07     0.02   0.01   0.01     0.07   0.06  -0.03
  29   6     0.03  -0.01  -0.05     0.02  -0.01   0.01     0.05   0.06  -0.02
  30   6     0.02  -0.02  -0.04     0.03  -0.02   0.02     0.03   0.05  -0.01
  31   6     0.03  -0.01  -0.05     0.04  -0.02   0.04     0.04   0.05  -0.03
  32   6     0.03  -0.01  -0.04     0.05  -0.02   0.05     0.02   0.05  -0.03
  33   6     0.01  -0.02  -0.03     0.05  -0.04   0.06    -0.00   0.05  -0.02
  34   1     0.01  -0.00  -0.01     0.02  -0.01   0.03    -0.00   0.01  -0.01
  35   1     0.02   0.00  -0.02     0.02   0.00   0.03     0.01   0.01  -0.02
  36   1     0.03   0.01  -0.02     0.01   0.01   0.02     0.02   0.02  -0.02
  37   1     0.03   0.01  -0.03     0.00   0.01   0.01     0.03   0.02  -0.02
  38   1     0.02   0.00  -0.02     0.00   0.00  -0.00     0.02   0.02  -0.01
  39   1    -0.00  -0.01  -0.01     0.01  -0.01   0.00     0.00   0.02  -0.00
  40   1    -0.00  -0.01  -0.01     0.02  -0.01   0.01    -0.00   0.02  -0.00
  41   6     0.01  -0.02  -0.04     0.02  -0.02  -0.01     0.04   0.05  -0.00
  42   6    -0.00  -0.02  -0.02     0.02  -0.02  -0.02     0.03   0.05   0.00
  43   6    -0.02  -0.02   0.00     0.02  -0.02  -0.02     0.01   0.04   0.01
  44   6    -0.02  -0.03   0.01     0.02  -0.02  -0.02     0.01   0.05  -0.00
  45   6    -0.03  -0.02   0.04     0.02  -0.02  -0.02    -0.01   0.04  -0.01
  46   6    -0.05  -0.02   0.05     0.02  -0.02  -0.01    -0.02   0.02   0.00
  47   7    -0.05  -0.01   0.03     0.01  -0.02  -0.01    -0.02   0.02   0.01
  48   6    -0.03  -0.01   0.01     0.01  -0.02  -0.02    -0.00   0.03   0.01
  49   1    -0.00  -0.01   0.00     0.01  -0.01  -0.01     0.01   0.02  -0.00
  50   1    -0.01  -0.01   0.01     0.01  -0.01  -0.01    -0.00   0.01  -0.00
  51   1    -0.02  -0.00   0.02     0.00  -0.01  -0.00    -0.01   0.00   0.00
  52   1    -0.01  -0.00   0.00     0.00  -0.01  -0.00    -0.00   0.01   0.01
  53   6     0.00  -0.06  -0.01     0.06   0.01   0.04     0.06   0.06   0.05
  54   6    -0.02  -0.08  -0.00     0.06   0.01   0.04     0.05   0.06   0.06
  55   6    -0.03  -0.10   0.00     0.06   0.02   0.05     0.05   0.06   0.08
  56   6    -0.04  -0.14  -0.00     0.07   0.03   0.07     0.07   0.08   0.10
  57   6    -0.06  -0.16   0.01     0.07   0.03   0.08     0.06   0.08   0.11
  58   6    -0.07  -0.14   0.02     0.05   0.02   0.07     0.04   0.06   0.09
  59   6    -0.07  -0.10   0.03     0.04   0.01   0.05     0.02   0.03   0.07
  60   6    -0.08  -0.08   0.04     0.02  -0.00   0.04    -0.00   0.01   0.05
  61   6    -0.07  -0.05   0.04     0.01  -0.01   0.03    -0.02  -0.01   0.02
  62   7    -0.06  -0.03   0.03     0.01  -0.02   0.02    -0.02  -0.00   0.02
  63   6    -0.04  -0.05   0.02     0.02  -0.01   0.03     0.00   0.02   0.04
  64   6    -0.05  -0.08   0.02     0.04   0.01   0.04     0.02   0.04   0.06
  65   1    -0.01  -0.05  -0.00     0.02   0.01   0.02     0.03   0.03   0.03
  66   1    -0.02  -0.05   0.00     0.02   0.01   0.03     0.02   0.03   0.04
  67   1    -0.03  -0.04   0.01     0.02   0.01   0.02     0.01   0.02   0.03
  68   1    -0.03  -0.03   0.01     0.01  -0.00   0.01    -0.00   0.00   0.01
  69   1    -0.02  -0.01   0.02    -0.00  -0.01   0.01    -0.01  -0.01   0.00
  70   1    -0.01  -0.01   0.00     0.01  -0.00   0.01     0.00   0.00   0.01
  71   6     0.02  -0.04  -0.03     0.05   0.01   0.04     0.07   0.06   0.03
  72   6     0.04  -0.02  -0.05     0.06   0.00   0.04     0.09   0.06   0.02
  73   6     0.06  -0.00  -0.06     0.06  -0.00   0.04     0.11   0.05  -0.00
  74   6     0.06  -0.00  -0.05     0.05  -0.01   0.03     0.10   0.05  -0.01
  75   7     0.09   0.02  -0.07     0.05  -0.01   0.04     0.11   0.05  -0.03
  76   6     0.08   0.01  -0.05     0.04  -0.01   0.03     0.09   0.05  -0.03
  77   6     0.10   0.02  -0.06     0.03  -0.02   0.03     0.09   0.05  -0.04
  78   6     0.09   0.01  -0.04     0.02  -0.02   0.03     0.07   0.04  -0.04
  79   6     0.06  -0.02  -0.02     0.02  -0.01   0.03     0.04   0.05  -0.02
  80   6     0.05  -0.03  -0.02     0.03  -0.01   0.03     0.04   0.05  -0.01
  81   6     0.06  -0.01  -0.03     0.04  -0.01   0.03     0.06   0.05  -0.01
  82   6     0.05  -0.02  -0.04     0.04  -0.00   0.03     0.07   0.05   0.00
  83   6     0.03  -0.04  -0.02     0.05   0.00   0.04     0.06   0.06   0.02
  84   1     0.01  -0.01  -0.01     0.02   0.00   0.01     0.03   0.02   0.01
  85   1     0.02   0.00  -0.02     0.02  -0.00   0.01     0.04   0.02  -0.00
  86   1     0.03   0.01  -0.02     0.01  -0.00   0.01     0.04   0.01  -0.01
  87   1     0.03   0.01  -0.02     0.01  -0.01   0.01     0.03   0.01  -0.02
  88   1     0.03   0.00  -0.01     0.01  -0.01   0.01     0.02   0.01  -0.01
  89   1     0.01  -0.01  -0.00     0.01  -0.00   0.01     0.01   0.01   0.00
  90   1     0.00  -0.02  -0.00     0.01   0.00   0.01     0.01   0.02   0.01
  91   6     0.05  -0.03  -0.00     0.01  -0.01   0.03     0.02   0.04  -0.01
  92   6     0.04  -0.03   0.01     0.00  -0.01   0.03     0.00   0.04  -0.01
  93   6     0.01  -0.04   0.02    -0.01  -0.01   0.03    -0.01   0.03   0.01
  94   6    -0.00  -0.05   0.02    -0.01  -0.01   0.03    -0.01   0.04   0.01
  95   6    -0.03  -0.05   0.03    -0.02  -0.01   0.03    -0.01   0.03   0.02
  96   6    -0.04  -0.04   0.04    -0.02  -0.00   0.03    -0.02   0.02   0.03
  97   7    -0.03  -0.03   0.04    -0.01   0.00   0.03    -0.03   0.02   0.03
  98   6    -0.00  -0.03   0.03    -0.00   0.00   0.03    -0.02   0.03   0.02
  99   1     0.00  -0.02   0.00    -0.00  -0.01   0.01     0.00   0.01  -0.00
 100   1    -0.01  -0.02   0.01    -0.01  -0.01   0.01    -0.00   0.01   0.01
 101   1    -0.02  -0.01   0.01    -0.01  -0.00   0.01    -0.01   0.01   0.01
 102   1     0.00  -0.00   0.01     0.00   0.00   0.01    -0.01   0.01   0.01
 103   6     0.01   0.06  -0.00    -0.05  -0.02  -0.06    -0.07  -0.08  -0.07
 104   6     0.00   0.08   0.02    -0.05  -0.03  -0.06    -0.09  -0.09  -0.07
 105   6    -0.00   0.10   0.03    -0.06  -0.03  -0.06    -0.11  -0.10  -0.08
 106   6     0.00   0.14   0.04    -0.09  -0.06  -0.09    -0.15  -0.14  -0.11
 107   6    -0.00   0.16   0.06    -0.10  -0.06  -0.09    -0.17  -0.15  -0.12
 108   6    -0.02   0.15   0.07    -0.09  -0.05  -0.07    -0.14  -0.12  -0.09
 109   6    -0.03   0.11   0.06    -0.06  -0.02  -0.05    -0.10  -0.07  -0.05
 110   6    -0.04   0.08   0.07    -0.05  -0.01  -0.03    -0.07  -0.04  -0.02
 111   6    -0.05   0.05   0.07    -0.03   0.01  -0.01    -0.04  -0.00   0.01
 112   7    -0.04   0.03   0.05    -0.02   0.02  -0.01    -0.03   0.00   0.02
 113   6    -0.02   0.05   0.04    -0.03   0.00  -0.02    -0.05  -0.03  -0.01
 114   6    -0.02   0.08   0.04    -0.05  -0.02  -0.05    -0.09  -0.07  -0.04
 115   1     0.00   0.05   0.01    -0.03  -0.02  -0.03    -0.05  -0.05  -0.04
 116   1     0.00   0.06   0.02    -0.03  -0.02  -0.03    -0.06  -0.05  -0.04
 117   1    -0.01   0.05   0.02    -0.03  -0.02  -0.02    -0.04  -0.04  -0.03
 118   1    -0.01   0.03   0.03    -0.02  -0.00  -0.01    -0.02  -0.01  -0.01
 119   1    -0.02   0.01   0.02    -0.01   0.01   0.00    -0.00   0.01   0.01
 120   1    -0.00   0.01   0.01    -0.01   0.00  -0.01    -0.01  -0.01  -0.00
 121   6     0.03   0.04  -0.02    -0.04  -0.01  -0.06    -0.06  -0.06  -0.07
 122   6     0.05   0.02  -0.04    -0.05  -0.00  -0.06    -0.05  -0.05  -0.09
 123   6     0.06  -0.00  -0.06    -0.05   0.01  -0.06    -0.04  -0.04  -0.10
 124   6     0.06  -0.00  -0.06    -0.04   0.01  -0.05    -0.02  -0.04  -0.08
 125   7     0.07  -0.02  -0.09    -0.04   0.02  -0.04    -0.00  -0.03  -0.09
 126   6     0.05  -0.01  -0.08    -0.04   0.02  -0.03     0.00  -0.03  -0.06
 127   6     0.06  -0.02  -0.09    -0.03   0.02  -0.03     0.02  -0.02  -0.06
 128   6     0.04  -0.01  -0.09    -0.03   0.02  -0.02     0.02  -0.03  -0.04
 129   6     0.02   0.01  -0.06    -0.03   0.01  -0.02     0.01  -0.04  -0.02
 130   6     0.02   0.02  -0.05    -0.03   0.00  -0.03    -0.01  -0.05  -0.03
 131   6     0.04   0.01  -0.06    -0.04   0.01  -0.03    -0.01  -0.04  -0.05
 132   6     0.04   0.02  -0.05    -0.04   0.00  -0.04    -0.02  -0.05  -0.06
 133   6     0.02   0.04  -0.02    -0.04  -0.01  -0.05    -0.04  -0.06  -0.06
 134   1     0.01   0.01  -0.01    -0.01  -0.00  -0.02    -0.02  -0.01  -0.03
 135   1     0.02  -0.00  -0.02    -0.01   0.00  -0.02    -0.01  -0.01  -0.03
 136   1     0.02  -0.01  -0.03    -0.01   0.01  -0.01     0.00  -0.01  -0.03
 137   1     0.02  -0.01  -0.03    -0.01   0.01  -0.01     0.01  -0.00  -0.02
 138   1     0.01  -0.00  -0.03    -0.01   0.01  -0.00     0.01  -0.01  -0.01
 139   1     0.00   0.01  -0.01    -0.01  -0.00  -0.01    -0.00  -0.02  -0.01
 140   1     0.00   0.02  -0.00    -0.01  -0.00  -0.01    -0.01  -0.02  -0.01
 141   6     0.01   0.02  -0.05    -0.03   0.01  -0.01     0.01  -0.04  -0.00
 142   6    -0.00   0.03  -0.04    -0.03   0.01  -0.00     0.01  -0.04   0.01
 143   6    -0.02   0.04  -0.01    -0.02   0.00   0.01    -0.00  -0.04   0.01
 144   6    -0.02   0.05   0.00    -0.03   0.01   0.01    -0.00  -0.04   0.01
 145   6    -0.03   0.05   0.03    -0.03   0.01   0.02    -0.01  -0.03   0.01
 146   6    -0.04   0.04   0.04    -0.02   0.00   0.02    -0.02  -0.03   0.02
 147   7    -0.04   0.03   0.02    -0.02  -0.00   0.01    -0.02  -0.02   0.02
 148   6    -0.03   0.03  -0.00    -0.02  -0.00   0.00    -0.01  -0.03   0.02
 149   1    -0.00   0.02  -0.00    -0.01   0.01   0.00     0.00  -0.01   0.00
 150   1    -0.01   0.02   0.01    -0.01   0.00   0.01    -0.00  -0.01   0.00
 151   1    -0.01   0.01   0.02    -0.01   0.00   0.01    -0.01  -0.01   0.00
 152   1    -0.01   0.00  -0.00    -0.00  -0.00  -0.00    -0.00  -0.01   0.01
 153   6     0.02   0.04   0.01    -0.07   0.06  -0.08     0.03  -0.05   0.05
 154   6     0.01   0.05   0.02    -0.08   0.08  -0.09     0.03  -0.05   0.06
 155   6    -0.00   0.07   0.03    -0.08   0.09  -0.11     0.03  -0.05   0.07
 156   6     0.00   0.09   0.04    -0.11   0.13  -0.15     0.04  -0.07   0.10
 157   6    -0.01   0.10   0.04    -0.11   0.14  -0.17     0.04  -0.07   0.11
 158   6    -0.03   0.10   0.05    -0.10   0.11  -0.14     0.03  -0.06   0.09
 159   6    -0.03   0.08   0.04    -0.07   0.07  -0.10     0.01  -0.04   0.06
 160   6    -0.05   0.07   0.05    -0.05   0.05  -0.07    -0.01  -0.02   0.04
 161   6    -0.06   0.06   0.04    -0.03   0.01  -0.03    -0.02  -0.01   0.02
 162   7    -0.05   0.05   0.03    -0.02   0.00  -0.03    -0.02  -0.01   0.02
 163   6    -0.03   0.05   0.03    -0.03   0.02  -0.05    -0.01  -0.02   0.04
 164   6    -0.02   0.06   0.03    -0.06   0.06  -0.08     0.01  -0.04   0.06
 165   1     0.01   0.03   0.01    -0.04   0.04  -0.05     0.02  -0.03   0.03
 166   1    -0.00   0.03   0.01    -0.04   0.05  -0.06     0.02  -0.03   0.04
 167   1    -0.01   0.03   0.02    -0.03   0.03  -0.04     0.01  -0.02   0.03
 168   1    -0.02   0.02   0.02    -0.02   0.02  -0.02    -0.00  -0.01   0.01
 169   1    -0.02   0.01   0.01    -0.00  -0.00  -0.00    -0.01   0.00   0.00
 170   1    -0.01   0.01   0.01    -0.01   0.00  -0.01    -0.00  -0.00   0.01
 171   6     0.03   0.02  -0.01    -0.07   0.05  -0.07     0.03  -0.04   0.03
 172   6     0.05   0.01  -0.03    -0.08   0.03  -0.07     0.04  -0.04   0.02
 173   6     0.06  -0.00  -0.05    -0.08   0.02  -0.05     0.05  -0.03   0.01
 174   6     0.06  -0.00  -0.05    -0.06   0.01  -0.04     0.04  -0.04  -0.00
 175   7     0.08  -0.01  -0.07    -0.06   0.00  -0.03     0.05  -0.04  -0.02
 176   6     0.07  -0.01  -0.06    -0.04   0.00  -0.02     0.04  -0.04  -0.03
 177   6     0.08  -0.01  -0.07    -0.03  -0.01  -0.01     0.04  -0.03  -0.04
 178   6     0.07  -0.01  -0.05    -0.01   0.00  -0.01     0.02  -0.04  -0.04
 179   6     0.05   0.01  -0.03    -0.00   0.02  -0.02     0.01  -0.04  -0.02
 180   6     0.04   0.01  -0.02    -0.01   0.03  -0.03     0.01  -0.04  -0.01
 181   6     0.05   0.01  -0.03    -0.03   0.02  -0.03     0.03  -0.04  -0.01
 182   6     0.05   0.01  -0.03    -0.05   0.03  -0.04     0.03  -0.04   0.00
 183   6     0.03   0.02  -0.01    -0.05   0.05  -0.06     0.02  -0.04   0.02
 184   1     0.01   0.00  -0.01    -0.03   0.01  -0.02     0.01  -0.01   0.01
 185   1     0.02  -0.00  -0.02    -0.03   0.00  -0.02     0.02  -0.01   0.00
 186   1     0.03  -0.01  -0.02    -0.02  -0.00  -0.01     0.02  -0.01  -0.01
 187   1     0.03  -0.01  -0.02    -0.01  -0.01  -0.00     0.01  -0.01  -0.01
 188   1     0.02  -0.00  -0.02    -0.00  -0.00   0.00     0.01  -0.01  -0.01
 189   1     0.01   0.01   0.00    -0.00   0.01  -0.01     0.00  -0.01   0.00
 190   1     0.01   0.01   0.00    -0.01   0.02  -0.02     0.00  -0.01   0.01
 191   6     0.04   0.02  -0.01     0.01   0.02  -0.01     0.00  -0.04  -0.02
 192   6     0.02   0.02   0.00     0.02   0.03  -0.01    -0.00  -0.04  -0.01
 193   6    -0.00   0.02   0.02     0.02   0.03  -0.01    -0.01  -0.03  -0.00
 194   6    -0.01   0.03   0.01     0.02   0.03  -0.02     0.00  -0.04   0.00
 195   6    -0.04   0.03   0.03     0.02   0.03  -0.02     0.00  -0.03   0.01
 196   6    -0.05   0.02   0.04     0.02   0.02  -0.01    -0.00  -0.02   0.02
 197   7    -0.04   0.01   0.05     0.02   0.03  -0.01    -0.01  -0.01   0.02
 198   6    -0.01   0.01   0.03     0.02   0.03  -0.01    -0.01  -0.02   0.01
 199   1    -0.00   0.01   0.00     0.01   0.01  -0.01     0.00  -0.01  -0.00
 200   1    -0.01   0.01   0.01     0.01   0.01  -0.01     0.00  -0.01   0.00
 201   1    -0.02   0.00   0.02     0.00   0.01  -0.00    -0.00  -0.00   0.01
 202   1    -0.00   0.00   0.01     0.01   0.01  -0.00    -0.01  -0.00   0.00
                      4                      5                      6
                        a                      a                      a 
 Frequencies --     9.1665                10.5539                11.8254
 Red. masses --    12.1143                14.4532                27.1588
 Frc consts  --     0.0000                 0.0000                 0.0000
 IR Inten    --     0.1116                 0.2408                 0.0226
 Raman Activ --     0.0000                 0.0000                 0.0000
 Depolar     --     0.0000                 0.0000                 0.0000
 Atom AN      X      Y      Z        X      Y      Z        X      Y      Z
   1  46    -0.07  -0.01   0.02     0.12  -0.05  -0.01     0.01  -0.28   0.03
   2  46     0.00  -0.01  -0.04    -0.03  -0.02   0.12    -0.02   0.29  -0.03
   3   6    -0.03  -0.01  -0.03    -0.07   0.06  -0.01     0.06   0.01   0.02
   4   6    -0.02   0.00  -0.04    -0.08   0.09  -0.02     0.04   0.03   0.02
   5   6    -0.03   0.01  -0.04    -0.11   0.11  -0.03     0.03   0.05   0.01
   6   6    -0.04   0.02  -0.05    -0.16   0.17  -0.07     0.03   0.04   0.01
   7   6    -0.04   0.02  -0.05    -0.18   0.20  -0.09     0.02   0.06  -0.00
   8   6    -0.04   0.01  -0.05    -0.15   0.17  -0.07    -0.01   0.08  -0.02
   9   6    -0.03   0.01  -0.04    -0.11   0.12  -0.04    -0.02   0.09  -0.03
  10   6    -0.02   0.00  -0.03    -0.08   0.09  -0.02    -0.04   0.12  -0.04
  11   6    -0.01  -0.01  -0.02    -0.04   0.04   0.01    -0.04   0.12  -0.04
  12   7    -0.01  -0.01  -0.02    -0.02   0.02   0.03    -0.02   0.11  -0.03
  13   6    -0.01  -0.00  -0.03    -0.04   0.04   0.02    -0.00   0.08  -0.01
  14   6    -0.02   0.00  -0.04    -0.08   0.09  -0.01     0.00   0.07  -0.01
  15   1    -0.01   0.01  -0.02    -0.05   0.06  -0.02     0.02   0.01   0.01
  16   1    -0.01   0.01  -0.02    -0.06   0.07  -0.03     0.01   0.02   0.00
  17   1    -0.01   0.00  -0.01    -0.05   0.06  -0.03    -0.01   0.03  -0.01
  18   1    -0.01   0.00  -0.01    -0.03   0.03  -0.01    -0.02   0.04  -0.02
  19   1    -0.00  -0.00  -0.01    -0.00   0.01   0.01    -0.02   0.04  -0.02
  20   1    -0.00  -0.00  -0.01    -0.01   0.00   0.01     0.00   0.02  -0.00
  21   6    -0.03  -0.02  -0.02    -0.06   0.04   0.00     0.06   0.01   0.02
  22   6    -0.05  -0.03  -0.02    -0.06   0.02  -0.01     0.08   0.01   0.01
  23   6    -0.06  -0.04  -0.01    -0.06   0.01  -0.00     0.08   0.01   0.01
  24   6    -0.06  -0.04  -0.00    -0.04   0.01   0.01     0.07  -0.00   0.02
  25   7    -0.08  -0.05   0.01    -0.04  -0.01   0.02     0.07  -0.00   0.03
  26   6    -0.06  -0.05   0.01    -0.03   0.00   0.03     0.06  -0.01   0.04
  27   6    -0.07  -0.05   0.02    -0.02  -0.01   0.04     0.05  -0.01   0.04
  28   6    -0.06  -0.05   0.01    -0.00   0.00   0.05     0.04  -0.02   0.05
  29   6    -0.04  -0.03   0.00    -0.00   0.02   0.05     0.03  -0.02   0.06
  30   6    -0.04  -0.03  -0.01    -0.01   0.03   0.04     0.04  -0.01   0.05
  31   6    -0.05  -0.03  -0.00    -0.03   0.02   0.03     0.05  -0.01   0.04
  32   6    -0.05  -0.03  -0.01    -0.04   0.02   0.02     0.06  -0.00   0.03
  33   6    -0.03  -0.02  -0.02    -0.04   0.04   0.02     0.05   0.00   0.03
  34   1    -0.01  -0.01  -0.01    -0.02   0.01  -0.00     0.02   0.00   0.00
  35   1    -0.02  -0.01  -0.00    -0.02  -0.00  -0.00     0.03   0.00   0.00
  36   1    -0.02  -0.02   0.00    -0.01  -0.01   0.01     0.02  -0.00   0.01
  37   1    -0.02  -0.02   0.01    -0.00  -0.01   0.01     0.02  -0.00   0.01
  38   1    -0.02  -0.01   0.01     0.00  -0.00   0.02     0.01  -0.01   0.02
  39   1    -0.01  -0.00  -0.00    -0.00   0.01   0.01     0.01  -0.00   0.02
  40   1    -0.01  -0.00  -0.01    -0.01   0.02   0.01     0.01  -0.00   0.01
  41   6    -0.03  -0.03   0.00     0.01   0.03   0.05     0.02  -0.03   0.06
  42   6    -0.02  -0.02  -0.00     0.02   0.03   0.04    -0.00  -0.04   0.06
  43   6    -0.01  -0.02  -0.00     0.02   0.02   0.02    -0.02  -0.05   0.05
  44   6    -0.01  -0.02  -0.00     0.00   0.03   0.02    -0.04  -0.04   0.04
  45   6     0.00  -0.02  -0.00     0.00   0.02   0.00    -0.06  -0.06   0.02
  46   6    -0.00  -0.01  -0.00     0.02   0.01  -0.01    -0.04  -0.08   0.02
  47   7    -0.01  -0.01  -0.00     0.04   0.01  -0.00    -0.02  -0.09   0.03
  48   6    -0.02  -0.02  -0.00     0.04   0.01   0.01    -0.01  -0.07   0.04
  49   1    -0.00  -0.01  -0.00    -0.00   0.01   0.01    -0.01  -0.01   0.01
  50   1     0.00  -0.01  -0.00    -0.00   0.01  -0.00    -0.02  -0.01   0.00
  51   1     0.00  -0.00  -0.00     0.01   0.00  -0.01    -0.01  -0.03   0.00
  52   1    -0.01  -0.00  -0.00     0.01   0.00   0.00     0.00  -0.02   0.01
  53   6     0.04   0.06   0.08     0.03  -0.04  -0.00     0.00  -0.02   0.05
  54   6     0.05   0.09   0.09     0.03  -0.05  -0.02    -0.00  -0.03   0.03
  55   6     0.07   0.12   0.11     0.02  -0.06  -0.02    -0.01  -0.05   0.02
  56   6     0.11   0.18   0.15     0.01  -0.07  -0.04    -0.01  -0.04   0.01
  57   6     0.12   0.20   0.17     0.00  -0.08  -0.04    -0.02  -0.06  -0.01
  58   6     0.10   0.17   0.15     0.01  -0.08  -0.04    -0.03  -0.08  -0.02
  59   6     0.07   0.11   0.11     0.02  -0.06  -0.03    -0.02  -0.09  -0.02
  60   6     0.05   0.08   0.08     0.02  -0.05  -0.02    -0.03  -0.11  -0.04
  61   6     0.01   0.03   0.04     0.03  -0.04  -0.01    -0.02  -0.11  -0.03
  62   7    -0.01   0.01   0.03     0.04  -0.03  -0.01    -0.02  -0.10  -0.01
  63   6     0.01   0.04   0.05     0.04  -0.03  -0.01    -0.01  -0.08   0.00
  64   6     0.05   0.09   0.09     0.03  -0.05  -0.02    -0.01  -0.07   0.00
  65   1     0.04   0.06   0.05     0.00  -0.02  -0.01    -0.00  -0.01   0.01
  66   1     0.04   0.07   0.06    -0.00  -0.03  -0.02    -0.01  -0.02  -0.00
  67   1     0.03   0.06   0.05     0.00  -0.03  -0.01    -0.01  -0.03  -0.01
  68   1     0.02   0.03   0.03     0.00  -0.02  -0.01    -0.01  -0.03  -0.02
  69   1    -0.00   0.00   0.01     0.01  -0.01  -0.00    -0.01  -0.04  -0.01
  70   1    -0.00   0.00   0.01     0.01  -0.01  -0.00    -0.00  -0.02   0.01
  71   6     0.02   0.03   0.08     0.02  -0.03   0.01     0.00  -0.01   0.05
  72   6     0.02   0.00   0.10     0.02  -0.03   0.00    -0.01  -0.01   0.06
  73   6    -0.00  -0.02   0.10     0.01  -0.03   0.01    -0.01  -0.00   0.06
  74   6    -0.01  -0.02   0.09     0.01  -0.03   0.03     0.01   0.00   0.05
  75   7    -0.03  -0.05   0.09     0.00  -0.03   0.04     0.02   0.01   0.05
  76   6    -0.03  -0.03   0.06     0.01  -0.03   0.04     0.03   0.01   0.04
  77   6    -0.05  -0.05   0.05     0.00  -0.03   0.05     0.04   0.02   0.04
  78   6    -0.05  -0.03   0.03     0.01  -0.04   0.06     0.05   0.02   0.03
  79   6    -0.04  -0.00   0.02     0.01  -0.04   0.05     0.05   0.02   0.03
  80   6    -0.02   0.01   0.03     0.01  -0.04   0.04     0.04   0.02   0.03
  81   6    -0.02  -0.00   0.05     0.01  -0.04   0.04     0.03   0.01   0.04
  82   6    -0.01   0.00   0.07     0.01  -0.04   0.03     0.02   0.01   0.05
  83   6     0.01   0.03   0.06     0.02  -0.04   0.02     0.02  -0.00   0.05
  84   1     0.01   0.00   0.03     0.01  -0.01  -0.00    -0.01  -0.00   0.02
  85   1    -0.00  -0.01   0.03     0.00  -0.01   0.00    -0.00  -0.00   0.02
  86   1    -0.01  -0.02   0.03     0.00  -0.01   0.01     0.00   0.00   0.02
  87   1    -0.02  -0.02   0.02    -0.00  -0.01   0.02     0.01   0.01   0.01
  88   1    -0.02  -0.01   0.01     0.00  -0.01   0.02     0.02   0.01   0.01
  89   1    -0.00   0.01   0.01     0.01  -0.01   0.01     0.01   0.00   0.01
  90   1     0.00   0.02   0.01     0.01  -0.01   0.01     0.01   0.00   0.01
  91   6    -0.04   0.01   0.00     0.01  -0.04   0.05     0.06   0.03   0.02
  92   6    -0.03   0.02  -0.00     0.01  -0.04   0.05     0.05   0.04  -0.00
  93   6    -0.01   0.02  -0.01     0.00  -0.04   0.05     0.04   0.05  -0.02
  94   6    -0.01   0.02  -0.01    -0.00  -0.04   0.04     0.04   0.05  -0.05
  95   6     0.00   0.02  -0.01    -0.01  -0.04   0.03     0.03   0.06  -0.07
  96   6     0.01   0.02  -0.02    -0.01  -0.03   0.03     0.01   0.08  -0.06
  97   7     0.00   0.01  -0.02    -0.00  -0.03   0.04     0.01   0.09  -0.03
  98   6    -0.01   0.01  -0.02     0.00  -0.03   0.05     0.03   0.07  -0.01
  99   1    -0.00   0.01  -0.00    -0.00  -0.02   0.01     0.01   0.01  -0.02
 100   1     0.00   0.01  -0.00    -0.00  -0.01   0.01     0.01   0.02  -0.03
 101   1     0.01   0.00  -0.00    -0.00  -0.01   0.01     0.00   0.03  -0.02
 102   1    -0.00   0.00  -0.01     0.00  -0.01   0.02     0.01   0.02   0.00
 103   6     0.05   0.02   0.01    -0.01  -0.04   0.03    -0.04   0.02  -0.01
 104   6     0.05   0.05   0.02    -0.02  -0.04   0.03    -0.03   0.04  -0.00
 105   6     0.06   0.08   0.04    -0.03  -0.05   0.03    -0.01   0.06   0.01
 106   6     0.09   0.12   0.06    -0.04  -0.06   0.02    -0.00   0.05   0.01
 107   6     0.10   0.14   0.08    -0.04  -0.07   0.01     0.02   0.07   0.02
 108   6     0.09   0.13   0.07    -0.04  -0.07   0.01     0.03   0.09   0.03
 109   6     0.06   0.09   0.05    -0.03  -0.05   0.02     0.03   0.09   0.02
 110   6     0.05   0.07   0.04    -0.02  -0.04   0.03     0.04   0.11   0.03
 111   6     0.02   0.03   0.02    -0.01  -0.03   0.04     0.03   0.11   0.02
 112   7     0.01   0.01  -0.00    -0.01  -0.02   0.05     0.01   0.10   0.01
 113   6     0.02   0.02   0.00    -0.01  -0.02   0.04    -0.00   0.08   0.00
 114   6     0.05   0.06   0.03    -0.02  -0.04   0.03     0.01   0.08   0.01
 115   1     0.03   0.04   0.02    -0.01  -0.02   0.00    -0.00   0.01   0.00
 116   1     0.04   0.05   0.03    -0.02  -0.03   0.00     0.01   0.02   0.01
 117   1     0.03   0.04   0.03    -0.01  -0.02   0.00     0.01   0.03   0.01
 118   1     0.02   0.02   0.02    -0.01  -0.01   0.01     0.02   0.04   0.01
 119   1     0.00   0.00   0.00    -0.00  -0.01   0.01     0.01   0.04   0.01
 120   1     0.00   0.00  -0.00    -0.00  -0.01   0.01    -0.01   0.02  -0.00
 121   6     0.06  -0.00  -0.01     0.00  -0.03   0.02    -0.05   0.01  -0.01
 122   6     0.08  -0.03  -0.03    -0.00  -0.03   0.02    -0.06   0.01   0.01
 123   6     0.09  -0.05  -0.05     0.01  -0.03   0.01    -0.06   0.01   0.00
 124   6     0.08  -0.04  -0.05     0.02  -0.03   0.01    -0.05   0.00  -0.01
 125   7     0.09  -0.07  -0.07     0.04  -0.04   0.00    -0.06  -0.01  -0.02
 126   6     0.07  -0.05  -0.07     0.04  -0.04   0.01    -0.04  -0.01  -0.03
 127   6     0.07  -0.06  -0.08     0.05  -0.04   0.00    -0.04  -0.02  -0.04
 128   6     0.05  -0.05  -0.07     0.05  -0.04   0.00    -0.03  -0.02  -0.05
 129   6     0.03  -0.02  -0.05     0.05  -0.05   0.01    -0.03  -0.02  -0.05
 130   6     0.03  -0.01  -0.04     0.04  -0.04   0.01    -0.03  -0.01  -0.05
 131   6     0.05  -0.03  -0.05     0.03  -0.04   0.01    -0.04  -0.01  -0.03
 132   6     0.06  -0.02  -0.04     0.02  -0.04   0.02    -0.05  -0.00  -0.02
 133   6     0.05   0.00  -0.02     0.01  -0.04   0.02    -0.04   0.00  -0.02
 134   1     0.03  -0.01  -0.01    -0.00  -0.01   0.01    -0.02   0.01   0.00
 135   1     0.03  -0.02  -0.02     0.00  -0.01   0.00    -0.02   0.00   0.00
 136   1     0.03  -0.02  -0.02     0.01  -0.01   0.00    -0.02  -0.00  -0.00
 137   1     0.02  -0.02  -0.03     0.02  -0.01  -0.00    -0.01  -0.00  -0.01
 138   1     0.01  -0.02  -0.02     0.02  -0.01   0.00    -0.01  -0.01  -0.02
 139   1     0.01   0.00  -0.01     0.01  -0.01   0.01    -0.01  -0.00  -0.01
 140   1     0.01   0.01  -0.00     0.00  -0.01   0.01    -0.01   0.00  -0.01
 141   6     0.01  -0.01  -0.04     0.05  -0.05   0.01    -0.02  -0.03  -0.06
 142   6    -0.00  -0.00  -0.02     0.05  -0.05   0.01    -0.00  -0.04  -0.05
 143   6    -0.01   0.00  -0.01     0.05  -0.05   0.00     0.02  -0.05  -0.04
 144   6    -0.01   0.01  -0.00     0.04  -0.05  -0.00     0.05  -0.04  -0.04
 145   6    -0.02   0.01   0.01     0.04  -0.05  -0.01     0.07  -0.06  -0.02
 146   6    -0.03   0.01   0.02     0.03  -0.04  -0.01     0.05  -0.08  -0.01
 147   7    -0.04   0.01   0.02     0.04  -0.03  -0.00     0.02  -0.09  -0.01
 148   6    -0.03   0.00   0.00     0.05  -0.04   0.00     0.00  -0.07  -0.03
 149   1    -0.00   0.00  -0.00     0.01  -0.02  -0.00     0.02  -0.01  -0.01
 150   1    -0.01   0.00   0.00     0.01  -0.01  -0.00     0.03  -0.02  -0.01
 151   1    -0.01   0.00   0.01     0.01  -0.01  -0.00     0.02  -0.02   0.00
 152   1    -0.01  -0.00   0.00     0.01  -0.01   0.00    -0.01  -0.02  -0.01
 153   6    -0.03  -0.02  -0.02     0.00   0.06  -0.07    -0.02  -0.02  -0.05
 154   6    -0.04  -0.01  -0.01    -0.01   0.08  -0.09    -0.01  -0.04  -0.03
 155   6    -0.04   0.00  -0.02    -0.02   0.10  -0.11    -0.00  -0.06  -0.02
 156   6    -0.05   0.01  -0.02    -0.05   0.16  -0.16    -0.00  -0.06  -0.02
 157   6    -0.05   0.01  -0.03    -0.06   0.18  -0.18     0.01  -0.08   0.01
 158   6    -0.05   0.01  -0.03    -0.05   0.15  -0.15     0.02  -0.10   0.03
 159   6    -0.05   0.00  -0.02    -0.02   0.10  -0.10     0.02  -0.10   0.03
 160   6    -0.04   0.00  -0.02    -0.01   0.07  -0.07     0.04  -0.12   0.05
 161   6    -0.04  -0.00  -0.01     0.02   0.03  -0.03     0.04  -0.12   0.05
 162   7    -0.04  -0.01  -0.01     0.04   0.01  -0.02     0.02  -0.11   0.03
 163   6    -0.04  -0.01  -0.01     0.03   0.03  -0.04     0.01  -0.09   0.01
 164   6    -0.04  -0.00  -0.01    -0.00   0.07  -0.08     0.01  -0.08   0.01
 165   1    -0.01   0.00  -0.01    -0.02   0.05  -0.05    -0.00  -0.01  -0.01
 166   1    -0.02   0.00  -0.01    -0.03   0.06  -0.06     0.00  -0.02   0.00
 167   1    -0.02   0.00  -0.01    -0.02   0.05  -0.05     0.01  -0.03   0.01
 168   1    -0.01   0.00  -0.01    -0.01   0.03  -0.02     0.01  -0.04   0.02
 169   1    -0.01  -0.00  -0.00     0.01   0.00  -0.00     0.01  -0.04   0.02
 170   1    -0.01  -0.00  -0.00     0.01   0.00  -0.01    -0.00  -0.02  -0.00
 171   6    -0.02  -0.03  -0.03     0.01   0.04  -0.06    -0.02  -0.01  -0.06
 172   6    -0.01  -0.04  -0.05     0.00   0.02  -0.07    -0.01  -0.01  -0.07
 173   6     0.00  -0.06  -0.07     0.01   0.00  -0.07    -0.01  -0.01  -0.07
 174   6     0.01  -0.06  -0.07     0.02   0.00  -0.05    -0.02  -0.00  -0.07
 175   7     0.03  -0.08  -0.10     0.03  -0.01  -0.05    -0.03   0.00  -0.07
 176   6     0.02  -0.07  -0.08     0.03  -0.00  -0.03    -0.04   0.01  -0.06
 177   6     0.03  -0.08  -0.09     0.04  -0.01  -0.02    -0.04   0.01  -0.05
 178   6     0.03  -0.07  -0.08     0.05   0.00  -0.01    -0.06   0.02  -0.04
 179   6     0.01  -0.05  -0.06     0.05   0.02  -0.00    -0.06   0.02  -0.04
 180   6     0.00  -0.05  -0.05     0.04   0.03  -0.02    -0.05   0.01  -0.04
 181   6     0.01  -0.05  -0.06     0.03   0.02  -0.03    -0.04   0.01  -0.05
 182   6    -0.00  -0.05  -0.05     0.02   0.02  -0.04    -0.03   0.00  -0.06
 183   6    -0.02  -0.03  -0.04     0.02   0.04  -0.05    -0.03  -0.00  -0.05
 184   1    -0.00  -0.01  -0.01    -0.00   0.00  -0.02     0.00  -0.01  -0.02
 185   1     0.00  -0.02  -0.02     0.00  -0.00  -0.02     0.00  -0.00  -0.02
 186   1     0.01  -0.02  -0.03     0.01  -0.01  -0.01    -0.01   0.00  -0.02
 187   1     0.01  -0.03  -0.03     0.01  -0.01  -0.01    -0.01   0.00  -0.02
 188   1     0.01  -0.02  -0.03     0.02  -0.00   0.00    -0.02   0.01  -0.01
 189   1    -0.00  -0.01  -0.01     0.01   0.01  -0.00    -0.02   0.00  -0.01
 190   1    -0.01  -0.01  -0.01     0.01   0.02  -0.01    -0.01  -0.00  -0.01
 191   6     0.01  -0.05  -0.05     0.05   0.03   0.01    -0.07   0.02  -0.02
 192   6     0.00  -0.04  -0.03     0.03   0.03   0.02    -0.06   0.04  -0.01
 193   6    -0.00  -0.03  -0.02     0.02   0.03   0.02    -0.05   0.05   0.01
 194   6     0.00  -0.04  -0.01     0.01   0.03   0.01    -0.04   0.04   0.04
 195   6     0.00  -0.03  -0.00    -0.00   0.03   0.01    -0.03   0.06   0.05
 196   6    -0.00  -0.02   0.00    -0.01   0.02   0.03    -0.02   0.08   0.04
 197   7    -0.01  -0.02  -0.00    -0.01   0.02   0.04    -0.02   0.09   0.01
 198   6    -0.00  -0.02  -0.02     0.01   0.02   0.04    -0.04   0.07  -0.00
 199   1     0.00  -0.01  -0.00     0.01   0.01  -0.00    -0.01   0.01   0.01
 200   1     0.00  -0.01   0.00    -0.00   0.01  -0.00    -0.01   0.01   0.02
 201   1    -0.00  -0.00   0.00    -0.01   0.00   0.01    -0.00   0.03   0.01
 202   1    -0.00  -0.01  -0.01     0.00   0.00   0.01    -0.01   0.02  -0.01
                      7                      8                      9
                        a                      a                      a 
 Frequencies --    15.3872                16.6736                17.2643
 Red. masses --    12.8467                18.2772                18.3229
 Frc consts  --     0.0000                 0.0000                 0.0000
 IR Inten    --     0.0724                 0.5214                 0.2382
 Raman Activ --     0.0000                 0.0000                 0.0000
 Depolar     --     0.0000                 0.0000                 0.0000
 Atom AN      X      Y      Z        X      Y      Z        X      Y      Z
   1  46    -0.04  -0.07   0.01    -0.11  -0.03  -0.14    -0.09  -0.03  -0.18
   2  46    -0.01   0.08   0.04    -0.15  -0.03  -0.13     0.16   0.02   0.08
   3   6     0.03  -0.05  -0.08    -0.02   0.02   0.08    -0.00   0.01  -0.06
   4   6     0.03  -0.06  -0.07    -0.01   0.01   0.08     0.01   0.01  -0.07
   5   6     0.02  -0.08  -0.05     0.01   0.01   0.08    -0.00   0.00  -0.06
   6   6     0.02  -0.13  -0.05     0.06  -0.00   0.11    -0.04   0.01  -0.09
   7   6     0.01  -0.15  -0.03     0.08   0.00   0.11    -0.05   0.01  -0.08
   8   6    -0.01  -0.13  -0.01     0.07   0.02   0.07    -0.03  -0.01  -0.05
   9   6    -0.02  -0.09  -0.01     0.03   0.03   0.03    -0.00  -0.02  -0.02
  10   6    -0.04  -0.07   0.01     0.02   0.04  -0.01     0.01  -0.04   0.01
  11   6    -0.04  -0.02   0.01    -0.02   0.04  -0.04     0.04  -0.04   0.03
  12   7    -0.03  -0.00  -0.01    -0.04   0.04  -0.03     0.05  -0.04   0.03
  13   6    -0.01  -0.02  -0.03    -0.03   0.03   0.00     0.04  -0.02  -0.00
  14   6    -0.01  -0.06  -0.03     0.00   0.02   0.04     0.01  -0.01  -0.03
  15   1     0.01  -0.04  -0.02     0.02  -0.00   0.04    -0.01   0.01  -0.03
  16   1     0.00  -0.06  -0.01     0.03  -0.00   0.04    -0.02   0.00  -0.03
  17   1    -0.01  -0.04   0.00     0.03   0.01   0.02    -0.01  -0.00  -0.01
  18   1    -0.02  -0.02   0.01     0.01   0.01  -0.00     0.00  -0.01   0.01
  19   1    -0.02  -0.00   0.01    -0.01   0.01  -0.02     0.01  -0.01   0.02
  20   1     0.00   0.00  -0.01    -0.01   0.01   0.00     0.01  -0.01  -0.00
  21   6     0.03  -0.04  -0.08    -0.02   0.03   0.07    -0.02   0.00  -0.06
  22   6     0.03  -0.04  -0.08    -0.01   0.05   0.08    -0.04  -0.01  -0.04
  23   6     0.03  -0.04  -0.08    -0.01   0.06   0.07    -0.06  -0.02  -0.03
  24   6     0.01  -0.05  -0.07    -0.01   0.07   0.05    -0.07  -0.02  -0.03
  25   7     0.01  -0.06  -0.07    -0.01   0.09   0.04    -0.10  -0.03  -0.01
  26   6    -0.00  -0.06  -0.06    -0.01   0.08   0.03    -0.09  -0.03  -0.02
  27   6    -0.01  -0.06  -0.05    -0.02   0.09   0.01    -0.11  -0.03  -0.01
  28   6    -0.02  -0.07  -0.04    -0.02   0.08   0.00    -0.10  -0.03  -0.02
  29   6    -0.02  -0.06  -0.04    -0.03   0.07   0.01    -0.07  -0.02  -0.04
  30   6    -0.01  -0.06  -0.05    -0.02   0.05   0.02    -0.05  -0.01  -0.05
  31   6    -0.00  -0.05  -0.06    -0.02   0.06   0.03    -0.06  -0.02  -0.04
  32   6     0.01  -0.05  -0.07    -0.02   0.05   0.05    -0.05  -0.01  -0.04
  33   6     0.02  -0.05  -0.07    -0.02   0.04   0.06    -0.03  -0.00  -0.06
  34   1     0.01  -0.01  -0.03    -0.00   0.01   0.03    -0.01  -0.00  -0.01
  35   1     0.01  -0.01  -0.02    -0.00   0.02   0.02    -0.02  -0.01  -0.01
  36   1     0.00  -0.01  -0.02    -0.00   0.03   0.01    -0.03  -0.01   0.00
  37   1    -0.00  -0.02  -0.01    -0.00   0.03   0.00    -0.04  -0.01   0.00
  38   1    -0.01  -0.02  -0.01    -0.01   0.03  -0.00    -0.03  -0.01  -0.00
  39   1    -0.00  -0.02  -0.02    -0.01   0.01   0.01    -0.01  -0.00  -0.02
  40   1     0.00  -0.01  -0.02    -0.01   0.01   0.02    -0.00   0.00  -0.02
  41   6    -0.03  -0.07  -0.03    -0.03   0.06  -0.01    -0.06  -0.01  -0.04
  42   6    -0.03  -0.06  -0.01    -0.03   0.05  -0.02    -0.05  -0.01  -0.05
  43   6    -0.04  -0.06   0.01    -0.04   0.05  -0.03    -0.04  -0.01  -0.05
  44   6    -0.04  -0.07   0.03    -0.06   0.05  -0.03    -0.05  -0.01  -0.04
  45   6    -0.05  -0.06   0.05    -0.08   0.04  -0.04    -0.05  -0.01  -0.04
  46   6    -0.04  -0.04   0.04    -0.07   0.02  -0.05    -0.04  -0.01  -0.05
  47   7    -0.04  -0.03   0.02    -0.05   0.02  -0.05    -0.03  -0.01  -0.07
  48   6    -0.03  -0.04   0.01    -0.03   0.03  -0.04    -0.03  -0.00  -0.06
  49   1    -0.01  -0.02   0.01    -0.02   0.02  -0.01    -0.02  -0.00  -0.01
  50   1    -0.01  -0.02   0.02    -0.03   0.01  -0.01    -0.02  -0.00  -0.01
  51   1    -0.01  -0.01   0.02    -0.02   0.00  -0.02    -0.01  -0.00  -0.01
  52   1    -0.01  -0.01  -0.00    -0.00   0.01  -0.01    -0.00  -0.00  -0.02
  53   6    -0.06   0.04   0.03     0.08  -0.00  -0.01     0.08  -0.02   0.02
  54   6    -0.05   0.06   0.03     0.08   0.01   0.01     0.09  -0.02   0.00
  55   6    -0.04   0.07   0.02     0.07   0.01   0.03     0.08  -0.03   0.01
  56   6    -0.03   0.11   0.03     0.11   0.03   0.07     0.10  -0.02   0.04
  57   6    -0.01   0.13   0.02     0.10   0.03   0.09     0.08  -0.03   0.06
  58   6    -0.01   0.10  -0.00     0.06   0.00   0.07     0.04  -0.05   0.05
  59   6    -0.02   0.05  -0.01     0.02  -0.02   0.03     0.02  -0.06   0.01
  60   6    -0.01   0.02  -0.03    -0.02  -0.04   0.01    -0.02  -0.07  -0.00
  61   6    -0.02  -0.01  -0.03    -0.05  -0.05  -0.03    -0.04  -0.07  -0.03
  62   7    -0.03  -0.02  -0.02    -0.04  -0.05  -0.04    -0.03  -0.06  -0.05
  63   6    -0.04   0.00  -0.00    -0.00  -0.03  -0.02     0.01  -0.05  -0.03
  64   6    -0.03   0.04   0.00     0.03  -0.02   0.01     0.04  -0.04  -0.00
  65   1    -0.01   0.04   0.01     0.04   0.01   0.02     0.04  -0.00   0.02
  66   1    -0.00   0.05   0.01     0.04   0.01   0.04     0.03  -0.01   0.03
  67   1     0.00   0.03  -0.00     0.01   0.00   0.03     0.01  -0.02   0.02
  68   1     0.00   0.01  -0.01    -0.01  -0.01   0.01    -0.01  -0.02   0.00
  69   1    -0.00  -0.01  -0.01    -0.02  -0.02  -0.01    -0.02  -0.02  -0.01
  70   1    -0.01  -0.00   0.00     0.00  -0.01  -0.01     0.01  -0.01  -0.01
  71   6    -0.06   0.04   0.03     0.08  -0.02  -0.01     0.06  -0.03   0.04
  72   6    -0.08   0.02   0.05     0.10  -0.02  -0.02     0.04  -0.04   0.06
  73   6    -0.08   0.02   0.05     0.09  -0.03  -0.02     0.01  -0.05   0.08
  74   6    -0.06   0.03   0.03     0.07  -0.04  -0.02     0.01  -0.05   0.09
  75   7    -0.06   0.03   0.02     0.06  -0.06  -0.03    -0.01  -0.06   0.12
  76   6    -0.04   0.04  -0.00     0.04  -0.06  -0.02     0.01  -0.05   0.10
  77   6    -0.03   0.05  -0.01     0.02  -0.07  -0.03    -0.01  -0.06   0.12
  78   6    -0.02   0.06  -0.03     0.00  -0.07  -0.03     0.01  -0.05   0.10
  79   6    -0.01   0.07  -0.03    -0.00  -0.06  -0.02     0.04  -0.04   0.08
  80   6    -0.02   0.06  -0.02     0.01  -0.05  -0.01     0.05  -0.03   0.07
  81   6    -0.04   0.05  -0.01     0.03  -0.05  -0.02     0.04  -0.04   0.08
  82   6    -0.05   0.04   0.01     0.05  -0.04  -0.02     0.04  -0.04   0.07
  83   6    -0.05   0.05   0.01     0.06  -0.02  -0.01     0.07  -0.03   0.04
  84   1    -0.03   0.00   0.02     0.03  -0.00  -0.01     0.01  -0.01   0.02
  85   1    -0.03   0.00   0.02     0.03  -0.01  -0.01    -0.00  -0.02   0.03
  86   1    -0.02   0.01   0.01     0.02  -0.02  -0.01    -0.01  -0.02   0.04
  87   1    -0.01   0.01  -0.00     0.01  -0.02  -0.01    -0.01  -0.02   0.04
  88   1    -0.00   0.02  -0.01    -0.00  -0.02  -0.01     0.00  -0.02   0.03
  89   1    -0.01   0.02  -0.01     0.00  -0.01  -0.00     0.02  -0.01   0.01
  90   1    -0.01   0.02  -0.00     0.01  -0.01  -0.00     0.03  -0.01   0.01
  91   6    -0.00   0.07  -0.05    -0.02  -0.06  -0.02     0.05  -0.03   0.07
  92   6     0.01   0.08  -0.05    -0.04  -0.06  -0.02     0.06  -0.02   0.06
  93   6     0.03   0.07  -0.05    -0.05  -0.06  -0.02     0.05  -0.02   0.05
  94   6     0.05   0.09  -0.06    -0.05  -0.06  -0.03     0.04  -0.03   0.05
  95   6     0.06   0.09  -0.05    -0.06  -0.05  -0.05     0.03  -0.03   0.04
  96   6     0.04   0.06  -0.03    -0.06  -0.04  -0.05     0.04  -0.01   0.03
  97   7     0.02   0.05  -0.02    -0.06  -0.04  -0.04     0.06   0.00   0.03
  98   6     0.01   0.05  -0.03    -0.05  -0.04  -0.02     0.06  -0.00   0.03
  99   1     0.02   0.03  -0.02    -0.01  -0.02  -0.01     0.01  -0.01   0.02
 100   1     0.02   0.03  -0.02    -0.02  -0.02  -0.02     0.01  -0.01   0.01
 101   1     0.01   0.02  -0.00    -0.02  -0.01  -0.02     0.01  -0.00   0.01
 102   1    -0.00   0.01  -0.00    -0.01  -0.01  -0.00     0.02   0.00   0.01
 103   6    -0.04  -0.04   0.06    -0.01  -0.01   0.09    -0.01   0.02  -0.07
 104   6    -0.04  -0.06   0.05    -0.00  -0.00   0.09     0.01   0.02  -0.08
 105   6    -0.03  -0.07   0.04     0.02   0.00   0.08    -0.00   0.03  -0.07
 106   6    -0.04  -0.12   0.02     0.07   0.02   0.12    -0.03   0.02  -0.09
 107   6    -0.03  -0.13   0.01     0.09   0.02   0.11    -0.05   0.04  -0.08
 108   6    -0.00  -0.10   0.01     0.07  -0.01   0.06    -0.03   0.05  -0.04
 109   6     0.01  -0.06   0.02     0.03  -0.03   0.03    -0.01   0.06  -0.02
 110   6     0.03  -0.02   0.01     0.01  -0.05  -0.02     0.00   0.07   0.02
 111   6     0.04   0.01   0.02    -0.03  -0.06  -0.05     0.03   0.06   0.04
 112   7     0.02   0.03   0.03    -0.05  -0.06  -0.04     0.04   0.06   0.02
 113   6    -0.00  -0.00   0.04    -0.03  -0.04  -0.00     0.03   0.04  -0.01
 114   6    -0.01  -0.04   0.03     0.01  -0.02   0.03     0.01   0.04  -0.03
 115   1    -0.02  -0.04   0.01     0.02   0.01   0.05    -0.01   0.00  -0.03
 116   1    -0.01  -0.05   0.00     0.04   0.01   0.04    -0.02   0.01  -0.03
 117   1     0.00  -0.03  -0.00     0.03  -0.00   0.02    -0.01   0.02  -0.01
 118   1     0.01  -0.01   0.00     0.01  -0.02  -0.01    -0.00   0.02   0.01
 119   1     0.02   0.01   0.00    -0.01  -0.02  -0.03     0.01   0.02   0.02
 120   1    -0.00   0.00   0.01    -0.01  -0.01   0.00     0.01   0.01  -0.01
 121   6    -0.04  -0.04   0.06    -0.02  -0.02   0.08    -0.03   0.02  -0.06
 122   6    -0.06  -0.02   0.08    -0.03  -0.03   0.10    -0.06   0.04  -0.03
 123   6    -0.05  -0.01   0.08    -0.03  -0.04   0.09    -0.08   0.05  -0.01
 124   6    -0.03  -0.03   0.06    -0.02  -0.05   0.07    -0.09   0.04  -0.01
 125   7    -0.02  -0.03   0.06    -0.02  -0.07   0.06    -0.12   0.06   0.01
 126   6     0.00  -0.04   0.04    -0.02  -0.07   0.04    -0.10   0.05  -0.01
 127   6     0.01  -0.05   0.03    -0.02  -0.08   0.03    -0.12   0.05  -0.00
 128   6     0.03  -0.06   0.02    -0.02  -0.08   0.01    -0.10   0.05  -0.02
 129   6     0.03  -0.07   0.02    -0.01  -0.07   0.00    -0.08   0.03  -0.05
 130   6     0.02  -0.06   0.03    -0.01  -0.06   0.02    -0.07   0.03  -0.06
 131   6     0.00  -0.05   0.04    -0.01  -0.06   0.03    -0.08   0.04  -0.04
 132   6    -0.01  -0.04   0.05    -0.02  -0.05   0.05    -0.07   0.03  -0.04
 133   6    -0.02  -0.05   0.05    -0.02  -0.03   0.06    -0.04   0.02  -0.06
 134   1    -0.02  -0.00   0.03    -0.01  -0.01   0.03    -0.01   0.01  -0.01
 135   1    -0.02  -0.00   0.02    -0.01  -0.01   0.03    -0.03   0.02   0.00
 136   1    -0.01  -0.01   0.02    -0.01  -0.02   0.02    -0.04   0.02   0.01
 137   1     0.00  -0.01   0.01    -0.01  -0.02   0.01    -0.04   0.02   0.01
 138   1     0.01  -0.02   0.00    -0.01  -0.02   0.00    -0.03   0.01  -0.00
 139   1     0.01  -0.02   0.01    -0.00  -0.01   0.00    -0.01   0.01  -0.02
 140   1    -0.00  -0.02   0.01    -0.00  -0.01   0.02    -0.01   0.00  -0.03
 141   6     0.05  -0.07   0.01    -0.01  -0.07  -0.01    -0.07   0.03  -0.06
 142   6     0.05  -0.08  -0.01    -0.01  -0.07  -0.03    -0.06   0.02  -0.06
 143   6     0.05  -0.07  -0.02    -0.02  -0.06  -0.04    -0.05   0.01  -0.06
 144   6     0.06  -0.09  -0.04    -0.03  -0.07  -0.04    -0.05   0.03  -0.05
 145   6     0.05  -0.09  -0.05    -0.04  -0.06  -0.05    -0.05   0.02  -0.04
 146   6     0.03  -0.06  -0.04    -0.04  -0.05  -0.05    -0.04   0.01  -0.05
 147   7     0.01  -0.04  -0.02    -0.03  -0.04  -0.05    -0.03  -0.01  -0.07
 148   6     0.02  -0.05  -0.01    -0.01  -0.05  -0.04    -0.03  -0.00  -0.07
 149   1     0.02  -0.03  -0.02    -0.01  -0.02  -0.01    -0.02   0.01  -0.01
 150   1     0.02  -0.03  -0.02    -0.01  -0.02  -0.02    -0.02   0.01  -0.01
 151   1     0.00  -0.02  -0.01    -0.02  -0.01  -0.02    -0.01   0.00  -0.01
 152   1     0.00  -0.01   0.00    -0.00  -0.01  -0.01    -0.01  -0.00  -0.02
 153   6     0.08   0.04  -0.02     0.08   0.01  -0.01     0.07  -0.01   0.01
 154   6     0.07   0.06  -0.02     0.08   0.00  -0.01     0.08  -0.01  -0.00
 155   6     0.05   0.08  -0.01     0.07   0.01   0.02     0.07  -0.00   0.01
 156   6     0.05   0.12  -0.02     0.10  -0.00   0.06     0.10  -0.01   0.05
 157   6     0.03   0.15  -0.01     0.09   0.01   0.08     0.08  -0.00   0.06
 158   6     0.01   0.13   0.01     0.06   0.02   0.07     0.05   0.02   0.04
 159   6     0.01   0.09   0.02     0.03   0.03   0.03     0.02   0.03   0.01
 160   6    -0.01   0.07   0.04    -0.01   0.04   0.01    -0.01   0.04  -0.02
 161   6    -0.02   0.03   0.04    -0.03   0.04  -0.02    -0.03   0.05  -0.05
 162   7     0.01   0.00   0.03    -0.03   0.03  -0.04    -0.03   0.04  -0.06
 163   6     0.03   0.02   0.01     0.01   0.02  -0.03     0.01   0.02  -0.04
 164   6     0.03   0.06   0.01     0.04   0.02   0.01     0.03   0.02  -0.01
 165   1     0.02   0.04  -0.01     0.04  -0.00   0.02     0.04  -0.01   0.02
 166   1     0.01   0.05  -0.00     0.03   0.00   0.03     0.03  -0.00   0.03
 167   1    -0.00   0.04   0.01     0.02   0.01   0.03     0.01   0.01   0.01
 168   1    -0.01   0.02   0.01    -0.00   0.01   0.01    -0.01   0.02  -0.00
 169   1    -0.01   0.00   0.02    -0.02   0.01  -0.01    -0.02   0.02  -0.02
 170   1     0.01  -0.00   0.00     0.00   0.01  -0.01     0.00   0.01  -0.01
 171   6     0.08   0.04  -0.02     0.07   0.03  -0.02     0.06  -0.00   0.02
 172   6     0.08   0.03  -0.03     0.08   0.04  -0.01     0.05   0.01   0.04
 173   6     0.08   0.04  -0.02     0.07   0.06  -0.01     0.03   0.02   0.06
 174   6     0.07   0.04  -0.01     0.05   0.06  -0.01     0.03   0.03   0.07
 175   7     0.07   0.05  -0.01     0.05   0.09  -0.02     0.01   0.04   0.10
 176   6     0.06   0.05   0.00     0.03   0.08  -0.02     0.02   0.04   0.09
 177   6     0.05   0.06   0.01     0.02   0.09  -0.03     0.00   0.05   0.11
 178   6     0.04   0.06   0.02     0.01   0.08  -0.03     0.01   0.04   0.10
 179   6     0.04   0.06   0.02     0.01   0.06  -0.03     0.03   0.02   0.07
 180   6     0.05   0.06   0.01     0.02   0.05  -0.03     0.05   0.02   0.05
 181   6     0.06   0.05   0.00     0.03   0.06  -0.02     0.04   0.02   0.06
 182   6     0.07   0.05  -0.01     0.05   0.05  -0.02     0.05   0.02   0.05
 183   6     0.07   0.04  -0.01     0.06   0.03  -0.02     0.06   0.00   0.03
 184   1     0.03   0.01  -0.01     0.03   0.01  -0.00     0.02   0.00   0.01
 185   1     0.02   0.01  -0.01     0.02   0.02  -0.00     0.01   0.01   0.02
 186   1     0.02   0.01  -0.00     0.01   0.03  -0.00    -0.00   0.01   0.03
 187   1     0.01   0.02   0.00     0.01   0.03  -0.01    -0.00   0.02   0.04
 188   1     0.01   0.02   0.01    -0.00   0.02  -0.01     0.00   0.01   0.03
 189   1     0.02   0.02   0.00     0.01   0.01  -0.01     0.02   0.00   0.01
 190   1     0.02   0.01  -0.00     0.01   0.01  -0.01     0.02  -0.00   0.00
 191   6     0.03   0.06   0.03    -0.01   0.06  -0.04     0.04   0.02   0.06
 192   6     0.01   0.06   0.03    -0.02   0.05  -0.04     0.04   0.01   0.05
 193   6    -0.01   0.06   0.04    -0.03   0.04  -0.05     0.05   0.01   0.04
 194   6    -0.03   0.07   0.04    -0.03   0.05  -0.08     0.04   0.01   0.05
 195   6    -0.05   0.07   0.05    -0.04   0.04  -0.09     0.04   0.01   0.05
 196   6    -0.04   0.05   0.04    -0.05   0.02  -0.08     0.04   0.01   0.04
 197   7    -0.03   0.04   0.04    -0.05   0.02  -0.05     0.06   0.01   0.03
 198   6    -0.01   0.04   0.03    -0.04   0.03  -0.04     0.06   0.01   0.03
 199   1    -0.01   0.02   0.01    -0.01   0.02  -0.02     0.01   0.01   0.02
 200   1    -0.02   0.02   0.01    -0.01   0.01  -0.03     0.01   0.00   0.02
 201   1    -0.02   0.01   0.01    -0.02   0.00  -0.02     0.01   0.00   0.01
 202   1     0.00   0.01   0.01    -0.01   0.01  -0.00     0.02   0.00   0.01
                     10                     11                     12
                        a                      a                      a 
 Frequencies --    20.9701                24.3969                25.5273
 Red. masses --    20.5537                13.8433                14.3401
 Frc consts  --     0.0000                 0.0000                 0.0000
 IR Inten    --     0.0766                 0.0515                 0.1076
 Raman Activ --     0.0000                 0.0000                 0.0000
 Depolar     --     0.0000                 0.0000                 0.0000
 Atom AN      X      Y      Z        X      Y      Z        X      Y      Z
   1  46     0.01   0.22  -0.04    -0.09   0.02  -0.07    -0.11   0.00   0.04
   2  46    -0.04   0.22  -0.00     0.07  -0.02   0.09     0.02  -0.01  -0.14
   3   6     0.02  -0.02  -0.02     0.05  -0.01   0.03     0.03  -0.06   0.05
   4   6     0.03  -0.03  -0.01     0.03  -0.00   0.03     0.04  -0.03   0.04
   5   6     0.04  -0.04  -0.01     0.01   0.01   0.02     0.03   0.01   0.01
   6   6     0.07  -0.09   0.02    -0.01   0.03   0.01     0.03   0.03   0.01
   7   6     0.06  -0.11   0.03    -0.03   0.06  -0.01     0.02   0.07  -0.02
   8   6     0.02  -0.07   0.02    -0.04   0.07  -0.02    -0.00   0.09  -0.05
   9   6    -0.01  -0.02  -0.00    -0.02   0.05  -0.01    -0.00   0.07  -0.06
  10   6    -0.05   0.02  -0.01    -0.03   0.06  -0.02    -0.02   0.08  -0.09
  11   6    -0.06   0.06  -0.02    -0.01   0.03  -0.00    -0.01   0.06  -0.09
  12   7    -0.05   0.08  -0.03     0.02   0.01   0.03     0.01   0.02  -0.05
  13   6    -0.02   0.04  -0.03     0.02   0.00   0.03     0.02   0.00  -0.02
  14   6     0.00  -0.00  -0.01     0.00   0.02   0.02     0.02   0.02  -0.02
  15   1     0.03  -0.04   0.01    -0.00   0.01   0.00     0.01   0.00   0.01
  16   1     0.02  -0.04   0.01    -0.01   0.02  -0.01     0.01   0.03  -0.00
  17   1     0.00  -0.02   0.01    -0.02   0.03  -0.01    -0.00   0.04  -0.02
  18   1    -0.02   0.00  -0.00    -0.01   0.02  -0.01    -0.01   0.03  -0.03
  19   1    -0.03   0.03  -0.01    -0.00   0.01  -0.00    -0.01   0.02  -0.03
  20   1    -0.00   0.02  -0.01     0.01  -0.01   0.02     0.01  -0.01   0.00
  21   6     0.00  -0.01  -0.01     0.07   0.00   0.02     0.02  -0.07   0.06
  22   6    -0.02  -0.01   0.01     0.11   0.03   0.00    -0.01  -0.07   0.08
  23   6    -0.05  -0.01   0.02     0.11   0.04  -0.01    -0.02  -0.06   0.09
  24   6    -0.06  -0.01   0.01     0.08   0.03   0.00    -0.01  -0.05   0.06
  25   7    -0.09  -0.02   0.02     0.07   0.05  -0.00    -0.01  -0.04   0.06
  26   6    -0.08  -0.01   0.00     0.03   0.02   0.00     0.01  -0.03   0.03
  27   6    -0.10  -0.01   0.01     0.01   0.03   0.00     0.02  -0.01   0.00
  28   6    -0.08  -0.01  -0.02    -0.03   0.00   0.01     0.03  -0.01  -0.02
  29   6    -0.04  -0.00  -0.04    -0.04  -0.02   0.02     0.04  -0.02  -0.03
  30   6    -0.03  -0.00  -0.04    -0.02  -0.02   0.02     0.04  -0.04  -0.01
  31   6    -0.04  -0.01  -0.02     0.01  -0.00   0.02     0.02  -0.04   0.02
  32   6    -0.03  -0.01  -0.01     0.04   0.00   0.01     0.01  -0.05   0.04
  33   6    -0.00  -0.01  -0.03     0.04  -0.01   0.02     0.03  -0.06   0.04
  34   1    -0.00  -0.00   0.01     0.04   0.01  -0.00    -0.01  -0.02   0.03
  35   1    -0.02  -0.00   0.01     0.04   0.02  -0.00    -0.01  -0.02   0.03
  36   1    -0.03  -0.01   0.01     0.02   0.02  -0.00    -0.01  -0.01   0.02
  37   1    -0.04  -0.01   0.01     0.01   0.01  -0.00     0.00  -0.00   0.00
  38   1    -0.03  -0.00  -0.01    -0.01   0.00   0.00     0.01  -0.00  -0.01
  39   1     0.00   0.00  -0.02    -0.01  -0.01   0.01     0.01  -0.01  -0.00
  40   1     0.00  -0.00  -0.01     0.00  -0.01   0.01     0.01  -0.02   0.01
  41   6    -0.01   0.01  -0.06    -0.07  -0.03   0.02     0.04  -0.02  -0.04
  42   6     0.02   0.02  -0.07    -0.09  -0.05   0.02     0.04  -0.03  -0.05
  43   6     0.04   0.04  -0.07    -0.09  -0.05   0.02     0.03  -0.03  -0.04
  44   6     0.08   0.03  -0.07    -0.12  -0.06   0.04     0.07  -0.03  -0.05
  45   6     0.10   0.05  -0.06    -0.11  -0.05   0.04     0.05  -0.03  -0.03
  46   6     0.07   0.06  -0.05    -0.07  -0.04   0.01     0.01  -0.03  -0.00
  47   7     0.05   0.07  -0.05    -0.05  -0.03  -0.01    -0.03  -0.03   0.01
  48   6     0.03   0.06  -0.06    -0.06  -0.04  -0.00    -0.01  -0.03  -0.01
  49   1     0.03   0.01  -0.02    -0.04  -0.02   0.02     0.03  -0.01  -0.02
  50   1     0.04   0.01  -0.02    -0.04  -0.02   0.01     0.02  -0.01  -0.01
  51   1     0.02   0.02  -0.01    -0.02  -0.01   0.00    -0.00  -0.01   0.01
  52   1     0.00   0.02  -0.02    -0.01  -0.01  -0.01    -0.01  -0.01  -0.00
  53   6     0.05  -0.03  -0.01    -0.04  -0.08  -0.07     0.04   0.07   0.04
  54   6     0.05  -0.04  -0.03    -0.03  -0.04  -0.05     0.02   0.04   0.04
  55   6     0.03  -0.07  -0.03    -0.00   0.01  -0.01    -0.00   0.00   0.04
  56   6     0.01  -0.13  -0.05     0.03   0.06   0.03    -0.01  -0.02   0.03
  57   6    -0.02  -0.16  -0.05     0.07   0.12   0.08    -0.04  -0.06   0.01
  58   6    -0.02  -0.12  -0.02     0.07   0.14   0.09    -0.06  -0.08  -0.01
  59   6    -0.00  -0.06  -0.00     0.04   0.09   0.05    -0.06  -0.06  -0.00
  60   6    -0.01  -0.02   0.03     0.04   0.10   0.06    -0.08  -0.08  -0.02
  61   6     0.01   0.03   0.04     0.01   0.06   0.02    -0.08  -0.05  -0.01
  62   7     0.03   0.06   0.03    -0.03   0.01  -0.02    -0.05  -0.02   0.01
  63   6     0.04   0.03   0.00    -0.04  -0.01  -0.04    -0.02   0.00   0.03
  64   6     0.03  -0.03  -0.01    -0.00   0.03  -0.00    -0.03  -0.02   0.02
  65   1     0.00  -0.05  -0.02     0.01   0.01   0.01     0.00  -0.00   0.01
  66   1    -0.01  -0.06  -0.02     0.03   0.04   0.03    -0.01  -0.02   0.00
  67   1    -0.01  -0.04  -0.00     0.03   0.05   0.04    -0.03  -0.03  -0.01
  68   1    -0.01  -0.01   0.01     0.02   0.04   0.03    -0.03  -0.03  -0.01
  69   1     0.00   0.02   0.02     0.00   0.02   0.01    -0.03  -0.02  -0.01
  70   1     0.02   0.01  -0.00    -0.02  -0.01  -0.02     0.00   0.01   0.01
  71   6     0.04  -0.02   0.02    -0.05  -0.09  -0.06     0.05   0.07   0.03
  72   6     0.01  -0.03   0.03    -0.07  -0.08  -0.06     0.08   0.07   0.01
  73   6    -0.01  -0.03   0.06    -0.07  -0.06  -0.05     0.09   0.06  -0.01
  74   6    -0.01  -0.03   0.07    -0.05  -0.06  -0.04     0.06   0.05   0.00
  75   7    -0.03  -0.04   0.09    -0.04  -0.04  -0.04     0.05   0.04  -0.00
  76   6    -0.01  -0.04   0.08    -0.01  -0.03  -0.03     0.01   0.03   0.01
  77   6    -0.02  -0.04   0.10     0.02  -0.01  -0.03    -0.01   0.01   0.01
  78   6    -0.00  -0.04   0.08     0.04  -0.02  -0.02    -0.04   0.01   0.02
  79   6     0.03  -0.02   0.06     0.04  -0.04  -0.02    -0.05   0.02   0.02
  80   6     0.04  -0.02   0.05     0.02  -0.06  -0.03    -0.03   0.04   0.02
  81   6     0.02  -0.03   0.06    -0.00  -0.06  -0.04     0.00   0.04   0.02
  82   6     0.02  -0.03   0.05    -0.03  -0.07  -0.05     0.03   0.05   0.01
  83   6     0.04  -0.02   0.02    -0.03  -0.08  -0.06     0.03   0.06   0.03
  84   1     0.00  -0.01   0.01    -0.03  -0.02  -0.02     0.03   0.02   0.00
  85   1    -0.01  -0.01   0.02    -0.02  -0.02  -0.01     0.03   0.02  -0.01
  86   1    -0.01  -0.01   0.03    -0.01  -0.01  -0.01     0.02   0.01  -0.00
  87   1    -0.01  -0.02   0.03     0.01   0.00  -0.01    -0.00   0.00   0.00
  88   1    -0.00  -0.01   0.03     0.02  -0.00  -0.01    -0.02  -0.00   0.00
  89   1     0.02  -0.00   0.01     0.01  -0.02  -0.01    -0.01   0.01   0.01
  90   1     0.02  -0.01   0.00    -0.00  -0.03  -0.02     0.00   0.02   0.01
  91   6     0.05  -0.01   0.04     0.06  -0.05  -0.01    -0.07   0.02   0.02
  92   6     0.05   0.01   0.01     0.07  -0.07   0.01    -0.08   0.03   0.01
  93   6     0.05   0.03  -0.02     0.06  -0.07   0.02    -0.06   0.03   0.01
  94   6     0.06   0.03  -0.07     0.05  -0.08   0.01    -0.07   0.03   0.04
  95   6     0.05   0.04  -0.10     0.02  -0.08   0.01    -0.04   0.03   0.03
  96   6     0.03   0.06  -0.08     0.02  -0.07   0.02    -0.02   0.03  -0.01
  97   7     0.02   0.07  -0.04     0.03  -0.06   0.03    -0.01   0.03  -0.04
  98   6     0.03   0.05  -0.01     0.05  -0.06   0.02    -0.03   0.03  -0.02
  99   1     0.02   0.00  -0.03     0.02  -0.03   0.00    -0.03   0.01   0.02
 100   1     0.02   0.01  -0.04     0.00  -0.03   0.00    -0.01   0.01   0.01
 101   1     0.01   0.02  -0.03     0.00  -0.02   0.01     0.00   0.01  -0.01
 102   1     0.01   0.01   0.01     0.02  -0.01   0.01    -0.01   0.01  -0.01
 103   6    -0.01  -0.02   0.05     0.08   0.09   0.05     0.03   0.08   0.03
 104   6    -0.03  -0.04   0.04     0.06   0.05   0.03     0.04   0.05   0.01
 105   6    -0.03  -0.06   0.03     0.02  -0.01   0.01     0.03   0.01  -0.01
 106   6    -0.05  -0.12   0.01    -0.02  -0.05  -0.03     0.03  -0.01  -0.01
 107   6    -0.05  -0.15  -0.02    -0.07  -0.12  -0.07     0.01  -0.04  -0.04
 108   6    -0.02  -0.12  -0.02    -0.09  -0.14  -0.08    -0.00  -0.07  -0.07
 109   6    -0.00  -0.06  -0.00    -0.05  -0.09  -0.04    -0.00  -0.05  -0.06
 110   6     0.03  -0.02  -0.01    -0.06  -0.11  -0.05    -0.02  -0.07  -0.09
 111   6     0.04   0.03   0.01    -0.03  -0.07  -0.02    -0.01  -0.05  -0.08
 112   7     0.03   0.06   0.03     0.02  -0.02   0.03     0.01  -0.02  -0.05
 113   6     0.00   0.03   0.04     0.04   0.01   0.04     0.02   0.00  -0.03
 114   6    -0.01  -0.03   0.03     0.00  -0.03   0.00     0.02  -0.01  -0.03
 115   1    -0.02  -0.04   0.00    -0.00  -0.01  -0.01     0.01   0.00   0.00
 116   1    -0.02  -0.06  -0.01    -0.03  -0.04  -0.03     0.00  -0.02  -0.01
 117   1    -0.01  -0.04  -0.01    -0.04  -0.05  -0.03    -0.01  -0.03  -0.03
 118   1     0.01  -0.01  -0.01    -0.03  -0.04  -0.03    -0.01  -0.03  -0.03
 119   1     0.02   0.02   0.00    -0.01  -0.02  -0.01    -0.01  -0.02  -0.03
 120   1    -0.00   0.01   0.02     0.02   0.01   0.02     0.01   0.01  -0.00
 121   6     0.02  -0.02   0.04     0.07   0.09   0.06     0.01   0.08   0.05
 122   6     0.03  -0.02   0.01     0.06   0.09   0.08    -0.02   0.10   0.09
 123   6     0.06  -0.03  -0.01     0.05   0.07   0.08    -0.03   0.09   0.09
 124   6     0.07  -0.03  -0.00     0.04   0.06   0.06    -0.02   0.08   0.06
 125   7     0.10  -0.05  -0.02     0.04   0.04   0.05    -0.02   0.07   0.06
 126   6     0.08  -0.04  -0.01     0.04   0.03   0.01     0.00   0.05   0.01
 127   6     0.10  -0.04  -0.02     0.03   0.01  -0.02     0.01   0.03  -0.01
 128   6     0.08  -0.04   0.00     0.03   0.02  -0.05     0.03   0.02  -0.05
 129   6     0.06  -0.02   0.03     0.03   0.04  -0.05     0.04   0.02  -0.06
 130   6     0.05  -0.02   0.04     0.04   0.06  -0.02     0.03   0.04  -0.04
 131   6     0.06  -0.03   0.02     0.04   0.06   0.01     0.02   0.05  -0.00
 132   6     0.05  -0.02   0.02     0.05   0.07   0.03     0.01   0.07   0.03
 133   6     0.02  -0.02   0.04     0.06   0.09   0.04     0.02   0.07   0.02
 134   1     0.01  -0.01   0.00     0.02   0.03   0.03    -0.01   0.03   0.03
 135   1     0.02  -0.01  -0.01     0.01   0.02   0.03    -0.02   0.03   0.04
 136   1     0.03  -0.01  -0.01     0.01   0.01   0.01    -0.01   0.02   0.02
 137   1     0.03  -0.02  -0.01     0.01  -0.00  -0.00     0.00   0.01  -0.00
 138   1     0.03  -0.01  -0.00     0.01   0.00  -0.02     0.01   0.00  -0.02
 139   1     0.01  -0.00   0.02     0.01   0.02  -0.01     0.01   0.01  -0.01
 140   1     0.00  -0.00   0.02     0.02   0.03   0.01     0.01   0.02  -0.00
 141   6     0.04  -0.01   0.05     0.02   0.05  -0.07     0.05   0.02  -0.08
 142   6     0.01   0.01   0.05     0.00   0.07  -0.08     0.05   0.02  -0.09
 143   6    -0.03   0.03   0.05    -0.01   0.07  -0.07     0.05   0.02  -0.08
 144   6    -0.08   0.03   0.06     0.00   0.08  -0.06     0.10   0.01  -0.09
 145   6    -0.11   0.05   0.05    -0.00   0.08  -0.03     0.09   0.01  -0.07
 146   6    -0.08   0.07   0.03    -0.01   0.07  -0.02     0.03   0.02  -0.02
 147   7    -0.04   0.07   0.02    -0.03   0.06  -0.04    -0.01   0.03  -0.01
 148   6    -0.01   0.05   0.03    -0.02   0.06  -0.06    -0.00   0.02  -0.03
 149   1    -0.03   0.01   0.02     0.00   0.03  -0.02     0.04  -0.00  -0.04
 150   1    -0.04   0.02   0.02     0.00   0.03  -0.01     0.04   0.00  -0.02
 151   1    -0.03   0.02   0.01    -0.00   0.02  -0.00     0.01   0.01   0.00
 152   1     0.01   0.01   0.01    -0.01   0.01  -0.02    -0.01   0.01  -0.01
 153   6    -0.02  -0.02   0.02    -0.02   0.01  -0.06     0.06  -0.10   0.07
 154   6    -0.02  -0.03   0.04    -0.03   0.00  -0.03     0.04  -0.05   0.07
 155   6    -0.01  -0.04   0.04    -0.02  -0.01  -0.01     0.01   0.01   0.04
 156   6     0.01  -0.09   0.07    -0.01  -0.03   0.01    -0.00   0.04   0.02
 157   6     0.02  -0.11   0.06     0.01  -0.06   0.04    -0.05   0.11  -0.03
 158   6     0.01  -0.07   0.02     0.02  -0.07   0.05    -0.08   0.13  -0.05
 159   6    -0.00  -0.02  -0.01     0.00  -0.05   0.03    -0.07   0.10  -0.03
 160   6    -0.01   0.02  -0.05     0.01  -0.06   0.03    -0.10   0.12  -0.06
 161   6    -0.02   0.06  -0.07    -0.00  -0.04   0.01    -0.09   0.08  -0.03
 162   7    -0.03   0.08  -0.05    -0.03  -0.01  -0.02    -0.04   0.02   0.01
 163   6    -0.03   0.04  -0.02    -0.03  -0.00  -0.02    -0.01  -0.00   0.04
 164   6    -0.02  -0.00   0.00    -0.02  -0.02  -0.00    -0.03   0.03   0.02
 165   1     0.00  -0.04   0.03    -0.00  -0.01   0.00     0.01   0.01   0.01
 166   1     0.01  -0.04   0.03     0.01  -0.02   0.02    -0.02   0.04  -0.01
 167   1     0.01  -0.02   0.01     0.01  -0.03   0.02    -0.03   0.05  -0.03
 168   1     0.00   0.00  -0.02     0.01  -0.02   0.02    -0.04   0.05  -0.03
 169   1    -0.01   0.03  -0.03     0.00  -0.01   0.01    -0.03   0.03  -0.01
 170   1    -0.01   0.02  -0.00    -0.01   0.01  -0.01     0.01  -0.01   0.02
 171   6    -0.01  -0.02   0.00    -0.01  -0.00  -0.07     0.07  -0.11   0.05
 172   6     0.01  -0.02  -0.02     0.00  -0.03  -0.11     0.11  -0.11   0.01
 173   6     0.02  -0.02  -0.05     0.01  -0.05  -0.11     0.11  -0.10  -0.01
 174   6     0.01  -0.02  -0.06     0.00  -0.04  -0.08     0.08  -0.08   0.01
 175   7     0.03  -0.02  -0.09     0.01  -0.05  -0.07     0.07  -0.07  -0.00
 176   6     0.01  -0.02  -0.08    -0.00  -0.03  -0.03     0.02  -0.05   0.02
 177   6     0.01  -0.02  -0.10    -0.00  -0.03  -0.01    -0.01  -0.03   0.02
 178   6    -0.02  -0.01  -0.08    -0.01  -0.00   0.03    -0.04  -0.03   0.04
 179   6    -0.04  -0.00  -0.04    -0.02   0.02   0.04    -0.05  -0.04   0.05
 180   6    -0.04  -0.01  -0.03    -0.02   0.02   0.02    -0.03  -0.06   0.05
 181   6    -0.02  -0.01  -0.05    -0.01  -0.00  -0.02     0.01  -0.07   0.04
 182   6    -0.01  -0.01  -0.03    -0.01  -0.01  -0.04     0.04  -0.08   0.03
 183   6    -0.03  -0.01  -0.01    -0.02   0.01  -0.04     0.04  -0.09   0.05
 184   1     0.01  -0.01  -0.00     0.00  -0.01  -0.04     0.04  -0.03   0.00
 185   1     0.01  -0.01  -0.02     0.01  -0.02  -0.04     0.04  -0.03  -0.01
 186   1     0.01  -0.01  -0.03     0.01  -0.02  -0.02     0.02  -0.02  -0.00
 187   1     0.01  -0.01  -0.04     0.00  -0.01  -0.00     0.00  -0.00   0.00
 188   1    -0.00  -0.00  -0.03    -0.00  -0.00   0.01    -0.02  -0.00   0.01
 189   1    -0.02   0.00  -0.00    -0.01   0.01   0.01    -0.01  -0.02   0.02
 190   1    -0.01  -0.00   0.00    -0.01   0.01  -0.00     0.00  -0.03   0.02
[...]
 158   6     0.00   0.00   0.00    -0.00  -0.00  -0.00    -0.00   0.00   0.00
 159   6     0.00   0.00   0.00     0.00   0.00  -0.00     0.00   0.00  -0.00
 160   6     0.00   0.00  -0.00    -0.00  -0.00  -0.00    -0.00  -0.00   0.00
 161   6     0.00  -0.00  -0.00     0.00  -0.00  -0.00     0.00   0.00   0.00
 162   7     0.00   0.00  -0.00     0.00   0.00  -0.00    -0.00   0.00   0.00
 163   6     0.00   0.00   0.00     0.00   0.00   0.00     0.00  -0.00  -0.00
 164   6     0.00   0.00  -0.00     0.00   0.00  -0.00    -0.00   0.00   0.00
 165   1    -0.00  -0.00  -0.00    -0.00  -0.00  -0.00     0.00   0.00   0.00
 166   1    -0.00   0.00   0.00     0.00  -0.00  -0.00    -0.00   0.00   0.00
 167   1    -0.00  -0.00  -0.00     0.00   0.00   0.00    -0.00  -0.00   0.00
 168   1    -0.00  -0.00  -0.00     0.00   0.00   0.00    -0.00   0.00   0.00
 169   1    -0.00   0.00   0.00    -0.00   0.00   0.00     0.00  -0.00  -0.00
 170   1    -0.00   0.00   0.00    -0.00  -0.00   0.00    -0.00  -0.00   0.00
 171   6     0.00   0.00   0.00     0.00   0.00   0.00     0.00  -0.00   0.00
 172   6    -0.00  -0.00   0.00    -0.00  -0.00   0.00     0.00   0.00  -0.00
 173   6     0.00  -0.00   0.00     0.00  -0.00   0.00    -0.00   0.00  -0.00
 174   6     0.00   0.00  -0.00     0.00   0.00  -0.00    -0.00  -0.00   0.00
 175   7    -0.00   0.00  -0.00    -0.00   0.00  -0.00     0.00  -0.00   0.00
 176   6     0.00   0.00  -0.00     0.00   0.00   0.00     0.00   0.00  -0.00
 177   6    -0.00   0.00  -0.00     0.00  -0.00   0.00    -0.00  -0.00   0.00
 178   6    -0.00  -0.00  -0.00     0.00   0.00   0.00    -0.00  -0.00  -0.00
 179   6     0.00  -0.00   0.00    -0.00   0.00  -0.00    -0.00   0.00  -0.00
 180   6     0.00  -0.00   0.00    -0.00  -0.00  -0.00     0.00   0.00   0.00
 181   6     0.00   0.00   0.00    -0.00  -0.00   0.00    -0.00  -0.00  -0.00
 182   6    -0.00  -0.00   0.00    -0.00  -0.00   0.00    -0.00   0.00  -0.00
 183   6     0.00  -0.00   0.00     0.00  -0.00   0.00     0.00  -0.00   0.00
 184   1     0.00   0.00  -0.00     0.00   0.01  -0.00    -0.00  -0.00   0.00
 185   1    -0.00   0.00  -0.00    -0.00   0.00  -0.00     0.00  -0.00   0.00
 186   1     0.00   0.00   0.00     0.00   0.00   0.00    -0.00   0.00  -0.00
 187   1     0.00  -0.00   0.00    -0.00   0.00  -0.00     0.00  -0.00   0.00
 188   1     0.00   0.00   0.00    -0.00  -0.00  -0.00     0.00   0.00  -0.00
 189   1    -0.00   0.00  -0.00     0.00   0.00   0.00    -0.00   0.00  -0.00
 190   1    -0.00   0.00  -0.00    -0.00   0.00  -0.01    -0.00   0.00  -0.00
 191   6     0.00  -0.00   0.00     0.00  -0.00  -0.00    -0.00  -0.00   0.00
 192   6    -0.00   0.00  -0.00    -0.00  -0.00  -0.00     0.00  -0.00   0.00
 193   6     0.00   0.00  -0.00     0.00   0.00  -0.00     0.00   0.00  -0.00
 194   6    -0.00  -0.00  -0.00    -0.00  -0.00  -0.00    -0.00  -0.00  -0.00
 195   6    -0.00  -0.00  -0.00    -0.00  -0.00  -0.00     0.00   0.00   0.00
 196   6     0.00  -0.00   0.00     0.00  -0.00   0.00     0.00  -0.00   0.00
 197   7     0.00   0.00   0.00    -0.00   0.00  -0.00     0.00   0.00   0.00
 198   6     0.00   0.00   0.00    -0.00  -0.00  -0.00    -0.00   0.00  -0.00
 199   1     0.01   0.00   0.00     0.01   0.00   0.00     0.00  -0.00   0.00
 200   1     0.01   0.01   0.00     0.01   0.01   0.00     0.00   0.00   0.00
 201   1    -0.00   0.00  -0.00    -0.00   0.00  -0.00    -0.00   0.00  -0.00
 202   1    -0.00  -0.00  -0.00     0.00   0.00   0.00     0.00   0.00   0.00
                    598                    599                    600
                        a                      a                      a 
 Frequencies --  3475.9791              3476.8755              3476.9648
 Red. masses --     1.8688                 1.8689                 1.8688
 Frc consts  --     0.0000                 0.0000                 0.0000
 IR Inten    --     0.5794                 0.5803                 0.6773
 Raman Activ --     0.0000                 0.0000                 0.0000
 Depolar     --     0.0000                 0.0000                 0.0000
 Atom AN      X      Y      Z        X      Y      Z        X      Y      Z
   1  46    -0.00  -0.00  -0.00    -0.00  -0.00  -0.00    -0.00  -0.00  -0.00
   2  46    -0.00   0.00  -0.00    -0.00  -0.00  -0.00    -0.00  -0.00  -0.00
   3   6    -0.00  -0.00  -0.00    -0.00  -0.00  -0.00    -0.00  -0.00  -0.00
   4   6    -0.00   0.00   0.00     0.00   0.00   0.00     0.00   0.00   0.00
   5   6    -0.00  -0.00  -0.00    -0.00  -0.00  -0.00    -0.00  -0.00  -0.00
   6   6    -0.00  -0.00  -0.00     0.00   0.00   0.00    -0.00  -0.00   0.00
   7   6    -0.00  -0.00   0.00     0.00  -0.00  -0.00    -0.00  -0.00  -0.00
   8   6     0.00   0.00   0.00     0.00  -0.00  -0.00     0.00   0.00  -0.00
   9   6    -0.00   0.00   0.00    -0.00   0.00   0.00    -0.00   0.00   0.00
  10   6     0.00  -0.00  -0.00     0.00  -0.00  -0.00     0.00   0.00  -0.00
  11   6     0.00   0.00   0.00    -0.00  -0.00   0.00     0.00   0.00   0.00
  12   7     0.00   0.00  -0.00     0.00   0.00  -0.00     0.00  -0.00  -0.00
  13   6    -0.00  -0.00   0.00    -0.00   0.00   0.00    -0.00  -0.00   0.00
  14   6     0.00   0.00  -0.00     0.00   0.00  -0.00     0.00   0.00  -0.00
  15   1     0.00   0.00   0.00    -0.00  -0.00  -0.00     0.00   0.00   0.00
  16   1     0.00   0.00  -0.00    -0.00   0.00   0.00     0.00   0.00  -0.00
  17   1    -0.00  -0.00  -0.00     0.00   0.00   0.00    -0.00  -0.00  -0.00
  18   1    -0.00   0.00  -0.00     0.00   0.00   0.00    -0.00  -0.00  -0.00
  19   1    -0.00  -0.00   0.00     0.00   0.00   0.00    -0.00  -0.00  -0.00
  20   1     0.00  -0.00  -0.00    -0.00  -0.00  -0.00     0.00   0.00  -0.00
  21   6    -0.00   0.00  -0.00     0.00  -0.00   0.00     0.00  -0.00   0.00
  22   6     0.00   0.00   0.00    -0.00  -0.00  -0.00    -0.00  -0.00  -0.00
  23   6    -0.00  -0.00  -0.00    -0.00   0.00   0.00    -0.00   0.00   0.00
  24   6     0.00  -0.00   0.00    -0.00   0.00  -0.00    -0.00   0.00  -0.00
  25   7     0.00  -0.00   0.00    -0.17   0.06  -0.18    -0.01   0.00  -0.01
  26   6     0.00   0.00   0.00    -0.00  -0.00  -0.00    -0.00  -0.00  -0.00
  27   6    -0.00   0.00  -0.00     0.00  -0.00  -0.00     0.00  -0.00  -0.00
  28   6     0.00  -0.00  -0.00    -0.00   0.00  -0.00    -0.00   0.00  -0.00
  29   6     0.00  -0.00  -0.00     0.00  -0.00   0.00     0.00  -0.00   0.00
  30   6     0.00   0.00   0.00    -0.00  -0.00  -0.00    -0.00  -0.00  -0.00
  31   6    -0.00  -0.00  -0.00     0.00   0.00   0.00     0.00   0.00   0.00
  32   6    -0.00   0.00  -0.00     0.00  -0.00   0.00     0.00  -0.00   0.00
  33   6     0.00  -0.00   0.00    -0.00   0.00  -0.00    -0.00   0.00   0.00
  34   1     0.00  -0.00  -0.00    -0.00   0.00   0.00    -0.00   0.00   0.00
  35   1     0.00   0.00   0.00     0.00  -0.00   0.00     0.00  -0.00   0.00
  36   1    -0.00   0.00  -0.00     0.63  -0.24   0.69     0.04  -0.02   0.04
  37   1     0.00  -0.00   0.00     0.00   0.00   0.00     0.00   0.00   0.00
  38   1    -0.00   0.00   0.00     0.00  -0.00  -0.00     0.00  -0.00  -0.00
  39   1    -0.00   0.00  -0.00     0.00   0.00   0.00    -0.00   0.00   0.00
  40   1    -0.00   0.00  -0.00     0.00  -0.00   0.00    -0.00  -0.00  -0.00
  41   6    -0.00   0.00  -0.00    -0.00   0.00  -0.00    -0.00   0.00  -0.00
  42   6     0.00  -0.00   0.00     0.00  -0.00   0.00     0.00  -0.00   0.00
  43   6    -0.00   0.00   0.00    -0.00   0.00  -0.00    -0.00   0.00  -0.00
  44   6    -0.00  -0.00  -0.00     0.00  -0.00  -0.00     0.00  -0.00  -0.00
  45   6     0.00   0.00   0.00    -0.00   0.00  -0.00    -0.00   0.00  -0.00
  46   6     0.00  -0.00   0.00     0.00  -0.00   0.00     0.00  -0.00   0.00
  47   7     0.00   0.00   0.00    -0.00   0.00   0.00     0.00   0.00   0.00
  48   6    -0.00   0.00   0.00     0.00  -0.00   0.00    -0.00   0.00   0.00
  49   1     0.00   0.00   0.00     0.00   0.00   0.00     0.00  -0.00   0.00
  50   1     0.00   0.00   0.00     0.00   0.00   0.00     0.00   0.00   0.00
  51   1    -0.00   0.00   0.00    -0.00   0.00  -0.00    -0.00   0.00  -0.00
  52   1    -0.00   0.00   0.00    -0.00  -0.00  -0.00     0.00   0.00   0.00
  53   6    -0.00   0.00  -0.00    -0.00   0.00  -0.00    -0.00   0.00  -0.00
  54   6     0.00  -0.00   0.00     0.00  -0.00   0.00     0.00  -0.00   0.00
  55   6    -0.00   0.00  -0.00    -0.00   0.00  -0.00    -0.00   0.00  -0.00
  56   6     0.00   0.00  -0.00     0.00  -0.00   0.00     0.00   0.00  -0.00
  57   6     0.00   0.00  -0.00    -0.00   0.00   0.00     0.00   0.00  -0.00
  58   6    -0.00  -0.00   0.00    -0.00   0.00   0.00    -0.00  -0.00   0.00
  59   6     0.00  -0.00  -0.00    -0.00   0.00  -0.00     0.00  -0.00  -0.00
  60   6    -0.00  -0.00   0.00    -0.00   0.00   0.00    -0.00   0.00   0.00
  61   6     0.00  -0.00   0.00    -0.00   0.00  -0.00     0.00  -0.00   0.00
  62   7    -0.00   0.00   0.00     0.00   0.00  -0.00    -0.00  -0.00   0.00
  63   6    -0.00   0.00  -0.00     0.00  -0.00   0.00     0.00   0.00  -0.00
  64   6    -0.00   0.00   0.00     0.00  -0.00  -0.00    -0.00  -0.00   0.00
  65   1     0.00  -0.00   0.00     0.00   0.00  -0.00     0.00  -0.00   0.00
  66   1    -0.00  -0.00   0.00     0.00  -0.00  -0.00    -0.00  -0.00   0.00
  67   1    -0.00   0.00  -0.00     0.00  -0.00   0.00     0.00  -0.00   0.00
  68   1    -0.00   0.00  -0.00     0.00  -0.00   0.00    -0.00  -0.00  -0.00
  69   1    -0.00   0.00  -0.00     0.00  -0.00   0.00     0.00   0.00  -0.00
  70   1     0.00  -0.00   0.00    -0.00   0.00  -0.00    -0.00   0.00   0.00
  71   6     0.00   0.00   0.00     0.00  -0.00   0.00     0.00   0.00   0.00
  72   6    -0.00  -0.00  -0.00    -0.00   0.00  -0.00    -0.00  -0.00  -0.00
  73   6     0.00  -0.00  -0.00     0.00   0.00   0.00     0.00  -0.00   0.00
  74   6    -0.00  -0.00  -0.00    -0.00  -0.00  -0.00    -0.00  -0.00  -0.00
  75   7    -0.00  -0.00  -0.00    -0.00  -0.00  -0.01    -0.00  -0.00  -0.00
  76   6    -0.00   0.00  -0.00    -0.00   0.00  -0.00    -0.00   0.00  -0.00
  77   6    -0.00   0.00   0.00    -0.00   0.00  -0.00    -0.00   0.00  -0.00
  78   6    -0.00  -0.00  -0.00    -0.00   0.00  -0.00    -0.00   0.00  -0.00
  79   6     0.00   0.00   0.00     0.00   0.00   0.00     0.00   0.00   0.00
  80   6     0.00  -0.00   0.00    -0.00   0.00  -0.00     0.00  -0.00   0.00
  81   6     0.00   0.00   0.00     0.00  -0.00   0.00     0.00   0.00   0.00
  82   6     0.00   0.00   0.00     0.00   0.00   0.00     0.00   0.00   0.00
  83   6     0.00   0.00   0.00    -0.00  -0.00  -0.00    -0.00   0.00   0.00
  84   1    -0.00   0.00   0.00     0.00  -0.00  -0.00     0.00   0.00   0.00
  85   1     0.00   0.00   0.00    -0.00  -0.00  -0.00     0.00   0.00   0.00
  86   1     0.00   0.00   0.01     0.02   0.01   0.03     0.00   0.00   0.00
  87   1     0.00  -0.00   0.00     0.00  -0.00   0.00     0.00  -0.00   0.00
  88   1     0.00  -0.00   0.00     0.00  -0.00   0.00     0.00  -0.00   0.00
  89   1    -0.00  -0.00  -0.00     0.00  -0.00   0.00     0.00  -0.00   0.00
  90   1    -0.00  -0.00  -0.00     0.00   0.00   0.00    -0.00  -0.00  -0.00
  91   6    -0.00  -0.00  -0.00    -0.00  -0.00  -0.00    -0.00  -0.00  -0.00
  92   6     0.00   0.00   0.00     0.00   0.00   0.00     0.00   0.00   0.00
  93   6     0.00  -0.00  -0.00    -0.00  -0.00  -0.00     0.00  -0.00  -0.00
  94   6    -0.00   0.00  -0.00    -0.00   0.00  -0.00    -0.00   0.00  -0.00
  95   6    -0.00  -0.00  -0.00    -0.00  -0.00  -0.00     0.00  -0.00  -0.00
  96   6    -0.00   0.00   0.00     0.00  -0.00   0.00    -0.00   0.00   0.00
  97   7     0.00   0.00   0.00     0.00   0.00   0.00     0.00   0.00   0.00
  98   6    -0.00  -0.00  -0.00     0.00   0.00   0.00     0.00  -0.00  -0.00
  99   1     0.00   0.00   0.00     0.00  -0.00   0.00     0.00   0.00   0.00
 100   1     0.00  -0.00   0.00    -0.00   0.00   0.00     0.00  -0.00   0.00
 101   1     0.00  -0.00   0.00     0.00   0.00   0.00     0.00  -0.00  -0.00
 102   1     0.00  -0.00   0.00    -0.00   0.00   0.00     0.00  -0.00   0.00
 103   6    -0.00   0.00  -0.00    -0.00   0.00  -0.00    -0.00   0.00  -0.00
 104   6     0.00  -0.00   0.00     0.00  -0.00   0.00     0.00  -0.00   0.00
 105   6    -0.00   0.00  -0.00    -0.00   0.00  -0.00    -0.00   0.00  -0.00
 106   6     0.00  -0.00   0.00    -0.00   0.00   0.00     0.00  -0.00   0.00
 107   6    -0.00   0.00  -0.00    -0.00   0.00   0.00     0.00   0.00  -0.00
 108   6     0.00  -0.00  -0.00     0.00  -0.00  -0.00     0.00   0.00  -0.00
 109   6    -0.00  -0.00   0.00    -0.00  -0.00   0.00    -0.00   0.00   0.00
 110   6     0.00   0.00  -0.00     0.00   0.00  -0.00     0.00   0.00  -0.00
 111   6    -0.00   0.00   0.00     0.00  -0.00   0.00    -0.00   0.00  -0.00
 112   7     0.00  -0.00  -0.00     0.00  -0.00  -0.00    -0.00   0.00  -0.00
 113   6    -0.00  -0.00   0.00    -0.00   0.00   0.00     0.00  -0.00   0.00
 114   6     0.00   0.00  -0.00     0.00  -0.00  -0.00     0.00  -0.00   0.00
 115   1    -0.00   0.00   0.00     0.00  -0.00   0.00    -0.00   0.00   0.00
 116   1    -0.00  -0.00   0.00     0.00  -0.00  -0.00    -0.00  -0.00   0.00
 117   1     0.00  -0.00   0.00    -0.00   0.00  -0.00     0.00  -0.00   0.00
 118   1     0.00  -0.00   0.00    -0.00   0.00  -0.00     0.00  -0.00   0.00
 119   1     0.00  -0.00   0.00    -0.00   0.00  -0.00     0.00  -0.00   0.00
 120   1    -0.00   0.00  -0.00     0.00   0.00  -0.00    -0.00   0.00  -0.00
 121   6     0.00   0.00   0.00     0.00   0.00   0.00     0.00  -0.00   0.00
 122   6    -0.00   0.00  -0.00    -0.00  -0.00   0.00    -0.00   0.00  -0.00
 123   6     0.00  -0.00   0.00    -0.00  -0.00  -0.00     0.00  -0.00   0.00
 124   6    -0.00  -0.00  -0.00     0.00   0.00  -0.00    -0.00  -0.00  -0.00
 125   7    -0.21  -0.06  -0.14     0.00   0.00   0.00    -0.02  -0.00  -0.01
 126   6    -0.00   0.00  -0.00    -0.00  -0.00   0.00    -0.00   0.00  -0.00
 127   6     0.00   0.00  -0.00     0.00  -0.00   0.00    -0.00   0.00  -0.00
 128   6    -0.00  -0.00  -0.00     0.00  -0.00   0.00    -0.00   0.00  -0.00
 129   6     0.00   0.00   0.00     0.00  -0.00   0.00     0.00   0.00   0.00
 130   6    -0.00   0.00  -0.00     0.00  -0.00   0.00    -0.00   0.00  -0.00
 131   6     0.00  -0.00   0.00     0.00   0.00  -0.00     0.00  -0.00   0.00
 132   6     0.00   0.00   0.00    -0.00  -0.00  -0.00     0.00   0.00   0.00
 133   6    -0.00  -0.00   0.00     0.00   0.00   0.00    -0.00  -0.00  -0.00
 134   1    -0.00  -0.00   0.00     0.00   0.00  -0.00    -0.00  -0.00   0.00
 135   1     0.00   0.00   0.00     0.00   0.00   0.00    -0.00  -0.00  -0.00
 136   1     0.78   0.21   0.52    -0.00  -0.00  -0.00     0.06   0.02   0.04
 137   1     0.00  -0.00   0.00    -0.00   0.00  -0.00     0.00  -0.00   0.00
 138   1     0.00   0.00  -0.00    -0.00   0.00  -0.00     0.00  -0.00   0.00
 139   1     0.00  -0.00   0.00    -0.00   0.00  -0.00     0.00  -0.00   0.00
 140   1     0.00   0.00   0.00    -0.00  -0.00  -0.00     0.00   0.00   0.00
 141   6    -0.00  -0.00  -0.00    -0.00  -0.00  -0.00    -0.00  -0.00  -0.00
 142   6     0.00   0.00   0.00     0.00   0.00   0.00     0.00   0.00   0.00
 143   6    -0.00  -0.00  -0.00     0.00   0.00   0.00    -0.00  -0.00  -0.00
 144   6     0.00   0.00  -0.00    -0.00   0.00  -0.00    -0.00   0.00  -0.00
 145   6    -0.00  -0.00  -0.00     0.00   0.00   0.00    -0.00  -0.00  -0.00
 146   6     0.00   0.00   0.00     0.00   0.00  -0.00     0.00   0.00   0.00
 147   7    -0.00  -0.00   0.00     0.00   0.00   0.00     0.00   0.00   0.00
 148   6     0.00   0.00   0.00    -0.00  -0.00   0.00     0.00   0.00   0.00
 149   1     0.00  -0.00   0.00     0.00   0.00   0.00     0.00  -0.00   0.00
 150   1     0.00  -0.00   0.00     0.00  -0.00   0.00     0.00   0.00  -0.00
 151   1    -0.00  -0.00  -0.00    -0.00  -0.00   0.00     0.00   0.00   0.00
 152   1    -0.00   0.00  -0.00     0.00   0.00   0.00     0.00  -0.00   0.00
 153   6    -0.00  -0.00  -0.00     0.00   0.00   0.00    -0.00  -0.00  -0.00
 154   6     0.00   0.00   0.00    -0.00  -0.00  -0.00     0.00   0.00   0.00
 155   6    -0.00  -0.00   0.00    -0.00  -0.00  -0.00    -0.00  -0.00  -0.00
 156   6     0.00   0.00   0.00    -0.00  -0.00  -0.00     0.00   0.00   0.00
 157   6    -0.00  -0.00   0.00     0.00  -0.00  -0.00    -0.00  -0.00   0.00
 158   6    -0.00  -0.00  -0.00     0.00   0.00   0.00    -0.00   0.00   0.00
 159   6    -0.00  -0.00  -0.00     0.00   0.00  -0.00     0.00   0.00  -0.00
 160   6     0.00   0.00  -0.00    -0.00   0.00   0.00    -0.00  -0.00   0.00
 161   6    -0.00  -0.00  -0.00     0.00   0.00   0.00     0.00  -0.00  -0.00
 162   7     0.00  -0.00  -0.00    -0.00  -0.00   0.00    -0.00   0.00   0.00
 163   6     0.00   0.00   0.00    -0.00  -0.00  -0.00     0.00   0.00  -0.00
 164   6     0.00  -0.00  -0.00    -0.00   0.00   0.00    -0.00   0.00   0.00
 165   1    -0.00  -0.00  -0.00     0.00   0.00   0.00     0.00  -0.00  -0.00
 166   1     0.00  -0.00  -0.00    -0.00   0.00   0.00     0.00  -0.00  -0.00
 167   1     0.00   0.00   0.00    -0.00  -0.00  -0.00     0.00   0.00   0.00
 168   1     0.00   0.00  -0.00    -0.00  -0.00  -0.00     0.00   0.00   0.00
 169   1     0.00   0.00   0.00    -0.00  -0.00  -0.00     0.00   0.00   0.00
 170   1    -0.00  -0.00  -0.00     0.00   0.00   0.00    -0.00  -0.00  -0.00
 171   6    -0.00   0.00  -0.00    -0.00   0.00  -0.00     0.00  -0.00   0.00
 172   6     0.00  -0.00   0.00     0.00   0.00   0.00    -0.00  -0.00  -0.00
 173   6    -0.00  -0.00   0.00    -0.00  -0.00   0.00     0.00   0.00  -0.00
 174   6     0.00  -0.00   0.00     0.00  -0.00   0.00    -0.00   0.00  -0.00
 175   7     0.01  -0.00   0.01     0.01  -0.00   0.01    -0.17   0.06  -0.18
 176   6     0.00   0.00   0.00     0.00   0.00   0.00    -0.00  -0.00  -0.00
 177   6    -0.00   0.00  -0.00     0.00   0.00  -0.00    -0.00  -0.00   0.00
 178   6    -0.00  -0.00  -0.00     0.00  -0.00   0.00    -0.00   0.00  -0.00
 179   6    -0.00  -0.00  -0.00    -0.00   0.00  -0.00     0.00  -0.00   0.00
 180   6    -0.00   0.00  -0.00     0.00   0.00   0.00    -0.00  -0.00  -0.00
 181   6    -0.00  -0.00  -0.00    -0.00  -0.00  -0.00     0.00   0.00   0.00
 182   6    -0.00   0.00  -0.00    -0.00   0.00  -0.00     0.00  -0.00   0.00
 183   6    -0.00  -0.00  -0.00     0.00  -0.00   0.00    -0.00   0.00  -0.00
 184   1     0.00   0.00  -0.00    -0.00  -0.00   0.00     0.00   0.00  -0.00
 185   1    -0.00   0.00  -0.00    -0.00   0.00  -0.00     0.00  -0.00   0.00
 186   1    -0.05   0.02  -0.05    -0.04   0.02  -0.04     0.64  -0.24   0.67
 187   1     0.00  -0.00   0.00    -0.00  -0.00  -0.00     0.00   0.00   0.00
 188   1     0.00   0.00   0.00     0.00   0.00  -0.00    -0.00  -0.00   0.00
 189   1     0.00   0.00   0.00    -0.00  -0.00  -0.00     0.00   0.00   0.00
 190   1     0.00  -0.00   0.00    -0.00   0.00  -0.00     0.00  -0.00   0.00
 191   6    -0.00   0.00  -0.00     0.00  -0.00   0.00    -0.00   0.00  -0.00
 192   6     0.00  -0.00   0.00    -0.00   0.00  -0.00     0.00  -0.00   0.00
 193   6    -0.00   0.00  -0.00     0.00  -0.00   0.00    -0.00   0.00  -0.00
 194   6    -0.00  -0.00  -0.00    -0.00   0.00  -0.00    -0.00  -0.00   0.00
 195   6    -0.00   0.00  -0.00     0.00  -0.00   0.00    -0.00   0.00  -0.00
 196   6     0.00   0.00   0.00    -0.00  -0.00   0.00     0.00  -0.00   0.00
 197   7     0.00  -0.00   0.00     0.00  -0.00   0.00     0.00   0.00  -0.00
 198   6    -0.00  -0.00   0.00    -0.00   0.00  -0.00     0.00  -0.00   0.00
 199   1     0.00   0.00   0.00     0.00  -0.00   0.00     0.00   0.00   0.00
 200   1    -0.00  -0.00   0.00     0.00   0.00   0.00     0.00   0.00   0.00
 201   1     0.00  -0.00   0.00     0.00   0.00   0.00    -0.00   0.00  -0.00
 202   1    -0.00   0.00   0.00     0.00   0.00   0.00    -0.00  -0.00  -0.00
