Job execution start: Fri Apr 16 18:14:21 BST 2021
Shared library path: /work/e05/e05/atarzia/orca_4_2_1_linux_x86-64_openmpi314:/work/e05/e05/atarzia/openmpi-3.1.4/lib:/opt/cray/pe/papi/6.0.0.4/lib64:/opt/cray/libfabric/1.11.0.0.233/lib64
Slurm Job ID is: 207108
Slurm Job name is: binolA
nid001001

                                 *****************
                                 * O   R   C   A *
                                 *****************

           --- An Ab Initio, DFT and Semiempirical electronic structure package ---

                  #######################################################
                  #                        -***-                        #
                  #          Department of theory and spectroscopy      #
                  #               Directorship: Frank Neese             #
                  #        Max Planck Institute fuer Kohlenforschung    #
                  #                Kaiser Wilhelm Platz 1               #
                  #                 D-45470 Muelheim/Ruhr               #
                  #                      Germany                        #
                  #                                                     #
                  #                  All rights reserved                #
                  #                        -***-                        #
                  #######################################################


                         Program Version 4.2.1 -  RELEASE  -


 With contributions from (in alphabetic order):
   Daniel Aravena         : Magnetic Suceptibility
   Michael Atanasov       : Ab Initio Ligand Field Theory (pilot matlab implementation)
   Alexander A. Auer      : GIAO ZORA, VPT2
   Ute Becker             : Parallelization
   Giovanni Bistoni       : ED, misc. LED, open-shell LED, HFLD
   Martin Brehm           : Molecular dynamics
   Dmytro Bykov           : SCF Hessian
   Vijay G. Chilkuri      : MRCI spin determinant printing, contributions to CSF-ICE
   Dipayan Datta          : RHF DLPNO-CCSD density
   Achintya Kumar Dutta   : EOM-CC, STEOM-CC
   Dmitry Ganyushin       : Spin-Orbit,Spin-Spin,Magnetic field MRCI
   Miquel Garcia          : C-PCM Hessian, Gaussian charge scheme
   Yang Guo               : DLPNO-NEVPT2, CIM, IAO-localization
   Andreas Hansen         : Spin unrestricted coupled pair/coupled cluster methods
   Benjamin Helmich-Paris : CASSCF linear response (MC-RPA)
   Lee Huntington         : MR-EOM, pCC
   Robert Izsak           : Overlap fitted RIJCOSX, COSX-SCS-MP3, EOM
   Christian Kollmar      : KDIIS, OOCD, Brueckner-CCSD(T), CCSD density
   Simone Kossmann        : Meta GGA functionals, TD-DFT gradient, OOMP2, MP2 Hessian
   Martin Krupicka        : AUTO-CI
   Lucas Lang             : DCDCAS
   Dagmar Lenk            : GEPOL surface, SMD
   Dimitrios Liakos       : Extrapolation schemes; Compound Job, initial MDCI parallelization
   Dimitrios Manganas     : Further ROCIS development; embedding schemes
   Dimitrios Pantazis     : SARC Basis sets
   Taras Petrenko         : DFT Hessian,TD-DFT gradient, ASA, ECA, R-Raman, ABS, FL, XAS/XES, NRVS
   Peter Pinski           : DLPNO-MP2, DLPNO-MP2 Gradient
   Christoph Reimann      : Effective Core Potentials
   Marius Retegan         : Local ZFS, SOC
   Christoph Riplinger    : Optimizer, TS searches, QM/MM, DLPNO-CCSD(T), (RO)-DLPNO pert. Triples
   Tobias Risthaus        : Range-separated hybrids, TD-DFT gradient, RPA, STAB
   Michael Roemelt        : Original ROCIS implementation
   Masaaki Saitow         : Open-shell DLPNO-CCSD energy and density
   Barbara Sandhoefer     : DKH picture change effects
   Avijit Sen             : IP-ROCIS
   Kantharuban Sivalingam : CASSCF convergence, NEVPT2, FIC-MRCI
   Bernardo de Souza      : ESD, SOC TD-DFT
   Georgi Stoychev        : AutoAux, RI-MP2 NMR
   Willem Van den Heuvel  : Paramagnetic NMR
   Boris Wezisla          : Elementary symmetry handling
   Frank Wennmohs         : Technical directorship


 We gratefully acknowledge several colleagues who have allowed us to
 interface, adapt or use parts of their codes:
   Stefan Grimme, W. Hujo, H. Kruse,             : VdW corrections, initial TS optimization,
                  C. Bannwarth                     DFT functionals, gCP, sTDA/sTD-DF
   Ed Valeev, F. Pavosevic, A. Kumar             : LibInt (2-el integral package), F12 methods
   Garnet Chan, S. Sharma, J. Yang, R. Olivares  : DMRG
   Ulf Ekstrom                                   : XCFun DFT Library
   Mihaly Kallay                                 : mrcc  (arbitrary order and MRCC methods)
   Andreas Klamt, Michael Diedenhofen            : otool_cosmo (COSMO solvation model)
   Jiri Pittner, Ondrej Demel                    : Mk-CCSD
   Frank Weinhold                                : gennbo (NPA and NBO analysis)
   Christopher J. Cramer and Donald G. Truhlar   : smd solvation model
   Lars Goerigk                                  : TD-DFT with DH, B97 family of functionals
   V. Asgeirsson, H. Jonsson                     : NEB implementation
   FAccTs GmbH                                   : IRC, NEB, NEB-TS, Multilevel, MM, QM/MM, CI optimization
   S Lehtola, MJT Oliveira, MAL Marques          : LibXC Library


 Your calculation uses the libint2 library for the computation of 2-el integrals
 For citations please refer to: http://libint.valeyev.net

 Your ORCA version has been built with support for libXC version: 4.2.3
 For citations please refer to: https://tddft.org/programs/libxc/

 This ORCA versions uses:
   CBLAS   interface :  Fast vector & matrix operations
   LAPACKE interface :  Fast linear algebra routines
   SCALAPACK package :  Parallel linear algebra routines




***************************************
The coordinates will be read from file: binolA_dopt.xyz
***************************************


Your calculation utilizes the atom-pairwise dispersion correction
based on tight binding partial charges (D4)
Cite in your paper:
E.Caldeweyher, C.Bannwarth, S.Grimme, J.Chem.Phys., (2017), 147, 034112.
E.Caldeweyher, S.Ehlert, A.Hansen, H.Neugebauer, S.Grimme, J.Chem.Phys., (2018), in progress.
   

----- Orbital basis set information -----
Your calculation utilizes the basis: def2-TZVP
   F. Weigend and R. Ahlrichs, Phys. Chem. Chem. Phys. 7, 3297 (2005).

================================================================================
                                        WARNINGS
                       Please study these warnings very carefully!
================================================================================


INFO   : the flag for use of LIBINT has been found!

================================================================================
                                       INPUT FILE
================================================================================
NAME = binolA.in
|  1> # closed shell KS, PBE0/def2-SVP/D4
|  2> ! DFT SP RKS PBE0 def2-TZVP D4 Grid6 NOFINALGRID SlowConv TightSCF printbasis
|  3> 
|  4> %base "_ba"
|  5> %maxcore 4000
|  6> %scf
|  7>    MaxIter 2000
|  8> end
|  9> 
| 10> %pal
| 11>    nprocs 48
| 12> end
| 13> 
| 14> * xyzfile 0 1 binolA_dopt.xyz
| 15> 
| 16> 
| 17>                          ****END OF INPUT****
================================================================================

                       ****************************
                       * Single Point Calculation *
                       ****************************

---------------------------------
CARTESIAN COORDINATES (ANGSTROEM)
---------------------------------
  H     -1.073702   -0.707575    1.401196
  O     -1.860462   -0.578457    0.849309
  C     -1.684948   -1.244318   -0.301530
  C     -0.526210   -1.972338   -0.542948
  C     -0.358563   -2.658016   -1.784210
  C      0.794167   -3.431823   -2.075085
  C      0.925442   -4.065307   -3.290056
  C     -0.086876   -3.963703   -4.270052
  C     -1.221102   -3.230657   -4.010179
  C     -1.385717   -2.563208   -2.770840
  C     -2.548759   -1.813044   -2.477092
  C     -2.727860   -1.160630   -1.274458
  C     -3.951326   -0.378915   -1.016039
  C     -4.483066    0.453962   -2.014086
  N     -5.597967    1.155359   -1.881642
  C     -6.263255    1.072498   -0.725876
  C     -5.819097    0.287253    0.345946
  C     -4.650765   -0.440483    0.198798
  H     -4.276789   -1.060683    1.014075
  H     -6.408446    0.267878    1.264057
  C     -7.499486    1.859654   -0.636460
  N     -8.240061    1.833592    0.398814
  C     -9.381520    2.628710    0.480260
  C     -9.439788    3.940155   -0.019315
  C    -10.605931    4.688256    0.111562
  C    -11.729332    4.142212    0.731463
  C    -11.673427    2.843622    1.239632
  C    -10.505429    2.097973    1.131065
  H    -10.438173    1.086546    1.536329
  H    -12.546401    2.412584    1.735829
  H    -12.642847    4.732739    0.831746
  H    -10.634731    5.711893   -0.269785
  H     -8.553540    4.380037   -0.482514
  H     -7.730759    2.450790   -1.541841
  H     -3.948076    0.560807   -2.965391
  H     -3.343373   -1.770233   -3.226264
  H     -2.014620   -3.150300   -4.757876
  H      0.031676   -4.472323   -5.229186
  H      1.819028   -4.659169   -3.496659
  H      1.572935   -3.527097   -1.315379
  C      0.529580   -1.981587    0.500402
  C      1.687426   -1.247432    0.274104
  C      2.727867   -1.178594    1.250798
  C      2.547577   -1.851906    2.441591
  C      1.385993   -2.610445    2.719207
  C      1.220580   -3.300664    3.945893
  C      0.088155   -4.041940    4.189720
  C     -0.921361   -4.129268    3.205476
  C     -0.789326   -3.473357    2.002555
  C      0.361434   -2.690473    1.728599
  H     -1.565877   -3.557728    1.239290
  H     -1.813357   -4.729919    3.398950
  H     -0.031041   -4.568195    5.139230
  H      2.012144   -3.231418    4.696775
  H      3.340273   -1.819775    3.193345
  C      3.950422   -0.390470    1.008159
  C      4.476402    0.430125    2.019262
  N      5.590127    1.135901    1.900252
  C      6.260094    1.069390    0.746151
  C      5.822182    0.296930   -0.337499
  C      4.654609   -0.434698   -0.204623
  H      4.284950   -1.044890   -1.029396
  H      6.415447    0.290413   -1.253265
  C      7.494671    1.860744    0.671232
  N      8.240612    1.846700   -0.360377
  C      9.380015    2.645899   -0.428724
  C      9.430122    3.954415    0.079273
  C     10.594387    4.707538   -0.039400
  C     11.723895    4.169337   -0.655002
  C     11.676222    2.873536   -1.171100
  C     10.510227    2.123084   -1.074995
  H     10.449405    1.113894   -1.486798
  H     12.554094    2.448552   -1.663864
  H     12.635852    4.763805   -0.745700
  H     10.616897    5.728957    0.348256
  H      8.539145    4.388129    0.539231
  H      7.719730    2.443662    1.583484
  H      3.937578    0.522939    2.969888
  O      1.864405   -0.561284   -0.864579
  H      1.079066   -0.681907   -1.420385

----------------------------
CARTESIAN COORDINATES (A.U.)
----------------------------
  NO LB      ZA    FRAG     MASS         X           Y           Z
   0 H     1.0000    0     1.008   -2.029002   -1.337123    2.647878
   1 O     8.0000    0    15.999   -3.515764   -1.093126    1.604962
   2 C     6.0000    0    12.011   -3.184091   -2.351420   -0.569809
   3 C     6.0000    0    12.011   -0.994394   -3.727180   -1.026024
   4 C     6.0000    0    12.011   -0.677586   -5.022922   -3.371667
   5 C     6.0000    0    12.011    1.500758   -6.485205   -3.921342
   6 C     6.0000    0    12.011    1.748831   -7.682316   -6.217305
   7 C     6.0000    0    12.011   -0.164171   -7.490312   -8.069229
   8 C     6.0000    0    12.011   -2.307547   -6.105056   -7.578141
   9 C     6.0000    0    12.011   -2.618626   -4.843762   -5.236129
  10 C     6.0000    0    12.011   -4.816456   -3.426157   -4.681026
  11 C     6.0000    0    12.011   -5.154909   -2.193273   -2.408376
  12 C     6.0000    0    12.011   -7.466925   -0.716045   -1.920036
  13 C     6.0000    0    12.011   -8.471768    0.857864   -3.806071
  14 N     7.0000    0    14.007  -10.578625    2.183312   -3.555789
  15 C     6.0000    0    12.011  -11.835836    2.026727   -1.371707
  16 C     6.0000    0    12.011  -10.996499    0.542829    0.653743
  17 C     6.0000    0    12.011   -8.788672   -0.832392    0.375674
  18 H     1.0000    0     1.008   -8.081960   -2.004401    1.916324
  19 H     1.0000    0     1.008  -12.110208    0.506216    2.388722
  20 C     6.0000    0    12.011  -14.171974    3.514236   -1.202736
  21 N     7.0000    0    14.007  -15.571458    3.464988    0.753650
  22 C     6.0000    0    12.011  -17.728504    4.967543    0.907561
  23 C     6.0000    0    12.011  -17.838614    7.445814   -0.036500
  24 C     6.0000    0    12.011  -20.042305    8.859520    0.210821
  25 C     6.0000    0    12.011  -22.165225    7.827647    1.382264
  26 C     6.0000    0    12.011  -22.059580    5.373667    2.342564
  27 C     6.0000    0    12.011  -19.852383    3.964594    2.137403
  28 H     1.0000    0     1.008  -19.725288    2.053274    2.903241
  29 H     1.0000    0     1.008  -23.709261    4.559123    3.280241
  30 H     1.0000    0     1.008  -23.891519    8.943580    1.571773
  31 H     1.0000    0     1.008  -20.096729   10.793913   -0.509819
  32 H     1.0000    0     1.008  -16.163848    8.277071   -0.911819
  33 H     1.0000    0     1.008  -14.609018    4.631322   -2.913658
  34 H     1.0000    0     1.008   -7.460782    1.059771   -5.603777
  35 H     1.0000    0     1.008   -6.318059   -3.345256   -6.096755
  36 H     1.0000    0     1.008   -3.807081   -5.953205   -8.991082
  37 H     1.0000    0     1.008    0.059859   -8.451466   -9.881729
  38 H     1.0000    0     1.008    3.437466   -8.804554   -6.607728
  39 H     1.0000    0     1.008    2.972417   -6.665247   -2.485706
  40 C     6.0000    0    12.011    1.000760   -3.744657    0.945623
  41 C     6.0000    0    12.011    3.188772   -2.357304    0.517981
  42 C     6.0000    0    12.011    5.154922   -2.227219    2.363665
  43 C     6.0000    0    12.011    4.814223   -3.499595    4.613939
  44 C     6.0000    0    12.011    2.619148   -4.933027    5.138557
  45 C     6.0000    0    12.011    2.306563   -6.237351    7.456657
  46 C     6.0000    0    12.011    0.166588   -7.638159    7.917424
  47 C     6.0000    0    12.011   -1.741121   -7.803185    6.057472
  48 C     6.0000    0    12.011   -1.491609   -6.563693    3.784281
  49 C     6.0000    0    12.011    0.683011   -5.084257    3.266580
  50 H     1.0000    0     1.008   -2.959079   -6.723132    2.341918
  51 H     1.0000    0     1.008   -3.426748   -8.938252    6.423085
  52 H     1.0000    0     1.008   -0.058658   -8.632638    9.711738
  53 H     1.0000    0     1.008    3.802400   -6.106495    8.875619
  54 H     1.0000    0     1.008    6.312201   -3.438876    6.034547
  55 C     6.0000    0    12.011    7.465216   -0.737881    1.905145
  56 C     6.0000    0    12.011    8.459174    0.812818    3.815853
  57 N     7.0000    0    14.007   10.563809    2.146542    3.590955
  58 C     6.0000    0    12.011   11.829863    2.020855    1.410020
  59 C     6.0000    0    12.011   11.002330    0.561116   -0.637782
  60 C     6.0000    0    12.011    8.795936   -0.821460   -0.386681
  61 H     1.0000    0     1.008    8.097382   -1.974556   -1.945276
  62 H     1.0000    0     1.008   12.123439    0.548802   -2.368327
  63 C     6.0000    0    12.011   14.162876    3.516297    1.268445
  64 N     7.0000    0    14.007   15.572500    3.489757   -0.681014
  65 C     6.0000    0    12.011   17.725660    5.000025   -0.810170
  66 C     6.0000    0    12.011   17.820347    7.472761    0.149805
  67 C     6.0000    0    12.011   20.020491    8.895957   -0.074455
  68 C     6.0000    0    12.011   22.154952    7.878905   -1.237773
  69 C     6.0000    0    12.011   22.064862    5.430196   -2.213057
  70 C     6.0000    0    12.011   19.861451    4.012047   -2.031447
  71 H     1.0000    0     1.008   19.746513    2.104954   -2.809642
  72 H     1.0000    0     1.008   23.723799    4.627092   -3.144247
  73 H     1.0000    0     1.008   23.878299    9.002287   -1.409169
  74 H     1.0000    0     1.008   20.063028   10.826160    0.658109
  75 H     1.0000    0     1.008   16.136646    8.292362    1.018999
  76 H     1.0000    0     1.008   14.588175    4.617852    2.992352
  77 H     1.0000    0     1.008    7.440945    0.988211    5.612275
  78 O     8.0000    0    15.999    3.523214   -1.060673   -1.633818
  79 H     1.0000    0     1.008    2.039140   -1.288618   -2.684139

--------------------------------
INTERNAL COORDINATES (ANGSTROEM)
--------------------------------
 H      0   0   0     0.000000000000     0.00000000     0.00000000
 O      1   0   0     0.969661356066     0.00000000     0.00000000
 C      2   1   0     1.341121470784   108.42745590     0.00000000
 C      3   2   1     1.389593422876   121.22035635     0.41810632
 C      4   3   2     1.427931568207   120.03292721   180.79391807
 C      5   4   3     1.418510435472   122.38491395   180.97950844
 C      6   5   4     1.376477673820   120.63394834   180.76604081
 C      7   6   5     1.412622129816   120.72363086   359.69950978
 C      8   7   6     1.375266756635   119.88552152   359.67120599
 C      9   8   7     1.417232172326   120.80148202     0.50350691
 C     10   9   8     1.414814481014   121.78634773   180.55230111
 C     11  10   9     1.379873522952   122.57103558   179.77998135
 C     12  11  10     1.474696116598   120.73305842   179.40658800
 C     13  12  11     1.404467429016   120.26045214   317.49630502
 N     14  13  12     1.323821240670   124.19134495   177.74588776
 C     15  14  13     1.336139799438   118.23061784     0.15876468
 C     16  15  14     1.400959489919   122.59402638     0.66797912
 C     17  16  15     1.384287460657   118.74538225   359.45450351
 H     18  17  16     1.090496165760   120.59448818   179.92199096
 H     17  16  15     1.091162820276   118.84520451   179.72883682
 C     16  15  14     1.468290391091   116.01799467   180.57934429
 N     21  16  15     1.273155205954   121.89042416   177.99380396
 C     22  21  16     1.393476417963   120.81926555   177.51927185
 C     23  22  21     1.404584516445   123.09000013   321.60521301
 C     24  23  22     1.391644274597   120.21407458   180.93645819
 C     25  24  23     1.394442639394   120.42353024   359.60699318
 C     26  25  24     1.395599049039   119.60155733     0.92455107
 C     27  26  25     1.389963912531   120.29043927     0.08254950
 H     28  27  26     1.091672089716   121.31840405   179.03546743
 H     27  26  25     1.092743725425   120.02491844   179.37353783
 H     26  25  24     1.092377846484   120.18813211   180.02623506
 H     25  24  23     1.092742456263   119.52711545   179.22000684
 H     24  23  22     1.092467315796   119.54456804   358.98179101
 H     21  16  15     1.105732550290   114.38367386   359.01729614
 H     14  13  12     1.096636535705   119.30930492   356.52335515
 H     11  10   9     1.092932729512   118.43203732     1.19919819
 H      9   8   7     1.093242581351   120.56833417   180.42867995
 H      8   7   6     1.092101899144   119.86686567   180.01756537
 H      7   6   5     1.092636712460   119.67189505   180.13343805
 H      6   5   4     1.092112684472   118.97463501     1.43451600
 C      4   3   2     1.484371259933   118.31086265   359.14085460
 C     41   4   3     1.389533060090   118.35357690   253.41947670
 C     42  41   4     1.428701670922   121.39533002   178.12746512
 C     43  42  41     1.379798193101   118.11960338   359.25530481
 C     44  43  42     1.414825190459   122.56396634     0.64201021
 C     45  44  43     1.417222971236   121.78776090   179.70995272
 C     46  45  44     1.375256107038   120.80223453   180.58591109
 C     47  46  45     1.412616376932   119.88412958     0.51247843
 C     48  47  46     1.376470627017   120.72345241   359.65066897
 C     49  48  47     1.418522538757   120.63610914   359.70736498
 H     49  48  47     1.092119559979   120.38100396   179.01324559
 H     48  47  46     1.092643818873   119.60506672   179.21632441
 H     47  46  45     1.092118033857   120.24812012   180.15398919
 H     46  45  44     1.093248338087   118.62920037     0.64553101
 H     44  43  42     1.092946421311   118.97911441   179.18999603
 C     43  42  41     1.474670567452   121.13179758   180.40585541
 C     56  43  42     1.404407499920   120.28530152   136.07053558
 N     57  56  43     1.323882888346   124.18344971   177.75608526
 C     58  57  56     1.336124537630   118.22517799     0.11820999
 C     59  58  57     1.400985234207   122.60409058     0.67099809
 C     60  59  58     1.384254983268   118.73867957   359.49619676
 H     61  60  59     1.090519132225   120.60075267   179.88903520
 H     60  59  58     1.091161054680   118.84910705   179.75507389
 C     59  58  57     1.468344713687   116.02986782   180.56664621
 N     64  59  58     1.273123273767   121.87255114   177.81569221
 C     65  64  59     1.393424155419   120.83178650   177.48479307
 C     66  65  64     1.404558449584   123.07677537   321.37922170
 C     67  66  65     1.391686883473   120.20911839   180.98405114
 C     68  67  66     1.394422311829   120.42611770   359.59289937
 C     69  68  67     1.395611467364   119.60060991     0.91774846
 C     70  69  68     1.389948615825   120.29067035     0.10222901
 H     71  70  69     1.091671184316   121.31726141   179.02180243
 H     70  69  68     1.092742789373   120.02760047   179.38381355
 H     69  68  67     1.092374716038   120.18857294   180.02465992
 H     68  67  66     1.092740436902   119.52610976   179.21061804
 H     67  66  65     1.092477920997   119.54018941   359.02250635
 H     64  59  58     1.105734139243   114.40335388   358.83587305
 H     57  56  43     1.096646885452   119.30918689   356.52647655
 O     42  41   4     1.341163361422   121.23397787   358.97699600
 H     79  42  41     0.969652668892   108.42985107     0.43108721

---------------------------
INTERNAL COORDINATES (A.U.)
---------------------------
 H      0   0   0     0.000000000000     0.00000000     0.00000000
 O      1   0   0     1.832394405612     0.00000000     0.00000000
 C      2   1   0     2.534352292103   108.42745590     0.00000000
 C      3   2   1     2.625951006735   121.22035635     0.41810632
 C      4   3   2     2.698399601893   120.03292721   180.79391807
 C      5   4   3     2.680596241152   122.38491395   180.97950844
 C      6   5   4     2.601165832977   120.63394834   180.76604081
 C      7   6   5     2.669468956069   120.72363086   359.69950978
 C      8   7   6     2.598877531126   119.88552152   359.67120599
 C      9   8   7     2.678180673879   120.80148202     0.50350691
 C     10   9   8     2.673611899422   121.78634773   180.55230111
 C     11  10   9     2.607583057828   122.57103558   179.77998135
 C     12  11  10     2.786771791128   120.73305842   179.40658800
 C     13  12  11     2.654058804853   120.26045214   317.49630502
 N     14  13  12     2.501659595134   124.19134495   177.74588776
 C     15  14  13     2.524938297569   118.23061784     0.15876468
 C     16  15  14     2.647429760665   122.59402638     0.66797912
 C     17  16  15     2.615924191263   118.74538225   359.45450351
 H     18  17  16     2.060739103377   120.59448818   179.92199096
 H     17  16  15     2.061998897838   118.84520451   179.72883682
 C     16  15  14     2.774666724231   116.01799467   180.57934429
 N     21  16  15     2.405914665229   121.89042416   177.99380396
 C     22  21  16     2.633288804028   120.81926555   177.51927185
 C     23  22  21     2.654280068027   123.09000013   321.60521301
 C     24  23  22     2.629826554829   120.21407458   180.93645819
 C     25  24  23     2.635114697916   120.42353024   359.60699318
 C     26  25  24     2.637299995444   119.60155733     0.92455107
 C     27  26  25     2.626651130717   120.29043927     0.08254950
 H     28  27  26     2.062961277609   121.31840405   179.03546743
 H     27  26  25     2.064986375614   120.02491844   179.37353783
 H     26  25  24     2.064294964617   120.18813211   180.02623506
 H     25  24  23     2.064983977245   119.52711545   179.22000684
 H     24  23  22     2.064464037115   119.54456804   358.98179101
 H     21  16  15     2.089531697411   114.38367386   359.01729614
 H     14  13  12     2.072342720935   119.30930492   356.52335515
 H     11  10   9     2.065343541577   118.43203732     1.19919819
 H      9   8   7     2.065929076695   120.56833417   180.42867995
 H      8   7   6     2.063773499718   119.86686567   180.01756537
 H      7   6   5     2.064784150418   119.67189505   180.13343805
 H      6   5   4     2.063793881033   118.97463501     1.43451600
 C      4   3   2     2.805055162338   118.31086265   359.14085460
 C     41   4   3     2.625836937599   118.35357690   253.41947670
 C     42  41   4     2.699854885118   121.39533002   178.12746512
 C     43  42  41     2.607440705040   118.11960338   359.25530481
 C     44  43  42     2.673632137340   122.56396634     0.64201021
 C     45  44  43     2.678163286338   121.78776090   179.70995272
 C     46  45  44     2.598857406304   120.80223453   180.58591109
 C     47  46  45     2.669458084694   119.88412958     0.51247843
 C     48  47  46     2.601152516448   120.72345241   359.65066897
 C     49  48  47     2.680619113046   120.63610914   359.70736498
 H     49  48  47     2.063806873860   120.38100396   179.01324559
 H     48  47  46     2.064797579592   119.60506672   179.21632441
 H     47  46  45     2.063803989906   120.24812012   180.15398919
 H     46  45  44     2.065939955349   118.62920037     0.64553101
 H     44  43  42     2.065369415327   118.97911441   179.18999603
 C     43  42  41     2.786723510238   121.13179758   180.40585541
 C     56  43  42     2.653945555274   120.28530152   136.07053558
 N     57  56  43     2.501776092359   124.18344971   177.75608526
 C     58  57  56     2.524909456934   118.22517799     0.11820999
 C     59  58  57     2.647478410319   122.60409058     0.67099809
 C     60  59  58     2.615862817893   118.73867957   359.49619676
 H     61  60  59     2.060782503707   120.60075267   179.88903520
 H     60  59  58     2.061995561346   118.84910705   179.75507389
 C     59  58  57     2.774769379060   116.02986782   180.56664621
 N     64  59  58     2.405854322141   121.87255114   177.81569221
 C     65  64  59     2.633190042132   120.83178650   177.48479307
 C     66  65  64     2.654230808798   123.07677537   321.37922170
 C     67  66  65     2.629907073934   120.20911839   180.98405114
 C     68  67  66     2.635076284385   120.42611770   359.59289937
 C     69  68  67     2.637323462679   119.60060991     0.91774846
 C     70  69  68     2.626622224133   120.29067035     0.10222901
 H     71  70  69     2.062959566651   121.31726141   179.02180243
 H     70  69  68     2.064984606733   120.02760047   179.38381355
 H     69  68  67     2.064289048932   120.18857294   180.02465992
 H     68  67  66     2.064980161206   119.52610976   179.21061804
 H     67  66  65     2.064484078041   119.54018941   359.02250635
 H     64  59  58     2.089534700097   114.40335388   358.83587305
 H     57  56  43     2.072362279122   119.30918689   356.52647655
 O     42  41   4     2.534431453937   121.23397787   358.97699600
 H     79  42  41     1.832377989232   108.42985107     0.43108721

---------------------
BASIS SET INFORMATION
---------------------
There are 4 groups of distinct atoms

 Group   1 Type H   : 5s1p contracted to 3s1p pattern {311/1}
 Group   2 Type O   : 11s6p2d1f contracted to 5s3p2d1f pattern {62111/411/11/1}
 Group   3 Type C   : 11s6p2d1f contracted to 5s3p2d1f pattern {62111/411/11/1}
 Group   4 Type N   : 11s6p2d1f contracted to 5s3p2d1f pattern {62111/411/11/1}

Atom   0H    basis set group =>   1
Atom   1O    basis set group =>   2
Atom   2C    basis set group =>   3
Atom   3C    basis set group =>   3
Atom   4C    basis set group =>   3
Atom   5C    basis set group =>   3
Atom   6C    basis set group =>   3
Atom   7C    basis set group =>   3
Atom   8C    basis set group =>   3
Atom   9C    basis set group =>   3
Atom  10C    basis set group =>   3
Atom  11C    basis set group =>   3
Atom  12C    basis set group =>   3
Atom  13C    basis set group =>   3
Atom  14N    basis set group =>   4
Atom  15C    basis set group =>   3
Atom  16C    basis set group =>   3
Atom  17C    basis set group =>   3
Atom  18H    basis set group =>   1
Atom  19H    basis set group =>   1
Atom  20C    basis set group =>   3
Atom  21N    basis set group =>   4
Atom  22C    basis set group =>   3
Atom  23C    basis set group =>   3
Atom  24C    basis set group =>   3
Atom  25C    basis set group =>   3
Atom  26C    basis set group =>   3
Atom  27C    basis set group =>   3
Atom  28H    basis set group =>   1
Atom  29H    basis set group =>   1
Atom  30H    basis set group =>   1
Atom  31H    basis set group =>   1
Atom  32H    basis set group =>   1
Atom  33H    basis set group =>   1
Atom  34H    basis set group =>   1
Atom  35H    basis set group =>   1
Atom  36H    basis set group =>   1
Atom  37H    basis set group =>   1
Atom  38H    basis set group =>   1
Atom  39H    basis set group =>   1
Atom  40C    basis set group =>   3
Atom  41C    basis set group =>   3
Atom  42C    basis set group =>   3
Atom  43C    basis set group =>   3
Atom  44C    basis set group =>   3
Atom  45C    basis set group =>   3
Atom  46C    basis set group =>   3
Atom  47C    basis set group =>   3
Atom  48C    basis set group =>   3
Atom  49C    basis set group =>   3
Atom  50H    basis set group =>   1
Atom  51H    basis set group =>   1
Atom  52H    basis set group =>   1
Atom  53H    basis set group =>   1
Atom  54H    basis set group =>   1
Atom  55C    basis set group =>   3
Atom  56C    basis set group =>   3
Atom  57N    basis set group =>   4
Atom  58C    basis set group =>   3
Atom  59C    basis set group =>   3
Atom  60C    basis set group =>   3
Atom  61H    basis set group =>   1
Atom  62H    basis set group =>   1
Atom  63C    basis set group =>   3
Atom  64N    basis set group =>   4
Atom  65C    basis set group =>   3
Atom  66C    basis set group =>   3
Atom  67C    basis set group =>   3
Atom  68C    basis set group =>   3
Atom  69C    basis set group =>   3
Atom  70C    basis set group =>   3
Atom  71H    basis set group =>   1
Atom  72H    basis set group =>   1
Atom  73H    basis set group =>   1
Atom  74H    basis set group =>   1
Atom  75H    basis set group =>   1
Atom  76H    basis set group =>   1
Atom  77H    basis set group =>   1
Atom  78O    basis set group =>   2
Atom  79H    basis set group =>   1

-------------------------
BASIS SET IN INPUT FORMAT
-------------------------

 # Basis set for element : H 
 NewGTO H 
 S 3 
   1      34.0613410000      0.0254393072
   2       5.1235746000      0.1900859489
   3       1.1646626000      0.8524411301
 S 1 
   1       0.3272304100      1.0000000000
 S 1 
   1       0.1030724100      1.0000000000
 P 1 
   1       0.8000000000      1.0000000000
  end;

 # Basis set for element : C 
 NewGTO C 
 S 6 
   1   13575.3496820000      0.0006064549
   2    2035.2333680000      0.0046979088
   3     463.2256235900      0.0243324776
   4     131.2001959800      0.0973999683
   5      42.8530158910      0.3019558425
   6      15.5841857660      0.6623360915
 S 2 
   1       6.2067138508      0.6559530854
   2       2.5764896527      0.3758563329
 S 1 
   1       0.5769633942      1.0000000000
 S 1 
   1       0.2297283136      1.0000000000
 S 1 
   1       0.0951644400      1.0000000000
 P 4 
   1      34.6972322440      0.0113272200
   2       7.9582622826      0.0761696592
   3       2.3780826883      0.3019225220
   4       0.8143320818      0.7278502735
 P 1 
   1       0.2888754725      1.0000000000
 P 1 
   1       0.1005682367      1.0000000000
 D 1 
   1       1.0970000000      1.0000000000
 D 1 
   1       0.3180000000      1.0000000000
 F 1 
   1       0.7610000000      1.0000000000
  end;

 # Basis set for element : N 
 NewGTO N 
 S 6 
   1   19730.8006470000      0.0005862639
   2    2957.8958745000      0.0045428821
   3     673.2213359500      0.0235584136
   4     190.6824949400      0.0947091933
   5      62.2954418980      0.2971978492
   6      22.6541611820      0.6691624689
 S 2 
   1       8.9791477428      0.6459668363
   2       3.6863002370      0.3870057440
 S 1 
   1       0.8466007680      1.0000000000
 S 1 
   1       0.3364713377      1.0000000000
 S 1 
   1       0.1364765367      1.0000000000
 P 4 
   1      49.2003805100      0.0114488252
   2      11.3467905370      0.0784223379
   3       3.4273972411      0.3081809474
   4       1.1785525134      0.7202719637
 P 1 
   1       0.4164220497      1.0000000000
 P 1 
   1       0.1426082601      1.0000000000
 D 1 
   1       1.6540000000      1.0000000000
 D 1 
   1       0.4690000000      1.0000000000
 F 1 
   1       1.0930000000      1.0000000000
  end;

 # Basis set for element : O 
 NewGTO O 
 S 6 
   1   27032.3826310000      0.0005722733
   2    4052.3871392000      0.0044353233
   3     922.3272271000      0.0230201076
   4     261.2407098900      0.0928224906
   5      85.3546413510      0.2937850002
   6      31.0350352450      0.6740160450
 S 2 
   1      12.2608607280      0.6383993702
   2       4.9987076005      0.3953458713
 S 1 
   1       1.1703108158      1.0000000000
 S 1 
   1       0.4647474099      1.0000000000
 S 1 
   1       0.1850453636      1.0000000000
 P 4 
   1      63.2749548010      0.0120183321
   2      14.6270493790      0.0830054217
   3       4.4501223456      0.3199174393
   4       1.5275799647      0.7071554292
 P 1 
   1       0.5293511794      1.0000000000
 P 1 
   1       0.1747842127      1.0000000000
 D 1 
   1       2.3140000000      1.0000000000
 D 1 
   1       0.6450000000      1.0000000000
 F 1 
   1       1.4280000000      1.0000000000
  end;



           ************************************************************
           *        Program running with 48 parallel MPI-processes    *
           *              working on a common directory               *
           ************************************************************
------------------------------------------------------------------------------
                           ORCA GTO INTEGRAL CALCULATION
------------------------------------------------------------------------------

                         BASIS SET STATISTICS AND STARTUP INFO

 # of primitive gaussian shells          ... 1180
 # of primitive gaussian functions       ... 2540
 # of contracted shells                  ...  670
 # of contracted basis functions         ... 1730
 Highest angular momentum                ...    3
 Maximum contraction depth               ...    6
 Integral package used                   ... LIBINT
 Integral threshhold            Thresh   ...  2.500e-11
 Primitive cut-off              TCut     ...  2.500e-12


------------------------------ INTEGRAL EVALUATION ----------------------------


 * One electron integrals 
 Pre-screening matrix                    ... done
 Shell pair data                         ... done (   0.030 sec)



           ************************************************************
           *        Program running with 48 parallel MPI-processes    *
           *              working on a common directory               *
           ************************************************************
-------------------------------------------------------------------------------
                                 ORCA SCF
-------------------------------------------------------------------------------

------------
SCF SETTINGS
------------
Hamiltonian:
 Density Functional     Method          .... DFT(GTOs)
 Exchange Functional    Exchange        .... PBE
   PBE kappa parameter   XKappa         ....  0.804000
   PBE mue parameter    XMuePBE         ....  0.219520
 Correlation Functional Correlation     .... PBE
   PBE beta parameter  CBetaPBE         ....  0.066725
 LDA part of GGA corr.  LDAOpt          .... PW91-LDA
 Gradients option       PostSCFGGA      .... off
 Hybrid DFT is turned on
   Fraction HF Exchange ScalHFX         ....  0.250000
   Scaling of DF-GGA-X  ScalDFX         ....  0.750000
   Scaling of DF-GGA-C  ScalDFC         ....  1.000000
   Scaling of DF-LDA-C  ScalLDAC        ....  1.000000
   Perturbative correction              ....  0.000000
   Density functional embedding theory  .... OFF
   NL short-range parameter             ....  6.900000


General Settings:
 Integral files         IntName         .... _ba
 Hartree-Fock type      HFTyp           .... RHF
 Total Charge           Charge          ....    0
 Multiplicity           Mult            ....    1
 Number of Electrons    NEL             ....  338
 Basis Dimension        Dim             .... 1730
 Nuclear Repulsion      ENuc            ....   5270.9857635044 Eh

Convergence Acceleration:
 DIIS                   CNVDIIS         .... on
   Start iteration      DIISMaxIt       ....     0
   Startup error        DIISStart       ....  0.200000
   # of expansion vecs  DIISMaxEq       ....     5
   Bias factor          DIISBfac        ....   1.050
   Max. coefficient     DIISMaxC        ....  10.000
 Newton-Raphson         CNVNR           .... off
 SOSCF                  CNVSOSCF        .... on
   Start iteration      SOSCFMaxIt      ....   150
   Startup grad/error   SOSCFStart      ....  0.001000
 Level Shifting         CNVShift        .... on
   Level shift para.    LevelShift      ....    0.2500
   Turn off err/grad.   ShiftErr        ....    0.0000
 Zerner damping         CNVZerner       .... off
 Static damping         CNVDamp         .... on
   Fraction old density DampFac         ....    0.8500
   Max. Damping (<1)    DampMax         ....    0.9800
   Min. Damping (>=0)   DampMin         ....    0.0000
   Turn off err/grad.   DampErr         ....    0.0300
 Fernandez-Rico         CNVRico         .... off

SCF Procedure:
 Maximum # iterations   MaxIter         ....  2000
 SCF integral mode      SCFMode         .... Direct
   Integral package                     .... LIBINT
 Reset frequency        DirectResetFreq ....    20
 Integral Threshold     Thresh          ....  2.500e-11 Eh
 Primitive CutOff       TCut            ....  2.500e-12 Eh

Convergence Tolerance:
 Convergence Check Mode ConvCheckMode   .... Total+1el-Energy
 Convergence forced     ConvForced      .... 0
 Energy Change          TolE            ....  1.000e-08 Eh
 1-El. energy change                    ....  1.000e-05 Eh
 Orbital Gradient       TolG            ....  1.000e-05
 Orbital Rotation angle TolX            ....  1.000e-05
 DIIS Error             TolErr          ....  5.000e-07


Diagonalization of the overlap matrix:
Smallest eigenvalue                        ... 3.518e-06
Time for diagonalization                   ...    0.784 sec
Threshold for overlap eigenvalues          ... 1.000e-08
Number of eigenvalues below threshold      ... 0
Time for construction of square roots      ...    0.550 sec
Total time needed                          ...    1.345 sec

-------------------
DFT GRID GENERATION
-------------------

General Integration Accuracy     IntAcc      ...  5.340
Radial Grid Type                 RadialGrid  ... Gauss-Chebyshev
Angular Grid (max. acc.)         AngularGrid ... Lebedev-590
Angular grid pruning method      GridPruning ... 3 (G Style)
Weight generation scheme         WeightScheme... Becke
Basis function cutoff            BFCut       ...    1.0000e-11
Integration weight cutoff        WCut        ...    1.0000e-14
Grids for H and He will be reduced by one unit

# of grid points (after initial pruning)     ... 1154996 (   0.0 sec)
# of grid points (after weights+screening)   ... 988316 (   1.4 sec)
nearest neighbour list constructed           ...    0.0 sec
Grid point re-assignment to atoms done       ...    0.2 sec
Grid point division into batches done        ...   10.6 sec
Reduced shell lists constructed in   11.2 sec

Total number of grid points                  ...   988316
Total number of batches                      ...    15483
Average number of points per batch           ...       63
Average number of grid points per atom       ...    12354
Average number of shells per batch           ...   179.69 (26.82%)
Average number of basis functions per batch  ...   440.76 (25.48%)
Average number of large shells per batch     ...   108.90 (60.60%)
Average number of large basis fcns per batch ...   263.36 (59.75%)
Maximum spatial batch extension              ...   9.32, 12.50, 15.88 au
Average spatial batch extension              ...   0.03,  0.03,  0.04 au

Time for grid setup =   13.207 sec

------------------------------
INITIAL GUESS: MODEL POTENTIAL
------------------------------
Loading Hartree-Fock densities                     ... done
Calculating cut-offs                               ... done
Setting up the integral package                    ... done
Initializing the effective Hamiltonian             ... done
Starting the Coulomb interaction                   ... done (   0.3 sec)
Reading the grid                                   ... done
Mapping shells                                     ... done
Starting the XC term evaluation                    ... done (   0.7 sec)
  promolecular density results
     # of electrons  =    337.985447680
     EX              =   -276.426292566
     EC              =    -11.374997722
     EX+EC           =   -287.801290288
Transforming the Hamiltonian                       ... done (   0.2 sec)
Diagonalizing the Hamiltonian                      ... done (   0.4 sec)
Back transforming the eigenvectors                 ... done (   0.1 sec)
Now organizing SCF variables                       ... done
                      ------------------
                      INITIAL GUESS DONE (  15.4 sec)
                      ------------------
--------------
SCF ITERATIONS
--------------
ITER       Energy         Delta-E        Max-DP      RMS-DP      [F,P]     Damp
               ***  Starting incremental Fock matrix formation  ***
  0  -2061.6064298168   0.000000000000 0.13242796  0.00034195  0.1940255 0.8500
  1  -2061.8354195432  -0.228989726416 0.17762127  0.00043757  0.1423757 0.8500
                               ***Turning on DIIS***
  2  -2061.9943936386  -0.158974095350 0.13395260  0.00036624  0.0975850 0.8500
  3  -2062.1010457422  -0.106652103603 0.04644095  0.00019913  0.0659851 0.8500
  4  -2062.1799754887  -0.078929746586 0.01240850  0.00011610  0.0513608 0.8500
  5  -2062.2407557918  -0.060780303041 0.01099453  0.00008199  0.0425250 0.8500
  6  -2062.2898015826  -0.049045790785 0.01033372  0.00006567  0.0357531 0.8500
  7  -2062.3303525724  -0.040550989855 0.00886007  0.00005492  0.0302250 0.8500
  8  -2062.3643613270  -0.034008754596 0.05136922  0.00031316  0.0252733 0.0000
  9  -2062.5462022622  -0.181840935155 0.01865024  0.00003934  0.0026962 0.0000
 10  -2062.5463110055  -0.000108743282 0.00293405  0.00001365  0.0019503 0.0000
                      *** Initiating the SOSCF procedure ***
                           *** Shutting down DIIS ***
                      *** Re-Reading the Fockian *** 
                      *** Removing any level shift *** 
ITER      Energy       Delta-E        Grad      Rot      Max-DP    RMS-DP
 11  -2062.54636429  -0.0000532852  0.000106  0.000106  0.002174  0.000008
               *** Restarting incremental Fock matrix formation ***
 12  -2062.54636751  -0.0000032209  0.000057  0.000278  0.003202  0.000010
 13  -2062.54636668   0.0000008344  0.000080  0.000136  0.001741  0.000004
 14  -2062.54636808  -0.0000014047  0.000011  0.000047  0.001092  0.000004
 15  -2062.54636809  -0.0000000123  0.000018  0.000028  0.001760  0.000004
                  ***Gradient check signals convergence***
              ***Rediagonalizing the Fockian in SOSCF/NRSCF***

               *****************************************************
               *                     SUCCESS                       *
               *           SCF CONVERGED AFTER  16 CYCLES          *
               *****************************************************


----------------
TOTAL SCF ENERGY
----------------

Total Energy       :        -2062.54636813 Eh          -56124.74000 eV

Components:
Nuclear Repulsion  :         5270.98576350 Eh          143430.81451 eV
Electronic Energy  :        -7333.53213163 Eh         -199555.55451 eV
One Electron Energy:       -13285.31901847 Eh         -361511.90940 eV
Two Electron Energy:         5951.78688683 Eh          161956.35489 eV

Virial components:
Potential Energy   :        -4114.52352674 Eh         -111961.87719 eV
Kinetic Energy     :         2051.97715861 Eh           55837.13719 eV
Virial Ratio       :            2.00515074


DFT components:
N(Alpha)           :      169.000025501297 electrons
N(Beta)            :      169.000025501297 electrons
N(Total)           :      338.000051002594 electrons
E(X)               :     -210.837826472831 Eh       
E(C)               :      -11.377130403043 Eh       
E(XC)              :     -222.214956875874 Eh       
DFET-embed. en.    :        0.000000000000 Eh       

---------------
SCF CONVERGENCE
---------------

  Last Energy change         ...   -3.5424e-08  Tolerance :   1.0000e-08
  Last MAX-Density change    ...    1.1500e-03  Tolerance :   1.0000e-07
  Last RMS-Density change    ...    3.6203e-06  Tolerance :   5.0000e-09
  Last Orbital Gradient      ...    1.7435e-06  Tolerance :   1.0000e-05
  Last Orbital Rotation      ...    8.2215e-06  Tolerance :   1.0000e-05

             **** THE GBW FILE WAS UPDATED (_ba.gbw) ****
             **** DENSITY FILE WAS UPDATED (_ba.scfp) ****
             **** ENERGY FILE WAS UPDATED (_ba.en.tmp) ****
             **** THE GBW FILE WAS UPDATED (_ba.gbw) ****
             **** DENSITY FILE WAS UPDATED (_ba.scfp) ****
----------------
ORBITAL ENERGIES
----------------

  NO   OCC          E(Eh)            E(eV) 
   0   2.0000     -19.256245      -523.9891 
   1   2.0000     -19.256214      -523.9882 
   2   2.0000     -14.391029      -391.5998 
   3   2.0000     -14.390992      -391.5988 
   4   2.0000     -14.390768      -391.5927 
   5   2.0000     -14.390737      -391.5918 
   6   2.0000     -10.313331      -280.6400 
   7   2.0000     -10.313315      -280.6396 
   8   2.0000     -10.273711      -279.5619 
   9   2.0000     -10.273656      -279.5604 
  10   2.0000     -10.272102      -279.5181 
  11   2.0000     -10.272071      -279.5173 
  12   2.0000     -10.268444      -279.4186 
  13   2.0000     -10.268418      -279.4178 
  14   2.0000     -10.262289      -279.2511 
  15   2.0000     -10.262278      -279.2508 
  16   2.0000     -10.260974      -279.2153 
  17   2.0000     -10.260963      -279.2150 
  18   2.0000     -10.260530      -279.2032 
  19   2.0000     -10.260524      -279.2030 
  20   2.0000     -10.259069      -279.1635 
  21   2.0000     -10.259066      -279.1634 
  22   2.0000     -10.255232      -279.0591 
  23   2.0000     -10.254909      -279.0503 
  24   2.0000     -10.253286      -279.0061 
  25   2.0000     -10.253278      -279.0059 
  26   2.0000     -10.252278      -278.9787 
  27   2.0000     -10.252266      -278.9783 
  28   2.0000     -10.251498      -278.9575 
  29   2.0000     -10.251453      -278.9562 
  30   2.0000     -10.244701      -278.7725 
  31   2.0000     -10.244696      -278.7723 
  32   2.0000     -10.243813      -278.7483 
  33   2.0000     -10.243798      -278.7479 
  34   2.0000     -10.241514      -278.6858 
  35   2.0000     -10.241497      -278.6853 
  36   2.0000     -10.241381      -278.6821 
  37   2.0000     -10.241351      -278.6813 
  38   2.0000     -10.240440      -278.6565 
  39   2.0000     -10.240439      -278.6565 
  40   2.0000     -10.231376      -278.4099 
  41   2.0000     -10.231366      -278.4096 
  42   2.0000     -10.230439      -278.3844 
  43   2.0000     -10.230433      -278.3842 
  44   2.0000     -10.230266      -278.3797 
  45   2.0000     -10.230261      -278.3796 
  46   2.0000     -10.228423      -278.3295 
  47   2.0000     -10.228396      -278.3288 
  48   2.0000     -10.227119      -278.2940 
  49   2.0000     -10.227108      -278.2938 
  50   2.0000      -1.122505       -30.5449 
  51   2.0000      -1.119507       -30.4633 
  52   2.0000      -0.990229       -26.9455 
  53   2.0000      -0.990204       -26.9448 
  54   2.0000      -0.967584       -26.3293 
  55   2.0000      -0.967545       -26.3282 
  56   2.0000      -0.927722       -25.2446 
  57   2.0000      -0.917954       -24.9788 
  58   2.0000      -0.877340       -23.8736 
  59   2.0000      -0.877307       -23.8727 
  60   2.0000      -0.874033       -23.7837 
  61   2.0000      -0.873976       -23.7821 
  62   2.0000      -0.857178       -23.3250 
  63   2.0000      -0.836860       -22.7721 
  64   2.0000      -0.828916       -22.5560 
  65   2.0000      -0.813922       -22.1479 
  66   2.0000      -0.810675       -22.0596 
  67   2.0000      -0.802085       -21.8258 
  68   2.0000      -0.781942       -21.2777 
  69   2.0000      -0.781163       -21.2565 
  70   2.0000      -0.771664       -20.9980 
  71   2.0000      -0.771650       -20.9977 
  72   2.0000      -0.767738       -20.8912 
  73   2.0000      -0.762157       -20.7393 
  74   2.0000      -0.757679       -20.6175 
  75   2.0000      -0.744690       -20.2640 
  76   2.0000      -0.699440       -19.0327 
  77   2.0000      -0.698984       -19.0203 
  78   2.0000      -0.694393       -18.8954 
  79   2.0000      -0.673252       -18.3201 
  80   2.0000      -0.658678       -17.9236 
  81   2.0000      -0.655112       -17.8265 
  82   2.0000      -0.651586       -17.7305 
  83   2.0000      -0.649623       -17.6772 
  84   2.0000      -0.644087       -17.5265 
  85   2.0000      -0.632126       -17.2010 
  86   2.0000      -0.630218       -17.1491 
  87   2.0000      -0.622764       -16.9463 
  88   2.0000      -0.621745       -16.9185 
  89   2.0000      -0.614885       -16.7319 
  90   2.0000      -0.590844       -16.0777 
  91   2.0000      -0.589086       -16.0298 
  92   2.0000      -0.585340       -15.9279 
  93   2.0000      -0.584094       -15.8940 
  94   2.0000      -0.558654       -15.2017 
  95   2.0000      -0.558436       -15.1958 
  96   2.0000      -0.553100       -15.0506 
  97   2.0000      -0.549636       -14.9563 
  98   2.0000      -0.547047       -14.8859 
  99   2.0000      -0.535973       -14.5846 
 100   2.0000      -0.518861       -14.1189 
 101   2.0000      -0.517157       -14.0726 
 102   2.0000      -0.512235       -13.9386 
 103   2.0000      -0.508136       -13.8271 
 104   2.0000      -0.494639       -13.4598 
 105   2.0000      -0.492465       -13.4007 
 106   2.0000      -0.490982       -13.3603 
 107   2.0000      -0.489358       -13.3161 
 108   2.0000      -0.482726       -13.1356 
 109   2.0000      -0.481190       -13.0938 
 110   2.0000      -0.476482       -12.9657 
 111   2.0000      -0.474452       -12.9105 
 112   2.0000      -0.474332       -12.9072 
 113   2.0000      -0.467397       -12.7185 
 114   2.0000      -0.465891       -12.6775 
 115   2.0000      -0.461647       -12.5621 
 116   2.0000      -0.458835       -12.4855 
 117   2.0000      -0.453927       -12.3520 
 118   2.0000      -0.453732       -12.3467 
 119   2.0000      -0.448144       -12.1946 
 120   2.0000      -0.447330       -12.1725 
 121   2.0000      -0.445097       -12.1117 
 122   2.0000      -0.439265       -11.9530 
 123   2.0000      -0.436068       -11.8660 
 124   2.0000      -0.435656       -11.8548 
 125   2.0000      -0.433685       -11.8012 
 126   2.0000      -0.433085       -11.7849 
 127   2.0000      -0.428458       -11.6589 
 128   2.0000      -0.427834       -11.6420 
 129   2.0000      -0.424140       -11.5414 
 130   2.0000      -0.421087       -11.4584 
 131   2.0000      -0.414066       -11.2673 
 132   2.0000      -0.407964       -11.1013 
 133   2.0000      -0.404890       -11.0176 
 134   2.0000      -0.402170       -10.9436 
 135   2.0000      -0.402095       -10.9416 
 136   2.0000      -0.398748       -10.8505 
 137   2.0000      -0.390815       -10.6346 
 138   2.0000      -0.390130       -10.6160 
 139   2.0000      -0.374630       -10.1942 
 140   2.0000      -0.374590       -10.1931 
 141   2.0000      -0.373138       -10.1536 
 142   2.0000      -0.370772       -10.0892 
 143   2.0000      -0.368829       -10.0363 
 144   2.0000      -0.364331        -9.9140 
 145   2.0000      -0.364179        -9.9098 
 146   2.0000      -0.355334        -9.6691 
 147   2.0000      -0.354490        -9.6462 
 148   2.0000      -0.351670        -9.5694 
 149   2.0000      -0.344990        -9.3877 
 150   2.0000      -0.343109        -9.3365 
 151   2.0000      -0.324041        -8.8176 
 152   2.0000      -0.314621        -8.5613 
 153   2.0000      -0.310344        -8.4449 
 154   2.0000      -0.305588        -8.3155 
 155   2.0000      -0.302062        -8.2195 
 156   2.0000      -0.301860        -8.2140 
 157   2.0000      -0.287251        -7.8165 
 158   2.0000      -0.286973        -7.8089 
 159   2.0000      -0.277472        -7.5504 
 160   2.0000      -0.276980        -7.5370 
 161   2.0000      -0.268970        -7.3191 
 162   2.0000      -0.268959        -7.3187 
 163   2.0000      -0.255960        -6.9650 
 164   2.0000      -0.255886        -6.9630 
 165   2.0000      -0.245086        -6.6691 
 166   2.0000      -0.237694        -6.4680 
 167   2.0000      -0.236137        -6.4256 
 168   2.0000      -0.232503        -6.3267 
 169   0.0000      -0.081321        -2.2129 
 170   0.0000      -0.079588        -2.1657 
 171   0.0000      -0.059375        -1.6157 
 172   0.0000      -0.050906        -1.3852 
 173   0.0000      -0.030493        -0.8298 
 174   0.0000      -0.030386        -0.8268 
 175   0.0000      -0.028181        -0.7668 
 176   0.0000      -0.024590        -0.6691 
 177   0.0000      -0.009113        -0.2480 
 178   0.0000      -0.009098        -0.2476 
 179   0.0000      -0.002269        -0.0617 
 180   0.0000       0.002476         0.0674 
 181   0.0000       0.002579         0.0702 
 182   0.0000       0.012428         0.3382 
 183   0.0000       0.029458         0.8016 
 184   0.0000       0.039590         1.0773 
 185   0.0000       0.041782         1.1369 
 186   0.0000       0.048470         1.3189 
 187   0.0000       0.051954         1.4137 
 188   0.0000       0.052526         1.4293 
 189   0.0000       0.058916         1.6032 
 190   0.0000       0.060557         1.6478 
 191   0.0000       0.061151         1.6640 
 192   0.0000       0.066547         1.8108 
 193   0.0000       0.074719         2.0332 
 194   0.0000       0.077613         2.1120 
 195   0.0000       0.081404         2.2151 
 196   0.0000       0.083656         2.2764 
 197   0.0000       0.084262         2.2929 
 198   0.0000       0.087625         2.3844 
 199   0.0000       0.087821         2.3897 
 200   0.0000       0.088794         2.4162 
 201   0.0000       0.095257         2.5921 
 202   0.0000       0.096447         2.6245 
 203   0.0000       0.101748         2.7687 
 204   0.0000       0.103014         2.8032 
 205   0.0000       0.106830         2.9070 
 206   0.0000       0.107416         2.9229 
 207   0.0000       0.110516         3.0073 
 208   0.0000       0.110554         3.0083 
 209   0.0000       0.114095         3.1047 
 210   0.0000       0.116053         3.1580 
 211   0.0000       0.116196         3.1619 
 212   0.0000       0.120507         3.2792 
 213   0.0000       0.124357         3.3839 
 214   0.0000       0.128248         3.4898 
 215   0.0000       0.133900         3.6436 
 216   0.0000       0.134221         3.6523 
 217   0.0000       0.136141         3.7046 
 218   0.0000       0.139902         3.8069 
 219   0.0000       0.140513         3.8235 
 220   0.0000       0.146506         3.9866 
 221   0.0000       0.146646         3.9904 
 222   0.0000       0.151493         4.1223 
 223   0.0000       0.155219         4.2237 
 224   0.0000       0.156918         4.2700 
 225   0.0000       0.159387         4.3371 
 226   0.0000       0.160696         4.3728 
 227   0.0000       0.161602         4.3974 
 228   0.0000       0.162076         4.4103 
 229   0.0000       0.166721         4.5367 
 230   0.0000       0.170705         4.6451 
 231   0.0000       0.173767         4.7284 
 232   0.0000       0.178421         4.8551 
 233   0.0000       0.182408         4.9636 
 234   0.0000       0.187056         5.0901 
 235   0.0000       0.189819         5.1652 
 236   0.0000       0.191545         5.2122 
 237   0.0000       0.192157         5.2289 
 238   0.0000       0.196012         5.3337 
 239   0.0000       0.200080         5.4444 
 240   0.0000       0.201200         5.4749 
 241   0.0000       0.207748         5.6531 
 242   0.0000       0.207970         5.6592 
 243   0.0000       0.209756         5.7077 
 244   0.0000       0.211566         5.7570 
 245   0.0000       0.214119         5.8265 
 246   0.0000       0.214283         5.8309 
 247   0.0000       0.215659         5.8684 
 248   0.0000       0.219188         5.9644 
 249   0.0000       0.220305         5.9948 
 250   0.0000       0.221907         6.0384 
 251   0.0000       0.223172         6.0728 
 252   0.0000       0.223659         6.0861 
 253   0.0000       0.225242         6.1292 
 254   0.0000       0.225906         6.1472 
 255   0.0000       0.228256         6.2112 
 256   0.0000       0.230506         6.2724 
 257   0.0000       0.234754         6.3880 
 258   0.0000       0.235715         6.4141 
 259   0.0000       0.241419         6.5694 
 260   0.0000       0.241877         6.5818 
 261   0.0000       0.243681         6.6309 
 262   0.0000       0.243888         6.6365 
 263   0.0000       0.245347         6.6762 
 264   0.0000       0.245958         6.6928 
 265   0.0000       0.247463         6.7338 
 266   0.0000       0.248141         6.7523 
 267   0.0000       0.250975         6.8294 
 268   0.0000       0.252429         6.8689 
 269   0.0000       0.254567         6.9271 
 270   0.0000       0.256639         6.9835 
 271   0.0000       0.260527         7.0893 
 272   0.0000       0.260920         7.1000 
 273   0.0000       0.263090         7.1591 
 274   0.0000       0.263576         7.1723 
 275   0.0000       0.263906         7.1812 
 276   0.0000       0.266123         7.2416 
 277   0.0000       0.268120         7.2959 
 278   0.0000       0.270886         7.3712 
 279   0.0000       0.271521         7.3885 
 280   0.0000       0.275544         7.4979 
 281   0.0000       0.276324         7.5192 
 282   0.0000       0.276829         7.5329 
 283   0.0000       0.277486         7.5508 
 284   0.0000       0.282378         7.6839 
 285   0.0000       0.284635         7.7453 
 286   0.0000       0.287727         7.8294 
 287   0.0000       0.290183         7.8963 
 288   0.0000       0.291400         7.9294 
 289   0.0000       0.293881         7.9969 
 290   0.0000       0.294248         8.0069 
 291   0.0000       0.297707         8.1010 
 292   0.0000       0.298742         8.1292 
 293   0.0000       0.300992         8.1904 
 294   0.0000       0.302693         8.2367 
 295   0.0000       0.307908         8.3786 
 296   0.0000       0.310082         8.4378 
 297   0.0000       0.314199         8.5498 
 298   0.0000       0.317078         8.6281 
 299   0.0000       0.318772         8.6742 
 300   0.0000       0.321439         8.7468 
 301   0.0000       0.321833         8.7575 
 302   0.0000       0.324413         8.8277 
 303   0.0000       0.328367         8.9353 
 304   0.0000       0.328804         8.9472 
 305   0.0000       0.329234         8.9589 
 306   0.0000       0.330620         8.9966 
 307   0.0000       0.333194         9.0667 
 308   0.0000       0.333821         9.0837 
 309   0.0000       0.335070         9.1177 
 310   0.0000       0.337347         9.1797 
 311   0.0000       0.338879         9.2214 
 312   0.0000       0.341295         9.2871 
 313   0.0000       0.342475         9.3192 
 314   0.0000       0.346904         9.4397 
 315   0.0000       0.348833         9.4922 
 316   0.0000       0.353003         9.6057 
 317   0.0000       0.353918         9.6306 
 318   0.0000       0.354075         9.6349 
 319   0.0000       0.356630         9.7044 
 320   0.0000       0.357652         9.7322 
 321   0.0000       0.359200         9.7743 
 322   0.0000       0.359627         9.7860 
 323   0.0000       0.362649         9.8682 
 324   0.0000       0.363742         9.8979 
 325   0.0000       0.364489         9.9182 
 326   0.0000       0.366521         9.9735 
 327   0.0000       0.368764        10.0346 
 328   0.0000       0.369697        10.0600 
 329   0.0000       0.371350        10.1049 
 330   0.0000       0.375937        10.2298 
 331   0.0000       0.377082        10.2609 
 332   0.0000       0.378383        10.2963 
 333   0.0000       0.383107        10.4249 
 334   0.0000       0.386682        10.5221 
 335   0.0000       0.387039        10.5319 
 336   0.0000       0.388243        10.5646 
 337   0.0000       0.390752        10.6329 
 338   0.0000       0.394938        10.7468 
 339   0.0000       0.395309        10.7569 
 340   0.0000       0.397233        10.8093 
 341   0.0000       0.399115        10.8605 
 342   0.0000       0.400780        10.9058 
 343   0.0000       0.402364        10.9489 
 344   0.0000       0.406505        11.0616 
 345   0.0000       0.410175        11.1614 
 346   0.0000       0.410770        11.1776 
 347   0.0000       0.413168        11.2429 
 348   0.0000       0.413567        11.2537 
 349   0.0000       0.416990        11.3469 
 350   0.0000       0.417071        11.3491 
 351   0.0000       0.420309        11.4372 
 352   0.0000       0.422178        11.4881 
 353   0.0000       0.423778        11.5316 
 354   0.0000       0.424198        11.5430 
 355   0.0000       0.426590        11.6081 
 356   0.0000       0.427525        11.6335 
 357   0.0000       0.427997        11.6464 
 358   0.0000       0.431104        11.7309 
 359   0.0000       0.432271        11.7627 
 360   0.0000       0.434487        11.8230 
 361   0.0000       0.437528        11.9057 
 362   0.0000       0.439401        11.9567 
 363   0.0000       0.439883        11.9698 
 364   0.0000       0.441609        12.0168 
 365   0.0000       0.442321        12.0362 
 366   0.0000       0.447851        12.1867 
 367   0.0000       0.448284        12.1984 
 368   0.0000       0.449527        12.2323 
 369   0.0000       0.452237        12.3060 
 370   0.0000       0.456481        12.4215 
 371   0.0000       0.459913        12.5149 
 372   0.0000       0.460777        12.5384 
 373   0.0000       0.466162        12.6849 
 374   0.0000       0.467168        12.7123 
 375   0.0000       0.467391        12.7183 
 376   0.0000       0.471454        12.8289 
 377   0.0000       0.474470        12.9110 
 378   0.0000       0.474535        12.9127 
 379   0.0000       0.476774        12.9737 
 380   0.0000       0.481229        13.0949 
 381   0.0000       0.481597        13.1049 
 382   0.0000       0.482021        13.1165 
 383   0.0000       0.486650        13.2424 
 384   0.0000       0.490573        13.3492 
 385   0.0000       0.490903        13.3582 
 386   0.0000       0.493254        13.4221 
 387   0.0000       0.494452        13.4547 
 388   0.0000       0.496758        13.5175 
 389   0.0000       0.499279        13.5861 
 390   0.0000       0.500740        13.6258 
 391   0.0000       0.505026        13.7424 
 392   0.0000       0.505851        13.7649 
 393   0.0000       0.506010        13.7692 
 394   0.0000       0.506577        13.7847 
 395   0.0000       0.507719        13.8157 
 396   0.0000       0.508449        13.8356 
 397   0.0000       0.508655        13.8412 
 398   0.0000       0.510475        13.8907 
 399   0.0000       0.515307        14.0222 
 400   0.0000       0.515703        14.0330 
 401   0.0000       0.518190        14.1007 
 402   0.0000       0.520549        14.1649 
 403   0.0000       0.521310        14.1856 
 404   0.0000       0.529002        14.3949 
 405   0.0000       0.531773        14.4703 
 406   0.0000       0.532713        14.4959 
 407   0.0000       0.534066        14.5327 
 408   0.0000       0.536770        14.6063 
 409   0.0000       0.537357        14.6222 
 410   0.0000       0.542972        14.7750 
 411   0.0000       0.545566        14.8456 
 412   0.0000       0.549492        14.9524 
 413   0.0000       0.551725        15.0132 
 414   0.0000       0.554131        15.0787 
 415   0.0000       0.558937        15.2095 
 416   0.0000       0.560137        15.2421 
 417   0.0000       0.566943        15.4273 
 418   0.0000       0.568788        15.4775 
 419   0.0000       0.576460        15.6863 
 420   0.0000       0.579326        15.7642 
 421   0.0000       0.581160        15.8142 
 422   0.0000       0.586125        15.9493 
 423   0.0000       0.591089        16.0843 
 424   0.0000       0.592924        16.1343 
 425   0.0000       0.593844        16.1593 
 426   0.0000       0.595266        16.1980 
 427   0.0000       0.605725        16.4826 
 428   0.0000       0.606759        16.5108 
 429   0.0000       0.607258        16.5243 
 430   0.0000       0.613295        16.6886 
 431   0.0000       0.617719        16.8090 
 432   0.0000       0.617915        16.8143 
 433   0.0000       0.618454        16.8290 
 434   0.0000       0.620925        16.8962 
 435   0.0000       0.623361        16.9625 
 436   0.0000       0.630206        17.1488 
 437   0.0000       0.630996        17.1703 
 438   0.0000       0.635185        17.2843 
 439   0.0000       0.635972        17.3057 
 440   0.0000       0.639508        17.4019 
 441   0.0000       0.641666        17.4606 
 442   0.0000       0.642622        17.4866 
 443   0.0000       0.643220        17.5029 
 444   0.0000       0.647947        17.6315 
 445   0.0000       0.653276        17.7765 
 446   0.0000       0.655643        17.8410 
 447   0.0000       0.655954        17.8494 
 448   0.0000       0.657404        17.8889 
 449   0.0000       0.661162        17.9911 
 450   0.0000       0.661383        17.9972 
 451   0.0000       0.663431        18.0529 
 452   0.0000       0.667279        18.1576 
 453   0.0000       0.671376        18.2691 
 454   0.0000       0.673399        18.3241 
 455   0.0000       0.675253        18.3746 
 456   0.0000       0.677482        18.4352 
 457   0.0000       0.679644        18.4941 
 458   0.0000       0.683604        18.6018 
 459   0.0000       0.684508        18.6264 
 460   0.0000       0.685387        18.6503 
 461   0.0000       0.689538        18.7633 
 462   0.0000       0.690782        18.7971 
 463   0.0000       0.695076        18.9140 
 464   0.0000       0.696862        18.9626 
 465   0.0000       0.697248        18.9731 
 466   0.0000       0.698863        19.0170 
 467   0.0000       0.702693        19.1212 
 468   0.0000       0.703667        19.1477 
 469   0.0000       0.706025        19.2119 
 470   0.0000       0.708740        19.2858 
 471   0.0000       0.712592        19.3906 
 472   0.0000       0.713032        19.4026 
 473   0.0000       0.719812        19.5871 
 474   0.0000       0.721177        19.6242 
 475   0.0000       0.723041        19.6750 
 476   0.0000       0.723665        19.6919 
 477   0.0000       0.725442        19.7403 
 478   0.0000       0.726728        19.7753 
 479   0.0000       0.729823        19.8595 
 480   0.0000       0.730254        19.8712 
 481   0.0000       0.733461        19.9585 
 482   0.0000       0.734101        19.9759 
 483   0.0000       0.738240        20.0885 
 484   0.0000       0.740612        20.1531 
 485   0.0000       0.742811        20.2129 
 486   0.0000       0.745711        20.2918 
 487   0.0000       0.746559        20.3149 
 488   0.0000       0.748594        20.3703 
 489   0.0000       0.751101        20.4385 
 490   0.0000       0.751938        20.4613 
 491   0.0000       0.754171        20.5220 
 492   0.0000       0.758313        20.6347 
 493   0.0000       0.759187        20.6585 
 494   0.0000       0.768385        20.9088 
 495   0.0000       0.770295        20.9608 
 496   0.0000       0.771467        20.9927 
 497   0.0000       0.773217        21.0403 
 498   0.0000       0.774450        21.0739 
 499   0.0000       0.776165        21.1205 
 500   0.0000       0.778285        21.1782 
 501   0.0000       0.779655        21.2155 
 502   0.0000       0.782918        21.3043 
 503   0.0000       0.785132        21.3645 
 504   0.0000       0.786945        21.4139 
 505   0.0000       0.787350        21.4249 
 506   0.0000       0.791132        21.5278 
 507   0.0000       0.793381        21.5890 
 508   0.0000       0.799407        21.7530 
 509   0.0000       0.801027        21.7970 
 510   0.0000       0.803289        21.8586 
 511   0.0000       0.805441        21.9172 
 512   0.0000       0.809654        22.0318 
 513   0.0000       0.814751        22.1705 
 514   0.0000       0.816510        22.2184 
 515   0.0000       0.817783        22.2530 
 516   0.0000       0.819848        22.3092 
 517   0.0000       0.826447        22.4888 
 518   0.0000       0.828609        22.5476 
 519   0.0000       0.828927        22.5562 
 520   0.0000       0.834093        22.6968 
 521   0.0000       0.834552        22.7093 
 522   0.0000       0.834999        22.7215 
 523   0.0000       0.839506        22.8441 
 524   0.0000       0.842927        22.9372 
 525   0.0000       0.846287        23.0286 
 526   0.0000       0.848235        23.0816 
 527   0.0000       0.848773        23.0963 
 528   0.0000       0.853387        23.2218 
 529   0.0000       0.859131        23.3781 
 530   0.0000       0.859386        23.3851 
 531   0.0000       0.860374        23.4120 
 532   0.0000       0.862978        23.4828 
 533   0.0000       0.867314        23.6008 
 534   0.0000       0.871560        23.7164 
 535   0.0000       0.876023        23.8378 
 536   0.0000       0.876403        23.8481 
 537   0.0000       0.881782        23.9945 
 538   0.0000       0.883635        24.0449 
 539   0.0000       0.885596        24.0983 
 540   0.0000       0.886862        24.1327 
 541   0.0000       0.891071        24.2473 
 542   0.0000       0.893942        24.3254 
 543   0.0000       0.898365        24.4458 
 544   0.0000       0.901340        24.5267 
 545   0.0000       0.902218        24.5506 
 546   0.0000       0.902228        24.5509 
 547   0.0000       0.904012        24.5994 
 548   0.0000       0.905491        24.6397 
 549   0.0000       0.908738        24.7280 
 550   0.0000       0.911866        24.8131 
 551   0.0000       0.913202        24.8495 
 552   0.0000       0.917499        24.9664 
 553   0.0000       0.927588        25.2410 
 554   0.0000       0.928631        25.2693 
 555   0.0000       0.932663        25.3791 
 556   0.0000       0.935770        25.4636 
 557   0.0000       0.941647        25.6235 
 558   0.0000       0.944963        25.7137 
 559   0.0000       0.951481        25.8911 
 560   0.0000       0.953347        25.9419 
 561   0.0000       0.958528        26.0829 
 562   0.0000       0.958823        26.0909 
 563   0.0000       0.967837        26.3362 
 564   0.0000       0.972634        26.4667 
 565   0.0000       0.978127        26.6162 
 566   0.0000       0.981048        26.6957 
 567   0.0000       0.989045        26.9133 
 568   0.0000       0.991883        26.9905 
 569   0.0000       1.000318        27.2200 
 570   0.0000       1.002433        27.2776 
 571   0.0000       1.005427        27.3591 
 572   0.0000       1.006877        27.3985 
 573   0.0000       1.009434        27.4681 
 574   0.0000       1.015795        27.6412 
 575   0.0000       1.018607        27.7177 
 576   0.0000       1.019558        27.7436 
 577   0.0000       1.020629        27.7727 
 578   0.0000       1.022460        27.8226 
 579   0.0000       1.028290        27.9812 
 580   0.0000       1.030217        28.0336 
 581   0.0000       1.034190        28.1417 
 582   0.0000       1.038117        28.2486 
 583   0.0000       1.041095        28.3296 
 584   0.0000       1.044461        28.4212 
 585   0.0000       1.045389        28.4465 
 586   0.0000       1.056797        28.7569 
 587   0.0000       1.057985        28.7892 
 588   0.0000       1.060313        28.8526 
 589   0.0000       1.070343        29.1255 
 590   0.0000       1.079128        29.3646 
 591   0.0000       1.079982        29.3878 
 592   0.0000       1.082615        29.4595 
 593   0.0000       1.083255        29.4769 
 594   0.0000       1.086924        29.5767 
 595   0.0000       1.090262        29.6675 
 596   0.0000       1.095600        29.8128 
 597   0.0000       1.100575        29.9482 
 598   0.0000       1.104651        30.0591 
 599   0.0000       1.106769        30.1167 
 600   0.0000       1.111087        30.2342 
 601   0.0000       1.114138        30.3172 
 602   0.0000       1.119973        30.4760 
 603   0.0000       1.127622        30.6842 
 604   0.0000       1.128756        30.7150 
 605   0.0000       1.135345        30.8943 
 606   0.0000       1.138715        30.9860 
 607   0.0000       1.145156        31.1613 
 608   0.0000       1.147402        31.2224 
 609   0.0000       1.148108        31.2416 
 610   0.0000       1.154131        31.4055 
 611   0.0000       1.155021        31.4297 
 612   0.0000       1.157220        31.4896 
 613   0.0000       1.158238        31.5172 
 614   0.0000       1.165869        31.7249 
 615   0.0000       1.174508        31.9600 
 616   0.0000       1.177266        32.0350 
 617   0.0000       1.178851        32.0782 
 618   0.0000       1.185932        32.2708 
 619   0.0000       1.190333        32.3906 
 620   0.0000       1.192360        32.4458 
 621   0.0000       1.201566        32.6963 
 622   0.0000       1.207313        32.8526 
 623   0.0000       1.208611        32.8880 
 624   0.0000       1.210767        32.9466 
 625   0.0000       1.211440        32.9650 
 626   0.0000       1.213712        33.0268 
 627   0.0000       1.215197        33.0672 
 628   0.0000       1.216168        33.0936 
 629   0.0000       1.218258        33.1505 
 630   0.0000       1.221347        33.2346 
 631   0.0000       1.226550        33.3761 
 632   0.0000       1.231180        33.5021 
 633   0.0000       1.232535        33.5390 
 634   0.0000       1.233362        33.5615 
 635   0.0000       1.236768        33.6542 
 636   0.0000       1.237604        33.6769 
 637   0.0000       1.239238        33.7214 
 638   0.0000       1.239880        33.7388 
 639   0.0000       1.241087        33.7717 
 640   0.0000       1.244199        33.8564 
 641   0.0000       1.247615        33.9493 
 642   0.0000       1.248999        33.9870 
 643   0.0000       1.260791        34.3079 
 644   0.0000       1.263561        34.3832 
 645   0.0000       1.266868        34.4732 
 646   0.0000       1.268402        34.5150 
 647   0.0000       1.271034        34.5866 
 648   0.0000       1.272803        34.6347 
 649   0.0000       1.277248        34.7557 
 650   0.0000       1.279424        34.8149 
 651   0.0000       1.283626        34.9292 
 652   0.0000       1.285490        34.9800 
 653   0.0000       1.289293        35.0834 
 654   0.0000       1.293274        35.1918 
 655   0.0000       1.295908        35.2634 
 656   0.0000       1.300069        35.3767 
 657   0.0000       1.301611        35.4186 
 658   0.0000       1.304296        35.4917 
 659   0.0000       1.304449        35.4959 
 660   0.0000       1.306458        35.5505 
 661   0.0000       1.310076        35.6490 
 662   0.0000       1.314240        35.7623 
 663   0.0000       1.315768        35.8039 
 664   0.0000       1.321101        35.9490 
 665   0.0000       1.325727        36.0749 
 666   0.0000       1.330460        36.2037 
 667   0.0000       1.340966        36.4896 
 668   0.0000       1.344858        36.5955 
 669   0.0000       1.347730        36.6736 
 670   0.0000       1.353262        36.8241 
 671   0.0000       1.361910        37.0595 
 672   0.0000       1.372306        37.3423 
 673   0.0000       1.377607        37.4866 
 674   0.0000       1.377749        37.4904 
 675   0.0000       1.378838        37.5201 
 676   0.0000       1.382241        37.6127 
 677   0.0000       1.385979        37.7144 
 678   0.0000       1.387374        37.7524 
 679   0.0000       1.388480        37.7825 
 680   0.0000       1.392632        37.8955 
 681   0.0000       1.393867        37.9291 
 682   0.0000       1.400660        38.1139 
 683   0.0000       1.416910        38.5561 
 684   0.0000       1.417993        38.5855 
 685   0.0000       1.419331        38.6220 
 686   0.0000       1.421428        38.6790 
 687   0.0000       1.422490        38.7079 
 688   0.0000       1.423247        38.7285 
 689   0.0000       1.427913        38.8555 
 690   0.0000       1.431660        38.9574 
 691   0.0000       1.435992        39.0753 
 692   0.0000       1.436877        39.0994 
 693   0.0000       1.439461        39.1697 
 694   0.0000       1.441091        39.2141 
 695   0.0000       1.446300        39.3558 
 696   0.0000       1.447718        39.3944 
 697   0.0000       1.451521        39.4979 
 698   0.0000       1.452433        39.5227 
 699   0.0000       1.460658        39.7465 
 700   0.0000       1.460925        39.7538 
 701   0.0000       1.464746        39.8578 
 702   0.0000       1.466507        39.9057 
 703   0.0000       1.469169        39.9781 
 704   0.0000       1.472084        40.0574 
 705   0.0000       1.472692        40.0740 
 706   0.0000       1.475378        40.1471 
 707   0.0000       1.478931        40.2438 
 708   0.0000       1.479018        40.2461 
 709   0.0000       1.481873        40.3238 
 710   0.0000       1.490202        40.5504 
 711   0.0000       1.494307        40.6621 
 712   0.0000       1.497354        40.7451 
 713   0.0000       1.499810        40.8119 
 714   0.0000       1.502929        40.8968 
 715   0.0000       1.504333        40.9350 
 716   0.0000       1.508755        41.0553 
 717   0.0000       1.510937        41.1147 
 718   0.0000       1.511799        41.1382 
 719   0.0000       1.516875        41.2763 
 720   0.0000       1.517751        41.3001 
 721   0.0000       1.519062        41.3358 
 722   0.0000       1.526128        41.5280 
 723   0.0000       1.530584        41.6493 
 724   0.0000       1.532974        41.7144 
 725   0.0000       1.534134        41.7459 
 726   0.0000       1.539180        41.8832 
 727   0.0000       1.541417        41.9441 
 728   0.0000       1.546045        42.0700 
 729   0.0000       1.549577        42.1661 
 730   0.0000       1.552226        42.2382 
 731   0.0000       1.554088        42.2889 
 732   0.0000       1.559706        42.4418 
 733   0.0000       1.564818        42.5809 
 734   0.0000       1.564872        42.5823 
 735   0.0000       1.571767        42.7699 
 736   0.0000       1.575785        42.8793 
 737   0.0000       1.576400        42.8960 
 738   0.0000       1.576444        42.8972 
 739   0.0000       1.581572        43.0368 
 740   0.0000       1.582242        43.0550 
 741   0.0000       1.587778        43.2056 
 742   0.0000       1.589466        43.2516 
 743   0.0000       1.594598        43.3912 
 744   0.0000       1.596668        43.4476 
 745   0.0000       1.604311        43.6555 
 746   0.0000       1.605213        43.6801 
 747   0.0000       1.613119        43.8952 
 748   0.0000       1.613885        43.9160 
 749   0.0000       1.617336        44.0099 
 750   0.0000       1.619322        44.0640 
[...]
      f+2     :     0.005513
      f-2     :     0.007158
      f+3     :     0.006005
      f-3     :     0.004871
 60 C s       :     2.762360  s :     2.762360
      pz      :     0.984094  p :     2.881972
      px      :     0.990238
      py      :     0.907640
      dz2     :     0.074555  d :     0.385299
      dxz     :     0.106348
      dyz     :     0.082556
      dx2y2   :     0.062297
      dxy     :     0.059543
      f0      :     0.009260  f :     0.042837
      f+1     :     0.005905
      f-1     :     0.005752
      f+2     :     0.003953
      f-2     :     0.007297
      f+3     :     0.006046
      f-3     :     0.004625
 61 H s       :     0.783078  s :     0.783078
      pz      :     0.025793  p :     0.059284
      px      :     0.014246
      py      :     0.019244
 62 H s       :     0.779627  s :     0.779627
      pz      :     0.029261  p :     0.061131
      px      :     0.020215
      py      :     0.011655
 63 C s       :     2.791114  s :     2.791114
      pz      :     0.981866  p :     2.806812
      px      :     0.944217
      py      :     0.880730
      dz2     :     0.140172  d :     0.503434
      dxz     :     0.104097
      dyz     :     0.100719
      dx2y2   :     0.081128
      dxy     :     0.077317
      f0      :     0.013792  f :     0.062265
      f+1     :     0.010760
      f-1     :     0.006925
      f+2     :     0.007326
      f-2     :     0.012357
      f+3     :     0.006084
      f-3     :     0.005022
 64 N s       :     3.018642  s :     3.018642
      pz      :     1.326996  p :     3.566579
      px      :     1.092052
      py      :     1.147531
      dz2     :     0.049592  d :     0.218527
      dxz     :     0.052124
      dyz     :     0.030752
      dx2y2   :     0.042207
      dxy     :     0.043851
      f0      :     0.003777  f :     0.018209
      f+1     :     0.003084
      f-1     :     0.001884
      f+2     :     0.002027
      f-2     :     0.002979
      f+3     :     0.002369
      f-3     :     0.002090
 65 C s       :     2.708636  s :     2.708636
      pz      :     0.893436  p :     2.821030
      px      :     0.930672
      py      :     0.996922
      dz2     :     0.072518  d :     0.611708
      dxz     :     0.106322
      dyz     :     0.094264
      dx2y2   :     0.157503
      dxy     :     0.181102
      f0      :     0.006522  f :     0.075151
      f+1     :     0.006935
      f-1     :     0.006917
      f+2     :     0.008442
      f-2     :     0.013075
      f+3     :     0.022035
      f-3     :     0.011225
 66 C s       :     2.764613  s :     2.764613
      pz      :     0.913663  p :     2.937466
      px      :     1.004414
      py      :     1.019389
      dz2     :     0.028638  d :     0.374859
      dxz     :     0.056212
      dyz     :     0.063740
      dx2y2   :     0.112252
      dxy     :     0.114018
      f0      :     0.004024  f :     0.041682
      f+1     :     0.002113
      f-1     :     0.005492
      f+2     :     0.005574
      f-2     :     0.005467
      f+3     :     0.012397
      f-3     :     0.006615
 67 C s       :     2.768472  s :     2.768472
      pz      :     0.913509  p :     2.941827
      px      :     1.051396
      py      :     0.976922
      dz2     :     0.036534  d :     0.391266
      dxz     :     0.079743
      dyz     :     0.040406
      dx2y2   :     0.143216
      dxy     :     0.091367
      f0      :     0.004243  f :     0.042682
      f+1     :     0.005116
      f-1     :     0.002396
      f+2     :     0.004402
      f-2     :     0.007448
      f+3     :     0.012200
      f-3     :     0.006876
 68 C s       :     2.769169  s :     2.769169
      pz      :     0.932872  p :     2.951274
      px      :     0.995697
      py      :     1.022706
      dz2     :     0.054490  d :     0.386086
      dxz     :     0.040636
      dyz     :     0.065264
      dx2y2   :     0.093251
      dxy     :     0.132445
      f0      :     0.003156  f :     0.042411
      f+1     :     0.004633
      f-1     :     0.004524
      f+2     :     0.006945
      f-2     :     0.005581
      f+3     :     0.010848
      f-3     :     0.006724
 69 C s       :     2.768308  s :     2.768308
      pz      :     0.908704  p :     2.942669
      px      :     1.000892
      py      :     1.033073
      dz2     :     0.029385  d :     0.389950
      dxz     :     0.059872
      dyz     :     0.066445
      dx2y2   :     0.111317
      dxy     :     0.122930
      f0      :     0.004018  f :     0.042620
      f+1     :     0.002062
      f-1     :     0.005549
      f+2     :     0.005615
      f-2     :     0.005884
      f+3     :     0.012972
      f-3     :     0.006519
 70 C s       :     2.766205  s :     2.766205
      pz      :     0.912076  p :     2.926104
      px      :     1.036926
      py      :     0.977102
      dz2     :     0.035242  d :     0.373683
      dxz     :     0.078414
      dyz     :     0.040241
      dx2y2   :     0.129387
      dxy     :     0.090400
      f0      :     0.004363  f :     0.041722
      f+1     :     0.005252
      f-1     :     0.002209
      f+2     :     0.004438
      f-2     :     0.007229
      f+3     :     0.011420
      f-3     :     0.006811
 71 H s       :     0.789896  s :     0.789896
      pz      :     0.015942  p :     0.059051
      px      :     0.010592
      py      :     0.032517
 72 H s       :     0.794508  s :     0.794508
      pz      :     0.017297  p :     0.057973
      px      :     0.026162
      py      :     0.014514
 73 H s       :     0.795527  s :     0.795527
      pz      :     0.012924  p :     0.058418
      px      :     0.027497
      py      :     0.017997
 74 H s       :     0.794352  s :     0.794352
      pz      :     0.015470  p :     0.058049
      px      :     0.010747
      py      :     0.031832
 75 H s       :     0.789957  s :     0.789957
      pz      :     0.017595  p :     0.059353
      px      :     0.026958
      py      :     0.014800
 76 H s       :     0.800978  s :     0.800978
      pz      :     0.030324  p :     0.058884
      px      :     0.009868
      py      :     0.018692
 77 H s       :     0.795206  s :     0.795206
      pz      :     0.030754  p :     0.057550
      px      :     0.015768
      py      :     0.011028
 78 O s       :     3.304090  s :     3.304090
      pz      :     1.359593  p :     4.472752
      px      :     1.495098
      py      :     1.618060
      dz2     :     0.016257  d :     0.075927
      dxz     :     0.026134
      dyz     :     0.017467
      dx2y2   :     0.010910
      dxy     :     0.005160
      f0      :     0.001209  f :     0.005218
      f+1     :     0.000514
      f-1     :     0.001082
      f+2     :     0.001082
      f-2     :     0.000822
      f+3     :     0.000365
      f-3     :     0.000144
 79 H s       :     0.640726  s :     0.640726
      pz      :     0.041960  p :     0.157438
      px      :     0.076295
      py      :     0.039184


                      *****************************
                      * MAYER POPULATION ANALYSIS *
                      *****************************

  NA   - Mulliken gross atomic population
  ZA   - Total nuclear charge
  QA   - Mulliken gross atomic charge
  VA   - Mayer's total valence
  BVA  - Mayer's bonded valence
  FA   - Mayer's free valence

  ATOM       NA         ZA         QA         VA         BVA        FA
  0 H      0.6550     1.0000     0.3450     0.9090     0.9090    -0.0000
  1 O      8.3642     8.0000    -0.3642     2.1365     2.1365    -0.0000
  2 C      5.7830     6.0000     0.2170     3.9715     3.9715    -0.0000
  3 C      6.1179     6.0000    -0.1179     2.9443     2.9443     0.0000
  4 C      5.9192     6.0000     0.0808     3.6749     3.6749    -0.0000
  5 C      6.1955     6.0000    -0.1955     3.9739     3.9739    -0.0000
  6 C      6.1083     6.0000    -0.1083     3.9235     3.9235    -0.0000
  7 C      6.1026     6.0000    -0.1026     3.9118     3.9118     0.0000
  8 C      6.2370     6.0000    -0.2370     3.9594     3.9594     0.0000
  9 C      5.8192     6.0000     0.1808     3.7990     3.7990    -0.0000
 10 C      6.3194     6.0000    -0.3194     3.8976     3.8976    -0.0000
 11 C      5.9395     6.0000     0.0605     3.6994     3.6994    -0.0000
 12 C      5.9224     6.0000     0.0776     3.6638     3.6638    -0.0000
 13 C      6.1435     6.0000    -0.1435     4.1122     4.1122    -0.0000
 14 N      7.2058     7.0000    -0.2058     3.0969     3.0969    -0.0000
 15 C      5.7669     6.0000     0.2331     3.8939     3.8939     0.0000
 16 C      6.1954     6.0000    -0.1954     3.9701     3.9701    -0.0000
 17 C      6.1351     6.0000    -0.1351     3.8788     3.8788    -0.0000
 18 H      0.8660     1.0000     0.1340     0.9861     0.9861    -0.0000
 19 H      0.8628     1.0000     0.1372     1.0011     1.0011    -0.0000
 20 C      6.1017     6.0000    -0.1017     4.0307     4.0307    -0.0000
 21 N      7.1669     7.0000    -0.1669     3.0850     3.0850    -0.0000
 22 C      5.7307     6.0000     0.2693     3.8726     3.8726    -0.0000
 23 C      6.2609     6.0000    -0.2609     4.0290     4.0290    -0.0000
 24 C      6.0993     6.0000    -0.0993     3.9459     3.9459    -0.0000
 25 C      6.1319     6.0000    -0.1319     3.9747     3.9747    -0.0000
 26 C      6.0716     6.0000    -0.0716     3.9071     3.9071    -0.0000
 27 C      6.2425     6.0000    -0.2425     4.0726     4.0726    -0.0000
 28 H      0.8879     1.0000     0.1121     0.9931     0.9931    -0.0000
 29 H      0.8827     1.0000     0.1173     0.9664     0.9664    -0.0000
 30 H      0.8821     1.0000     0.1179     0.9670     0.9670    -0.0000
 31 H      0.8812     1.0000     0.1188     0.9674     0.9674    -0.0000
 32 H      0.8719     1.0000     0.1281     0.9783     0.9783    -0.0000
 33 H      0.9003     1.0000     0.0997     1.0039     1.0039    -0.0000
 34 H      0.8635     1.0000     0.1365     0.9692     0.9692     0.0000
 35 H      0.8597     1.0000     0.1403     0.9659     0.9659    -0.0000
 36 H      0.8804     1.0000     0.1196     0.9704     0.9704     0.0000
 37 H      0.8782     1.0000     0.1218     0.9669     0.9669     0.0000
 38 H      0.8786     1.0000     0.1214     0.9688     0.9688    -0.0000
 39 H      0.8693     1.0000     0.1307     0.9776     0.9776    -0.0000
 40 C      6.1203     6.0000    -0.1203     2.9449     2.9449    -0.0000
 41 C      5.7808     6.0000     0.2192     3.9694     3.9694    -0.0000
 42 C      5.9408     6.0000     0.0592     3.6996     3.6996    -0.0000
 43 C      6.3189     6.0000    -0.3189     3.8970     3.8970     0.0000
 44 C      5.8192     6.0000     0.1808     3.7979     3.7979    -0.0000
 45 C      6.2369     6.0000    -0.2369     3.9593     3.9593    -0.0000
 46 C      6.1027     6.0000    -0.1027     3.9118     3.9118    -0.0000
 47 C      6.1083     6.0000    -0.1083     3.9235     3.9235    -0.0000
 48 C      6.1958     6.0000    -0.1958     3.9737     3.9737    -0.0000
 49 C      5.9186     6.0000     0.0814     3.6734     3.6734    -0.0000
 50 H      0.8691     1.0000     0.1309     0.9774     0.9774    -0.0000
 51 H      0.8786     1.0000     0.1214     0.9688     0.9688     0.0000
 52 H      0.8782     1.0000     0.1218     0.9669     0.9669     0.0000
 53 H      0.8804     1.0000     0.1196     0.9704     0.9704    -0.0000
 54 H      0.8598     1.0000     0.1402     0.9659     0.9659     0.0000
 55 C      5.9219     6.0000     0.0781     3.6630     3.6630    -0.0000
 56 C      6.1436     6.0000    -0.1436     4.1121     4.1121    -0.0000
 57 N      7.2058     7.0000    -0.2058     3.0969     3.0969    -0.0000
 58 C      5.7666     6.0000     0.2334     3.8932     3.8932    -0.0000
 59 C      6.1953     6.0000    -0.1953     3.9702     3.9702    -0.0000
 60 C      6.1351     6.0000    -0.1351     3.8792     3.8792     0.0000
 61 H      0.8662     1.0000     0.1338     0.9860     0.9860     0.0000
 62 H      0.8628     1.0000     0.1372     1.0011     1.0011    -0.0000
 63 C      6.1021     6.0000    -0.1021     4.0307     4.0307    -0.0000
 64 N      7.1668     7.0000    -0.1668     3.0848     3.0848    -0.0000
 65 C      5.7309     6.0000     0.2691     3.8727     3.8727    -0.0000
 66 C      6.2611     6.0000    -0.2611     4.0293     4.0293     0.0000
 67 C      6.0991     6.0000    -0.0991     3.9457     3.9457    -0.0000
 68 C      6.1319     6.0000    -0.1319     3.9747     3.9747    -0.0000
 69 C      6.0716     6.0000    -0.0716     3.9072     3.9072     0.0000
 70 C      6.2425     6.0000    -0.2425     4.0727     4.0727     0.0000
 71 H      0.8879     1.0000     0.1121     0.9930     0.9930     0.0000
 72 H      0.8827     1.0000     0.1173     0.9664     0.9664     0.0000
 73 H      0.8821     1.0000     0.1179     0.9670     0.9670    -0.0000
 74 H      0.8813     1.0000     0.1187     0.9674     0.9674     0.0000
 75 H      0.8718     1.0000     0.1282     0.9782     0.9782     0.0000
 76 H      0.9001     1.0000     0.0999     1.0038     1.0038    -0.0000
 77 H      0.8634     1.0000     0.1366     0.9692     0.9692    -0.0000
 78 O      8.3640     8.0000    -0.3640     2.1369     2.1369    -0.0000
 79 H      0.6551     1.0000     0.3449     0.9089     0.9089    -0.0000

  Mayer bond orders larger than 0.100000
B(  0-H ,  1-O ) :   0.8416 B(  1-O ,  2-C ) :   1.2267 B(  2-C ,  3-C ) :   1.3715 
B(  2-C , 11-C ) :   1.2820 B(  3-C ,  4-C ) :   1.0493 B(  3-C , 40-C ) :   0.6488 
B(  4-C ,  5-C ) :   1.3400 B(  4-C ,  9-C ) :   1.2911 B(  5-C ,  6-C ) :   1.5407 
B(  5-C , 39-H ) :   0.9474 B(  6-C ,  7-C ) :   1.2705 B(  6-C , 38-H ) :   0.9664 
B(  7-C ,  8-C ) :   1.5318 B(  7-C , 37-H ) :   0.9668 B(  8-C ,  9-C ) :   1.2346 
B(  8-C , 36-H ) :   0.9813 B(  9-C , 10-C ) :   1.1887 B( 10-C , 11-C ) :   1.4920 
B( 10-C , 35-H ) :   0.9783 B( 11-C , 12-C ) :   0.8774 B( 12-C , 13-C ) :   1.3493 
B( 12-C , 17-C ) :   1.3306 B( 13-C , 14-N ) :   1.5602 B( 13-C , 34-H ) :   0.9784 
B( 14-N , 15-C ) :   1.3842 B( 15-C , 16-C ) :   1.3725 B( 15-C , 20-C ) :   1.0519 
B( 15-C , 21-N ) :  -0.1126 B( 16-C , 17-C ) :   1.4290 B( 16-C , 19-H ) :   0.9527 
B( 17-C , 18-H ) :   0.9667 B( 20-C , 21-N ) :   1.8854 B( 20-C , 33-H ) :   0.9226 
B( 21-N , 22-C ) :   1.0579 B( 22-C , 23-C ) :   1.3535 B( 22-C , 27-C ) :   1.4006 
B( 23-C , 24-C ) :   1.4379 B( 23-C , 32-H ) :   0.9566 B( 24-C , 25-C ) :   1.4199 
B( 24-C , 31-H ) :   0.9575 B( 25-C , 26-C ) :   1.4053 B( 25-C , 30-H ) :   0.9625 
B( 26-C , 27-C ) :   1.4390 B( 26-C , 29-H ) :   0.9648 B( 27-C , 28-H ) :   0.9706 
B( 40-C , 41-C ) :   1.3704 B( 40-C , 49-C ) :   1.0488 B( 41-C , 42-C ) :   1.2814 
B( 41-C , 78-O ) :   1.2277 B( 42-C , 43-C ) :   1.4927 B( 42-C , 55-C ) :   0.8766 
B( 43-C , 44-C ) :   1.1879 B( 43-C , 54-H ) :   0.9787 B( 44-C , 45-C ) :   1.2348 
B( 44-C , 49-C ) :   1.2906 B( 45-C , 46-C ) :   1.5318 B( 45-C , 53-H ) :   0.9812 
B( 46-C , 47-C ) :   1.2704 B( 46-C , 52-H ) :   0.9668 B( 47-C , 48-C ) :   1.5407 
B( 47-C , 51-H ) :   0.9665 B( 48-C , 49-C ) :   1.3397 B( 48-C , 50-H ) :   0.9477 
B( 55-C , 56-C ) :   1.3494 B( 55-C , 60-C ) :   1.3306 B( 56-C , 57-N ) :   1.5598 
B( 56-C , 77-H ) :   0.9784 B( 57-N , 58-C ) :   1.3846 B( 58-C , 59-C ) :   1.3725 
B( 58-C , 63-C ) :   1.0514 B( 58-C , 64-N ) :  -0.1127 B( 59-C , 60-C ) :   1.4292 
B( 59-C , 62-H ) :   0.9526 B( 60-C , 61-H ) :   0.9668 B( 63-C , 64-N ) :   1.8855 
B( 63-C , 76-H ) :   0.9229 B( 64-N , 65-C ) :   1.0576 B( 65-C , 66-C ) :   1.3539 
B( 65-C , 70-C ) :   1.4005 B( 66-C , 67-C ) :   1.4376 B( 66-C , 75-H ) :   0.9567 
B( 67-C , 68-C ) :   1.4201 B( 67-C , 74-H ) :   0.9575 B( 68-C , 69-C ) :   1.4052 
B( 68-C , 73-H ) :   0.9625 B( 69-C , 70-C ) :   1.4391 B( 69-C , 72-H ) :   0.9648 
B( 70-C , 71-H ) :   0.9706 B( 78-O , 79-H ) :   0.8417 

-------
TIMINGS
-------

Total SCF time: 0 days 0 hours 14 min 21 sec 

Total time                  ....     861.474 sec
Sum of individual times     ....     850.164 sec  ( 98.7%)

Fock matrix formation       ....     785.149 sec  ( 91.1%)
  XC integration            ....      17.817 sec  (  2.3% of F)
    Basis function eval.    ....       2.264 sec  ( 12.7% of XC)
    Density eval.           ....       6.920 sec  ( 38.8% of XC)
    XC-Functional eval.     ....       0.226 sec  (  1.3% of XC)
    XC-Potential eval.      ....       3.405 sec  ( 19.1% of XC)
Diagonalization             ....       7.975 sec  (  0.9%)
Density matrix formation    ....       0.714 sec  (  0.1%)
Population analysis         ....       4.837 sec  (  0.6%)
Initial guess               ....       2.162 sec  (  0.3%)
Orbital Transformation      ....       0.000 sec  (  0.0%)
Orbital Orthonormalization  ....       0.000 sec  (  0.0%)
DIIS solution               ....      32.410 sec  (  3.8%)
SOSCF solution              ....       3.711 sec  (  0.4%)
Grid generation             ....      13.207 sec  (  1.5%)


-------------------------------------------------------------------------------
                          DFT DISPERSION CORRECTION                            
                                                                               
                                 DFTD4 V2.0                                    
-------------------------------------------------------------------------------
The PBE0 functional is recognized
Active option DFTDOPT                   ...         5   

-------------------------   ----------------
Dispersion correction           -0.111238913
-------------------------   ----------------


-------------------------   --------------------
FINAL SINGLE POINT ENERGY     -2062.657607042877
-------------------------   --------------------


                            ***************************************
                            *     ORCA property calculations      *
                            ***************************************

                                    ---------------------
                                    Active property flags
                                    ---------------------
   (+) Dipole Moment


------------------------------------------------------------------------------
                       ORCA ELECTRIC PROPERTIES CALCULATION
------------------------------------------------------------------------------

Dipole Moment Calculation                       ... on
Quadrupole Moment Calculation                   ... off
Polarizability Calculation                      ... off
GBWName                                         ... _ba.gbw
Electron density file                           ... _ba.scfp
The origin for moment calculation is the CENTER OF MASS  = (-0.000563, -0.010510 -0.001811)

-------------
DIPOLE MOMENT
-------------
                                X             Y             Z
Electronic contribution:      0.00494      -5.36461      -0.04584
Nuclear contribution   :     -0.00425       4.22804       0.03404
                        -----------------------------------------
Total Dipole Moment    :      0.00069      -1.13657      -0.01180
                        -----------------------------------------
Magnitude (a.u.)       :      1.13663
Magnitude (Debye)      :      2.88909



--------------------
Rotational spectrum 
--------------------
 
Rotational constants in cm-1:     0.002616     0.000606     0.000563 
Rotational constants in MHz :    78.424099    18.182089    16.891296 

 Dipole components along the rotational axes: 
x,y,z [a.u.] :    -0.000012     1.136631     0.000047 
x,y,z [Debye]:    -0.000031     2.889087     0.000118 

 

Timings for individual modules:

Sum of individual times         ...      952.525 sec (=  15.875 min)
GTO integral calculation        ...       42.948 sec (=   0.716 min)   4.5 %
SCF iterations                  ...      909.577 sec (=  15.160 min)  95.5 %
                             ****ORCA TERMINATED NORMALLY****
TOTAL RUN TIME: 0 days 0 hours 16 minutes 36 seconds 813 msec
