Job execution start: Sat Apr 17 11:20:39 BST 2021
Shared library path: /work/e05/e05/atarzia/orca_4_2_1_linux_x86-64_openmpi314:/work/e05/e05/atarzia/openmpi-3.1.4/lib:/opt/cray/pe/papi/6.0.0.4/lib64:/opt/cray/libfabric/1.11.0.0.233/lib64
Slurm Job ID is: 208434
Slurm Job name is: fe4ll_xtb_dft_sg86_1_1
nid001251

                                 *****************
                                 * O   R   C   A *
                                 *****************

           --- An Ab Initio, DFT and Semiempirical electronic structure package ---

                  #######################################################
                  #                        -***-                        #
                  #          Department of theory and spectroscopy      #
                  #               Directorship: Frank Neese             #
                  #        Max Planck Institute fuer Kohlenforschung    #
                  #                Kaiser Wilhelm Platz 1               #
                  #                 D-45470 Muelheim/Ruhr               #
                  #                      Germany                        #
                  #                                                     #
                  #                  All rights reserved                #
                  #                        -***-                        #
                  #######################################################


                         Program Version 4.2.1 -  RELEASE  -


 With contributions from (in alphabetic order):
   Daniel Aravena         : Magnetic Suceptibility
   Michael Atanasov       : Ab Initio Ligand Field Theory (pilot matlab implementation)
   Alexander A. Auer      : GIAO ZORA, VPT2
   Ute Becker             : Parallelization
   Giovanni Bistoni       : ED, misc. LED, open-shell LED, HFLD
   Martin Brehm           : Molecular dynamics
   Dmytro Bykov           : SCF Hessian
   Vijay G. Chilkuri      : MRCI spin determinant printing, contributions to CSF-ICE
   Dipayan Datta          : RHF DLPNO-CCSD density
   Achintya Kumar Dutta   : EOM-CC, STEOM-CC
   Dmitry Ganyushin       : Spin-Orbit,Spin-Spin,Magnetic field MRCI
   Miquel Garcia          : C-PCM Hessian, Gaussian charge scheme
   Yang Guo               : DLPNO-NEVPT2, CIM, IAO-localization
   Andreas Hansen         : Spin unrestricted coupled pair/coupled cluster methods
   Benjamin Helmich-Paris : CASSCF linear response (MC-RPA)
   Lee Huntington         : MR-EOM, pCC
   Robert Izsak           : Overlap fitted RIJCOSX, COSX-SCS-MP3, EOM
   Christian Kollmar      : KDIIS, OOCD, Brueckner-CCSD(T), CCSD density
   Simone Kossmann        : Meta GGA functionals, TD-DFT gradient, OOMP2, MP2 Hessian
   Martin Krupicka        : AUTO-CI
   Lucas Lang             : DCDCAS
   Dagmar Lenk            : GEPOL surface, SMD
   Dimitrios Liakos       : Extrapolation schemes; Compound Job, initial MDCI parallelization
   Dimitrios Manganas     : Further ROCIS development; embedding schemes
   Dimitrios Pantazis     : SARC Basis sets
   Taras Petrenko         : DFT Hessian,TD-DFT gradient, ASA, ECA, R-Raman, ABS, FL, XAS/XES, NRVS
   Peter Pinski           : DLPNO-MP2, DLPNO-MP2 Gradient
   Christoph Reimann      : Effective Core Potentials
   Marius Retegan         : Local ZFS, SOC
   Christoph Riplinger    : Optimizer, TS searches, QM/MM, DLPNO-CCSD(T), (RO)-DLPNO pert. Triples
   Tobias Risthaus        : Range-separated hybrids, TD-DFT gradient, RPA, STAB
   Michael Roemelt        : Original ROCIS implementation
   Masaaki Saitow         : Open-shell DLPNO-CCSD energy and density
   Barbara Sandhoefer     : DKH picture change effects
   Avijit Sen             : IP-ROCIS
   Kantharuban Sivalingam : CASSCF convergence, NEVPT2, FIC-MRCI
   Bernardo de Souza      : ESD, SOC TD-DFT
   Georgi Stoychev        : AutoAux, RI-MP2 NMR
   Willem Van den Heuvel  : Paramagnetic NMR
   Boris Wezisla          : Elementary symmetry handling
   Frank Wennmohs         : Technical directorship


 We gratefully acknowledge several colleagues who have allowed us to
 interface, adapt or use parts of their codes:
   Stefan Grimme, W. Hujo, H. Kruse,             : VdW corrections, initial TS optimization,
                  C. Bannwarth                     DFT functionals, gCP, sTDA/sTD-DF
   Ed Valeev, F. Pavosevic, A. Kumar             : LibInt (2-el integral package), F12 methods
   Garnet Chan, S. Sharma, J. Yang, R. Olivares  : DMRG
   Ulf Ekstrom                                   : XCFun DFT Library
   Mihaly Kallay                                 : mrcc  (arbitrary order and MRCC methods)
   Andreas Klamt, Michael Diedenhofen            : otool_cosmo (COSMO solvation model)
   Jiri Pittner, Ondrej Demel                    : Mk-CCSD
   Frank Weinhold                                : gennbo (NPA and NBO analysis)
   Christopher J. Cramer and Donald G. Truhlar   : smd solvation model
   Lars Goerigk                                  : TD-DFT with DH, B97 family of functionals
   V. Asgeirsson, H. Jonsson                     : NEB implementation
   FAccTs GmbH                                   : IRC, NEB, NEB-TS, Multilevel, MM, QM/MM, CI optimization
   S Lehtola, MJT Oliveira, MAL Marques          : LibXC Library


 Your calculation uses the libint2 library for the computation of 2-el integrals
 For citations please refer to: http://libint.valeyev.net

 Your ORCA version has been built with support for libXC version: 4.2.3
 For citations please refer to: https://tddft.org/programs/libxc/

 This ORCA versions uses:
   CBLAS   interface :  Fast vector & matrix operations
   LAPACKE interface :  Fast linear algebra routines
   SCALAPACK package :  Parallel linear algebra routines




***************************************
The coordinates will be read from file: fe4ll_xtb_dft_sg86_1_1.xyz
***************************************


Your calculation utilizes the atom-pairwise dispersion correction
based on tight binding partial charges (D4)
Cite in your paper:
E.Caldeweyher, C.Bannwarth, S.Grimme, J.Chem.Phys., (2017), 147, 034112.
E.Caldeweyher, S.Ehlert, A.Hansen, H.Neugebauer, S.Grimme, J.Chem.Phys., (2018), in progress.
   

----- Orbital basis set information -----
Your calculation utilizes the basis: def2-TZVP
   F. Weigend and R. Ahlrichs, Phys. Chem. Chem. Phys. 7, 3297 (2005).

================================================================================
                                        WARNINGS
                       Please study these warnings very carefully!
================================================================================


INFO   : the flag for use of LIBINT has been found!

================================================================================
                                       INPUT FILE
================================================================================
NAME = fe4ll_xtb_dft_sg86_1_1.in
|  1> # closed shell KS, PBE0/def2-SVP/D4
|  2> ! DFT SP RKS PBE0 def2-TZVP D4 Grid6 NOFINALGRID SlowConv TightSCF printbasis
|  3> 
|  4> %base "_fe4ll_xtb_dft_sg86_1_1"
|  5> %maxcore 4000
|  6> %scf
|  7>    MaxIter 2000
|  8> end
|  9> 
| 10> %pal
| 11>    nprocs 48
| 12> end
| 13> 
| 14> * xyzfile 0 1 fe4ll_xtb_dft_sg86_1_1.xyz
| 15> 
| 16> 
| 17>                          ****END OF INPUT****
================================================================================

                       ****************************
                       * Single Point Calculation *
                       ****************************

---------------------------------
CARTESIAN COORDINATES (ANGSTROEM)
---------------------------------
  H     16.132300    4.780000    6.858700
  H      5.630200   10.911500   14.208400
  H     13.466200    6.824500   11.095000
  H     10.704200   10.118100   15.887600
  H     14.522200    5.758300    1.475400
  H      4.089100   15.628200   11.405500
  H     14.585400    7.932100    2.686400
  H      5.989900   14.531500   10.232000
  H     18.508800    7.630600   17.515900
  H     11.581500    2.650800   19.502200
  H     16.353100    7.774000   18.759200
  H     13.728900    2.584300   18.237200
  H     14.456400    3.628800    2.765900
  H      3.631300   15.085400   13.794000
  H     17.089000    4.136200    9.163000
  H      6.081600    8.590900   15.235200
  H     14.381900    3.678400    5.246700
  H      5.091500   13.489100   15.011400
  H     16.988100    4.413500   11.649600
  H      7.793100    6.935200   16.004100
  H     14.535800    7.980100    5.164000
  H      7.452300   12.934800   11.450800
  H     18.520700    6.963900   15.128200
  H      9.932700    4.444700   19.047200
  H     17.301000    6.304500   13.116500
  H      9.266600    6.423000   17.784700
  H     14.224600    7.213600   17.652100
  H     14.250300    4.295500   16.550600
  H     11.536700    4.086400   12.705600
  H     12.260100    4.035900   14.339900
  H     13.248400    3.594500   12.909300
  H     12.874300    9.926600   13.911800
  H     13.909800    8.750100   14.759500
  H     12.814900    9.792600   15.701200
  N     14.346700    6.097300    9.370100
  N      8.799000   10.595500   15.264500
  N     14.356300    5.863300    6.780800
  N      7.222800   12.236400   14.013300
  O     12.807000    5.626600   13.100400
  O     11.869300    8.305200   14.588000
  C     15.318900    5.281400    7.398200
  C      6.684100   11.143000   14.408100
  C     14.283500    6.231600   10.690800
  C      9.700800    9.729800   15.718200
  C     14.483700    5.778600    2.566700
  C      4.737100   14.933400   11.944300
  C     14.506300    6.997600    3.246200
  C      5.809700   14.325200   11.289400
  C     17.572900    7.395600   17.004900
  C     11.791800    3.415000   18.751300
  C     16.350700    7.474900   17.708500
  C     13.008800    3.380000   18.033600
  C     14.445500    4.587700    3.289000
  C      4.480300   14.629400   13.279900
  C     16.307300    4.738400    9.629900
  C      7.122800    8.885000   15.380400
  C     14.408400    4.610500    4.681400
  C      5.294900   13.732500   13.968000
  C     16.248100    4.897000   11.008000
  C      8.074500    7.973500   15.815600
  C     14.456900    7.030200    4.637000
  C      6.639900   13.441000   11.973200
  C     17.581300    7.019400   15.683600
  C     10.877700    4.408700   18.499300
  C     16.355000    6.304900   13.664100
  C     10.205500    6.409900   17.225100
  C     15.159900    7.159900   17.092200
  C     13.301000    4.337200   17.087200
  C     15.339700    5.353800    8.839400
  C      7.532700   10.177800   15.064600
  C     14.388100    5.833700    5.357600
  C      6.388000   13.155400   13.318300
  C     13.954100    5.997000   13.743600
  C     11.696700    7.367000   15.570400
  C     15.223700    5.669200   11.571500
  C      9.412000    8.371700   15.951700
  C     16.371400    6.684100   15.023700
  C     11.144900    5.401900   17.521200
  C     15.181500    5.976000   13.010900
  C     10.455000    7.387900   16.279600
  C     15.137500    6.737500   15.740100
  C     12.381300    5.378700   16.805300
  C     13.924900    6.366000   15.074900
  C     12.640100    6.385700   15.820900
  C     12.454800    4.265700   13.280400
  C     12.922400    9.230000   14.758000

----------------------------
CARTESIAN COORDINATES (A.U.)
----------------------------
  NO LB      ZA    FRAG     MASS         X           Y           Z
   0 H     1.0000    0     1.008   30.485629    9.032891   12.961065
   1 H     1.0000    0     1.008   10.639536   20.619747   26.849985
   2 H     1.0000    0     1.008   25.447430   12.896436   20.966511
   3 H     1.0000    0     1.008   20.228006   19.120438   30.023213
   4 H     1.0000    0     1.008   27.442981   10.881610    2.788102
   5 H     1.0000    0     1.008    7.727279   29.533018   21.553271
   6 H     1.0000    0     1.008   27.562412   14.989497    5.076560
   7 H     1.0000    0     1.008   11.319271   27.460555   19.335678
   8 H     1.0000    0     1.008   34.976563   14.419744   33.100254
   9 H     1.0000    0     1.008   21.885863    5.009286   36.853817
  10 H     1.0000    0     1.008   30.902880   14.690731   35.449750
  11 H     1.0000    0     1.008   25.943861    4.883619   34.463313
  12 H     1.0000    0     1.008   27.318637    6.857438    5.226794
  13 H     1.0000    0     1.008    6.862163   28.507275   26.066882
  14 H     1.0000    0     1.008   32.293530    7.816285   17.315561
  15 H     1.0000    0     1.008   11.492558   16.234448   28.790356
  16 H     1.0000    0     1.008   27.177852    6.951169    9.914826
  17 H     1.0000    0     1.008    9.621541   25.490705   28.367435
  18 H     1.0000    0     1.008   32.102857    8.340306   22.014554
  19 H     1.0000    0     1.008   14.726825   13.105629   30.243366
  20 H     1.0000    0     1.008   27.468681   15.080204    9.758546
  21 H     1.0000    0     1.008   14.082806   24.443230   21.638876
  22 H     1.0000    0     1.008   34.999051   13.159864   28.588155
  23 H     1.0000    0     1.008   18.770083    8.399266   35.993992
  24 H     1.0000    0     1.008   32.694152   11.913778   24.786593
  25 H     1.0000    0     1.008   17.511336   12.137711   33.608212
  26 H     1.0000    0     1.008   26.880598   13.631728   33.357635
  27 H     1.0000    0     1.008   26.929164    8.117319   31.276101
  28 H     1.0000    0     1.008   21.801203    7.722177   24.010104
  29 H     1.0000    0     1.008   23.168231    7.626746   27.098484
  30 H     1.0000    0     1.008   25.035848    6.792621   24.395042
  31 H     1.0000    0     1.008   24.328901   18.758555   26.289492
  32 H     1.0000    0     1.008   26.285713   16.535293   27.891413
  33 H     1.0000    0     1.008   24.216651   18.505332   29.670968
  34 N     7.0000    0    14.007   27.111334   11.522227   17.706923
  35 N     7.0000    0    14.007   16.627700   20.022593   28.845725
  36 N     7.0000    0    14.007   27.129475   11.080031   12.813855
  37 N     7.0000    0    14.007   13.649114   23.123445   26.481299
  38 O     8.0000    0    15.999   24.201723   10.632733   24.756168
  39 O     8.0000    0    15.999   22.429726   15.694553   27.567325
  40 C     6.0000    0    12.011   28.948526    9.980400   13.980572
  41 C     6.0000    0    12.011   12.631118   21.057218   27.227363
  42 C     6.0000    0    12.011   26.991903   11.776017   20.202684
  43 C     6.0000    0    12.011   18.331855   18.386657   29.703093
  44 C     6.0000    0    12.011   27.370226   10.919971    4.850360
  45 C     6.0000    0    12.011    8.951822   28.220036   22.571456
  46 C     6.0000    0    12.011   27.412934   13.223548    6.134429
  47 C     6.0000    0    12.011   10.978742   27.070705   21.333874
  48 C     6.0000    0    12.011   33.207968   13.975659   32.134604
  49 C     6.0000    0    12.011   22.283273    6.453415   35.434822
  50 C     6.0000    0    12.011   30.898345   14.125514   33.464215
  51 C     6.0000    0    12.011   24.583069    6.387274   34.078565
  52 C     6.0000    0    12.011   27.298039    8.669497    6.215309
  53 C     6.0000    0    12.011    8.466540   27.645560   25.095374
  54 C     6.0000    0    12.011   30.816331    8.954278   18.197874
  55 C     6.0000    0    12.011   13.460141   16.790217   29.064744
  56 C     6.0000    0    12.011   27.227930    8.712582    8.846564
  57 C     6.0000    0    12.011   10.005911   25.950664   26.395695
  58 C     6.0000    0    12.011   30.704459    9.253989   20.802105
  59 C     6.0000    0    12.011   15.258594   15.067731   29.887153
  60 C     6.0000    0    12.011   27.319582   13.285153    8.762660
  61 C     6.0000    0    12.011   12.547593   25.399809   22.626069
  62 C     6.0000    0    12.011   33.223842   13.264744   29.637709
  63 C     6.0000    0    12.011   20.555874    8.331236   34.958611
  64 C     6.0000    0    12.011   30.906471   11.914534   25.821407
  65 C     6.0000    0    12.011   19.285600   12.112956   32.550722
  66 C     6.0000    0    12.011   28.648059   13.530250   32.299577
  67 C     6.0000    0    12.011   25.135247    8.196120   32.290128
  68 C     6.0000    0    12.011   28.987832   10.117216   16.704045
  69 C     6.0000    0    12.011   14.234740   19.233255   28.467968
  70 C     6.0000    0    12.011   27.189569   11.024095   10.124397
  71 C     6.0000    0    12.011   12.071571   24.860103   25.167940
  72 C     6.0000    0    12.011   26.369427   11.332688   25.971640
  73 C     6.0000    0    12.011   22.103560   13.921612   29.423792
  74 C     6.0000    0    12.011   28.768624   10.713235   21.866966
  75 C     6.0000    0    12.011   17.786102   15.820220   30.144344
  76 C     6.0000    0    12.011   30.937462   12.631118   28.390679
  77 C     6.0000    0    12.011   21.060809   10.208112   33.110270
  78 C     6.0000    0    12.011   28.688877   11.293003   24.587038
  79 C     6.0000    0    12.011   19.757087   13.961108   30.763986
  80 C     6.0000    0    12.011   28.605729   12.732030   29.744478
  81 C     6.0000    0    12.011   23.397266   10.164270   31.757415
  82 C     6.0000    0    12.011   26.314247   12.029997   28.487432
  83 C     6.0000    0    12.011   23.886327   12.067224   29.897168
  84 C     6.0000    0    12.011   23.536161    8.061005   25.096319
  85 C     6.0000    0    12.011   24.419797   17.442172   27.888578

--------------------------------
INTERNAL COORDINATES (ANGSTROEM)
--------------------------------
 H      0   0   0     0.000000000000     0.00000000     0.00000000
 H      1   0   0    14.209415426048     0.00000000     0.00000000
 H      1   2   0     5.406875914056    21.11331399     0.00000000
 H      2   1   3     5.403209435141    53.36769709    13.09917410
 H      1   2   4     5.703456126771   101.86127801   205.93334128
 H      2   1   3     5.698990832595   107.61413923   130.14305904
 H      5   1   2     2.489160838516    71.54430033    54.07636934
 H      6   2   1     2.488552547165    70.16194038   357.83823808
 H      3   1   2     8.203997122135   110.32132691   191.47956667
 H      4   2   1     8.342395204017   111.39799693   271.69992959
 H      9   3   1     2.492669440580    82.21054915   197.51024028
 H     10   4   2     2.493185514558    83.95047897   138.50624857
 H      5   1   2     2.490881398220    51.08313833   253.94978594
 H      6   2   1     2.491815589084    52.98403176   198.95474682
 H      1   2  14     2.576732780092    85.39261783   133.61768251
 H      2   1   3     2.577453114996    71.82676042   301.00179820
 H     13   5   1     2.482413956213   120.09689873    23.71043652
 H     14   6   2     2.482422302913   120.13788245    24.13041011
 H     15   1   2     2.504047854974   147.71603413   349.39436974
 H     16   2   1     2.502355280531   146.92046591    44.36223815
 H      7   5   1     2.478561260086   120.18045404   341.01460662
 H      8   6   2     2.484660558306   120.09596887   339.45890193
 H      9   3   1     2.479060666866    38.98725028     3.71896400
 H     10   4   2     2.478637458363    37.12541765   332.20088028
 H     19  15   1     2.413624457118   133.24044657   298.10115206
 H     20  16   2     2.367295387145   143.13005141    78.21761908
 H     11   9   3     2.463783841980   120.65813932    11.24309466
 H     12  10   4     2.458593695591   120.80787838   351.15625856
 H      3   1   2     3.716745110981   108.47784787    90.95953981
 H     29   3   1     1.787958137094   101.93851847   118.33507121
 H     29   3   1     1.792589241851    75.85862557    63.65515315
 H      4   2   1     2.941052855696   119.58328371    26.16457750
 H     32   4   2     1.781855154046    98.75382128   213.66098983
 H     33  32   4     1.781126371148    60.51696741   333.80189792
 N      3   1   2     2.068666261145     5.05867089   355.73502551
 N      4   2   1     2.060570651543     4.95636650   117.93791847
 N      1   2  16     2.081774075158    33.30847437   135.50578912
 N      2   1   3     2.080816854026    70.15794250    71.67272478
 O     29   3   1     2.035127801884    37.10709651   132.03555631
 O     32   4   2     2.023909434733    57.40575982   268.34952388
 C      1   2  38     1.097306597993     2.07052817   299.43719798
 C      2   1   3     1.097350240352    58.35413747    39.02409445
 C      3   1   2     1.087606243086    29.78901597   165.51267656
 C      4   2   1     1.089167025759    30.55854513   279.47970345
 C      5   1   2     1.092167583295    21.56878457     0.50173739
 C      6   2   1     1.092225471228    21.63678623   300.15672601
 C      7   5   1     1.092210190394    60.02058526   339.23260161
 C      8   6   2     1.092303295793    60.04850116   338.29479006
 C      9   3   1     1.091904212832    23.89976334   219.75021156
 C     10   4   2     1.091823493061    25.27863007   119.25042168
 C     11   9   3     1.092445449439    60.42427287    10.26201062
 C     12  10   4     1.092307401788    60.48372069   350.72453242
 C     13   5   1     1.092355999663    59.86045117    24.14036956
 C     14   6   2     1.092261786386    59.79984551    24.67858168
 C     15   1   2     1.091647992716    88.78446601   353.53874139
 C     16   2   1     1.091638809314    88.70885525    56.30823532
 C     17  13   5     1.090447958410    59.88587674     0.14050881
 C     18  14   6     1.090549714594    59.80020034     0.41098246
 C     19  15   1     1.092255835416    59.53612973     4.70846566
 C     20  16   2     1.092147013913    59.61275967    14.54332447
 C     21   7   5     1.089157573540    60.05867662   356.89118246
 C     22   8   6     1.090474190433    59.88093791   357.94490055
 C     23   9   3     1.092713031862    59.51380323   343.54340572
 C     24  10   4     1.092938886672    59.53728304    15.62566730
 C     25  19  15     1.093060803432   101.10240385   124.07200074
 C     26  20  16     1.093095137671    98.75243530   237.75832652
 C     27  11   9     1.091401754626    60.09005204   359.15349492
 C     28  12  10     1.091260253102    60.31624976   359.45525882
 C     35   3  43     1.349253030384   146.60839097     1.29419753
 C     36   4  44     1.348313387162   147.28997240     2.35398696
 C     57  17  13     1.397811421473   119.79320003   179.42380609
 C     58  18  14     1.396431921004   119.92739579   179.33778981
 C     39  29   3     1.366287235540   145.13954862   229.74707349
 C     40  32   4     1.369350123234   148.33884816   279.34971313
 C     59  19  15     1.401149688649   120.20192200   179.37579002
 C     60  20  16     1.402138616543   119.93512758   182.61044840
 C     65  25  19     1.411585548240   118.20137314   144.76357495
 C     66  26  20     1.409330184875   118.26460189   221.13705640
 C     65  25  19     1.382731969689   119.85137200   322.95797973
 C     66  26  20     1.383005603749   119.76689217    42.70332401
 C     67  27  11     1.416720837004   119.38859611   178.56920774
 C     68  28  12     1.417758071746   119.64411349   179.94212290
 C     73  39  29     1.381800756260   120.54488750   274.80099631
 C     74  40  32     1.384089411852   121.98426123   291.18043630
 C     29   3   1     1.097930389415    70.87986020   100.50752955
 C     32   4   2     1.097095989419    63.61043343   220.36677221

---------------------------
INTERNAL COORDINATES (A.U.)
---------------------------
 H      0   0   0     0.000000000000     0.00000000     0.00000000
 H      1   0   0    26.851903678346     0.00000000     0.00000000
 H      1   2   0    10.217514717661    21.11331399     0.00000000
 H      2   1   3    10.210586076636    53.36769709    13.09917410
 H      1   2   4    10.777970096432   101.86127801   205.93334128
 H      2   1   3    10.769531913332   107.61413923   130.14305904
 H      5   1   2     4.703832288076    71.54430033    54.07636934
 H      6   2   1     4.702682784013    70.16194038   357.83823808
 H      3   1   2    15.503307764313   110.32132691   191.47956667
 H      4   2   1    15.764842236530   111.39799693   271.69992959
 H      9   3   1     4.710462585090    82.21054915   197.51024028
 H     10   4   2     4.711437823573    83.95047897   138.50624857
 H      5   1   2     4.707083674715    51.08313833   253.94978594
 H      6   2   1     4.708849039604    52.98403176   198.95474682
 H      1   2  14     4.869319274671    85.39261783   133.61768251
 H      2   1   3     4.870680510364    71.82676042   301.00179820
 H     13   5   1     4.691082528266   120.09689873    23.71043652
 H     14   6   2     4.691098301244   120.13788245    24.13041011
 H     15   1   2     4.731964672134   147.71603413   349.39436974
 H     16   2   1     4.728766169975   146.92046591    44.36223815
 H      7   5   1     4.683801987710   120.18045404   341.01460662
 H      8   6   2     4.695327990954   120.09596887   339.45890193
 H      9   3   1     4.684745729752    38.98725028     3.71896400
 H     10   4   2     4.683945981585    37.12541765   332.20088028
 H     19  15   1     4.561089214088   133.24044657   298.10115206
 H     20  16   2     4.473539959800   143.13005141    78.21761908
 H     11   9   3     4.655876714522   120.65813932    11.24309466
 H     12  10   4     4.646068759252   120.80787838   351.15625856
 H      3   1   2     7.023630369345   108.47784787    90.95953981
 H     29   3   1     3.378751218023   101.93851847   118.33507121
 H     29   3   1     3.387502737712    75.85862557    63.65515315
 H      4   2   1     5.557784442653   119.58328371    26.16457750
 H     32   4   2     3.367218251463    98.75382128   213.66098983
 H     33  32   4     3.365841051375    60.51696741   333.80189792
 N      3   1   2     3.909212696047     5.05867089   355.73502551
 N      4   2   1     3.893914211012     4.95636650   117.93791847
 N      1   2  16     3.933982874746    33.30847437   135.50578912
 N      2   1   3     3.932173988957    70.15794250    71.67272478
 O     29   3   1     3.845834193089    37.10709651   132.03555631
 O     32   4   2     3.824634551504    57.40575982   268.34952388
 C      1   2  38     2.073608955152     2.07052817   299.43719798
 C      2   1   3     2.073691427257    58.35413747    39.02409445
 C      3   1   2     2.055277940976    29.78901597   165.51267656
 C      4   2   1     2.058227392781    30.55854513   279.47970345
 C      5   1   2     2.063897624774    21.56878457     0.50173739
 C      6   2   1     2.064007017115    21.63678623   300.15672601
 C      7   5   1     2.063978140522    60.02058526   339.23260161
 C      8   6   2     2.064154084228    60.04850116   338.29479006
 C      9   3   1     2.063399926727    23.89976334   219.75021156
 C     10   4   2     2.063247388467    25.27863007   119.25042168
 C     11   9   3     2.064422715688    60.42427287    10.26201062
 C     12  10   4     2.064161843434    60.48372069   350.72453242
 C     13   5   1     2.064253680109    59.86045117    24.14036956
 C     14   6   2     2.064075642818    59.79984551    24.67858168
 C     15   1   2     2.062915740877    88.78446601   353.53874139
 C     16   2   1     2.062898386763    88.70885525    56.30823532
 C     17  13   5     2.060648004688    59.88587674     0.14050881
 C     18  14   6     2.060840296008    59.80020034     0.41098246
 C     19  15   1     2.064064397113    59.53612973     4.70846566
 C     20  16   2     2.063858754276    59.61275967    14.54332447
 C     21   7   5     2.058209530677    60.05867662   356.89118246
 C     22   8   6     2.060697576027    59.88093791   357.94490055
 C     23   9   3     2.064928373185    59.51380323   343.54340572
 C     24  10   4     2.065355176923    59.53728304    15.62566730
 C     25  19  15     2.065585566211   101.10240385   124.07200074
 C     26  20  16     2.065650448519    98.75243530   237.75832652
 C     27  11   9     2.062450418324    60.09005204   359.15349492
 C     28  12  10     2.062183019196    60.31624976   359.45525882
 C     35   3  43     2.549718712789   146.60839097     1.29419753
 C     36   4  44     2.547943044436   147.28997240     2.35398696
 C     57  17  13     2.641480773451   119.79320003   179.42380609
 C     58  18  14     2.638873895364   119.92739579   179.33778981
 C     39  29   3     2.581908695443   145.13954862   229.74707349
 C     40  32   4     2.587696714363   148.33884816   279.34971313
 C     59  19  15     2.647789184175   120.20192200   179.37579002
 C     60  20  16     2.649657987061   119.93512758   182.61044840
 C     65  25  19     2.667510100775   118.20137314   144.76357495
 C     66  26  20     2.663248081682   118.26460189   221.13705640
 C     65  25  19     2.612984739330   119.85137200   322.95797973
 C     66  26  20     2.613501832763   119.76689217    42.70332401
 C     67  27  11     2.677214390156   119.38859611   178.56920774
 C     68  28  12     2.679174479756   119.64411349   179.94212290
 C     73  39  29     2.611225000976   120.54488750   274.80099631
 C     74  40  32     2.615549933260   121.98426123   291.18043630
 C     29   3   1     2.074787750103    70.87986020   100.50752955
 C     32   4   2     2.073210962626    63.61043343   220.36677221

---------------------
BASIS SET INFORMATION
---------------------
There are 4 groups of distinct atoms

 Group   1 Type H   : 5s1p contracted to 3s1p pattern {311/1}
 Group   2 Type N   : 11s6p2d1f contracted to 5s3p2d1f pattern {62111/411/11/1}
 Group   3 Type O   : 11s6p2d1f contracted to 5s3p2d1f pattern {62111/411/11/1}
 Group   4 Type C   : 11s6p2d1f contracted to 5s3p2d1f pattern {62111/411/11/1}

Atom   0H    basis set group =>   1
Atom   1H    basis set group =>   1
Atom   2H    basis set group =>   1
Atom   3H    basis set group =>   1
Atom   4H    basis set group =>   1
Atom   5H    basis set group =>   1
Atom   6H    basis set group =>   1
Atom   7H    basis set group =>   1
Atom   8H    basis set group =>   1
Atom   9H    basis set group =>   1
Atom  10H    basis set group =>   1
Atom  11H    basis set group =>   1
Atom  12H    basis set group =>   1
Atom  13H    basis set group =>   1
Atom  14H    basis set group =>   1
Atom  15H    basis set group =>   1
Atom  16H    basis set group =>   1
Atom  17H    basis set group =>   1
Atom  18H    basis set group =>   1
Atom  19H    basis set group =>   1
Atom  20H    basis set group =>   1
Atom  21H    basis set group =>   1
Atom  22H    basis set group =>   1
Atom  23H    basis set group =>   1
Atom  24H    basis set group =>   1
Atom  25H    basis set group =>   1
Atom  26H    basis set group =>   1
Atom  27H    basis set group =>   1
Atom  28H    basis set group =>   1
Atom  29H    basis set group =>   1
Atom  30H    basis set group =>   1
Atom  31H    basis set group =>   1
Atom  32H    basis set group =>   1
Atom  33H    basis set group =>   1
Atom  34N    basis set group =>   2
Atom  35N    basis set group =>   2
Atom  36N    basis set group =>   2
Atom  37N    basis set group =>   2
Atom  38O    basis set group =>   3
Atom  39O    basis set group =>   3
Atom  40C    basis set group =>   4
Atom  41C    basis set group =>   4
Atom  42C    basis set group =>   4
Atom  43C    basis set group =>   4
Atom  44C    basis set group =>   4
Atom  45C    basis set group =>   4
Atom  46C    basis set group =>   4
Atom  47C    basis set group =>   4
Atom  48C    basis set group =>   4
Atom  49C    basis set group =>   4
Atom  50C    basis set group =>   4
Atom  51C    basis set group =>   4
Atom  52C    basis set group =>   4
Atom  53C    basis set group =>   4
Atom  54C    basis set group =>   4
Atom  55C    basis set group =>   4
Atom  56C    basis set group =>   4
Atom  57C    basis set group =>   4
Atom  58C    basis set group =>   4
Atom  59C    basis set group =>   4
Atom  60C    basis set group =>   4
Atom  61C    basis set group =>   4
Atom  62C    basis set group =>   4
Atom  63C    basis set group =>   4
Atom  64C    basis set group =>   4
Atom  65C    basis set group =>   4
Atom  66C    basis set group =>   4
Atom  67C    basis set group =>   4
Atom  68C    basis set group =>   4
Atom  69C    basis set group =>   4
Atom  70C    basis set group =>   4
Atom  71C    basis set group =>   4
Atom  72C    basis set group =>   4
Atom  73C    basis set group =>   4
Atom  74C    basis set group =>   4
Atom  75C    basis set group =>   4
Atom  76C    basis set group =>   4
Atom  77C    basis set group =>   4
Atom  78C    basis set group =>   4
Atom  79C    basis set group =>   4
Atom  80C    basis set group =>   4
Atom  81C    basis set group =>   4
Atom  82C    basis set group =>   4
Atom  83C    basis set group =>   4
Atom  84C    basis set group =>   4
Atom  85C    basis set group =>   4

-------------------------
BASIS SET IN INPUT FORMAT
-------------------------

 # Basis set for element : H 
 NewGTO H 
 S 3 
   1      34.0613410000      0.0254393072
   2       5.1235746000      0.1900859489
   3       1.1646626000      0.8524411301
 S 1 
   1       0.3272304100      1.0000000000
 S 1 
   1       0.1030724100      1.0000000000
 P 1 
   1       0.8000000000      1.0000000000
  end;

 # Basis set for element : C 
 NewGTO C 
 S 6 
   1   13575.3496820000      0.0006064549
   2    2035.2333680000      0.0046979088
   3     463.2256235900      0.0243324776
   4     131.2001959800      0.0973999683
   5      42.8530158910      0.3019558425
   6      15.5841857660      0.6623360915
 S 2 
   1       6.2067138508      0.6559530854
   2       2.5764896527      0.3758563329
 S 1 
   1       0.5769633942      1.0000000000
 S 1 
   1       0.2297283136      1.0000000000
 S 1 
   1       0.0951644400      1.0000000000
 P 4 
   1      34.6972322440      0.0113272200
   2       7.9582622826      0.0761696592
   3       2.3780826883      0.3019225220
   4       0.8143320818      0.7278502735
 P 1 
   1       0.2888754725      1.0000000000
 P 1 
   1       0.1005682367      1.0000000000
 D 1 
   1       1.0970000000      1.0000000000
 D 1 
   1       0.3180000000      1.0000000000
 F 1 
   1       0.7610000000      1.0000000000
  end;

 # Basis set for element : N 
 NewGTO N 
 S 6 
   1   19730.8006470000      0.0005862639
   2    2957.8958745000      0.0045428821
   3     673.2213359500      0.0235584136
   4     190.6824949400      0.0947091933
   5      62.2954418980      0.2971978492
   6      22.6541611820      0.6691624689
 S 2 
   1       8.9791477428      0.6459668363
   2       3.6863002370      0.3870057440
 S 1 
   1       0.8466007680      1.0000000000
 S 1 
   1       0.3364713377      1.0000000000
 S 1 
   1       0.1364765367      1.0000000000
 P 4 
   1      49.2003805100      0.0114488252
   2      11.3467905370      0.0784223379
   3       3.4273972411      0.3081809474
   4       1.1785525134      0.7202719637
 P 1 
   1       0.4164220497      1.0000000000
 P 1 
   1       0.1426082601      1.0000000000
 D 1 
   1       1.6540000000      1.0000000000
 D 1 
   1       0.4690000000      1.0000000000
 F 1 
   1       1.0930000000      1.0000000000
  end;

 # Basis set for element : O 
 NewGTO O 
 S 6 
   1   27032.3826310000      0.0005722733
   2    4052.3871392000      0.0044353233
   3     922.3272271000      0.0230201076
   4     261.2407098900      0.0928224906
   5      85.3546413510      0.2937850002
   6      31.0350352450      0.6740160450
 S 2 
   1      12.2608607280      0.6383993702
   2       4.9987076005      0.3953458713
 S 1 
   1       1.1703108158      1.0000000000
 S 1 
   1       0.4647474099      1.0000000000
 S 1 
   1       0.1850453636      1.0000000000
 P 4 
   1      63.2749548010      0.0120183321
   2      14.6270493790      0.0830054217
   3       4.4501223456      0.3199174393
   4       1.5275799647      0.7071554292
 P 1 
   1       0.5293511794      1.0000000000
 P 1 
   1       0.1747842127      1.0000000000
 D 1 
   1       2.3140000000      1.0000000000
 D 1 
   1       0.6450000000      1.0000000000
 F 1 
   1       1.4280000000      1.0000000000
  end;


Checking for AutoStart:
The File: _fe4ll_xtb_dft_sg86_1_1.gbw exists
Trying to determine its content:
     ... Fine, the file contains calculation information
     ... Fine, the calculation information was read
     ... Fine, the file contains a basis set
     ... Fine, the basis set was read
     ... Fine, the file contains a geometry
     ... Fine, the geometry was read
     ... Fine, the file contains a set of orbitals
     ... Fine, the orbitals can be read
     => possible old guess file was deleted
     => GBW file was renamed to GES file
     => GES file is set as startup file
     => Guess is set to MORead
     ... now leaving AutoStart



           ************************************************************
           *        Program running with 48 parallel MPI-processes    *
           *              working on a common directory               *
           ************************************************************
------------------------------------------------------------------------------
                           ORCA GTO INTEGRAL CALCULATION
------------------------------------------------------------------------------

                         BASIS SET STATISTICS AND STARTUP INFO

 # of primitive gaussian shells          ... 1244
 # of primitive gaussian functions       ... 2664
 # of contracted shells                  ...  708
 # of contracted basis functions         ... 1816
 Highest angular momentum                ...    3
 Maximum contraction depth               ...    6
 Integral package used                   ... LIBINT
 Integral threshhold            Thresh   ...  2.500e-11
 Primitive cut-off              TCut     ...  2.500e-12


------------------------------ INTEGRAL EVALUATION ----------------------------


 * One electron integrals 
 Pre-screening matrix                    ... done
 Shell pair data                         ... done (   0.038 sec)



           ************************************************************
           *        Program running with 48 parallel MPI-processes    *
           *              working on a common directory               *
           ************************************************************
-------------------------------------------------------------------------------
                                 ORCA SCF
-------------------------------------------------------------------------------

------------
SCF SETTINGS
------------
Hamiltonian:
 Density Functional     Method          .... DFT(GTOs)
 Exchange Functional    Exchange        .... PBE
   PBE kappa parameter   XKappa         ....  0.804000
   PBE mue parameter    XMuePBE         ....  0.219520
 Correlation Functional Correlation     .... PBE
   PBE beta parameter  CBetaPBE         ....  0.066725
 LDA part of GGA corr.  LDAOpt          .... PW91-LDA
 Gradients option       PostSCFGGA      .... off
 Hybrid DFT is turned on
   Fraction HF Exchange ScalHFX         ....  0.250000
   Scaling of DF-GGA-X  ScalDFX         ....  0.750000
   Scaling of DF-GGA-C  ScalDFC         ....  1.000000
   Scaling of DF-LDA-C  ScalLDAC        ....  1.000000
   Perturbative correction              ....  0.000000
   Density functional embedding theory  .... OFF
   NL short-range parameter             ....  6.900000


General Settings:
 Integral files         IntName         .... _fe4ll_xtb_dft_sg86_1_1
 Hartree-Fock type      HFTyp           .... RHF
 Total Charge           Charge          ....    0
 Multiplicity           Mult            ....    1
 Number of Electrons    NEL             ....  354
 Basis Dimension        Dim             .... 1816
 Nuclear Repulsion      ENuc            ....   5897.1233125056 Eh

Convergence Acceleration:
 DIIS                   CNVDIIS         .... on
   Start iteration      DIISMaxIt       ....     0
   Startup error        DIISStart       ....  0.200000
   # of expansion vecs  DIISMaxEq       ....     5
   Bias factor          DIISBfac        ....   1.050
   Max. coefficient     DIISMaxC        ....  10.000
 Newton-Raphson         CNVNR           .... off
 SOSCF                  CNVSOSCF        .... on
   Start iteration      SOSCFMaxIt      ....   150
   Startup grad/error   SOSCFStart      ....  0.001000
 Level Shifting         CNVShift        .... on
   Level shift para.    LevelShift      ....    0.2500
   Turn off err/grad.   ShiftErr        ....    0.0000
 Zerner damping         CNVZerner       .... off
 Static damping         CNVDamp         .... on
   Fraction old density DampFac         ....    0.8500
   Max. Damping (<1)    DampMax         ....    0.9800
   Min. Damping (>=0)   DampMin         ....    0.0000
   Turn off err/grad.   DampErr         ....    0.0300
 Fernandez-Rico         CNVRico         .... off

SCF Procedure:
 Maximum # iterations   MaxIter         ....  2000
 SCF integral mode      SCFMode         .... Direct
   Integral package                     .... LIBINT
 Reset frequency        DirectResetFreq ....    20
 Integral Threshold     Thresh          ....  2.500e-11 Eh
 Primitive CutOff       TCut            ....  2.500e-12 Eh

Convergence Tolerance:
 Convergence Check Mode ConvCheckMode   .... Total+1el-Energy
 Convergence forced     ConvForced      .... 0
 Energy Change          TolE            ....  1.000e-08 Eh
 1-El. energy change                    ....  1.000e-05 Eh
 Orbital Gradient       TolG            ....  1.000e-05
 Orbital Rotation angle TolX            ....  1.000e-05
 DIIS Error             TolErr          ....  5.000e-07


Diagonalization of the overlap matrix:
Smallest eigenvalue                        ... 2.775e-06
Time for diagonalization                   ...    0.942 sec
Threshold for overlap eigenvalues          ... 1.000e-08
Number of eigenvalues below threshold      ... 0
Time for construction of square roots      ...    0.474 sec
Total time needed                          ...    1.428 sec

---------------------
INITIAL GUESS: MOREAD
---------------------
Guess MOs are being read from file: _fe4ll_xtb_dft_sg86_1_1.ges
Input Geometry matches current geometry (good)
Input basis set matches current basis set (good)
MOs were renormalized
MOs were reorthogonalized (Cholesky)
                      ------------------
                      INITIAL GUESS DONE (   8.8 sec)
                      ------------------
-------------------
DFT GRID GENERATION
-------------------

General Integration Accuracy     IntAcc      ...  5.340
Radial Grid Type                 RadialGrid  ... Gauss-Chebyshev
Angular Grid (max. acc.)         AngularGrid ... Lebedev-590
Angular grid pruning method      GridPruning ... 3 (G Style)
Weight generation scheme         WeightScheme... Becke
Basis function cutoff            BFCut       ...    1.0000e-11
Integration weight cutoff        WCut        ...    1.0000e-14
Grids for H and He will be reduced by one unit

# of grid points (after initial pruning)     ... 1232188 (   0.0 sec)
# of grid points (after weights+screening)   ... 1043457 (   1.3 sec)
nearest neighbour list constructed           ...    0.0 sec
Grid point re-assignment to atoms done       ...    0.2 sec
Grid point division into batches done        ...   10.9 sec
Reduced shell lists constructed in   11.5 sec

Total number of grid points                  ...  1043457
Total number of batches                      ...    16349
Average number of points per batch           ...       63
Average number of grid points per atom       ...    12133
Average number of shells per batch           ...   104.07 (14.70%)
Average number of basis functions per batch  ...   257.26 (14.17%)
Average number of large shells per batch     ...    65.84 (63.26%)
Average number of large basis fcns per batch ...   159.01 (61.81%)
Maximum spatial batch extension              ...  11.62, 17.49, 17.91 au
Average spatial batch extension              ...   0.04,  0.04,  0.04 au

Time for grid setup =   13.374 sec

--------------
SCF ITERATIONS
--------------
ITER       Energy         Delta-E        Max-DP      RMS-DP      [F,P]     Damp
               ***  Starting incremental Fock matrix formation  ***
  0  -1789.7294671747   0.000000000000312.04357629  0.74615182  2.2458810 0.8500
  1  -1840.5957226683 -50.866255493625296.10808379  0.65088288  1.9186593 0.8500
                               ***Turning on DIIS***
  2  -1884.3963123679 -43.800589699621251.66280196  0.55449941  1.4922977 0.8500
  3  -1922.6514322752 -38.255119907312214.20912659  0.47163235  1.2413051 0.8500
  4  -1954.6999453749 -32.048513099709182.12617071  0.40098990  1.0435983 0.8500
  5  -1982.4266284513 -27.726683076416154.82926144  0.34088023  0.8784926 0.8500
  6  -2006.0263957622 -23.599767310890131.64418227  0.28977045  0.7428951 0.8500
  7  -2026.1395347018 -20.113138939512111.90802542  0.24631186  0.6281555 0.8500
  8  -2043.2804843618 -17.14094966004495.14592487  0.20937027  0.5309435 0.8500
  9  -2057.8711657880 -14.59068142623080.87529252  0.17796744  0.4490998 0.8500
 10  -2070.2922166249 -12.42105083689068.74046378  0.15127177  0.3802501 0.8500
 11  -2080.8642794338 -10.57206280886258.42943157  0.12858023  0.3222124 0.8500
 12  -2089.8607008042  -8.99642137043249.66733320  0.10929295  0.2731598 0.8500
 13  -2097.5149105930  -7.65420978883342.21968103  0.09289915  0.2316412 0.8500
 14  -2104.0260648004  -6.51115420736235.88748340  0.07896442  0.1964910 0.8500
 15  -2109.5642942057  -5.53822940526330.50423904  0.06711975  0.1667291 0.8500
 16  -2114.2745762173  -4.71028201161325.92893854  0.05705183  0.1415176 0.8500
 17  -2118.2803421937  -4.00576597643922.04040484  0.04849426  0.1201462 0.8500
 18  -2121.6866993106  -3.40635711692518.73488167  0.04122052  0.1020198 0.8500
 19  -2124.5831522853  -2.89645297461515.92669851  0.03503848  0.0866405 0.8500
               *** Restarting incremental Fock matrix formation ***
                                   *** Resetting DIIS ***
 20  -2127.0459027882  -2.46275050298813.52926658  0.02977835  0.0735894 0.8500
 21  -2129.1399767077  -2.09407391942811.50308856  0.02531300  0.0625025 0.8500
 22  -2130.9202177678  -1.780241060077 9.78156441  0.02151808  0.0530984 0.8500
 23  -2132.4336208019  -1.513403034146 8.31582416  0.01829108  0.0451167 0.8500
 24  -2133.7202192522  -1.286598450298 7.06893436  0.01554776  0.0383372 0.8500
 25  -2134.8140004617  -1.093781209492 6.00874011  0.01321589  0.0325776 0.8500
 26  -2135.7438471320  -0.92984667026834.05412996  0.07489260  0.0276839 0.0000
 27  -2141.0150807766  -5.271233644640 0.00311917  0.00001350  0.0017275 0.0000
                      *** Initiating the SOSCF procedure ***
                           *** Shutting down DIIS ***
                      *** Re-Reading the Fockian *** 
                      *** Removing any level shift *** 
ITER      Energy       Delta-E        Grad      Rot      Max-DP    RMS-DP
 28  -2141.01508494  -0.0000041616  0.000089  0.000089  0.001093  0.000004
               *** Restarting incremental Fock matrix formation ***
 29  -2141.01509087  -0.0000059298  0.000069  0.000323  0.001840  0.000005
 30  -2141.01509054   0.0000003245  0.000089  0.000143  0.001234  0.000003
 31  -2141.01509142  -0.0000008789  0.000020  0.000072  0.001485  0.000005
 32  -2141.01509136   0.0000000627  0.000028  0.000047  0.000794  0.000002
 33  -2141.01509149  -0.0000001344  0.000007  0.000028  0.001108  0.000004
 34  -2141.01509148   0.0000000106  0.000013  0.000017  0.001668  0.000003
                  ***Gradient check signals convergence***
              ***Rediagonalizing the Fockian in SOSCF/NRSCF***

               *****************************************************
               *                     SUCCESS                       *
               *           SCF CONVERGED AFTER  35 CYCLES          *
               *****************************************************


----------------
TOTAL SCF ENERGY
----------------

Total Energy       :        -2141.01509152 Eh          -58259.98252 eV

Components:
Nuclear Repulsion  :         5897.12331251 Eh          160468.88341 eV
Electronic Energy  :        -8038.13840403 Eh         -218728.86593 eV
One Electron Energy:       -14642.78859145 Eh         -398450.53441 eV
Two Electron Energy:         6604.65018742 Eh          179721.66847 eV

Virial components:
Potential Energy   :        -4270.99314981 Eh         -116219.63210 eV
Kinetic Energy     :         2129.97805829 Eh           57959.64958 eV
Virial Ratio       :            2.00518176


DFT components:
N(Alpha)           :      176.999993378333 electrons
N(Beta)            :      176.999993378333 electrons
N(Total)           :      353.999986756667 electrons
E(X)               :     -219.604379567064 Eh       
E(C)               :      -11.891573100528 Eh       
E(XC)              :     -231.495952667592 Eh       
DFET-embed. en.    :        0.000000000000 Eh       

---------------
SCF CONVERGENCE
---------------

  Last Energy change         ...   -3.6604e-08  Tolerance :   1.0000e-08
  Last MAX-Density change    ...    1.6078e-03  Tolerance :   1.0000e-07
  Last RMS-Density change    ...    3.7712e-06  Tolerance :   5.0000e-09
  Last Orbital Gradient      ...    8.7724e-07  Tolerance :   1.0000e-05
  Last Orbital Rotation      ...    3.9287e-06  Tolerance :   1.0000e-05

             **** THE GBW FILE WAS UPDATED (_fe4ll_xtb_dft_sg86_1_1.gbw) ****
             **** DENSITY FILE WAS UPDATED (_fe4ll_xtb_dft_sg86_1_1.scfp) ****
             **** ENERGY FILE WAS UPDATED (_fe4ll_xtb_dft_sg86_1_1.en.tmp) ****
             **** THE GBW FILE WAS UPDATED (_fe4ll_xtb_dft_sg86_1_1.gbw) ****
             **** DENSITY FILE WAS UPDATED (_fe4ll_xtb_dft_sg86_1_1.scfp) ****
----------------
ORBITAL ENERGIES
----------------

  NO   OCC          E(Eh)            E(eV) 
   0   2.0000     -19.234766      -523.4046 
   1   2.0000     -19.232803      -523.3512 
   2   2.0000     -14.386156      -391.4672 
   3   2.0000     -14.383701      -391.4004 
   4   2.0000     -14.381755      -391.3475 
   5   2.0000     -14.380159      -391.3040 
   6   2.0000     -10.299485      -280.2632 
   7   2.0000     -10.298298      -280.2309 
   8   2.0000     -10.272598      -279.5316 
   9   2.0000     -10.270405      -279.4719 
  10   2.0000     -10.270135      -279.4646 
  11   2.0000     -10.269416      -279.4450 
  12   2.0000     -10.268395      -279.4172 
  13   2.0000     -10.266783      -279.3734 
  14   2.0000     -10.263590      -279.2865 
  15   2.0000     -10.262324      -279.2520 
  16   2.0000     -10.257403      -279.1181 
  17   2.0000     -10.256907      -279.1046 
  18   2.0000     -10.256442      -279.0920 
  19   2.0000     -10.255009      -279.0530 
  20   2.0000     -10.254869      -279.0492 
  21   2.0000     -10.254676      -279.0439 
  22   2.0000     -10.254452      -279.0378 
  23   2.0000     -10.254093      -279.0281 
  24   2.0000     -10.253916      -279.0232 
  25   2.0000     -10.253435      -279.0101 
  26   2.0000     -10.251921      -278.9690 
  27   2.0000     -10.251715      -278.9633 
  28   2.0000     -10.251665      -278.9620 
  29   2.0000     -10.249357      -278.8992 
  30   2.0000     -10.247825      -278.8575 
  31   2.0000     -10.246882      -278.8318 
  32   2.0000     -10.244678      -278.7719 
  33   2.0000     -10.244323      -278.7622 
  34   2.0000     -10.242574      -278.7146 
  35   2.0000     -10.241168      -278.6764 
  36   2.0000     -10.240923      -278.6697 
  37   2.0000     -10.239952      -278.6433 
  38   2.0000     -10.239871      -278.6410 
  39   2.0000     -10.238879      -278.6141 
  40   2.0000     -10.238283      -278.5979 
  41   2.0000     -10.237903      -278.5875 
  42   2.0000     -10.226107      -278.2665 
  43   2.0000     -10.225667      -278.2545 
  44   2.0000     -10.223899      -278.2064 
  45   2.0000     -10.223734      -278.2020 
  46   2.0000     -10.223702      -278.2011 
  47   2.0000     -10.221811      -278.1496 
  48   2.0000     -10.221385      -278.1380 
  49   2.0000     -10.221169      -278.1322 
  50   2.0000     -10.219717      -278.0926 
  51   2.0000     -10.218928      -278.0712 
  52   2.0000      -1.100197       -29.9379 
  53   2.0000      -1.096050       -29.8250 
  54   2.0000      -0.985207       -26.8088 
  55   2.0000      -0.983488       -26.7621 
  56   2.0000      -0.953062       -25.9341 
  57   2.0000      -0.951497       -25.8915 
  58   2.0000      -0.924890       -25.1675 
  59   2.0000      -0.912841       -24.8397 
  60   2.0000      -0.874568       -23.7982 
  61   2.0000      -0.872641       -23.7458 
  62   2.0000      -0.868722       -23.6391 
  63   2.0000      -0.866810       -23.5871 
  64   2.0000      -0.853132       -23.2149 
  65   2.0000      -0.833965       -22.6933 
  66   2.0000      -0.825942       -22.4750 
  67   2.0000      -0.813165       -22.1273 
  68   2.0000      -0.809934       -22.0394 
  69   2.0000      -0.798156       -21.7189 
  70   2.0000      -0.781431       -21.2638 
  71   2.0000      -0.779220       -21.2037 
  72   2.0000      -0.770071       -20.9547 
  73   2.0000      -0.766548       -20.8588 
  74   2.0000      -0.764434       -20.8013 
  75   2.0000      -0.760927       -20.7059 
  76   2.0000      -0.751413       -20.4470 
  77   2.0000      -0.743842       -20.2410 
  78   2.0000      -0.724464       -19.7137 
  79   2.0000      -0.710173       -19.3248 
  80   2.0000      -0.697134       -18.9700 
  81   2.0000      -0.694294       -18.8927 
  82   2.0000      -0.666785       -18.1441 
  83   2.0000      -0.662979       -18.0406 
  84   2.0000      -0.657906       -17.9025 
  85   2.0000      -0.646867       -17.6022 
  86   2.0000      -0.638675       -17.3792 
  87   2.0000      -0.635172       -17.2839 
  88   2.0000      -0.633638       -17.2422 
  89   2.0000      -0.625205       -17.0127 
  90   2.0000      -0.622794       -16.9471 
  91   2.0000      -0.618458       -16.8291 
  92   2.0000      -0.617223       -16.7955 
  93   2.0000      -0.602683       -16.3998 
  94   2.0000      -0.586536       -15.9605 
  95   2.0000      -0.584291       -15.8994 
  96   2.0000      -0.559137       -15.2149 
  97   2.0000      -0.554645       -15.0927 
  98   2.0000      -0.553416       -15.0592 
  99   2.0000      -0.549358       -14.9488 
 100   2.0000      -0.548538       -14.9265 
 101   2.0000      -0.539690       -14.6857 
 102   2.0000      -0.538855       -14.6630 
 103   2.0000      -0.536748       -14.6056 
 104   2.0000      -0.522438       -14.2163 
 105   2.0000      -0.517121       -14.0716 
 106   2.0000      -0.505119       -13.7450 
 107   2.0000      -0.500696       -13.6246 
 108   2.0000      -0.494294       -13.4504 
 109   2.0000      -0.493486       -13.4284 
 110   2.0000      -0.487328       -13.2609 
 111   2.0000      -0.484156       -13.1746 
 112   2.0000      -0.482621       -13.1328 
 113   2.0000      -0.481912       -13.1135 
 114   2.0000      -0.475644       -12.9429 
 115   2.0000      -0.475110       -12.9284 
 116   2.0000      -0.470764       -12.8101 
 117   2.0000      -0.470369       -12.7994 
 118   2.0000      -0.469221       -12.7682 
 119   2.0000      -0.465784       -12.6746 
 120   2.0000      -0.460805       -12.5391 
 121   2.0000      -0.455077       -12.3833 
 122   2.0000      -0.453197       -12.3321 
 123   2.0000      -0.449744       -12.2382 
 124   2.0000      -0.446649       -12.1539 
 125   2.0000      -0.444689       -12.1006 
 126   2.0000      -0.443890       -12.0788 
 127   2.0000      -0.439750       -11.9662 
 128   2.0000      -0.438610       -11.9352 
 129   2.0000      -0.432715       -11.7748 
 130   2.0000      -0.429850       -11.6968 
 131   2.0000      -0.429237       -11.6801 
 132   2.0000      -0.427165       -11.6238 
 133   2.0000      -0.423828       -11.5329 
 134   2.0000      -0.422266       -11.4904 
 135   2.0000      -0.420591       -11.4449 
 136   2.0000      -0.418314       -11.3829 
 137   2.0000      -0.415743       -11.3129 
 138   2.0000      -0.412592       -11.2272 
 139   2.0000      -0.397742       -10.8231 
 140   2.0000      -0.391309       -10.6481 
 141   2.0000      -0.382753       -10.4153 
 142   2.0000      -0.382238       -10.4012 
 143   2.0000      -0.381233       -10.3739 
 144   2.0000      -0.380108       -10.3433 
 145   2.0000      -0.372114       -10.1257 
 146   2.0000      -0.368348       -10.0232 
 147   2.0000      -0.367607       -10.0031 
 148   2.0000      -0.366537        -9.9740 
 149   2.0000      -0.364323        -9.9137 
 150   2.0000      -0.363239        -9.8842 
 151   2.0000      -0.359008        -9.7691 
 152   2.0000      -0.353417        -9.6170 
 153   2.0000      -0.350688        -9.5427 
 154   2.0000      -0.348717        -9.4891 
 155   2.0000      -0.340904        -9.2765 
 156   2.0000      -0.337898        -9.1947 
 157   2.0000      -0.320444        -8.7197 
 158   2.0000      -0.310240        -8.4421 
 159   2.0000      -0.307863        -8.3774 
 160   2.0000      -0.305622        -8.3164 
 161   2.0000      -0.301433        -8.2024 
 162   2.0000      -0.299798        -8.1579 
 163   2.0000      -0.297031        -8.0826 
 164   2.0000      -0.291748        -7.9389 
 165   2.0000      -0.285167        -7.7598 
 166   2.0000      -0.278969        -7.5911 
 167   2.0000      -0.272137        -7.4052 
 168   2.0000      -0.267479        -7.2785 
 169   2.0000      -0.263923        -7.1817 
 170   2.0000      -0.261916        -7.1271 
 171   2.0000      -0.253607        -6.9010 
 172   2.0000      -0.245832        -6.6894 
 173   2.0000      -0.240441        -6.5427 
 174   2.0000      -0.234982        -6.3942 
 175   2.0000      -0.231176        -6.2906 
 176   2.0000      -0.230219        -6.2646 
 177   0.0000      -0.077457        -2.1077 
 178   0.0000      -0.074591        -2.0297 
 179   0.0000      -0.055225        -1.5028 
 180   0.0000      -0.049622        -1.3503 
 181   0.0000      -0.029997        -0.8163 
 182   0.0000      -0.028316        -0.7705 
 183   0.0000      -0.024253        -0.6600 
 184   0.0000      -0.019030        -0.5178 
 185   0.0000      -0.004974        -0.1354 
 186   0.0000      -0.003025        -0.0823 
 187   0.0000       0.004819         0.1311 
 188   0.0000       0.006236         0.1697 
 189   0.0000       0.009089         0.2473 
 190   0.0000       0.013259         0.3608 
 191   0.0000       0.036099         0.9823 
 192   0.0000       0.038057         1.0356 
 193   0.0000       0.042479         1.1559 
 194   0.0000       0.051976         1.4143 
 195   0.0000       0.053074         1.4442 
 196   0.0000       0.054173         1.4741 
 197   0.0000       0.059349         1.6150 
 198   0.0000       0.062765         1.7079 
 199   0.0000       0.063837         1.7371 
 200   0.0000       0.065559         1.7839 
 201   0.0000       0.066598         1.8122 
 202   0.0000       0.071386         1.9425 
 203   0.0000       0.076444         2.0801 
 204   0.0000       0.079670         2.1679 
 205   0.0000       0.083891         2.2828 
 206   0.0000       0.084917         2.3107 
 207   0.0000       0.087834         2.3901 
 208   0.0000       0.091926         2.5014 
 209   0.0000       0.093613         2.5473 
 210   0.0000       0.096924         2.6374 
 211   0.0000       0.098371         2.6768 
 212   0.0000       0.099472         2.7068 
 213   0.0000       0.100145         2.7251 
 214   0.0000       0.104294         2.8380 
 215   0.0000       0.106336         2.8935 
 216   0.0000       0.107994         2.9387 
 217   0.0000       0.110261         3.0004 
 218   0.0000       0.113331         3.0839 
 219   0.0000       0.115461         3.1419 
 220   0.0000       0.118419         3.2224 
 221   0.0000       0.120652         3.2831 
 222   0.0000       0.122248         3.3265 
 223   0.0000       0.124415         3.3855 
 224   0.0000       0.125038         3.4025 
 225   0.0000       0.127407         3.4669 
 226   0.0000       0.128162         3.4875 
 227   0.0000       0.129197         3.5156 
 228   0.0000       0.132639         3.6093 
 229   0.0000       0.137044         3.7292 
 230   0.0000       0.138694         3.7741 
 231   0.0000       0.143438         3.9031 
 232   0.0000       0.144589         3.9345 
 233   0.0000       0.149877         4.0784 
 234   0.0000       0.152565         4.1515 
 235   0.0000       0.155769         4.2387 
 236   0.0000       0.156180         4.2499 
 237   0.0000       0.157932         4.2976 
 238   0.0000       0.159376         4.3368 
 239   0.0000       0.161369         4.3911 
 240   0.0000       0.166413         4.5283 
 241   0.0000       0.169216         4.6046 
 242   0.0000       0.173530         4.7220 
 243   0.0000       0.177228         4.8226 
 244   0.0000       0.177890         4.8406 
 245   0.0000       0.182501         4.9661 
 246   0.0000       0.184655         5.0247 
 247   0.0000       0.186651         5.0790 
 248   0.0000       0.191627         5.2144 
 249   0.0000       0.192288         5.2324 
 250   0.0000       0.195932         5.3316 
 251   0.0000       0.199027         5.4158 
 252   0.0000       0.200808         5.4643 
 253   0.0000       0.204501         5.5648 
 254   0.0000       0.206635         5.6228 
 255   0.0000       0.208759         5.6806 
 256   0.0000       0.210883         5.7384 
 257   0.0000       0.212070         5.7707 
 258   0.0000       0.213849         5.8191 
 259   0.0000       0.214859         5.8466 
 260   0.0000       0.218458         5.9445 
 261   0.0000       0.220281         5.9942 
 262   0.0000       0.222411         6.0521 
 263   0.0000       0.223449         6.0804 
 264   0.0000       0.224701         6.1144 
 265   0.0000       0.227634         6.1942 
 266   0.0000       0.228164         6.2086 
 267   0.0000       0.230165         6.2631 
 268   0.0000       0.231766         6.3067 
 269   0.0000       0.235532         6.4091 
 270   0.0000       0.238229         6.4825 
 271   0.0000       0.239203         6.5090 
 272   0.0000       0.241259         6.5650 
 273   0.0000       0.244035         6.6405 
 274   0.0000       0.244902         6.6641 
 275   0.0000       0.247630         6.7384 
 276   0.0000       0.249100         6.7784 
 277   0.0000       0.249449         6.7878 
 278   0.0000       0.251625         6.8471 
 279   0.0000       0.252453         6.8696 
 280   0.0000       0.252849         6.8804 
 281   0.0000       0.256402         6.9771 
 282   0.0000       0.259596         7.0640 
 283   0.0000       0.261461         7.1147 
 284   0.0000       0.263060         7.1582 
 285   0.0000       0.264717         7.2033 
 286   0.0000       0.265981         7.2377 
 287   0.0000       0.267066         7.2672 
 288   0.0000       0.267475         7.2784 
 289   0.0000       0.268765         7.3135 
 290   0.0000       0.271161         7.3787 
 291   0.0000       0.273055         7.4302 
 292   0.0000       0.275344         7.4925 
 293   0.0000       0.279406         7.6030 
 294   0.0000       0.280478         7.6322 
 295   0.0000       0.284643         7.7455 
 296   0.0000       0.286015         7.7829 
 297   0.0000       0.288961         7.8630 
 298   0.0000       0.290283         7.8990 
 299   0.0000       0.291767         7.9394 
 300   0.0000       0.294733         8.0201 
 301   0.0000       0.295803         8.0492 
 302   0.0000       0.297894         8.1061 
 303   0.0000       0.300260         8.1705 
 304   0.0000       0.303668         8.2632 
 305   0.0000       0.305488         8.3128 
 306   0.0000       0.306748         8.3470 
 307   0.0000       0.308826         8.4036 
 308   0.0000       0.310017         8.4360 
 309   0.0000       0.312868         8.5136 
 310   0.0000       0.314948         8.5702 
 311   0.0000       0.317156         8.6302 
 312   0.0000       0.318877         8.6771 
 313   0.0000       0.323603         8.8057 
 314   0.0000       0.324124         8.8199 
 315   0.0000       0.325713         8.8631 
 316   0.0000       0.326919         8.8959 
 317   0.0000       0.330515         8.9938 
 318   0.0000       0.331664         9.0250 
 319   0.0000       0.334067         9.0904 
 320   0.0000       0.336264         9.1502 
 321   0.0000       0.338221         9.2035 
 322   0.0000       0.340059         9.2535 
 323   0.0000       0.342114         9.3094 
 324   0.0000       0.344751         9.3811 
 325   0.0000       0.345104         9.3908 
 326   0.0000       0.349044         9.4980 
 327   0.0000       0.349208         9.5024 
 328   0.0000       0.350560         9.5392 
 329   0.0000       0.351683         9.5698 
 330   0.0000       0.353031         9.6065 
 331   0.0000       0.354594         9.6490 
 332   0.0000       0.357284         9.7222 
 333   0.0000       0.357709         9.7338 
 334   0.0000       0.358738         9.7618 
 335   0.0000       0.361719         9.8429 
 336   0.0000       0.362750         9.8709 
 337   0.0000       0.363344         9.8871 
 338   0.0000       0.367136         9.9903 
 339   0.0000       0.368616        10.0306 
 340   0.0000       0.369988        10.0679 
 341   0.0000       0.371209        10.1011 
 342   0.0000       0.372609        10.1392 
 343   0.0000       0.378148        10.2899 
 344   0.0000       0.380117        10.3435 
 345   0.0000       0.380958        10.3664 
 346   0.0000       0.381992        10.3945 
 347   0.0000       0.384146        10.4532 
 348   0.0000       0.385171        10.4810 
 349   0.0000       0.386403        10.5146 
 350   0.0000       0.388539        10.5727 
 351   0.0000       0.391187        10.6447 
 352   0.0000       0.392642        10.6843 
 353   0.0000       0.393491        10.7074 
 354   0.0000       0.395741        10.7687 
 355   0.0000       0.397477        10.8159 
 356   0.0000       0.397947        10.8287 
 357   0.0000       0.402002        10.9390 
 358   0.0000       0.402859        10.9623 
 359   0.0000       0.404773        11.0144 
 360   0.0000       0.407175        11.0798 
 361   0.0000       0.408218        11.1082 
 362   0.0000       0.410696        11.1756 
 363   0.0000       0.411647        11.2015 
 364   0.0000       0.413142        11.2422 
 365   0.0000       0.416781        11.3412 
 366   0.0000       0.418430        11.3861 
 367   0.0000       0.421685        11.4746 
 368   0.0000       0.422866        11.5068 
 369   0.0000       0.424569        11.5531 
 370   0.0000       0.425366        11.5748 
 371   0.0000       0.427151        11.6234 
 372   0.0000       0.428337        11.6556 
 373   0.0000       0.430326        11.7098 
 374   0.0000       0.432308        11.7637 
 375   0.0000       0.432899        11.7798 
 376   0.0000       0.433846        11.8056 
 377   0.0000       0.434298        11.8178 
 378   0.0000       0.436564        11.8795 
 379   0.0000       0.438206        11.9242 
 380   0.0000       0.440179        11.9779 
 381   0.0000       0.441794        12.0218 
 382   0.0000       0.444768        12.1028 
 383   0.0000       0.446778        12.1574 
 384   0.0000       0.448575        12.2063 
 385   0.0000       0.449236        12.2243 
 386   0.0000       0.451664        12.2904 
 387   0.0000       0.452651        12.3172 
 388   0.0000       0.455096        12.3838 
 389   0.0000       0.457836        12.4584 
 390   0.0000       0.460614        12.5340 
 391   0.0000       0.463019        12.5994 
 392   0.0000       0.466319        12.6892 
 393   0.0000       0.469348        12.7716 
 394   0.0000       0.471951        12.8424 
 395   0.0000       0.473174        12.8757 
 396   0.0000       0.473957        12.8970 
 397   0.0000       0.476069        12.9545 
 398   0.0000       0.478368        13.0171 
 399   0.0000       0.479798        13.0560 
 400   0.0000       0.482111        13.1189 
 401   0.0000       0.485296        13.2056 
 402   0.0000       0.486010        13.2250 
 403   0.0000       0.487154        13.2561 
 404   0.0000       0.490826        13.3561 
 405   0.0000       0.491862        13.3843 
 406   0.0000       0.492634        13.4053 
 407   0.0000       0.497421        13.5355 
 408   0.0000       0.499957        13.6045 
 409   0.0000       0.502133        13.6637 
 410   0.0000       0.504049        13.7159 
 411   0.0000       0.505493        13.7552 
 412   0.0000       0.507293        13.8041 
 413   0.0000       0.509074        13.8526 
 414   0.0000       0.510579        13.8936 
 415   0.0000       0.511273        13.9124 
 416   0.0000       0.511637        13.9224 
 417   0.0000       0.513155        13.9637 
 418   0.0000       0.514070        13.9886 
 419   0.0000       0.515508        14.0277 
 420   0.0000       0.518229        14.1017 
 421   0.0000       0.518761        14.1162 
 422   0.0000       0.522828        14.2269 
 423   0.0000       0.523372        14.2417 
 424   0.0000       0.525698        14.3050 
 425   0.0000       0.530583        14.4379 
 426   0.0000       0.531482        14.4624 
 427   0.0000       0.534869        14.5545 
 428   0.0000       0.536499        14.5989 
 429   0.0000       0.538109        14.6427 
 430   0.0000       0.540457        14.7066 
 431   0.0000       0.546048        14.8587 
 432   0.0000       0.548621        14.9287 
 433   0.0000       0.553226        15.0540 
 434   0.0000       0.556584        15.1454 
 435   0.0000       0.557863        15.1802 
 436   0.0000       0.563789        15.3415 
 437   0.0000       0.564535        15.3618 
 438   0.0000       0.566096        15.4043 
 439   0.0000       0.574024        15.6200 
 440   0.0000       0.575356        15.6562 
 441   0.0000       0.578718        15.7477 
 442   0.0000       0.580137        15.7863 
 443   0.0000       0.581623        15.8268 
 444   0.0000       0.586239        15.9524 
 445   0.0000       0.589848        16.0506 
 446   0.0000       0.597647        16.2628 
 447   0.0000       0.598830        16.2950 
 448   0.0000       0.601874        16.3778 
 449   0.0000       0.604530        16.4501 
 450   0.0000       0.606579        16.5059 
 451   0.0000       0.609323        16.5805 
 452   0.0000       0.610675        16.6173 
 453   0.0000       0.613623        16.6975 
 454   0.0000       0.618156        16.8209 
 455   0.0000       0.622347        16.9349 
 456   0.0000       0.624675        16.9983 
 457   0.0000       0.626866        17.0579 
 458   0.0000       0.629471        17.1288 
 459   0.0000       0.631558        17.1856 
 460   0.0000       0.634962        17.2782 
 461   0.0000       0.637674        17.3520 
 462   0.0000       0.639667        17.4062 
 463   0.0000       0.642960        17.4958 
 464   0.0000       0.646310        17.5870 
 465   0.0000       0.650261        17.6945 
 466   0.0000       0.652847        17.7649 
 467   0.0000       0.655159        17.8278 
 468   0.0000       0.660443        17.9716 
 469   0.0000       0.661295        17.9948 
 470   0.0000       0.663074        18.0432 
 471   0.0000       0.664393        18.0790 
 472   0.0000       0.667474        18.1629 
 473   0.0000       0.670945        18.2573 
 474   0.0000       0.673102        18.3160 
 475   0.0000       0.674966        18.3667 
 476   0.0000       0.677739        18.4422 
 477   0.0000       0.680528        18.5181 
 478   0.0000       0.686599        18.6833 
 479   0.0000       0.688697        18.7404 
 480   0.0000       0.689903        18.7732 
 481   0.0000       0.691640        18.8205 
 482   0.0000       0.694179        18.8896 
 483   0.0000       0.695407        18.9230 
 484   0.0000       0.697599        18.9826 
 485   0.0000       0.699092        19.0233 
 486   0.0000       0.700401        19.0589 
 487   0.0000       0.702946        19.1281 
 488   0.0000       0.706414        19.2225 
 489   0.0000       0.707986        19.2653 
 490   0.0000       0.710635        19.3373 
 491   0.0000       0.712463        19.3871 
 492   0.0000       0.716275        19.4908 
 493   0.0000       0.717647        19.5282 
 494   0.0000       0.719105        19.5678 
 495   0.0000       0.720019        19.5927 
 496   0.0000       0.721434        19.6312 
 497   0.0000       0.725214        19.7341 
 498   0.0000       0.727014        19.7830 
 499   0.0000       0.727935        19.8081 
 500   0.0000       0.729571        19.8526 
 501   0.0000       0.731791        19.9130 
 502   0.0000       0.734652        19.9909 
 503   0.0000       0.736428        20.0392 
 504   0.0000       0.737725        20.0745 
 505   0.0000       0.741243        20.1702 
 506   0.0000       0.743714        20.2375 
 507   0.0000       0.743950        20.2439 
 508   0.0000       0.748391        20.3648 
 509   0.0000       0.750725        20.4283 
 510   0.0000       0.752162        20.4674 
 511   0.0000       0.754580        20.5332 
 512   0.0000       0.755342        20.5539 
 513   0.0000       0.758850        20.6494 
 514   0.0000       0.760510        20.6945 
 515   0.0000       0.763110        20.7653 
 516   0.0000       0.765168        20.8213 
 517   0.0000       0.768179        20.9032 
 518   0.0000       0.769987        20.9524 
 519   0.0000       0.772367        21.0172 
 520   0.0000       0.774820        21.0839 
 521   0.0000       0.775253        21.0957 
 522   0.0000       0.779185        21.2027 
 523   0.0000       0.780571        21.2404 
 524   0.0000       0.784896        21.3581 
 525   0.0000       0.789151        21.4739 
 526   0.0000       0.789944        21.4955 
 527   0.0000       0.792371        21.5615 
 528   0.0000       0.795418        21.6444 
 529   0.0000       0.796997        21.6874 
 530   0.0000       0.799223        21.7480 
 531   0.0000       0.802806        21.8455 
 532   0.0000       0.803897        21.8752 
 533   0.0000       0.807565        21.9749 
 534   0.0000       0.810156        22.0455 
 535   0.0000       0.812081        22.0979 
 536   0.0000       0.815411        22.1885 
 537   0.0000       0.818550        22.2739 
 538   0.0000       0.819228        22.2923 
 539   0.0000       0.823908        22.4197 
 540   0.0000       0.827821        22.5262 
 541   0.0000       0.828968        22.5574 
 542   0.0000       0.832981        22.6666 
 543   0.0000       0.833605        22.6835 
 544   0.0000       0.835066        22.7233 
 545   0.0000       0.838417        22.8145 
 546   0.0000       0.841751        22.9052 
 547   0.0000       0.846064        23.0226 
 548   0.0000       0.847946        23.0738 
 549   0.0000       0.850139        23.1335 
 550   0.0000       0.854944        23.2642 
 551   0.0000       0.856712        23.3123 
 552   0.0000       0.858099        23.3501 
 553   0.0000       0.861057        23.4306 
 554   0.0000       0.863094        23.4860 
 555   0.0000       0.866267        23.5723 
 556   0.0000       0.869391        23.6573 
 557   0.0000       0.870156        23.6782 
 558   0.0000       0.873240        23.7621 
 559   0.0000       0.875205        23.8155 
 560   0.0000       0.879108        23.9217 
 561   0.0000       0.882704        24.0196 
 562   0.0000       0.888517        24.1778 
 563   0.0000       0.892814        24.2947 
 564   0.0000       0.894722        24.3466 
 565   0.0000       0.896222        24.3875 
 566   0.0000       0.898304        24.4441 
 567   0.0000       0.901285        24.5252 
 568   0.0000       0.902731        24.5646 
 569   0.0000       0.905316        24.6349 
 570   0.0000       0.907586        24.6967 
 571   0.0000       0.909212        24.7409 
 572   0.0000       0.913314        24.8525 
 573   0.0000       0.915393        24.9091 
 574   0.0000       0.917532        24.9673 
 575   0.0000       0.922059        25.0905 
 576   0.0000       0.924020        25.1439 
 577   0.0000       0.929426        25.2910 
 578   0.0000       0.931783        25.3551 
 579   0.0000       0.933902        25.4128 
 580   0.0000       0.937293        25.5050 
 581   0.0000       0.939444        25.5636 
 582   0.0000       0.941433        25.6177 
 583   0.0000       0.946428        25.7536 
 584   0.0000       0.952265        25.9125 
 585   0.0000       0.954507        25.9734 
 586   0.0000       0.959543        26.1105 
 587   0.0000       0.964096        26.2344 
 588   0.0000       0.967921        26.3385 
 589   0.0000       0.972723        26.4691 
 590   0.0000       0.974445        26.5160 
 591   0.0000       0.982081        26.7238 
 592   0.0000       0.988495        26.8983 
 593   0.0000       0.991538        26.9811 
 594   0.0000       0.993002        27.0210 
 595   0.0000       0.995406        27.0864 
 596   0.0000       0.997713        27.1491 
 597   0.0000       0.999805        27.2061 
 598   0.0000       1.006241        27.3812 
 599   0.0000       1.008722        27.4487 
 600   0.0000       1.012333        27.5470 
 601   0.0000       1.018965        27.7275 
 602   0.0000       1.019159        27.7327 
 603   0.0000       1.022680        27.8285 
 604   0.0000       1.025402        27.9026 
 605   0.0000       1.026245        27.9256 
 606   0.0000       1.034708        28.1558 
 607   0.0000       1.040920        28.3249 
 608   0.0000       1.041977        28.3536 
 609   0.0000       1.043994        28.4085 
 610   0.0000       1.046620        28.4800 
 611   0.0000       1.050914        28.5968 
 612   0.0000       1.054829        28.7033 
 613   0.0000       1.058376        28.7999 
 614   0.0000       1.062239        28.9050 
 615   0.0000       1.065564        28.9955 
 616   0.0000       1.067527        29.0489 
 617   0.0000       1.073198        29.2032 
 618   0.0000       1.076679        29.2979 
 619   0.0000       1.078299        29.3420 
 620   0.0000       1.082292        29.4507 
 621   0.0000       1.087499        29.5924 
 622   0.0000       1.089117        29.6364 
 623   0.0000       1.090773        29.6814 
 624   0.0000       1.092067        29.7166 
 625   0.0000       1.094212        29.7750 
 626   0.0000       1.100857        29.9559 
 627   0.0000       1.103265        30.0214 
 628   0.0000       1.107177        30.1278 
 629   0.0000       1.110180        30.2095 
 630   0.0000       1.112655        30.2769 
 631   0.0000       1.119458        30.4620 
 632   0.0000       1.121696        30.5229 
 633   0.0000       1.123668        30.5766 
 634   0.0000       1.127815        30.6894 
 635   0.0000       1.136685        30.9308 
 636   0.0000       1.137201        30.9448 
 637   0.0000       1.141523        31.0624 
 638   0.0000       1.147187        31.2165 
 639   0.0000       1.150067        31.2949 
 640   0.0000       1.154506        31.4157 
 641   0.0000       1.158175        31.5156 
 642   0.0000       1.161584        31.6083 
 643   0.0000       1.165737        31.7213 
 644   0.0000       1.166911        31.7533 
 645   0.0000       1.169041        31.8112 
 646   0.0000       1.172724        31.9114 
 647   0.0000       1.181251        32.1435 
 648   0.0000       1.186241        32.2793 
 649   0.0000       1.193070        32.4651 
 650   0.0000       1.195123        32.5210 
 651   0.0000       1.199015        32.6269 
 652   0.0000       1.205082        32.7920 
 653   0.0000       1.210843        32.9487 
 654   0.0000       1.212958        33.0063 
 655   0.0000       1.213064        33.0092 
 656   0.0000       1.215922        33.0869 
 657   0.0000       1.216981        33.1157 
 658   0.0000       1.217653        33.1340 
 659   0.0000       1.219516        33.1847 
 660   0.0000       1.222871        33.2760 
 661   0.0000       1.224700        33.3258 
 662   0.0000       1.227509        33.4022 
 663   0.0000       1.228620        33.4325 
 664   0.0000       1.230288        33.4778 
 665   0.0000       1.232348        33.5339 
 666   0.0000       1.238449        33.6999 
 667   0.0000       1.242486        33.8098 
 668   0.0000       1.243740        33.8439 
 669   0.0000       1.246356        33.9151 
 670   0.0000       1.248081        33.9620 
 671   0.0000       1.249930        34.0123 
 672   0.0000       1.254975        34.1496 
 673   0.0000       1.258168        34.2365 
 674   0.0000       1.259507        34.2729 
[...]
      px      :     0.975177
      py      :     0.905667
      dz2     :     0.135060  d :     0.507017
      dxz     :     0.128283
      dyz     :     0.102139
      dx2y2   :     0.070380
      dxy     :     0.071155
      f0      :     0.008097  f :     0.056247
      f+1     :     0.014775
      f-1     :     0.009038
      f+2     :     0.006989
      f-2     :     0.007609
      f+3     :     0.004483
      f-3     :     0.005256
 75 C s       :     2.701941  s :     2.701941
      pz      :     0.837598  p :     2.836501
      px      :     0.992184
      py      :     1.006719
      dz2     :     0.041147  d :     0.505280
      dxz     :     0.073262
      dyz     :     0.068467
      dx2y2   :     0.155716
      dxy     :     0.166688
      f0      :     0.003992  f :     0.056176
      f+1     :     0.004534
      f-1     :     0.004778
      f+2     :     0.007897
      f-2     :     0.005656
      f+3     :     0.015785
      f-3     :     0.013534
 76 C s       :     2.688439  s :     2.688439
      pz      :     0.983664  p :     2.830754
      px      :     0.995090
      py      :     0.852000
      dz2     :     0.132387  d :     0.521704
      dxz     :     0.159211
      dyz     :     0.075148
      dx2y2   :     0.076358
      dxy     :     0.078599
      f0      :     0.007409  f :     0.057794
      f+1     :     0.019626
      f-1     :     0.005574
      f+2     :     0.006120
      f-2     :     0.007931
      f+3     :     0.006041
      f-3     :     0.005095
 77 C s       :     2.688341  s :     2.688341
      pz      :     0.919208  p :     2.830870
      px      :     0.969827
      py      :     0.941835
      dz2     :     0.090862  d :     0.521123
      dxz     :     0.103715
      dyz     :     0.086506
      dx2y2   :     0.119746
      dxy     :     0.120294
      f0      :     0.006159  f :     0.057791
      f+1     :     0.008750
      f-1     :     0.005808
      f+2     :     0.007144
      f-2     :     0.010653
      f+3     :     0.007957
      f-3     :     0.011321
 78 C s       :     2.694181  s :     2.694181
      pz      :     0.953238  p :     2.828277
      px      :     1.017877
      py      :     0.857162
      dz2     :     0.125182  d :     0.501827
      dxz     :     0.152533
      dyz     :     0.070147
      dx2y2   :     0.073885
      dxy     :     0.080079
      f0      :     0.006785  f :     0.055416
      f+1     :     0.017998
      f-1     :     0.005270
      f+2     :     0.006404
      f-2     :     0.007999
      f+3     :     0.006028
      f-3     :     0.004931
 79 C s       :     2.694404  s :     2.694404
      pz      :     0.939444  p :     2.826702
      px      :     0.952747
      py      :     0.934511
      dz2     :     0.087896  d :     0.500358
      dxz     :     0.106107
      dyz     :     0.079104
      dx2y2   :     0.112551
      dxy     :     0.114700
      f0      :     0.005851  f :     0.055350
      f+1     :     0.008069
      f-1     :     0.005695
      f+2     :     0.007446
      f-2     :     0.010152
      f+3     :     0.008545
      f-3     :     0.009592
 80 C s       :     2.686038  s :     2.686038
      pz      :     0.984825  p :     2.814370
      px      :     0.970051
      py      :     0.859494
      dz2     :     0.127127  d :     0.516065
      dxz     :     0.157257
      dyz     :     0.075874
      dx2y2   :     0.077406
      dxy     :     0.078402
      f0      :     0.007237  f :     0.056161
      f+1     :     0.018379
      f-1     :     0.005376
      f+2     :     0.006066
      f-2     :     0.008179
      f+3     :     0.005914
      f-3     :     0.005011
 81 C s       :     2.685898  s :     2.685898
      pz      :     0.905766  p :     2.810096
      px      :     0.966819
      py      :     0.937511
      dz2     :     0.091108  d :     0.515078
      dxz     :     0.099408
      dyz     :     0.086620
      dx2y2   :     0.120130
      dxy     :     0.117812
      f0      :     0.006194  f :     0.056037
      f+1     :     0.008274
      f-1     :     0.005682
      f+2     :     0.007015
      f-2     :     0.009894
      f+3     :     0.007786
      f-3     :     0.011194
 82 C s       :     2.687349  s :     2.687349
      pz      :     0.992546  p :     2.819246
      px      :     0.950794
      py      :     0.875907
      dz2     :     0.125842  d :     0.495574
      dxz     :     0.146455
      dyz     :     0.076641
      dx2y2   :     0.075499
      dxy     :     0.071136
      f0      :     0.007782  f :     0.054348
      f+1     :     0.016489
      f-1     :     0.006215
      f+2     :     0.005694
      f-2     :     0.007156
      f+3     :     0.005590
      f-3     :     0.005422
 83 C s       :     2.686029  s :     2.686029
      pz      :     0.919118  p :     2.819297
      px      :     0.943903
      py      :     0.956276
      dz2     :     0.081466  d :     0.490254
      dxz     :     0.098905
      dyz     :     0.081649
      dx2y2   :     0.115085
      dxy     :     0.113151
      f0      :     0.006422  f :     0.054130
      f+1     :     0.007880
      f-1     :     0.005448
      f+2     :     0.006359
      f-2     :     0.009797
      f+3     :     0.008287
      f-3     :     0.009937
 84 C s       :     2.863428  s :     2.863428
      pz      :     1.103818  p :     3.015008
      px      :     1.081750
      py      :     0.829440
      dz2     :     0.063093  d :     0.396938
      dxz     :     0.036072
      dyz     :     0.100544
      dx2y2   :     0.094365
      dxy     :     0.102864
      f0      :     0.007732  f :     0.055673
      f+1     :     0.001204
      f-1     :     0.006800
      f+2     :     0.010115
      f-2     :     0.005276
      f+3     :     0.010291
      f-3     :     0.014256
 85 C s       :     2.860204  s :     2.860204
      pz      :     1.104381  p :     3.022012
      px      :     0.956232
      py      :     0.961399
      dz2     :     0.052718  d :     0.400912
      dxz     :     0.037860
      dyz     :     0.102805
      dx2y2   :     0.121423
      dxy     :     0.086105
      f0      :     0.005879  f :     0.056583
      f+1     :     0.005979
      f-1     :     0.005093
      f+2     :     0.003288
      f-2     :     0.009562
      f+3     :     0.011948
      f-3     :     0.014835


                      *****************************
                      * MAYER POPULATION ANALYSIS *
                      *****************************

  NA   - Mulliken gross atomic population
  ZA   - Total nuclear charge
  QA   - Mulliken gross atomic charge
  VA   - Mayer's total valence
  BVA  - Mayer's bonded valence
  FA   - Mayer's free valence

  ATOM       NA         ZA         QA         VA         BVA        FA
  0 H      0.8869     1.0000     0.1131     0.9805     0.9805    -0.0000
  1 H      0.8908     1.0000     0.1092     0.9833     0.9833     0.0000
  2 H      0.8531     1.0000     0.1469     0.9823     0.9823    -0.0000
  3 H      0.9024     1.0000     0.0976     0.9796     0.9796    -0.0000
  4 H      0.8850     1.0000     0.1150     0.9676     0.9676    -0.0000
  5 H      0.8858     1.0000     0.1142     0.9677     0.9677    -0.0000
  6 H      0.8831     1.0000     0.1169     0.9659     0.9659    -0.0000
  7 H      0.8830     1.0000     0.1170     0.9660     0.9660    -0.0000
  8 H      0.8800     1.0000     0.1200     0.9670     0.9670    -0.0000
  9 H      0.8812     1.0000     0.1188     0.9673     0.9673    -0.0000
 10 H      0.8795     1.0000     0.1205     0.9694     0.9694     0.0000
 11 H      0.8812     1.0000     0.1188     0.9688     0.9688     0.0000
 12 H      0.8852     1.0000     0.1148     0.9670     0.9670     0.0000
 13 H      0.8857     1.0000     0.1143     0.9667     0.9667    -0.0000
 14 H      0.8762     1.0000     0.1238     0.9699     0.9699    -0.0000
 15 H      0.8759     1.0000     0.1241     0.9698     0.9698    -0.0000
 16 H      0.8795     1.0000     0.1205     0.9775     0.9775     0.0000
 17 H      0.8798     1.0000     0.1202     0.9779     0.9779     0.0000
 18 H      0.8572     1.0000     0.1428     0.9683     0.9683     0.0000
 19 H      0.8602     1.0000     0.1398     0.9701     0.9701    -0.0000
 20 H      0.8839     1.0000     0.1161     0.9873     0.9873    -0.0000
 21 H      0.8837     1.0000     0.1163     0.9872     0.9872     0.0000
 22 H      0.8831     1.0000     0.1169     0.9708     0.9708     0.0000
 23 H      0.8838     1.0000     0.1162     0.9713     0.9713    -0.0000
 24 H      0.8711     1.0000     0.1289     0.9727     0.9727    -0.0000
 25 H      0.8695     1.0000     0.1305     0.9719     0.9719    -0.0000
 26 H      0.8611     1.0000     0.1389     0.9768     0.9768    -0.0000
 27 H      0.8628     1.0000     0.1372     0.9766     0.9766     0.0000
 28 H      0.8579     1.0000     0.1421     0.9689     0.9689     0.0000
 29 H      0.8619     1.0000     0.1381     0.9537     0.9537     0.0000
 30 H      0.8786     1.0000     0.1214     0.9658     0.9658     0.0000
 31 H      0.8490     1.0000     0.1510     0.9650     0.9650     0.0000
 32 H      0.8526     1.0000     0.1474     0.9485     0.9485    -0.0000
 33 H      0.8858     1.0000     0.1142     0.9711     0.9711    -0.0000
 34 N      7.1555     7.0000    -0.1555     3.0644     3.0644    -0.0000
 35 N      7.1703     7.0000    -0.1703     3.0807     3.0807    -0.0000
 36 N      7.0959     7.0000    -0.0959     3.0727     3.0727     0.0000
 37 N      7.0931     7.0000    -0.0931     3.0717     3.0717    -0.0000
 38 O      8.3124     8.0000    -0.3124     2.0284     2.0284    -0.0000
 39 O      8.2803     8.0000    -0.2803     2.0924     2.0924    -0.0000
 40 C      6.2454     6.0000    -0.2454     4.0546     4.0546    -0.0000
 41 C      6.2289     6.0000    -0.2289     4.0592     4.0592     0.0000
 42 C      6.1293     6.0000    -0.1293     4.1105     4.1105    -0.0000
 43 C      6.0960     6.0000    -0.0960     4.1234     4.1234     0.0000
 44 C      6.1401     6.0000    -0.1401     3.9726     3.9726    -0.0000
 45 C      6.1422     6.0000    -0.1422     3.9718     3.9718    -0.0000
 46 C      6.0740     6.0000    -0.0740     3.9053     3.9053    -0.0000
 47 C      6.0747     6.0000    -0.0747     3.9061     3.9061    -0.0000
 48 C      6.1067     6.0000    -0.1067     3.9181     3.9181    -0.0000
 49 C      6.1114     6.0000    -0.1114     3.9229     3.9229     0.0000
 50 C      6.1095     6.0000    -0.1095     3.9349     3.9349     0.0000
 51 C      6.1012     6.0000    -0.1012     3.9278     3.9278    -0.0000
 52 C      6.0859     6.0000    -0.0859     3.9074     3.9074     0.0000
 53 C      6.0808     6.0000    -0.0808     3.9031     3.9031    -0.0000
 54 C      6.1928     6.0000    -0.1928     3.9662     3.9662    -0.0000
 55 C      6.1948     6.0000    -0.1948     3.9713     3.9713     0.0000
 56 C      6.2568     6.0000    -0.2568     4.0183     4.0183     0.0000
 57 C      6.2593     6.0000    -0.2593     4.0283     4.0283     0.0000
 58 C      6.1930     6.0000    -0.1930     3.9769     3.9769    -0.0000
 59 C      6.2008     6.0000    -0.2008     4.0060     4.0060     0.0000
 60 C      6.2491     6.0000    -0.2491     4.0611     4.0611    -0.0000
 61 C      6.2497     6.0000    -0.2497     4.0549     4.0549     0.0000
 62 C      6.2274     6.0000    -0.2274     3.9337     3.9337    -0.0000
 63 C      6.2301     6.0000    -0.2301     3.9254     3.9254     0.0000
 64 C      6.3962     6.0000    -0.3962     3.9516     3.9516    -0.0000
 65 C      6.3681     6.0000    -0.3681     3.8947     3.8947     0.0000
 66 C      6.2128     6.0000    -0.2128     3.9686     3.9686     0.0000
 67 C      6.2382     6.0000    -0.2382     3.9375     3.9375     0.0000
 68 C      5.6569     6.0000     0.3431     3.6333     3.6333     0.0000
 69 C      5.6661     6.0000     0.3339     3.6354     3.6354    -0.0000
 70 C      5.7755     6.0000     0.2245     3.9487     3.9487    -0.0000
 71 C      5.7812     6.0000     0.2188     3.9566     3.9566    -0.0000
 72 C      5.5830     6.0000     0.4170     3.5693     3.5693    -0.0000
 73 C      5.7533     6.0000     0.2467     3.8398     3.8398    -0.0000
 74 C      5.9533     6.0000     0.0467     3.6385     3.6385    -0.0000
 75 C      5.9092     6.0000     0.0908     3.6578     3.6578     0.0000
 76 C      5.7923     6.0000     0.2077     3.7882     3.7882    -0.0000
 77 C      5.8033     6.0000     0.1967     3.7769     3.7769    -0.0000
 78 C      5.8616     6.0000     0.1384     3.6446     3.6446    -0.0000
 79 C      5.8497     6.0000     0.1503     3.6178     3.6178     0.0000
 80 C      5.9837     6.0000     0.0163     3.6650     3.6650     0.0000
 81 C      6.0336     6.0000    -0.0336     3.6857     3.6857     0.0000
 82 C      6.1423     6.0000    -0.1423     2.8350     2.8350     0.0000
 83 C      5.9222     6.0000     0.0778     2.7636     2.7636    -0.0000
 84 C      6.2316     6.0000    -0.2316     3.8961     3.8961     0.0000
 85 C      6.2227     6.0000    -0.2227     3.8756     3.8756    -0.0000

  Mayer bond orders larger than 0.100000
B(  0-H , 40-C ) :   0.9801 B(  1-H , 41-C ) :   0.9852 B(  2-H , 42-C ) :   0.9770 
B(  3-H , 43-C ) :   0.9887 B(  4-H , 44-C ) :   0.9626 B(  5-H , 45-C ) :   0.9629 
B(  6-H , 46-C ) :   0.9623 B(  7-H , 47-C ) :   0.9622 B(  8-H , 48-C ) :   0.9686 
B(  9-H , 49-C ) :   0.9690 B( 10-H , 50-C ) :   0.9672 B( 11-H , 51-C ) :   0.9680 
B( 12-H , 52-C ) :   0.9602 B( 13-H , 53-C ) :   0.9608 B( 14-H , 54-C ) :   0.9703 
B( 15-H , 55-C ) :   0.9673 B( 16-H , 56-C ) :   0.9697 B( 17-H , 57-C ) :   0.9692 
B( 18-H , 58-C ) :   0.9574 B( 19-H , 59-C ) :   0.9547 B( 20-H , 60-C ) :   0.9728 
B( 21-H , 61-C ) :   0.9736 B( 22-H , 62-C ) :   0.9858 B( 23-H , 63-C ) :   0.9856 
B( 24-H , 64-C ) :   0.9693 B( 25-H , 65-C ) :   0.9771 B( 26-H , 66-C ) :   0.9472 
B( 27-H , 67-C ) :   0.9515 B( 28-H , 84-C ) :   0.9701 B( 29-H , 84-C ) :   0.9658 
B( 30-H , 84-C ) :   0.9669 B( 31-H , 85-C ) :   0.9695 B( 32-H , 85-C ) :   0.9562 
B( 33-H , 85-C ) :   0.9594 B( 34-N , 42-C ) :   1.6044 B( 34-N , 68-C ) :   1.3420 
B( 35-N , 43-C ) :   1.6089 B( 35-N , 69-C ) :   1.3419 B( 36-N , 40-C ) :   1.9210 
B( 36-N , 70-C ) :   1.0532 B( 37-N , 41-C ) :   1.9201 B( 37-N , 71-C ) :   1.0506 
B( 38-O , 72-C ) :   0.9513 B( 38-O , 84-C ) :   0.9459 B( 39-O , 73-C ) :   1.0638 
B( 39-O , 85-C ) :   0.9304 B( 40-C , 68-C ) :   0.9274 B( 41-C , 69-C ) :   0.9302 
B( 42-C , 74-C ) :   1.3075 B( 43-C , 75-C ) :   1.2729 B( 44-C , 46-C ) :   1.4057 
B( 44-C , 52-C ) :   1.4244 B( 45-C , 47-C ) :   1.4049 B( 45-C , 53-C ) :   1.4250 
B( 46-C , 60-C ) :   1.4293 B( 47-C , 61-C ) :   1.4287 B( 48-C , 50-C ) :   1.2693 
B( 48-C , 62-C ) :   1.5318 B( 49-C , 51-C ) :   1.2684 B( 49-C , 63-C ) :   1.5339 
B( 50-C , 66-C ) :   1.5552 B( 51-C , 67-C ) :   1.5575 B( 52-C , 56-C ) :   1.4074 
B( 53-C , 57-C ) :   1.4059 B( 54-C , 58-C ) :   1.4313 B( 54-C , 68-C ) :   1.3483 
B( 55-C , 59-C ) :   1.4357 B( 55-C , 69-C ) :   1.3527 B( 56-C , 70-C ) :   1.3689 
B( 57-C , 71-C ) :   1.3823 B( 58-C , 74-C ) :   1.3964 B( 59-C , 75-C ) :   1.4245 
B( 60-C , 70-C ) :   1.4106 B( 61-C , 71-C ) :   1.4029 B( 62-C , 76-C ) :   1.2187 
B( 63-C , 77-C ) :   1.2101 B( 64-C , 76-C ) :   1.2129 B( 64-C , 78-C ) :   1.4786 
B( 65-C , 77-C ) :   1.2020 B( 65-C , 79-C ) :   1.4538 B( 66-C , 80-C ) :   1.3320 
B( 66-C , 82-C ) :  -0.1087 B( 67-C , 81-C ) :   1.3019 B( 67-C , 83-C ) :  -0.1097 
B( 72-C , 78-C ) :   1.2342 B( 72-C , 82-C ) :   1.3510 B( 73-C , 79-C ) :   1.2625 
B( 73-C , 83-C ) :   1.3611 B( 74-C , 78-C ) :   0.8615 B( 75-C , 79-C ) :   0.8699 
B( 76-C , 80-C ) :   1.2866 B( 77-C , 81-C ) :   1.3103 B( 80-C , 82-C ) :   1.0378 
B( 81-C , 83-C ) :   1.0272 B( 82-C , 83-C ) :   0.4835 

-------
TIMINGS
-------

Total SCF time: 0 days 0 hours 49 min 38 sec 

Total time                  ....    2978.350 sec
Sum of individual times     ....    2941.718 sec  ( 98.8%)

Fock matrix formation       ....    2804.084 sec  ( 94.1%)
  XC integration            ....      53.461 sec  (  1.9% of F)
    Basis function eval.    ....       5.498 sec  ( 10.3% of XC)
    Density eval.           ....      24.428 sec  ( 45.7% of XC)
    XC-Functional eval.     ....       0.905 sec  (  1.7% of XC)
    XC-Potential eval.      ....      11.471 sec  ( 21.5% of XC)
Diagonalization             ....      20.633 sec  (  0.7%)
Density matrix formation    ....       1.690 sec  (  0.1%)
Population analysis         ....       5.291 sec  (  0.2%)
Initial guess               ....       8.771 sec  (  0.3%)
Orbital Transformation      ....       0.000 sec  (  0.0%)
Orbital Orthonormalization  ....       8.496 sec  (  0.3%)
DIIS solution               ....      82.378 sec  (  2.8%)
SOSCF solution              ....       5.497 sec  (  0.2%)
Grid generation             ....      13.374 sec  (  0.4%)


-------------------------------------------------------------------------------
                          DFT DISPERSION CORRECTION                            
                                                                               
                                 DFTD4 V2.0                                    
-------------------------------------------------------------------------------
The PBE0 functional is recognized
Active option DFTDOPT                   ...         5   

-------------------------   ----------------
Dispersion correction           -0.122140131
-------------------------   ----------------


-------------------------   --------------------
FINAL SINGLE POINT ENERGY     -2141.137231650931
-------------------------   --------------------


                            ***************************************
                            *     ORCA property calculations      *
                            ***************************************

                                    ---------------------
                                    Active property flags
                                    ---------------------
   (+) Dipole Moment


------------------------------------------------------------------------------
                       ORCA ELECTRIC PROPERTIES CALCULATION
------------------------------------------------------------------------------

Dipole Moment Calculation                       ... on
Quadrupole Moment Calculation                   ... off
Polarizability Calculation                      ... off
GBWName                                         ... _fe4ll_xtb_dft_sg86_1_1.gbw
Electron density file                           ... _fe4ll_xtb_dft_sg86_1_1.scfp
The origin for moment calculation is the CENTER OF MASS  = (22.920621, 14.208535 24.585560)

-------------
DIPOLE MOMENT
-------------
                                X             Y             Z
Electronic contribution:      0.63465      -0.39356       6.55557
Nuclear contribution   :      0.49615      -1.69102      -5.06778
                        -----------------------------------------
Total Dipole Moment    :      1.13080      -2.08458       1.48780
                        -----------------------------------------
Magnitude (a.u.)       :      2.79959
Magnitude (Debye)      :      7.11599



--------------------
Rotational spectrum 
--------------------
 
Rotational constants in cm-1:     0.001423     0.001005     0.000658 
Rotational constants in MHz :    42.648482    30.141023    19.735247 

 Dipole components along the rotational axes: 
x,y,z [a.u.] :    -0.750635    -2.588436     0.757794 
x,y,z [Debye]:    -1.907962    -6.579281     1.926159 

 

Timings for individual modules:

Sum of individual times         ...     3008.903 sec (=  50.148 min)
GTO integral calculation        ...       16.978 sec (=   0.283 min)   0.6 %
SCF iterations                  ...     2991.925 sec (=  49.865 min)  99.4 %
                             ****ORCA TERMINATED NORMALLY****
TOTAL RUN TIME: 0 days 0 hours 51 minutes 0 seconds 749 msec
