Job execution start: Fri Apr 16 19:01:51 BST 2021
Shared library path: /work/e05/e05/atarzia/orca_4_2_1_linux_x86-64_openmpi314:/work/e05/e05/atarzia/openmpi-3.1.4/lib:/opt/cray/pe/papi/6.0.0.4/lib64:/opt/cray/libfabric/1.11.0.0.233/lib64
Slurm Job ID is: 207122
Slurm Job name is: fe6dd_xtb_dft_sg80_1_0
nid001001

                                 *****************
                                 * O   R   C   A *
                                 *****************

           --- An Ab Initio, DFT and Semiempirical electronic structure package ---

                  #######################################################
                  #                        -***-                        #
                  #          Department of theory and spectroscopy      #
                  #               Directorship: Frank Neese             #
                  #        Max Planck Institute fuer Kohlenforschung    #
                  #                Kaiser Wilhelm Platz 1               #
                  #                 D-45470 Muelheim/Ruhr               #
                  #                      Germany                        #
                  #                                                     #
                  #                  All rights reserved                #
                  #                        -***-                        #
                  #######################################################


                         Program Version 4.2.1 -  RELEASE  -


 With contributions from (in alphabetic order):
   Daniel Aravena         : Magnetic Suceptibility
   Michael Atanasov       : Ab Initio Ligand Field Theory (pilot matlab implementation)
   Alexander A. Auer      : GIAO ZORA, VPT2
   Ute Becker             : Parallelization
   Giovanni Bistoni       : ED, misc. LED, open-shell LED, HFLD
   Martin Brehm           : Molecular dynamics
   Dmytro Bykov           : SCF Hessian
   Vijay G. Chilkuri      : MRCI spin determinant printing, contributions to CSF-ICE
   Dipayan Datta          : RHF DLPNO-CCSD density
   Achintya Kumar Dutta   : EOM-CC, STEOM-CC
   Dmitry Ganyushin       : Spin-Orbit,Spin-Spin,Magnetic field MRCI
   Miquel Garcia          : C-PCM Hessian, Gaussian charge scheme
   Yang Guo               : DLPNO-NEVPT2, CIM, IAO-localization
   Andreas Hansen         : Spin unrestricted coupled pair/coupled cluster methods
   Benjamin Helmich-Paris : CASSCF linear response (MC-RPA)
   Lee Huntington         : MR-EOM, pCC
   Robert Izsak           : Overlap fitted RIJCOSX, COSX-SCS-MP3, EOM
   Christian Kollmar      : KDIIS, OOCD, Brueckner-CCSD(T), CCSD density
   Simone Kossmann        : Meta GGA functionals, TD-DFT gradient, OOMP2, MP2 Hessian
   Martin Krupicka        : AUTO-CI
   Lucas Lang             : DCDCAS
   Dagmar Lenk            : GEPOL surface, SMD
   Dimitrios Liakos       : Extrapolation schemes; Compound Job, initial MDCI parallelization
   Dimitrios Manganas     : Further ROCIS development; embedding schemes
   Dimitrios Pantazis     : SARC Basis sets
   Taras Petrenko         : DFT Hessian,TD-DFT gradient, ASA, ECA, R-Raman, ABS, FL, XAS/XES, NRVS
   Peter Pinski           : DLPNO-MP2, DLPNO-MP2 Gradient
   Christoph Reimann      : Effective Core Potentials
   Marius Retegan         : Local ZFS, SOC
   Christoph Riplinger    : Optimizer, TS searches, QM/MM, DLPNO-CCSD(T), (RO)-DLPNO pert. Triples
   Tobias Risthaus        : Range-separated hybrids, TD-DFT gradient, RPA, STAB
   Michael Roemelt        : Original ROCIS implementation
   Masaaki Saitow         : Open-shell DLPNO-CCSD energy and density
   Barbara Sandhoefer     : DKH picture change effects
   Avijit Sen             : IP-ROCIS
   Kantharuban Sivalingam : CASSCF convergence, NEVPT2, FIC-MRCI
   Bernardo de Souza      : ESD, SOC TD-DFT
   Georgi Stoychev        : AutoAux, RI-MP2 NMR
   Willem Van den Heuvel  : Paramagnetic NMR
   Boris Wezisla          : Elementary symmetry handling
   Frank Wennmohs         : Technical directorship


 We gratefully acknowledge several colleagues who have allowed us to
 interface, adapt or use parts of their codes:
   Stefan Grimme, W. Hujo, H. Kruse,             : VdW corrections, initial TS optimization,
                  C. Bannwarth                     DFT functionals, gCP, sTDA/sTD-DF
   Ed Valeev, F. Pavosevic, A. Kumar             : LibInt (2-el integral package), F12 methods
   Garnet Chan, S. Sharma, J. Yang, R. Olivares  : DMRG
   Ulf Ekstrom                                   : XCFun DFT Library
   Mihaly Kallay                                 : mrcc  (arbitrary order and MRCC methods)
   Andreas Klamt, Michael Diedenhofen            : otool_cosmo (COSMO solvation model)
   Jiri Pittner, Ondrej Demel                    : Mk-CCSD
   Frank Weinhold                                : gennbo (NPA and NBO analysis)
   Christopher J. Cramer and Donald G. Truhlar   : smd solvation model
   Lars Goerigk                                  : TD-DFT with DH, B97 family of functionals
   V. Asgeirsson, H. Jonsson                     : NEB implementation
   FAccTs GmbH                                   : IRC, NEB, NEB-TS, Multilevel, MM, QM/MM, CI optimization
   S Lehtola, MJT Oliveira, MAL Marques          : LibXC Library


 Your calculation uses the libint2 library for the computation of 2-el integrals
 For citations please refer to: http://libint.valeyev.net

 Your ORCA version has been built with support for libXC version: 4.2.3
 For citations please refer to: https://tddft.org/programs/libxc/

 This ORCA versions uses:
   CBLAS   interface :  Fast vector & matrix operations
   LAPACKE interface :  Fast linear algebra routines
   SCALAPACK package :  Parallel linear algebra routines




***************************************
The coordinates will be read from file: fe6dd_xtb_dft_sg80_1_0.xyz
***************************************


Your calculation utilizes the atom-pairwise dispersion correction
based on tight binding partial charges (D4)
Cite in your paper:
E.Caldeweyher, C.Bannwarth, S.Grimme, J.Chem.Phys., (2017), 147, 034112.
E.Caldeweyher, S.Ehlert, A.Hansen, H.Neugebauer, S.Grimme, J.Chem.Phys., (2018), in progress.
   

----- Orbital basis set information -----
Your calculation utilizes the basis: def2-TZVP
   F. Weigend and R. Ahlrichs, Phys. Chem. Chem. Phys. 7, 3297 (2005).

================================================================================
                                        WARNINGS
                       Please study these warnings very carefully!
================================================================================


INFO   : the flag for use of LIBINT has been found!

================================================================================
                                       INPUT FILE
================================================================================
NAME = fe6dd_xtb_dft_sg80_1_0.in
|  1> # closed shell KS, PBE0/def2-SVP/D4
|  2> ! DFT SP RKS PBE0 def2-TZVP D4 Grid6 NOFINALGRID SlowConv TightSCF printbasis
|  3> 
|  4> %base "_fe6dd_xtb_dft_sg80_1_0"
|  5> %maxcore 4000
|  6> %scf
|  7>    MaxIter 2000
|  8> end
|  9> 
| 10> %pal
| 11>    nprocs 48
| 12> end
| 13> 
| 14> * xyzfile 0 1 fe6dd_xtb_dft_sg80_1_0.xyz
| 15> 
| 16> 
| 17>                          ****END OF INPUT****
================================================================================

                       ****************************
                       * Single Point Calculation *
                       ****************************

---------------------------------
CARTESIAN COORDINATES (ANGSTROEM)
---------------------------------
  H     13.166800    9.647800   12.889000
  H     11.468600    9.454000   15.771200
  H     15.730300   15.952100   10.137700
  H      5.589300    5.148500   15.935200
  H     12.267100   13.065400   13.082800
  H      9.984600    5.130700   12.805600
  H     14.188200   17.464200    4.833400
  H      0.453100    4.527500   13.455000
  H     15.482900   15.501500    5.655200
  H      1.705300    6.539400   14.226800
  H     12.625200   18.646400    6.370200
  H      1.689600    2.433700   12.921200
  H     15.115000   10.363500   20.307400
  H     16.898000    4.991900   12.653600
  H     14.389100    8.113100   19.523300
  H     17.580200    7.255300   13.440700
  H     16.704800   15.070600   12.395400
  H      7.734800    6.001800   17.090400
  H     12.344000   17.874900    8.696900
  H      4.143700    2.344400   13.140300
  H     16.390900   13.440000   14.278600
  H     10.076900    6.822000   16.771500
  H     15.175400   12.269500   18.725600
  H     14.524300    4.293700   12.788100
  H     13.708700    7.756800   17.175000
  H     15.910000    8.824000   14.359200
  H     15.214700   14.730400    8.001400
  H      4.174100    6.451200   14.460100
  H     14.889400   13.137600   16.436000
  H     12.232000    4.742100   13.540000
  N     13.434100   14.347900   11.961000
  N      8.265400    4.914900   13.939200
  N     13.668000   15.814500    9.847000
  N      5.728000    4.363400   14.006200
  O     13.298800   10.594500   13.057100
  O     11.035200    8.637500   15.474500
  C     14.752800   15.623600   10.511900
  C      6.220300    4.872700   15.081400
  C     13.267400   13.480800   12.951500
  C      9.517900    5.331100   13.772800
  C     14.070600   17.122500    5.863900
  C      1.539600    4.491200   13.559900
  C     14.799200   16.027400    6.325200
  C      2.239800    5.615100   13.996200
  C     13.191100   17.781700    6.723400
  C      2.233200    3.319300   13.257100
  C     14.810700   10.225700   19.267800
  C     16.143500    5.678400   13.042900
  C     14.395400    8.950600   18.822000
  C     16.528900    6.962600   13.488600
  C     15.735600   14.604300   12.582500
  C      8.268300    5.830600   16.153500
  C     13.033100   17.350900    8.036800
  C      3.617500    3.265200   13.384100
  C     15.555800   13.705900   13.626600
  C      9.565900    6.283700   15.973600
  C     14.842600   11.283700   18.390700
  C     14.827800    5.290500   13.117800
  C     14.011400    8.749400   17.514700
  C     15.601100    7.840300   14.000600
  C     14.660100   15.601000    7.642600
  C      3.622400    5.563600   14.141300
  C     14.519600   12.164800   16.101200
  C     12.509600    5.754600   13.843600
  C     14.658700   14.871500   11.741500
  C      7.631300    5.177300   15.099100
  C     13.782300   16.267800    8.509200
  C      4.320800    4.382400   13.848400
  C     13.657000   10.732100   14.356000
  C     11.964500    7.862200   14.889300
  C     14.313700   13.082300   13.796500
  C     10.214200    6.060600   14.748200
  C     14.455300   11.108700   17.037400
  C     13.849400    6.162800   13.660300
  C     14.129200   12.007500   14.785800
  C     11.572700    6.553500   14.473000
  C     14.022800    9.822100   16.590900
  C     14.241200    7.461000   14.111400
  C     13.629700    9.655400   15.226600
  C     13.261200    8.313500   14.703900

----------------------------
CARTESIAN COORDINATES (A.U.)
----------------------------
  NO LB      ZA    FRAG     MASS         X           Y           Z
   0 H     1.0000    0     1.008   24.881646   18.231700   24.356680
   1 H     1.0000    0     1.008   21.672513   17.865471   29.803249
   2 H     1.0000    0     1.008   29.725959   30.145100   19.157477
   3 H     1.0000    0     1.008   10.562246    9.729255   30.113164
   4 H     1.0000    0     1.008   23.181459   24.690028   24.722909
   5 H     1.0000    0     1.008   18.868160    9.695618   24.199077
   6 H     1.0000    0     1.008   26.811812   33.002555    9.133802
   7 H     1.0000    0     1.008    0.856235    8.555735   25.426265
   8 H     1.0000    0     1.008   29.258441   29.293590   10.686779
   9 H     1.0000    0     1.008    3.222550   12.357675   26.884756
  10 H     1.0000    0     1.008   23.858170   35.236589   12.037933
  11 H     1.0000    0     1.008    3.192881    4.599026   24.417529
  12 H     1.0000    0     1.008   28.563211   19.584177   38.375424
  13 H     1.0000    0     1.008   31.932592    9.433324   23.911839
  14 H     1.0000    0     1.008   27.191458   15.331537   36.893690
  15 H     1.0000    0     1.008   33.221763   13.710530   25.399242
  16 H     1.0000    0     1.008   31.567497   28.479307   23.423911
  17 H     1.0000    0     1.008   14.616654   11.341758   32.296176
  18 H     1.0000    0     1.008   23.326779   33.778666   16.434759
  19 H     1.0000    0     1.008    7.830458    4.430274   24.831568
  20 H     1.0000    0     1.008   30.974312   25.397919   26.982644
  21 H     1.0000    0     1.008   19.042581   12.891712   31.693542
  22 H     1.0000    0     1.008   28.677350   23.185995   35.386256
  23 H     1.0000    0     1.008   27.446949    8.113917   24.166007
  24 H     1.0000    0     1.008   25.905689   14.658228   32.456046
  25 H     1.0000    0     1.008   30.065543   16.674943   27.134956
  26 H     1.0000    0     1.008   28.751616   27.836422   15.120455
  27 H     1.0000    0     1.008    7.887906   12.191001   27.325629
  28 H     1.0000    0     1.008   28.136888   24.826466   31.059539
  29 H     1.0000    0     1.008   23.115130    8.961270   25.586892
  30 N     7.0000    0    14.007   25.386770   27.113602   22.603014
  31 N     7.0000    0    14.007   15.619342    9.287815   26.341271
  32 N     7.0000    0    14.007   25.828777   29.885074   18.608133
  33 N     7.0000    0    14.007   10.824351    8.245631   26.467882
  34 O     8.0000    0    15.999   25.131090   20.020704   24.674343
  35 O     8.0000    0    15.999   20.853506   16.322509   29.242567
  36 C     6.0000    0    12.011   27.878752   29.524325   19.864612
  37 C     6.0000    0    12.011   11.754663    9.208069   28.499716
  38 C     6.0000    0    12.011   25.071753   25.475020   24.474788
  39 C     6.0000    0    12.011   17.986224   10.074319   26.026820
  40 C     6.0000    0    12.011   26.589581   32.356836   11.081165
  41 C     6.0000    0    12.011    2.909422    8.487138   25.624497
  42 C     6.0000    0    12.011   27.966435   30.287397   11.952896
  43 C     6.0000    0    12.011    4.232609   10.611001   26.448985
  44 C     6.0000    0    12.011   24.927566   33.602543   12.705385
  45 C     6.0000    0    12.011    4.220136    6.272568   25.052288
  46 C     6.0000    0    12.011   27.988167   19.323773   36.410865
  47 C     6.0000    0    12.011   30.506794   10.730621   24.647509
  48 C     6.0000    0    12.011   27.203364   16.914183   35.568425
  49 C     6.0000    0    12.011   31.235094   13.157407   25.489760
  50 C     6.0000    0    12.011   29.735975   27.598127   23.777479
  51 C     6.0000    0    12.011   15.624823   11.018237   30.525691
  52 C     6.0000    0    12.011   24.628990   32.788449   15.187351
  53 C     6.0000    0    12.011    6.836084    6.170334   25.292284
  54 C     6.0000    0    12.011   29.396202   25.900397   25.750542
  55 C     6.0000    0    12.011   18.076931   11.874472   30.185729
  56 C     6.0000    0    12.011   28.048449   21.323103   34.753386
  57 C     6.0000    0    12.011   28.020481    9.997596   24.789049
  58 C     6.0000    0    12.011   26.477709   16.533970   33.097986
  59 C     6.0000    0    12.011   29.481806   14.816020   26.457300
  60 C     6.0000    0    12.011   27.703574   29.481617   14.442421
  61 C     6.0000    0    12.011    6.845344   10.513680   26.723184
  62 C     6.0000    0    12.011   27.438068   22.988140   30.426858
  63 C     6.0000    0    12.011   23.639718   10.874618   26.160613
  64 C     6.0000    0    12.011   27.700928   28.103062   22.188219
  65 C     6.0000    0    12.011   14.421067    9.783679   28.533164
  66 C     6.0000    0    12.011   26.044772   30.741687   16.080058
  67 C     6.0000    0    12.011    8.165129    8.281536   26.169683
  68 C     6.0000    0    12.011   25.807990   20.280730   27.128908
  69 C     6.0000    0    12.011   22.609628   14.857405   28.136699
  70 C     6.0000    0    12.011   27.048973   24.721964   26.071607
  71 C     6.0000    0    12.011   19.302041   11.452874   27.870059
  72 C     6.0000    0    12.011   27.316558   20.992401   32.196020
  73 C     6.0000    0    12.011   26.171573   11.646004   25.814226
  74 C     6.0000    0    12.011   26.700318   22.690887   27.941113
  75 C     6.0000    0    12.011   21.869234   12.384320   27.350006
  76 C     6.0000    0    12.011   26.499252   18.561079   31.352257
  77 C     6.0000    0    12.011   26.911968   14.099247   26.666681
  78 C     6.0000    0    12.011   25.756400   18.246062   28.774104
  79 C     6.0000    0    12.011   25.060036   15.710238   27.786344

--------------------------------
INTERNAL COORDINATES (ANGSTROEM)
--------------------------------
 H      0   0   0     0.000000000000     0.00000000     0.00000000
 H      1   0   0     3.350898166164     0.00000000     0.00000000
 H      1   2   0     7.340666347819   123.30038593     0.00000000
 H      2   1   3     7.289059935273   117.53478571   137.17692230
 H      1   2   3     3.539351393970    83.10347265   341.29003779
 H      4   2   1     5.395681151625    48.07568384    24.01310583
 H      3   1   2     5.727138666909   118.67544832   235.81773263
 H      4   2   1     5.737384724768   140.92140935   298.96971039
 H      7   3   1     2.490741781076    49.18673565   297.36863354
 H      8   4   2     2.492272394824    47.85330476   319.27544100
 H      7   3   1     2.490445759297    73.90682808    96.14516364
 H      8   4   2     2.489552797191    74.87586434   118.87653966
 H      2   1   3     5.890715886036   109.85938614   288.28696849
 H      1   2   3     5.971153273029   107.78768928   139.41264081
 H     13   2   1     2.491193244210    55.79069473   261.11116616
 H     14   1   2     2.491566336665    56.65426867   263.68410967
 H      3   1   2     2.612259900929    61.08829964    65.06853688
 H      4   2   1     2.581816837035    31.19204497   137.77033771
 H     11   7   3     2.467350518269   120.33130407   341.24367894
 H     12   8   4     2.465478880461   120.38388214   342.35896694
 H     17   3   1     2.510743278394   145.16169293   346.25017109
 H     18   4   2     2.501970755225   146.01876548   326.79804740
 H     13   2   1     2.477614861111    69.03675511    56.52409287
 H     14   1   2     2.477907419578    67.60269142    60.60854816
 H     15  13   2     2.470709764420   120.64179889    26.25847332
 H     16  14   1     2.468608915969   120.63435640    24.73613259
 H      9   7   3     2.484186162509   120.00613187    23.56494538
 H      4   2   1     2.423992231836    98.03503005   291.60149558
 H     23  13   2     2.465291416851   149.42884156   333.37671072
 H      6   4   2     2.396071801929   125.93095319    64.24578495
 N      5   1   2     2.065219235336   115.23004651   159.40829678
 N      6   4   2     2.070571718149     6.50251626   161.16155792
 N      3   1   2     2.087228195478    69.54542082   284.25940715
 N      4   2   1     2.087261531289    98.49861009     3.71344834
 O      1   2   3     0.970526918741    88.64567572     4.23412925
 O      2   1   3     0.970844323257    90.68845418   154.93514705
 C      3   1   2     1.097016016291    45.87766558   309.30515940
 C      4   2   1     1.096905228358    70.54953869    18.57845268
 C      5   1   2     1.091053133445    97.35355312   127.95228175
 C      6   4   2     1.092449033136    30.44395540    31.95072105
 C      7   3   1     1.092025137073    21.93533222    49.02473208
 C      8   4   2     1.092155643670    21.79726543    75.18799944
 C      9   7   3     1.092207168993    59.84030230    23.33998459
 C     10   8   4     1.092335616924    59.82788050    22.43658014
 C     11   7   3     1.092107659528    59.90180477   341.24298557
 C     12   8   4     1.092070112218    59.95063277   342.51405323
 C     13   2   1     1.091950314804    22.31239654   355.72638863
 C     14   1   2     1.091836521646    20.58887958   357.58248198
 C     15  13   2     1.092367900480    60.51543651    25.61149452
 C     16  14   1     1.092336665136    60.45651113    23.74512694
 C     17   3   1     1.091691687245    87.76878302   330.31733012
 C     18   4   2     1.091656218780    88.29685631   311.98400953
 C     19  11   7     1.088653673121    60.43455540     0.20429255
 C     20  12   8     1.088208399159    60.52433450     0.41795626
 C     21  17   3     1.092336404227    59.32229775   340.96511250
 C     22  18   4     1.089739556041    59.49817373   342.64866124
 C     23  13   2     1.093030415862    59.62705703   337.54473438
 C     24  14   1     1.092897332781    59.55952182   338.68268353
 C     25  15  13     1.091914895951    59.79291419   359.08664472
 C     26  16  14     1.091640444469    59.77479164   358.96015257
 C     27   9   7     1.092823389208    59.82916114   359.01594698
 C     28   4   2     1.092629896168    92.05019765   152.22605854
 C     29  23  13     1.093244217913    90.59170882     5.59871611
 C     30   6   4     1.092881956114    99.97034873   274.23337023
 C     31   5   1     1.349808271570   147.33893162   297.28781814
 C     32   6  40     1.347703446608   147.30500189     3.49810012
 C     53  19  11     1.399131162543   120.45286347   178.36919372
 C     54  20  12     1.399407453174   120.45348013   178.51656134
 C     35   1   2     1.354393668768   107.52847557    44.67833420
 C     36   2   1     1.344301908055   108.02779801    43.02369314
 C     55  21  17     1.400198335951   119.82470239   176.71406054
 C     40   6   4     1.403000035638   119.92588953   192.07872207
 C     63  29  23     1.412781702883   118.53096225   358.79833285
 C     64  30   6     1.412547404514   118.20345356   213.81023103
 C     63  29  23     1.381098334660   119.25125826   178.64763162
 C     64  30   6     1.382811332033   119.31346229    38.24655591
 C     59  25  15     1.415705368359   119.21061358   179.30612249
 C     60  26  16     1.416147287538   119.16874946   177.87411344
 C     69  35   1     1.384908856207   121.24358469   352.54439650
 C     70  36   2     1.385451457107   121.15754556   355.29978982

---------------------------
INTERNAL COORDINATES (A.U.)
---------------------------
 H      0   0   0     0.000000000000     0.00000000     0.00000000
 H      1   0   0     6.332279836709     0.00000000     0.00000000
 H      1   2   0    13.871849037870   123.30038593     0.00000000
 H      2   1   3    13.774327051403   117.53478571   137.17692230
 H      1   2   3     6.688404826316    83.10347265   341.29003779
 H      4   2   1    10.196359682532    48.07568384    24.01310583
 H      3   1   2    10.822723611448   118.67544832   235.81773263
 H      4   2   1    10.842085854754   140.92140935   298.96971039
 H      7   3   1     4.706819836550    49.18673565   297.36863354
 H      8   4   2     4.709712277349    47.85330476   319.27544100
 H      7   3   1     4.706260436457    73.90682808    96.14516364
 H      8   4   2     4.704572982628    74.87586434   118.87653966
 H      2   1   3    11.131839757348   109.85938614   288.28696849
 H      1   2   3    11.283844389692   107.78768928   139.41264081
 H     13   2   1     4.707672978233    55.79069473   261.11116616
 H     14   1   2     4.708378020793    56.65426867   263.68410967
 H      3   1   2     4.936455803379    61.08829964    65.06853688
 H      4   2   1     4.878926749944    31.19204497   137.77033771
 H     11   7   3     4.662616755916   120.33130407   341.24367894
 H     12   8   4     4.659079873038   120.38388214   342.35896694
 H     17   3   1     4.744617188748   145.16169293   346.25017109
 H     18   4   2     4.728039522455   146.01876548   326.79804740
 H     13   2   1     4.682013552834    69.03675511    56.52409287
 H     14   1   2     4.682566408214    67.60269142    60.60854816
 H     15  13   2     4.668964811159   120.64179889    26.25847332
 H     16  14   1     4.664994782937   120.63435640    24.73613259
 H      9   7   3     4.694431512818   120.00613187    23.56494538
 H      4   2   1     4.580681468922    98.03503005   291.60149558
 H     23  13   2     4.658725618155   149.42884156   333.37671072
 H      6   4   2     4.527919502857   125.93095319    64.24578495
 N      5   1   2     3.902698761290   115.23004651   159.40829678
 N      6   4   2     3.912813487945     6.50251626   161.16155792
 N      3   1   2     3.944289668453    69.54542082   284.25940715
 N      4   2   1     3.944352664006    98.49861009     3.71344834
 O      1   2   3     1.834030082018    88.64567572     4.23412925
 O      2   1   3     1.834629889628    90.68845418   154.93514705
 C      3   1   2     2.073059835316    45.87766558   309.30515940
 C      4   2   1     2.072850476464    70.54953869    18.57845268
 C      5   1   2     2.061791619768    97.35355312   127.95228175
 C      6   4   2     2.064429487894    30.44395540    31.95072105
 C      7   3   1     2.063628440426    21.93533222    49.02473208
 C      8   4   2     2.063875062153    21.79726543    75.18799944
 C      9   7   3     2.063972430902    59.84030230    23.33998459
 C     10   8   4     2.064215162314    59.82788050    22.43658014
 C     11   7   3     2.063784385266    59.90180477   341.24298557
 C     12   8   4     2.063713431133    59.95063277   342.51405323
 C     13   2   1     2.063487046828    22.31239654   355.72638863
 C     14   1   2     2.063272008924    20.58887958   357.58248198
 C     15  13   2     2.064276169395    60.51543651    25.61149452
 C     16  14   1     2.064217143148    60.45651113    23.74512694
 C     17   3   1     2.062998311572    87.76878302   330.31733012
 C     18   4   2     2.062931285885    88.29685631   311.98400953
 C     19  11   7     2.057257296886    60.43455540     0.20429255
 C     20  12   8     2.056415851043    60.52433450     0.41795626
 C     21  17   3     2.064216650102    59.32229775   340.96511250
 C     22  18   4     2.059309318218    59.49817373   342.64866124
 C     23  13   2     2.065528142026    59.62705703   337.54473438
 C     24  14   1     2.065276651449    59.55952182   338.68268353
 C     25  15  13     2.063420114897    59.79291419   359.08664472
 C     26  16  14     2.062901476758    59.77479164   358.96015257
 C     27   9   7     2.065136918347    59.82916114   359.01594698
 C     28   4   2     2.064771269492    92.05019765   152.22605854
 C     29  23  13     2.065932169348    90.59170882     5.59871611
 C     30   6   4     2.065247593760    99.97034873   274.23337023
 C     31   5   1     2.550767966570   147.33893162   297.28781814
 C     32   6  40     2.546790423832   147.30500189     3.49810012
 C     53  19  11     2.643974722642   120.45286347   178.36919372
 C     54  20  12     2.644496836268   120.45348013   178.51656134
 C     35   1   2     2.559433111489   107.52847557    44.67833420
 C     36   2   1     2.540362447532   108.02779801    43.02369314
 C     55  21  17     2.645991388120   119.82470239   176.71406054
 C     40   6   4     2.651285833237   119.92588953   192.07872207
 C     63  29  23     2.669770505463   118.53096225   358.79833285
 C     64  30   6     2.669327745713   118.20345356   213.81023103
 C     63  29  23     2.609897616522   119.25125826   178.64763162
 C     64  30   6     2.613134712426   119.31346229    38.24655591
 C     59  25  15     2.675295432520   119.21061358   179.30612249
 C     60  26  16     2.676130538741   119.16874946   177.87411344
 C     69  35   1     2.617098458673   121.24358469   352.54439650
 C     70  36   2     2.618123825774   121.15754556   355.29978982

---------------------
BASIS SET INFORMATION
---------------------
There are 4 groups of distinct atoms

 Group   1 Type H   : 5s1p contracted to 3s1p pattern {311/1}
 Group   2 Type N   : 11s6p2d1f contracted to 5s3p2d1f pattern {62111/411/11/1}
 Group   3 Type O   : 11s6p2d1f contracted to 5s3p2d1f pattern {62111/411/11/1}
 Group   4 Type C   : 11s6p2d1f contracted to 5s3p2d1f pattern {62111/411/11/1}

Atom   0H    basis set group =>   1
Atom   1H    basis set group =>   1
Atom   2H    basis set group =>   1
Atom   3H    basis set group =>   1
Atom   4H    basis set group =>   1
Atom   5H    basis set group =>   1
Atom   6H    basis set group =>   1
Atom   7H    basis set group =>   1
Atom   8H    basis set group =>   1
Atom   9H    basis set group =>   1
Atom  10H    basis set group =>   1
Atom  11H    basis set group =>   1
Atom  12H    basis set group =>   1
Atom  13H    basis set group =>   1
Atom  14H    basis set group =>   1
Atom  15H    basis set group =>   1
Atom  16H    basis set group =>   1
Atom  17H    basis set group =>   1
Atom  18H    basis set group =>   1
Atom  19H    basis set group =>   1
Atom  20H    basis set group =>   1
Atom  21H    basis set group =>   1
Atom  22H    basis set group =>   1
Atom  23H    basis set group =>   1
Atom  24H    basis set group =>   1
Atom  25H    basis set group =>   1
Atom  26H    basis set group =>   1
Atom  27H    basis set group =>   1
Atom  28H    basis set group =>   1
Atom  29H    basis set group =>   1
Atom  30N    basis set group =>   2
Atom  31N    basis set group =>   2
Atom  32N    basis set group =>   2
Atom  33N    basis set group =>   2
Atom  34O    basis set group =>   3
Atom  35O    basis set group =>   3
Atom  36C    basis set group =>   4
Atom  37C    basis set group =>   4
Atom  38C    basis set group =>   4
Atom  39C    basis set group =>   4
Atom  40C    basis set group =>   4
Atom  41C    basis set group =>   4
Atom  42C    basis set group =>   4
Atom  43C    basis set group =>   4
Atom  44C    basis set group =>   4
Atom  45C    basis set group =>   4
Atom  46C    basis set group =>   4
Atom  47C    basis set group =>   4
Atom  48C    basis set group =>   4
Atom  49C    basis set group =>   4
Atom  50C    basis set group =>   4
Atom  51C    basis set group =>   4
Atom  52C    basis set group =>   4
Atom  53C    basis set group =>   4
Atom  54C    basis set group =>   4
Atom  55C    basis set group =>   4
Atom  56C    basis set group =>   4
Atom  57C    basis set group =>   4
Atom  58C    basis set group =>   4
Atom  59C    basis set group =>   4
Atom  60C    basis set group =>   4
Atom  61C    basis set group =>   4
Atom  62C    basis set group =>   4
Atom  63C    basis set group =>   4
Atom  64C    basis set group =>   4
Atom  65C    basis set group =>   4
Atom  66C    basis set group =>   4
Atom  67C    basis set group =>   4
Atom  68C    basis set group =>   4
Atom  69C    basis set group =>   4
Atom  70C    basis set group =>   4
Atom  71C    basis set group =>   4
Atom  72C    basis set group =>   4
Atom  73C    basis set group =>   4
Atom  74C    basis set group =>   4
Atom  75C    basis set group =>   4
Atom  76C    basis set group =>   4
Atom  77C    basis set group =>   4
Atom  78C    basis set group =>   4
Atom  79C    basis set group =>   4

-------------------------
BASIS SET IN INPUT FORMAT
-------------------------

 # Basis set for element : H 
 NewGTO H 
 S 3 
   1      34.0613410000      0.0254393072
   2       5.1235746000      0.1900859489
   3       1.1646626000      0.8524411301
 S 1 
   1       0.3272304100      1.0000000000
 S 1 
   1       0.1030724100      1.0000000000
 P 1 
   1       0.8000000000      1.0000000000
  end;

 # Basis set for element : C 
 NewGTO C 
 S 6 
   1   13575.3496820000      0.0006064549
   2    2035.2333680000      0.0046979088
   3     463.2256235900      0.0243324776
   4     131.2001959800      0.0973999683
   5      42.8530158910      0.3019558425
   6      15.5841857660      0.6623360915
 S 2 
   1       6.2067138508      0.6559530854
   2       2.5764896527      0.3758563329
 S 1 
   1       0.5769633942      1.0000000000
 S 1 
   1       0.2297283136      1.0000000000
 S 1 
   1       0.0951644400      1.0000000000
 P 4 
   1      34.6972322440      0.0113272200
   2       7.9582622826      0.0761696592
   3       2.3780826883      0.3019225220
   4       0.8143320818      0.7278502735
 P 1 
   1       0.2888754725      1.0000000000
 P 1 
   1       0.1005682367      1.0000000000
 D 1 
   1       1.0970000000      1.0000000000
 D 1 
   1       0.3180000000      1.0000000000
 F 1 
   1       0.7610000000      1.0000000000
  end;

 # Basis set for element : N 
 NewGTO N 
 S 6 
   1   19730.8006470000      0.0005862639
   2    2957.8958745000      0.0045428821
   3     673.2213359500      0.0235584136
   4     190.6824949400      0.0947091933
   5      62.2954418980      0.2971978492
   6      22.6541611820      0.6691624689
 S 2 
   1       8.9791477428      0.6459668363
   2       3.6863002370      0.3870057440
 S 1 
   1       0.8466007680      1.0000000000
 S 1 
   1       0.3364713377      1.0000000000
 S 1 
   1       0.1364765367      1.0000000000
 P 4 
   1      49.2003805100      0.0114488252
   2      11.3467905370      0.0784223379
   3       3.4273972411      0.3081809474
   4       1.1785525134      0.7202719637
 P 1 
   1       0.4164220497      1.0000000000
 P 1 
   1       0.1426082601      1.0000000000
 D 1 
   1       1.6540000000      1.0000000000
 D 1 
   1       0.4690000000      1.0000000000
 F 1 
   1       1.0930000000      1.0000000000
  end;

 # Basis set for element : O 
 NewGTO O 
 S 6 
   1   27032.3826310000      0.0005722733
   2    4052.3871392000      0.0044353233
   3     922.3272271000      0.0230201076
   4     261.2407098900      0.0928224906
   5      85.3546413510      0.2937850002
   6      31.0350352450      0.6740160450
 S 2 
   1      12.2608607280      0.6383993702
   2       4.9987076005      0.3953458713
 S 1 
   1       1.1703108158      1.0000000000
 S 1 
   1       0.4647474099      1.0000000000
 S 1 
   1       0.1850453636      1.0000000000
 P 4 
   1      63.2749548010      0.0120183321
   2      14.6270493790      0.0830054217
   3       4.4501223456      0.3199174393
   4       1.5275799647      0.7071554292
 P 1 
   1       0.5293511794      1.0000000000
 P 1 
   1       0.1747842127      1.0000000000
 D 1 
   1       2.3140000000      1.0000000000
 D 1 
   1       0.6450000000      1.0000000000
 F 1 
   1       1.4280000000      1.0000000000
  end;



           ************************************************************
           *        Program running with 48 parallel MPI-processes    *
           *              working on a common directory               *
           ************************************************************
------------------------------------------------------------------------------
                           ORCA GTO INTEGRAL CALCULATION
------------------------------------------------------------------------------

                         BASIS SET STATISTICS AND STARTUP INFO

 # of primitive gaussian shells          ... 1180
 # of primitive gaussian functions       ... 2540
 # of contracted shells                  ...  670
 # of contracted basis functions         ... 1730
 Highest angular momentum                ...    3
 Maximum contraction depth               ...    6
 Integral package used                   ... LIBINT
 Integral threshhold            Thresh   ...  2.500e-11
 Primitive cut-off              TCut     ...  2.500e-12


------------------------------ INTEGRAL EVALUATION ----------------------------


 * One electron integrals 
 Pre-screening matrix                    ... done
 Shell pair data                         ... done (   0.027 sec)



           ************************************************************
           *        Program running with 48 parallel MPI-processes    *
           *              working on a common directory               *
           ************************************************************
-------------------------------------------------------------------------------
                                 ORCA SCF
-------------------------------------------------------------------------------

------------
SCF SETTINGS
------------
Hamiltonian:
 Density Functional     Method          .... DFT(GTOs)
 Exchange Functional    Exchange        .... PBE
   PBE kappa parameter   XKappa         ....  0.804000
   PBE mue parameter    XMuePBE         ....  0.219520
 Correlation Functional Correlation     .... PBE
   PBE beta parameter  CBetaPBE         ....  0.066725
 LDA part of GGA corr.  LDAOpt          .... PW91-LDA
 Gradients option       PostSCFGGA      .... off
 Hybrid DFT is turned on
   Fraction HF Exchange ScalHFX         ....  0.250000
   Scaling of DF-GGA-X  ScalDFX         ....  0.750000
   Scaling of DF-GGA-C  ScalDFC         ....  1.000000
   Scaling of DF-LDA-C  ScalLDAC        ....  1.000000
   Perturbative correction              ....  0.000000
   Density functional embedding theory  .... OFF
   NL short-range parameter             ....  6.900000


General Settings:
 Integral files         IntName         .... _fe6dd_xtb_dft_sg80_1_0
 Hartree-Fock type      HFTyp           .... RHF
 Total Charge           Charge          ....    0
 Multiplicity           Mult            ....    1
 Number of Electrons    NEL             ....  338
 Basis Dimension        Dim             .... 1730
 Nuclear Repulsion      ENuc            ....   5332.7354801206 Eh

Convergence Acceleration:
 DIIS                   CNVDIIS         .... on
   Start iteration      DIISMaxIt       ....     0
   Startup error        DIISStart       ....  0.200000
   # of expansion vecs  DIISMaxEq       ....     5
   Bias factor          DIISBfac        ....   1.050
   Max. coefficient     DIISMaxC        ....  10.000
 Newton-Raphson         CNVNR           .... off
 SOSCF                  CNVSOSCF        .... on
   Start iteration      SOSCFMaxIt      ....   150
   Startup grad/error   SOSCFStart      ....  0.001000
 Level Shifting         CNVShift        .... on
   Level shift para.    LevelShift      ....    0.2500
   Turn off err/grad.   ShiftErr        ....    0.0000
 Zerner damping         CNVZerner       .... off
 Static damping         CNVDamp         .... on
   Fraction old density DampFac         ....    0.8500
   Max. Damping (<1)    DampMax         ....    0.9800
   Min. Damping (>=0)   DampMin         ....    0.0000
   Turn off err/grad.   DampErr         ....    0.0300
 Fernandez-Rico         CNVRico         .... off

SCF Procedure:
 Maximum # iterations   MaxIter         ....  2000
 SCF integral mode      SCFMode         .... Direct
   Integral package                     .... LIBINT
 Reset frequency        DirectResetFreq ....    20
 Integral Threshold     Thresh          ....  2.500e-11 Eh
 Primitive CutOff       TCut            ....  2.500e-12 Eh

Convergence Tolerance:
 Convergence Check Mode ConvCheckMode   .... Total+1el-Energy
 Convergence forced     ConvForced      .... 0
 Energy Change          TolE            ....  1.000e-08 Eh
 1-El. energy change                    ....  1.000e-05 Eh
 Orbital Gradient       TolG            ....  1.000e-05
 Orbital Rotation angle TolX            ....  1.000e-05
 DIIS Error             TolErr          ....  5.000e-07


Diagonalization of the overlap matrix:
Smallest eigenvalue                        ... 3.381e-06
Time for diagonalization                   ...    0.462 sec
Threshold for overlap eigenvalues          ... 1.000e-08
Number of eigenvalues below threshold      ... 0
Time for construction of square roots      ...    0.400 sec
Total time needed                          ...    0.873 sec

-------------------
DFT GRID GENERATION
-------------------

General Integration Accuracy     IntAcc      ...  5.340
Radial Grid Type                 RadialGrid  ... Gauss-Chebyshev
Angular Grid (max. acc.)         AngularGrid ... Lebedev-590
Angular grid pruning method      GridPruning ... 3 (G Style)
Weight generation scheme         WeightScheme... Becke
Basis function cutoff            BFCut       ...    1.0000e-11
Integration weight cutoff        WCut        ...    1.0000e-14
Grids for H and He will be reduced by one unit

# of grid points (after initial pruning)     ... 1154996 (   0.0 sec)
# of grid points (after weights+screening)   ... 986012 (   1.0 sec)
nearest neighbour list constructed           ...    0.0 sec
Grid point re-assignment to atoms done       ...    0.2 sec
Grid point division into batches done        ...   10.5 sec
Reduced shell lists constructed in   11.2 sec

Total number of grid points                  ...   986012
Total number of batches                      ...    15443
Average number of points per batch           ...       63
Average number of grid points per atom       ...    12325
Average number of shells per batch           ...   169.85 (25.35%)
Average number of basis functions per batch  ...   409.13 (23.65%)
Average number of large shells per batch     ...   100.39 (59.11%)
Average number of large basis fcns per batch ...   238.95 (58.41%)
Maximum spatial batch extension              ...  10.76, 12.15, 14.27 au
Average spatial batch extension              ...   0.04,  0.04,  0.04 au

Time for grid setup =   12.510 sec

------------------------------
INITIAL GUESS: MODEL POTENTIAL
------------------------------
Loading Hartree-Fock densities                     ... done
Calculating cut-offs                               ... done
Setting up the integral package                    ... done
Initializing the effective Hamiltonian             ... done
Starting the Coulomb interaction                   ... done (   0.3 sec)
Reading the grid                                   ... done
Mapping shells                                     ... done
Starting the XC term evaluation                    ... done (   0.7 sec)
  promolecular density results
     # of electrons  =    337.985274814
     EX              =   -276.410474143
     EC              =    -11.370978244
     EX+EC           =   -287.781452387
Transforming the Hamiltonian                       ... done (   0.2 sec)
Diagonalizing the Hamiltonian                      ... done (   0.4 sec)
Back transforming the eigenvectors                 ... done (   0.1 sec)
Now organizing SCF variables                       ... done
                      ------------------
                      INITIAL GUESS DONE (  14.5 sec)
                      ------------------
--------------
SCF ITERATIONS
--------------
ITER       Energy         Delta-E        Max-DP      RMS-DP      [F,P]     Damp
               ***  Starting incremental Fock matrix formation  ***
  0  -2061.5421101803   0.000000000000 0.17312590  0.00038012  0.1968773 0.8500
  1  -2061.7809905769  -0.238880396661 0.23344571  0.00049503  0.1442063 0.8500
                               ***Turning on DIIS***
  2  -2061.9451891277  -0.164198550779 0.17907412  0.00040503  0.0986445 0.8500
  3  -2062.0541742610  -0.108985133314 0.07039449  0.00020526  0.0666618 0.8500
  4  -2062.1348265419  -0.080652280877 0.02278334  0.00011486  0.0519452 0.8500
  5  -2062.1969509250  -0.062124383156 0.01165482  0.00008195  0.0430748 0.8500
  6  -2062.2471388934  -0.050187968330 0.01121011  0.00006700  0.0362538 0.8500
  7  -2062.2886786937  -0.041539800282 0.00950557  0.00005670  0.0306607 0.8500
  8  -2062.3235490330  -0.034870339321 0.05633401  0.00032580  0.0256187 0.0000
  9  -2062.5102028016  -0.186653768636 0.01769605  0.00004055  0.0035303 0.0000
 10  -2062.5103099560  -0.000107154425 0.00191444  0.00001155  0.0026992 0.0000
                      *** Initiating the SOSCF procedure ***
                           *** Shutting down DIIS ***
                      *** Re-Reading the Fockian *** 
                      *** Removing any level shift *** 
ITER      Energy       Delta-E        Grad      Rot      Max-DP    RMS-DP
 11  -2062.51038719  -0.0000772368  0.000114  0.000114  0.002331  0.000008
               *** Restarting incremental Fock matrix formation ***
 12  -2062.51039204  -0.0000048493  0.000062  0.000318  0.003245  0.000010
 13  -2062.51039019   0.0000018494  0.000128  0.000203  0.001069  0.000004
 14  -2062.51039287  -0.0000026723  0.000015  0.000053  0.003000  0.000007
 15  -2062.51039285   0.0000000181  0.000027  0.000038  0.002066  0.000005
 16  -2062.51039293  -0.0000000805  0.000003  0.000009  0.002659  0.000008
 17  -2062.51039295  -0.0000000179  0.000003  0.000004  0.001762  0.000003
                  ***Gradient check signals convergence***
              ***Rediagonalizing the Fockian in SOSCF/NRSCF***

               *****************************************************
               *                     SUCCESS                       *
               *           SCF CONVERGED AFTER  18 CYCLES          *
               *****************************************************


----------------
TOTAL SCF ENERGY
----------------

Total Energy       :        -2062.51039296 Eh          -56123.76107 eV

Components:
Nuclear Repulsion  :         5332.73548012 Eh          145111.10972 eV
Electronic Energy  :        -7395.24587308 Eh         -201234.87079 eV
One Electron Energy:       -13409.45146577 Eh         -364889.72502 eV
Two Electron Energy:         6014.20559269 Eh          163654.85423 eV

Virial components:
Potential Energy   :        -4114.46629563 Eh         -111960.31986 eV
Kinetic Energy     :         2051.95590267 Eh           55836.55879 eV
Virial Ratio       :            2.00514362


DFT components:
N(Alpha)           :      168.999986299939 electrons
N(Beta)            :      168.999986299939 electrons
N(Total)           :      337.999972599877 electrons
E(X)               :     -210.823164864567 Eh       
E(C)               :      -11.375424156572 Eh       
E(XC)              :     -222.198589021139 Eh       
DFET-embed. en.    :        0.000000000000 Eh       

---------------
SCF CONVERGENCE
---------------

  Last Energy change         ...   -1.5038e-08  Tolerance :   1.0000e-08
  Last MAX-Density change    ...    1.2735e-03  Tolerance :   1.0000e-07
  Last RMS-Density change    ...    3.5785e-06  Tolerance :   5.0000e-09
  Last Orbital Gradient      ...    5.6467e-07  Tolerance :   1.0000e-05
  Last Orbital Rotation      ...    2.8805e-06  Tolerance :   1.0000e-05

             **** THE GBW FILE WAS UPDATED (_fe6dd_xtb_dft_sg80_1_0.gbw) ****
             **** DENSITY FILE WAS UPDATED (_fe6dd_xtb_dft_sg80_1_0.scfp) ****
             **** ENERGY FILE WAS UPDATED (_fe6dd_xtb_dft_sg80_1_0.en.tmp) ****
             **** THE GBW FILE WAS UPDATED (_fe6dd_xtb_dft_sg80_1_0.gbw) ****
             **** DENSITY FILE WAS UPDATED (_fe6dd_xtb_dft_sg80_1_0.scfp) ****
----------------
ORBITAL ENERGIES
----------------

  NO   OCC          E(Eh)            E(eV) 
   0   2.0000     -19.256580      -523.9982 
   1   2.0000     -19.254377      -523.9382 
   2   2.0000     -14.386772      -391.4840 
   3   2.0000     -14.385456      -391.4481 
   4   2.0000     -14.383245      -391.3880 
   5   2.0000     -14.382662      -391.3721 
   6   2.0000     -10.313316      -280.6396 
   7   2.0000     -10.312103      -280.6066 
   8   2.0000     -10.271822      -279.5105 
   9   2.0000     -10.271387      -279.4987 
  10   2.0000     -10.270325      -279.4697 
  11   2.0000     -10.269903      -279.4583 
  12   2.0000     -10.266686      -279.3707 
  13   2.0000     -10.266129      -279.3556 
  14   2.0000     -10.260795      -279.2104 
  15   2.0000     -10.260675      -279.2072 
  16   2.0000     -10.259797      -279.1833 
  17   2.0000     -10.259052      -279.1630 
  18   2.0000     -10.258694      -279.1532 
  19   2.0000     -10.258046      -279.1356 
  20   2.0000     -10.257822      -279.1295 
  21   2.0000     -10.256934      -279.1054 
  22   2.0000     -10.256896      -279.1043 
  23   2.0000     -10.255061      -279.0544 
  24   2.0000     -10.254125      -279.0289 
  25   2.0000     -10.253578      -279.0140 
  26   2.0000     -10.253176      -279.0031 
  27   2.0000     -10.252368      -278.9811 
  28   2.0000     -10.252255      -278.9780 
  29   2.0000     -10.251752      -278.9644 
  30   2.0000     -10.249373      -278.8996 
  31   2.0000     -10.246471      -278.8207 
  32   2.0000     -10.245609      -278.7972 
  33   2.0000     -10.244220      -278.7594 
  34   2.0000     -10.243391      -278.7368 
  35   2.0000     -10.242156      -278.7032 
  36   2.0000     -10.241801      -278.6936 
  37   2.0000     -10.241300      -278.6799 
  38   2.0000     -10.239778      -278.6385 
  39   2.0000     -10.238996      -278.6172 
  40   2.0000     -10.226901      -278.2881 
  41   2.0000     -10.226422      -278.2751 
  42   2.0000     -10.226297      -278.2717 
  43   2.0000     -10.225771      -278.2574 
  44   2.0000     -10.225014      -278.2368 
  45   2.0000     -10.224431      -278.2209 
  46   2.0000     -10.223096      -278.1846 
  47   2.0000     -10.222769      -278.1757 
  48   2.0000     -10.222519      -278.1689 
  49   2.0000     -10.222445      -278.1669 
  50   2.0000      -1.120591       -30.4928 
  51   2.0000      -1.113706       -30.3055 
  52   2.0000      -0.987202       -26.8631 
  53   2.0000      -0.985625       -26.8202 
  54   2.0000      -0.953985       -25.9593 
  55   2.0000      -0.952762       -25.9260 
  56   2.0000      -0.928066       -25.2539 
  57   2.0000      -0.917059       -24.9545 
  58   2.0000      -0.877142       -23.8682 
  59   2.0000      -0.875429       -23.8216 
  60   2.0000      -0.870134       -23.6776 
  61   2.0000      -0.869037       -23.6477 
  62   2.0000      -0.856217       -23.2989 
  63   2.0000      -0.836143       -22.7526 
  64   2.0000      -0.829288       -22.5661 
  65   2.0000      -0.816006       -22.2047 
  66   2.0000      -0.812258       -22.1027 
  67   2.0000      -0.801362       -21.8062 
  68   2.0000      -0.780889       -21.2491 
  69   2.0000      -0.779259       -21.2047 
  70   2.0000      -0.768179       -20.9032 
  71   2.0000      -0.767683       -20.8897 
  72   2.0000      -0.767171       -20.8758 
  73   2.0000      -0.758495       -20.6397 
  74   2.0000      -0.753162       -20.4946 
  75   2.0000      -0.743613       -20.2347 
  76   2.0000      -0.701042       -19.0763 
  77   2.0000      -0.696149       -18.9432 
  78   2.0000      -0.691340       -18.8123 
  79   2.0000      -0.669778       -18.2256 
  80   2.0000      -0.663866       -18.0647 
  81   2.0000      -0.655352       -17.8330 
  82   2.0000      -0.647140       -17.6096 
  83   2.0000      -0.646360       -17.5884 
  84   2.0000      -0.642196       -17.4750 
  85   2.0000      -0.627201       -17.0670 
  86   2.0000      -0.625936       -17.0326 
  87   2.0000      -0.620087       -16.8734 
  88   2.0000      -0.618551       -16.8316 
  89   2.0000      -0.613540       -16.6953 
  90   2.0000      -0.588443       -16.0123 
  91   2.0000      -0.587975       -15.9996 
  92   2.0000      -0.584686       -15.9101 
  93   2.0000      -0.584209       -15.8971 
  94   2.0000      -0.559609       -15.2277 
  95   2.0000      -0.555675       -15.1207 
  96   2.0000      -0.553225       -15.0540 
  97   2.0000      -0.544750       -14.8234 
  98   2.0000      -0.544107       -14.8059 
  99   2.0000      -0.539588       -14.6829 
 100   2.0000      -0.525420       -14.2974 
 101   2.0000      -0.518638       -14.1129 
 102   2.0000      -0.505392       -13.7524 
 103   2.0000      -0.503902       -13.7119 
 104   2.0000      -0.495458       -13.4821 
 105   2.0000      -0.493259       -13.4223 
 106   2.0000      -0.489704       -13.3255 
 107   2.0000      -0.487626       -13.2690 
 108   2.0000      -0.481539       -13.1033 
 109   2.0000      -0.477869       -13.0035 
 110   2.0000      -0.476164       -12.9571 
 111   2.0000      -0.471328       -12.8255 
 112   2.0000      -0.470793       -12.8109 
 113   2.0000      -0.470078       -12.7915 
 114   2.0000      -0.466781       -12.7018 
 115   2.0000      -0.461591       -12.5605 
 116   2.0000      -0.457432       -12.4474 
 117   2.0000      -0.452646       -12.3171 
 118   2.0000      -0.452102       -12.3023 
 119   2.0000      -0.446547       -12.1512 
 120   2.0000      -0.446035       -12.1372 
 121   2.0000      -0.442349       -12.0369 
 122   2.0000      -0.441481       -12.0133 
 123   2.0000      -0.435772       -11.8580 
 124   2.0000      -0.433843       -11.8055 
 125   2.0000      -0.431304       -11.7364 
 126   2.0000      -0.429895       -11.6980 
 127   2.0000      -0.427834       -11.6419 
 128   2.0000      -0.424780       -11.5588 
 129   2.0000      -0.421892       -11.4803 
 130   2.0000      -0.419416       -11.4129 
 131   2.0000      -0.415239       -11.2992 
 132   2.0000      -0.412328       -11.2200 
 133   2.0000      -0.406036       -11.0488 
 134   2.0000      -0.401151       -10.9159 
 135   2.0000      -0.398742       -10.8503 
 136   2.0000      -0.394823       -10.7437 
 137   2.0000      -0.383551       -10.4370 
 138   2.0000      -0.383365       -10.4319 
 139   2.0000      -0.372999       -10.1498 
 140   2.0000      -0.371243       -10.1020 
 141   2.0000      -0.370402       -10.0791 
 142   2.0000      -0.369650       -10.0587 
 143   2.0000      -0.367745       -10.0068 
 144   2.0000      -0.361626        -9.8403 
 145   2.0000      -0.361089        -9.8257 
 146   2.0000      -0.352619        -9.5952 
 147   2.0000      -0.350814        -9.5461 
 148   2.0000      -0.348832        -9.4922 
 149   2.0000      -0.339081        -9.2269 
 150   2.0000      -0.337116        -9.1734 
 151   2.0000      -0.319194        -8.6857 
 152   2.0000      -0.311630        -8.4799 
 153   2.0000      -0.308431        -8.3928 
 154   2.0000      -0.304975        -8.2988 
 155   2.0000      -0.302393        -8.2285 
 156   2.0000      -0.301705        -8.2098 
 157   2.0000      -0.285197        -7.7606 
 158   2.0000      -0.283606        -7.7173 
 159   2.0000      -0.272587        -7.4175 
 160   2.0000      -0.270205        -7.3526 
 161   2.0000      -0.265217        -7.2169 
 162   2.0000      -0.264581        -7.1996 
 163   2.0000      -0.254444        -6.9238 
 164   2.0000      -0.248552        -6.7635 
 165   2.0000      -0.242616        -6.6019 
 166   2.0000      -0.238392        -6.4870 
 167   2.0000      -0.228687        -6.2229 
 168   2.0000      -0.227902        -6.2015 
 169   0.0000      -0.080441        -2.1889 
 170   0.0000      -0.078291        -2.1304 
 171   0.0000      -0.057270        -1.5584 
 172   0.0000      -0.054336        -1.4785 
 173   0.0000      -0.030238        -0.8228 
 174   0.0000      -0.028677        -0.7803 
 175   0.0000      -0.027043        -0.7359 
 176   0.0000      -0.022436        -0.6105 
 177   0.0000      -0.005725        -0.1558 
 178   0.0000      -0.004784        -0.1302 
 179   0.0000       0.000017         0.0005 
 180   0.0000       0.004964         0.1351 
 181   0.0000       0.006271         0.1707 
 182   0.0000       0.008276         0.2252 
 183   0.0000       0.028031         0.7627 
 184   0.0000       0.035955         0.9784 
 185   0.0000       0.038050         1.0354 
 186   0.0000       0.047952         1.3048 
 187   0.0000       0.050155         1.3648 
 188   0.0000       0.053142         1.4461 
 189   0.0000       0.056800         1.5456 
 190   0.0000       0.060293         1.6407 
 191   0.0000       0.063421         1.7258 
 192   0.0000       0.065046         1.7700 
 193   0.0000       0.068418         1.8618 
 194   0.0000       0.069455         1.8900 
 195   0.0000       0.078743         2.1427 
 196   0.0000       0.079542         2.1645 
 197   0.0000       0.086167         2.3447 
 198   0.0000       0.086745         2.3605 
 199   0.0000       0.089151         2.4259 
 200   0.0000       0.092271         2.5108 
 201   0.0000       0.093451         2.5429 
 202   0.0000       0.097317         2.6481 
 203   0.0000       0.098491         2.6801 
 204   0.0000       0.099305         2.7022 
 205   0.0000       0.106409         2.8955 
 206   0.0000       0.106850         2.9075 
 207   0.0000       0.110248         3.0000 
 208   0.0000       0.113377         3.0852 
 209   0.0000       0.113940         3.1005 
 210   0.0000       0.115300         3.1375 
 211   0.0000       0.120453         3.2777 
 212   0.0000       0.121756         3.3132 
 213   0.0000       0.122899         3.3442 
 214   0.0000       0.125857         3.4247 
 215   0.0000       0.127526         3.4702 
 216   0.0000       0.128335         3.4922 
 217   0.0000       0.131930         3.5900 
 218   0.0000       0.136630         3.7179 
 219   0.0000       0.138724         3.7749 
 220   0.0000       0.141531         3.8513 
 221   0.0000       0.147141         4.0039 
 222   0.0000       0.148504         4.0410 
 223   0.0000       0.153291         4.1713 
 224   0.0000       0.154599         4.2069 
 225   0.0000       0.156524         4.2592 
 226   0.0000       0.160369         4.3639 
 227   0.0000       0.161971         4.4074 
 228   0.0000       0.165122         4.4932 
 229   0.0000       0.167759         4.5650 
 230   0.0000       0.168916         4.5964 
 231   0.0000       0.177355         4.8261 
 232   0.0000       0.180385         4.9085 
 233   0.0000       0.183416         4.9910 
 234   0.0000       0.185842         5.0570 
 235   0.0000       0.187829         5.1111 
 236   0.0000       0.190487         5.1834 
 237   0.0000       0.195903         5.3308 
 238   0.0000       0.196646         5.3510 
 239   0.0000       0.200080         5.4444 
 240   0.0000       0.202507         5.5105 
 241   0.0000       0.203859         5.5473 
 242   0.0000       0.205720         5.5979 
 243   0.0000       0.206147         5.6095 
 244   0.0000       0.210988         5.7413 
 245   0.0000       0.214178         5.8281 
 246   0.0000       0.215573         5.8660 
 247   0.0000       0.217367         5.9149 
 248   0.0000       0.219059         5.9609 
 249   0.0000       0.222201         6.0464 
 250   0.0000       0.222953         6.0669 
 251   0.0000       0.223913         6.0930 
 252   0.0000       0.226419         6.1612 
 253   0.0000       0.227056         6.1785 
 254   0.0000       0.228713         6.2236 
 255   0.0000       0.231217         6.2917 
 256   0.0000       0.231902         6.3104 
 257   0.0000       0.235243         6.4013 
 258   0.0000       0.238017         6.4768 
 259   0.0000       0.239575         6.5192 
 260   0.0000       0.241462         6.5705 
 261   0.0000       0.243561         6.6276 
 262   0.0000       0.244748         6.6599 
 263   0.0000       0.246088         6.6964 
 264   0.0000       0.248132         6.7520 
 265   0.0000       0.249353         6.7852 
 266   0.0000       0.251537         6.8447 
 267   0.0000       0.252383         6.8677 
 268   0.0000       0.254937         6.9372 
 269   0.0000       0.256587         6.9821 
 270   0.0000       0.257222         6.9994 
 271   0.0000       0.258168         7.0251 
 272   0.0000       0.261515         7.1162 
 273   0.0000       0.263130         7.1601 
 274   0.0000       0.265872         7.2347 
 275   0.0000       0.266402         7.2492 
 276   0.0000       0.268687         7.3113 
 277   0.0000       0.269611         7.3365 
 278   0.0000       0.273532         7.4432 
 279   0.0000       0.274252         7.4628 
 280   0.0000       0.274812         7.4780 
 281   0.0000       0.279429         7.6036 
 282   0.0000       0.281035         7.6473 
 283   0.0000       0.282106         7.6765 
 284   0.0000       0.284774         7.7491 
 285   0.0000       0.287726         7.8294 
 286   0.0000       0.288306         7.8452 
 287   0.0000       0.292837         7.9685 
 288   0.0000       0.295435         8.0392 
 289   0.0000       0.298225         8.1151 
 290   0.0000       0.298856         8.1323 
 291   0.0000       0.299235         8.1426 
 292   0.0000       0.303902         8.2696 
 293   0.0000       0.305564         8.3148 
 294   0.0000       0.308232         8.3874 
 295   0.0000       0.309993         8.4353 
 296   0.0000       0.310776         8.4567 
 297   0.0000       0.315170         8.5762 
 298   0.0000       0.317955         8.6520 
 299   0.0000       0.318458         8.6657 
 300   0.0000       0.319023         8.6811 
 301   0.0000       0.322428         8.7737 
 302   0.0000       0.325370         8.8538 
 303   0.0000       0.326624         8.8879 
 304   0.0000       0.328372         8.9355 
 305   0.0000       0.330412         8.9910 
 306   0.0000       0.332499         9.0478 
 307   0.0000       0.334711         9.1079 
 308   0.0000       0.336548         9.1579 
 309   0.0000       0.338145         9.2014 
 310   0.0000       0.341743         9.2993 
 311   0.0000       0.344037         9.3617 
 312   0.0000       0.344911         9.3855 
 313   0.0000       0.346779         9.4363 
 314   0.0000       0.347828         9.4649 
 315   0.0000       0.349490         9.5101 
 316   0.0000       0.353588         9.6216 
 317   0.0000       0.354146         9.6368 
 318   0.0000       0.355045         9.6613 
 319   0.0000       0.357426         9.7261 
 320   0.0000       0.359787         9.7903 
 321   0.0000       0.360408         9.8072 
 322   0.0000       0.361573         9.8389 
 323   0.0000       0.363385         9.8882 
 324   0.0000       0.364142         9.9088 
 325   0.0000       0.367699        10.0056 
 326   0.0000       0.368701        10.0329 
 327   0.0000       0.372035        10.1236 
 328   0.0000       0.373100        10.1526 
 329   0.0000       0.375409        10.2154 
 330   0.0000       0.376721        10.2511 
 331   0.0000       0.379941        10.3387 
 332   0.0000       0.380794        10.3619 
 333   0.0000       0.383040        10.4230 
 334   0.0000       0.386227        10.5098 
 335   0.0000       0.389221        10.5912 
 336   0.0000       0.389759        10.6059 
 337   0.0000       0.393656        10.7119 
 338   0.0000       0.394222        10.7273 
 339   0.0000       0.395530        10.7629 
 340   0.0000       0.398946        10.8559 
 341   0.0000       0.400455        10.8969 
 342   0.0000       0.402346        10.9484 
 343   0.0000       0.402860        10.9624 
 344   0.0000       0.404790        11.0149 
 345   0.0000       0.407492        11.0884 
 346   0.0000       0.409920        11.1545 
 347   0.0000       0.410952        11.1826 
 348   0.0000       0.413288        11.2461 
 349   0.0000       0.413675        11.2567 
 350   0.0000       0.418180        11.3793 
 351   0.0000       0.418266        11.3816 
 352   0.0000       0.421534        11.4705 
 353   0.0000       0.421925        11.4812 
 354   0.0000       0.423882        11.5344 
 355   0.0000       0.425778        11.5860 
 356   0.0000       0.427849        11.6424 
 357   0.0000       0.429369        11.6837 
 358   0.0000       0.431467        11.7408 
 359   0.0000       0.431751        11.7485 
 360   0.0000       0.433813        11.8047 
 361   0.0000       0.436737        11.8842 
 362   0.0000       0.437673        11.9097 
 363   0.0000       0.440644        11.9905 
 364   0.0000       0.442239        12.0339 
 365   0.0000       0.445300        12.1172 
 366   0.0000       0.447553        12.1785 
 367   0.0000       0.448074        12.1927 
 368   0.0000       0.449349        12.2274 
 369   0.0000       0.456259        12.4155 
 370   0.0000       0.457979        12.4622 
 371   0.0000       0.460257        12.5242 
 372   0.0000       0.463612        12.6155 
 373   0.0000       0.464919        12.6511 
 374   0.0000       0.465917        12.6782 
 375   0.0000       0.467752        12.7282 
 376   0.0000       0.468220        12.7409 
 377   0.0000       0.471980        12.8432 
 378   0.0000       0.473027        12.8717 
 379   0.0000       0.474727        12.9180 
 380   0.0000       0.478256        13.0140 
 381   0.0000       0.478774        13.0281 
 382   0.0000       0.479718        13.0538 
 383   0.0000       0.482339        13.1251 
 384   0.0000       0.483111        13.1461 
 385   0.0000       0.489879        13.3303 
 386   0.0000       0.491294        13.3688 
 387   0.0000       0.493383        13.4256 
 388   0.0000       0.495749        13.4900 
 389   0.0000       0.498113        13.5543 
 390   0.0000       0.499875        13.6023 
 391   0.0000       0.504203        13.7201 
 392   0.0000       0.506329        13.7779 
 393   0.0000       0.507965        13.8224 
 394   0.0000       0.508325        13.8322 
 395   0.0000       0.509697        13.8696 
 396   0.0000       0.511106        13.9079 
 397   0.0000       0.513675        13.9778 
 398   0.0000       0.514410        13.9978 
 399   0.0000       0.517440        14.0803 
 400   0.0000       0.520383        14.1603 
 401   0.0000       0.523627        14.2486 
 402   0.0000       0.524850        14.2819 
 403   0.0000       0.527050        14.3417 
 404   0.0000       0.528661        14.3856 
 405   0.0000       0.529051        14.3962 
 406   0.0000       0.532444        14.4885 
 407   0.0000       0.535406        14.5691 
 408   0.0000       0.536631        14.6025 
 409   0.0000       0.540095        14.6967 
 410   0.0000       0.542580        14.7644 
 411   0.0000       0.548511        14.9258 
 412   0.0000       0.550551        14.9812 
 413   0.0000       0.552329        15.0296 
 414   0.0000       0.557366        15.1667 
 415   0.0000       0.561340        15.2748 
 416   0.0000       0.562354        15.3024 
 417   0.0000       0.567102        15.4316 
 418   0.0000       0.567323        15.4376 
 419   0.0000       0.573620        15.6090 
 420   0.0000       0.576918        15.6987 
 421   0.0000       0.582832        15.8597 
 422   0.0000       0.584722        15.9111 
 423   0.0000       0.586893        15.9702 
 424   0.0000       0.591137        16.0856 
 425   0.0000       0.594025        16.1643 
 426   0.0000       0.595714        16.2102 
 427   0.0000       0.595777        16.2119 
 428   0.0000       0.599160        16.3040 
 429   0.0000       0.605808        16.4849 
 430   0.0000       0.609640        16.5892 
 431   0.0000       0.611852        16.6493 
 432   0.0000       0.613859        16.7040 
 433   0.0000       0.615941        16.7606 
 434   0.0000       0.621115        16.9014 
 435   0.0000       0.624164        16.9844 
 436   0.0000       0.629234        17.1223 
 437   0.0000       0.634005        17.2522 
 438   0.0000       0.636986        17.3333 
 439   0.0000       0.640872        17.4390 
 440   0.0000       0.643666        17.5150 
 441   0.0000       0.644801        17.5459 
 442   0.0000       0.647547        17.6207 
 443   0.0000       0.650493        17.7008 
 444   0.0000       0.651547        17.7295 
 445   0.0000       0.655587        17.8394 
 446   0.0000       0.657056        17.8794 
 447   0.0000       0.662564        18.0293 
 448   0.0000       0.664957        18.0944 
 449   0.0000       0.665350        18.1051 
 450   0.0000       0.666159        18.1271 
 451   0.0000       0.670315        18.2402 
 452   0.0000       0.671935        18.2843 
 453   0.0000       0.672324        18.2949 
 454   0.0000       0.675148        18.3717 
 455   0.0000       0.675768        18.3886 
 456   0.0000       0.680965        18.5300 
 457   0.0000       0.686974        18.6935 
 458   0.0000       0.688086        18.7238 
 459   0.0000       0.689094        18.7512 
 460   0.0000       0.690455        18.7882 
 461   0.0000       0.694461        18.8972 
 462   0.0000       0.695517        18.9260 
 463   0.0000       0.696919        18.9641 
 464   0.0000       0.698692        19.0124 
 465   0.0000       0.702399        19.1133 
 466   0.0000       0.704535        19.1714 
 467   0.0000       0.708628        19.2828 
 468   0.0000       0.709817        19.3151 
 469   0.0000       0.710830        19.3427 
 470   0.0000       0.711892        19.3716 
 471   0.0000       0.714413        19.4402 
 472   0.0000       0.715058        19.4577 
 473   0.0000       0.717132        19.5141 
 474   0.0000       0.719638        19.5823 
 475   0.0000       0.721305        19.6277 
 476   0.0000       0.722861        19.6701 
 477   0.0000       0.728370        19.8200 
 478   0.0000       0.730320        19.8730 
 479   0.0000       0.730933        19.8897 
 480   0.0000       0.731113        19.8946 
 481   0.0000       0.733238        19.9524 
 482   0.0000       0.735287        20.0082 
 483   0.0000       0.736961        20.0537 
 484   0.0000       0.740557        20.1516 
 485   0.0000       0.741362        20.1735 
 486   0.0000       0.744016        20.2457 
 487   0.0000       0.747184        20.3319 
 488   0.0000       0.749971        20.4077 
 489   0.0000       0.753584        20.5061 
 490   0.0000       0.756409        20.5829 
 491   0.0000       0.757947        20.6248 
 492   0.0000       0.758846        20.6492 
 493   0.0000       0.762120        20.7383 
 494   0.0000       0.765319        20.8254 
 495   0.0000       0.767571        20.8867 
 496   0.0000       0.771542        20.9947 
 497   0.0000       0.772123        21.0105 
 498   0.0000       0.774869        21.0853 
 499   0.0000       0.778332        21.1795 
 500   0.0000       0.780003        21.2250 
 501   0.0000       0.781961        21.2782 
 502   0.0000       0.785722        21.3806 
 503   0.0000       0.789332        21.4788 
 504   0.0000       0.791507        21.5380 
 505   0.0000       0.793218        21.5846 
 506   0.0000       0.794250        21.6126 
 507   0.0000       0.798572        21.7303 
 508   0.0000       0.799921        21.7669 
 509   0.0000       0.803490        21.8641 
 510   0.0000       0.804899        21.9024 
 511   0.0000       0.809063        22.0157 
 512   0.0000       0.810819        22.0635 
 513   0.0000       0.811344        22.0778 
 514   0.0000       0.816180        22.2094 
 515   0.0000       0.818812        22.2810 
 516   0.0000       0.822923        22.3929 
 517   0.0000       0.825323        22.4582 
 518   0.0000       0.827807        22.5258 
 519   0.0000       0.831105        22.6155 
 520   0.0000       0.835337        22.7307 
 521   0.0000       0.836341        22.7580 
 522   0.0000       0.839640        22.8478 
 523   0.0000       0.843446        22.9513 
 524   0.0000       0.845758        23.0142 
 525   0.0000       0.849511        23.1164 
 526   0.0000       0.851802        23.1787 
 527   0.0000       0.852300        23.1923 
 528   0.0000       0.853479        23.2244 
 529   0.0000       0.858067        23.3492 
 530   0.0000       0.859172        23.3793 
 531   0.0000       0.862300        23.4644 
 532   0.0000       0.864958        23.5367 
 533   0.0000       0.866863        23.5885 
 534   0.0000       0.868624        23.6365 
 535   0.0000       0.872686        23.7470 
 536   0.0000       0.878082        23.8938 
 537   0.0000       0.882195        24.0058 
 538   0.0000       0.884892        24.0791 
 539   0.0000       0.889006        24.1911 
 540   0.0000       0.889777        24.2121 
 541   0.0000       0.892860        24.2959 
 542   0.0000       0.895681        24.3727 
 543   0.0000       0.899398        24.4739 
 544   0.0000       0.900018        24.4907 
 545   0.0000       0.902346        24.5541 
 546   0.0000       0.902768        24.5656 
 547   0.0000       0.905151        24.6304 
 548   0.0000       0.909279        24.7427 
 549   0.0000       0.910927        24.7876 
 550   0.0000       0.914052        24.8726 
 551   0.0000       0.919565        25.0226 
 552   0.0000       0.923575        25.1318 
 553   0.0000       0.926626        25.2148 
 554   0.0000       0.929185        25.2844 
 555   0.0000       0.934642        25.4329 
 556   0.0000       0.936524        25.4841 
 557   0.0000       0.942079        25.6353 
 558   0.0000       0.945227        25.7209 
 559   0.0000       0.950310        25.8593 
 560   0.0000       0.954552        25.9747 
 561   0.0000       0.962807        26.1993 
 562   0.0000       0.968229        26.3468 
 563   0.0000       0.976065        26.5601 
 564   0.0000       0.979179        26.6448 
 565   0.0000       0.981933        26.7198 
 566   0.0000       0.985377        26.8135 
 567   0.0000       0.991791        26.9880 
 568   0.0000       0.993274        27.0284 
 569   0.0000       0.997401        27.1407 
 570   0.0000       1.002129        27.2693 
 571   0.0000       1.004642        27.3377 
 572   0.0000       1.007047        27.4031 
 573   0.0000       1.010584        27.4994 
 574   0.0000       1.011445        27.5228 
 575   0.0000       1.019557        27.7436 
 576   0.0000       1.023407        27.8483 
 577   0.0000       1.024735        27.8845 
 578   0.0000       1.029134        28.0042 
 579   0.0000       1.035107        28.1667 
 580   0.0000       1.037587        28.2342 
 581   0.0000       1.042882        28.3782 
 582   0.0000       1.044181        28.4136 
 583   0.0000       1.048115        28.5207 
 584   0.0000       1.051618        28.6160 
 585   0.0000       1.055806        28.7299 
 586   0.0000       1.057837        28.7852 
 587   0.0000       1.068308        29.0701 
 588   0.0000       1.070995        29.1432 
 589   0.0000       1.075170        29.2569 
 590   0.0000       1.076582        29.2953 
 591   0.0000       1.077935        29.3321 
 592   0.0000       1.082943        29.4684 
 593   0.0000       1.084500        29.5108 
 594   0.0000       1.084785        29.5185 
 595   0.0000       1.089940        29.6588 
 596   0.0000       1.093670        29.7603 
 597   0.0000       1.100645        29.9501 
 598   0.0000       1.103912        30.0390 
 599   0.0000       1.109025        30.1781 
 600   0.0000       1.115383        30.3511 
 601   0.0000       1.121679        30.5224 
 602   0.0000       1.125512        30.6267 
 603   0.0000       1.126223        30.6461 
 604   0.0000       1.134930        30.8830 
 605   0.0000       1.136767        30.9330 
 606   0.0000       1.141422        31.0597 
 607   0.0000       1.142473        31.0883 
 608   0.0000       1.149556        31.2810 
 609   0.0000       1.153259        31.3818 
 610   0.0000       1.154367        31.4119 
 611   0.0000       1.160651        31.5829 
 612   0.0000       1.168422        31.7944 
 613   0.0000       1.172695        31.9107 
 614   0.0000       1.174117        31.9493 
 615   0.0000       1.177910        32.0526 
 616   0.0000       1.178391        32.0657 
 617   0.0000       1.182955        32.1898 
 618   0.0000       1.189289        32.3622 
 619   0.0000       1.193116        32.4663 
 620   0.0000       1.197349        32.5815 
 621   0.0000       1.198603        32.6156 
 622   0.0000       1.208464        32.8840 
 623   0.0000       1.209360        32.9083 
 624   0.0000       1.212696        32.9991 
 625   0.0000       1.213871        33.0311 
 626   0.0000       1.217777        33.1374 
 627   0.0000       1.217999        33.1434 
 628   0.0000       1.219255        33.1776 
 629   0.0000       1.220823        33.2203 
 630   0.0000       1.222917        33.2773 
 631   0.0000       1.226090        33.3636 
 632   0.0000       1.231803        33.5191 
 633   0.0000       1.233220        33.5576 
 634   0.0000       1.233820        33.5739 
 635   0.0000       1.236221        33.6393 
 636   0.0000       1.238029        33.6885 
 637   0.0000       1.243495        33.8372 
 638   0.0000       1.246425        33.9170 
 639   0.0000       1.247510        33.9465 
 640   0.0000       1.248341        33.9691 
 641   0.0000       1.252328        34.0776 
 642   0.0000       1.257763        34.2255 
 643   0.0000       1.259833        34.2818 
 644   0.0000       1.262188        34.3459 
 645   0.0000       1.264107        34.3981 
 646   0.0000       1.268774        34.5251 
 647   0.0000       1.271865        34.6092 
 648   0.0000       1.273277        34.6476 
 649   0.0000       1.275705        34.7137 
 650   0.0000       1.278892        34.8004 
 651   0.0000       1.283668        34.9304 
 652   0.0000       1.286130        34.9974 
 653   0.0000       1.286720        35.0134 
 654   0.0000       1.289830        35.0981 
 655   0.0000       1.290466        35.1154 
 656   0.0000       1.294281        35.2192 
 657   0.0000       1.299872        35.3713 
 658   0.0000       1.302179        35.4341 
 659   0.0000       1.303679        35.4749 
 660   0.0000       1.306149        35.5421 
 661   0.0000       1.309542        35.6345 
 662   0.0000       1.311491        35.6875 
 663   0.0000       1.314304        35.7640 
 664   0.0000       1.322669        35.9917 
 665   0.0000       1.329985        36.1907 
 666   0.0000       1.335642        36.3447 
 667   0.0000       1.343443        36.5569 
 668   0.0000       1.348229        36.6872 
 669   0.0000       1.350526        36.7497 
 670   0.0000       1.356455        36.9110 
 671   0.0000       1.359826        37.0027 
 672   0.0000       1.364157        37.1206 
 673   0.0000       1.367061        37.1996 
 674   0.0000       1.371699        37.3258 
 675   0.0000       1.375234        37.4220 
 676   0.0000       1.378742        37.5175 
 677   0.0000       1.380653        37.5695 
 678   0.0000       1.387356        37.7519 
 679   0.0000       1.391574        37.8666 
 680   0.0000       1.395055        37.9614 
 681   0.0000       1.398775        38.0626 
 682   0.0000       1.405072        38.2340 
 683   0.0000       1.406168        38.2638 
 684   0.0000       1.408066        38.3154 
 685   0.0000       1.411498        38.4088 
 686   0.0000       1.418323        38.5945 
 687   0.0000       1.419479        38.6260 
 688   0.0000       1.423942        38.7474 
 689   0.0000       1.425811        38.7983 
 690   0.0000       1.429086        38.8874 
 691   0.0000       1.431606        38.9560 
 692   0.0000       1.434669        39.0393 
 693   0.0000       1.436411        39.0867 
 694   0.0000       1.439651        39.1749 
 695   0.0000       1.447687        39.3936 
 696   0.0000       1.450113        39.4596 
 697   0.0000       1.453521        39.5523 
 698   0.0000       1.456094        39.6223 
 699   0.0000       1.461763        39.7766 
 700   0.0000       1.462335        39.7922 
 701   0.0000       1.466972        39.9183 
 702   0.0000       1.469951        39.9994 
 703   0.0000       1.471867        40.0515 
 704   0.0000       1.477669        40.2094 
 705   0.0000       1.478376        40.2287 
 706   0.0000       1.480624        40.2898 
 707   0.0000       1.484564        40.3970 
 708   0.0000       1.485163        40.4133 
 709   0.0000       1.487791        40.4848 
 710   0.0000       1.489858        40.5411 
 711   0.0000       1.491981        40.5989 
 712   0.0000       1.495579        40.6968 
 713   0.0000       1.497569        40.7509 
 714   0.0000       1.501579        40.8600 
 715   0.0000       1.504672        40.9442 
 716   0.0000       1.510093        41.0917 
 717   0.0000       1.519501        41.3477 
 718   0.0000       1.520834        41.3840 
 719   0.0000       1.523753        41.4634 
 720   0.0000       1.524699        41.4892 
 721   0.0000       1.526723        41.5442 
 722   0.0000       1.529423        41.6177 
 723   0.0000       1.533288        41.7229 
 724   0.0000       1.536064        41.7984 
 725   0.0000       1.538936        41.8766 
 726   0.0000       1.544627        42.0314 
 727   0.0000       1.547370        42.1061 
 728   0.0000       1.552062        42.2338 
 729   0.0000       1.558808        42.4173 
 730   0.0000       1.559398        42.4334 
 731   0.0000       1.561598        42.4933 
 732   0.0000       1.564197        42.5640 
 733   0.0000       1.566980        42.6397 
 734   0.0000       1.570755        42.7424 
 735   0.0000       1.572100        42.7790 
 736   0.0000       1.575077        42.8600 
 737   0.0000       1.575724        42.8776 
 738   0.0000       1.579841        42.9897 
 739   0.0000       1.583994        43.1027 
 740   0.0000       1.584570        43.1183 
 741   0.0000       1.589778        43.2601 
 742   0.0000       1.591813        43.3154 
[...]
      f+3     :     0.005587
      f-3     :     0.006098
 67 C s       :     2.713275  s :     2.713275
      pz      :     0.865246  p :     2.816015
      px      :     0.905520
      py      :     1.045249
      dz2     :     0.059314  d :     0.603523
      dxz     :     0.108301
      dyz     :     0.077944
      dx2y2   :     0.193223
      dxy     :     0.164742
      f0      :     0.005304  f :     0.072961
      f+1     :     0.007913
      f-1     :     0.004750
      f+2     :     0.012232
      f-2     :     0.007446
      f+3     :     0.011513
      f-3     :     0.023802
 68 C s       :     2.703303  s :     2.703303
      pz      :     0.850231  p :     2.714834
      px      :     0.846892
      py      :     1.017710
      dz2     :     0.199312  d :     0.689410
      dxz     :     0.146667
      dyz     :     0.177145
      dx2y2   :     0.080606
      dxy     :     0.085680
      f0      :     0.022715  f :     0.096782
      f+1     :     0.016599
      f-1     :     0.025278
      f+2     :     0.009258
      f-2     :     0.011287
      f+3     :     0.005599
      f-3     :     0.006046
 69 C s       :     2.701537  s :     2.701537
      pz      :     0.841326  p :     2.717516
      px      :     0.947312
      py      :     0.928878
      dz2     :     0.091772  d :     0.694822
      dxz     :     0.133748
      dyz     :     0.096297
      dx2y2   :     0.180217
      dxy     :     0.192789
      f0      :     0.007261  f :     0.098800
      f+1     :     0.011296
      f-1     :     0.009911
      f+2     :     0.013844
      f-2     :     0.014636
      f+3     :     0.022006
      f-3     :     0.019846
 70 C s       :     2.701346  s :     2.701346
      pz      :     0.909116  p :     2.841377
      px      :     1.034207
      py      :     0.898054
      dz2     :     0.085755  d :     0.507651
      dxz     :     0.118970
      dyz     :     0.076362
      dx2y2   :     0.118114
      dxy     :     0.108450
      f0      :     0.007204  f :     0.056738
      f+1     :     0.008228
      f-1     :     0.005786
      f+2     :     0.007241
      f-2     :     0.010567
      f+3     :     0.011121
      f-3     :     0.006590
 71 C s       :     2.701142  s :     2.701142
      pz      :     1.016919  p :     2.841404
      px      :     0.941058
      py      :     0.883427
      dz2     :     0.122348  d :     0.507104
      dxz     :     0.137779
      dyz     :     0.086267
      dx2y2   :     0.081000
      dxy     :     0.079710
      f0      :     0.010419  f :     0.056223
      f+1     :     0.009155
      f-1     :     0.007654
      f+2     :     0.009874
      f-2     :     0.007395
      f+3     :     0.005719
      f-3     :     0.006008
 72 C s       :     2.688529  s :     2.688529
      pz      :     0.988003  p :     2.836478
      px      :     0.864260
      py      :     0.984215
      dz2     :     0.130824  d :     0.517716
      dxz     :     0.081529
      dyz     :     0.159506
      dx2y2   :     0.073174
      dxy     :     0.072683
      f0      :     0.009807  f :     0.057376
      f+1     :     0.005846
      f-1     :     0.016380
      f+2     :     0.006762
      f-2     :     0.008265
      f+3     :     0.004862
      f-3     :     0.005455
 73 C s       :     2.688560  s :     2.688560
      pz      :     0.873068  p :     2.836105
      px      :     0.986888
      py      :     0.976149
      dz2     :     0.054174  d :     0.517363
      dxz     :     0.086186
      dyz     :     0.072592
      dx2y2   :     0.150447
      dxy     :     0.153964
      f0      :     0.004270  f :     0.057396
      f+1     :     0.005342
      f-1     :     0.004933
      f+2     :     0.009005
      f-2     :     0.006652
      f+3     :     0.014162
      f-3     :     0.013031
 74 C s       :     2.693133  s :     2.693133
      pz      :     1.006441  p :     2.839951
      px      :     0.877977
      py      :     0.955533
      dz2     :     0.124503  d :     0.497518
      dxz     :     0.082152
      dyz     :     0.150271
      dx2y2   :     0.070739
      dxy     :     0.069853
      f0      :     0.009606  f :     0.055337
      f+1     :     0.006273
      f-1     :     0.014595
      f+2     :     0.006385
      f-2     :     0.007873
      f+3     :     0.005286
      f-3     :     0.005319
 75 C s       :     2.692836  s :     2.692836
      pz      :     0.894453  p :     2.839352
      px      :     0.963079
      py      :     0.981819
      dz2     :     0.058719  d :     0.496609
      dxz     :     0.080315
      dyz     :     0.076731
      dx2y2   :     0.146149
      dxy     :     0.134696
      f0      :     0.004604  f :     0.054970
      f+1     :     0.005389
      f-1     :     0.004986
      f+2     :     0.008963
      f-2     :     0.007022
      f+3     :     0.013153
      f-3     :     0.010853
 76 C s       :     2.685565  s :     2.685565
      pz      :     0.965765  p :     2.804706
      px      :     0.850096
      py      :     0.988846
      dz2     :     0.131767  d :     0.523435
      dxz     :     0.088372
      dyz     :     0.152960
      dx2y2   :     0.075822
      dxy     :     0.074514
      f0      :     0.009610  f :     0.056648
      f+1     :     0.005831
      f-1     :     0.015732
      f+2     :     0.006583
      f-2     :     0.008251
      f+3     :     0.005008
      f-3     :     0.005633
 77 C s       :     2.685363  s :     2.685363
      pz      :     0.859125  p :     2.803841
      px      :     0.986560
      py      :     0.958156
      dz2     :     0.059059  d :     0.523927
      dxz     :     0.093719
      dyz     :     0.071626
      dx2y2   :     0.144540
      dxy     :     0.154982
      f0      :     0.004358  f :     0.056745
      f+1     :     0.005578
      f-1     :     0.004821
      f+2     :     0.008953
      f-2     :     0.006551
      f+3     :     0.013499
      f-3     :     0.012984
 78 C s       :     2.685922  s :     2.685922
      pz      :     0.987326  p :     2.860206
      px      :     0.914181
      py      :     0.958700
      dz2     :     0.120769  d :     0.500068
      dxz     :     0.077668
      dyz     :     0.156617
      dx2y2   :     0.072110
      dxy     :     0.072904
      f0      :     0.008258  f :     0.054479
      f+1     :     0.005093
      f-1     :     0.015983
      f+2     :     0.007004
      f-2     :     0.007720
      f+3     :     0.005006
      f-3     :     0.005416
 79 C s       :     2.685525  s :     2.685525
      pz      :     0.925205  p :     2.861440
      px      :     0.997240
      py      :     0.938995
      dz2     :     0.057594  d :     0.499632
      dxz     :     0.087291
      dyz     :     0.069553
      dx2y2   :     0.142356
      dxy     :     0.142838
      f0      :     0.004465  f :     0.054597
      f+1     :     0.004945
      f-1     :     0.005820
      f+2     :     0.008264
      f-2     :     0.006583
      f+3     :     0.013385
      f-3     :     0.011135


                      *****************************
                      * MAYER POPULATION ANALYSIS *
                      *****************************

  NA   - Mulliken gross atomic population
  ZA   - Total nuclear charge
  QA   - Mulliken gross atomic charge
  VA   - Mayer's total valence
  BVA  - Mayer's bonded valence
  FA   - Mayer's free valence

  ATOM       NA         ZA         QA         VA         BVA        FA
  0 H      0.6604     1.0000     0.3396     0.9144     0.9144    -0.0000
  1 H      0.6592     1.0000     0.3408     0.9133     0.9133    -0.0000
  2 H      0.8854     1.0000     0.1146     0.9805     0.9805    -0.0000
  3 H      0.8827     1.0000     0.1173     0.9781     0.9781    -0.0000
  4 H      0.8711     1.0000     0.1289     0.9792     0.9792     0.0000
  5 H      0.8642     1.0000     0.1358     0.9693     0.9693    -0.0000
  6 H      0.8849     1.0000     0.1151     0.9675     0.9675    -0.0000
  7 H      0.8847     1.0000     0.1153     0.9674     0.9674    -0.0000
  8 H      0.8838     1.0000     0.1162     0.9672     0.9672    -0.0000
  9 H      0.8836     1.0000     0.1164     0.9674     0.9674     0.0000
 10 H      0.8830     1.0000     0.1170     0.9655     0.9655    -0.0000
 11 H      0.8832     1.0000     0.1168     0.9655     0.9655    -0.0000
 12 H      0.8791     1.0000     0.1209     0.9669     0.9669    -0.0000
 13 H      0.8791     1.0000     0.1209     0.9670     0.9670    -0.0000
 14 H      0.8794     1.0000     0.1206     0.9695     0.9695    -0.0000
 15 H      0.8808     1.0000     0.1192     0.9695     0.9695    -0.0000
 16 H      0.8737     1.0000     0.1263     0.9693     0.9693    -0.0000
 17 H      0.8748     1.0000     0.1252     0.9691     0.9691    -0.0000
 18 H      0.8859     1.0000     0.1141     0.9890     0.9890    -0.0000
 19 H      0.8866     1.0000     0.1134     0.9896     0.9896    -0.0000
 20 H      0.8593     1.0000     0.1407     0.9687     0.9687     0.0000
 21 H      0.8681     1.0000     0.1319     0.9865     0.9865    -0.0000
 22 H      0.8816     1.0000     0.1184     0.9703     0.9703    -0.0000
 23 H      0.8800     1.0000     0.1200     0.9705     0.9705     0.0000
 24 H      0.8633     1.0000     0.1367     0.9740     0.9740    -0.0000
 25 H      0.8665     1.0000     0.1335     0.9735     0.9735    -0.0000
 26 H      0.8699     1.0000     0.1301     0.9733     0.9733    -0.0000
 27 H      0.8691     1.0000     0.1309     0.9734     0.9734    -0.0000
 28 H      0.8706     1.0000     0.1294     0.9707     0.9707     0.0000
 29 H      0.8592     1.0000     0.1408     0.9653     0.9653     0.0000
 30 N      7.1631     7.0000    -0.1631     3.0673     3.0673     0.0000
 31 N      7.1633     7.0000    -0.1633     3.0706     3.0706    -0.0000
 32 N      7.0947     7.0000    -0.0947     3.0760     3.0760    -0.0000
 33 N      7.1008     7.0000    -0.1008     3.0791     3.0791    -0.0000
 34 O      8.3590     8.0000    -0.3590     2.1431     2.1431    -0.0000
 35 O      8.3729     8.0000    -0.3729     2.1258     2.1258    -0.0000
 36 C      6.2376     6.0000    -0.2376     4.0923     4.0923    -0.0000
 37 C      6.2226     6.0000    -0.2226     4.0907     4.0907    -0.0000
 38 C      6.1137     6.0000    -0.1137     4.1037     4.1037    -0.0000
 39 C      6.1561     6.0000    -0.1561     4.1316     4.1316    -0.0000
 40 C      6.1437     6.0000    -0.1437     3.9842     3.9842    -0.0000
 41 C      6.1420     6.0000    -0.1420     3.9841     3.9841    -0.0000
 42 C      6.0853     6.0000    -0.0853     3.9099     3.9099    -0.0000
 43 C      6.0910     6.0000    -0.0910     3.9190     3.9190    -0.0000
 44 C      6.0637     6.0000    -0.0637     3.9007     3.9007    -0.0000
 45 C      6.0625     6.0000    -0.0625     3.9000     3.9000    -0.0000
 46 C      6.1031     6.0000    -0.1031     3.9154     3.9154    -0.0000
 47 C      6.1065     6.0000    -0.1065     3.9183     3.9183    -0.0000
 48 C      6.1096     6.0000    -0.1096     3.9340     3.9340    -0.0000
 49 C      6.1026     6.0000    -0.1026     3.9323     3.9323    -0.0000
 50 C      6.1846     6.0000    -0.1846     3.9514     3.9514    -0.0000
 51 C      6.1850     6.0000    -0.1850     3.9635     3.9635     0.0000
 52 C      6.2611     6.0000    -0.2611     4.0726     4.0726    -0.0000
 53 C      6.2607     6.0000    -0.2607     4.0727     4.0727    -0.0000
 54 C      6.2268     6.0000    -0.2268     4.0084     4.0084    -0.0000
 55 C      6.1628     6.0000    -0.1628     3.9555     3.9555    -0.0000
 56 C      6.2318     6.0000    -0.2318     3.9448     3.9448     0.0000
 57 C      6.2298     6.0000    -0.2298     3.9534     3.9534     0.0000
 58 C      6.2258     6.0000    -0.2258     3.9618     3.9618    -0.0000
 59 C      6.2266     6.0000    -0.2266     3.9745     3.9745    -0.0000
 60 C      6.2795     6.0000    -0.2795     4.0226     4.0226    -0.0000
 61 C      6.2807     6.0000    -0.2807     4.0200     4.0200    -0.0000
 62 C      6.3106     6.0000    -0.3106     3.8574     3.8574    -0.0000
 63 C      6.2976     6.0000    -0.2976     3.8924     3.8924     0.0000
 64 C      5.6693     6.0000     0.3307     3.6180     3.6180    -0.0000
 65 C      5.6820     6.0000     0.3180     3.6308     3.6308    -0.0000
 66 C      5.7516     6.0000     0.2484     3.9265     3.9265    -0.0000
 67 C      5.7491     6.0000     0.2509     3.9228     3.9228    -0.0000
 68 C      5.7504     6.0000     0.2496     4.0041     4.0041    -0.0000
 69 C      5.7053     6.0000     0.2947     3.9235     3.9235    -0.0000
 70 C      5.8883     6.0000     0.1117     3.6432     3.6432    -0.0000
 71 C      5.9192     6.0000     0.0808     3.6579     3.6579    -0.0000
 72 C      5.8460     6.0000     0.1540     3.7767     3.7767     0.0000
 73 C      5.8728     6.0000     0.1272     3.8408     3.8408     0.0000
 74 C      5.9084     6.0000     0.0916     3.6456     3.6456    -0.0000
 75 C      5.9335     6.0000     0.0665     3.7068     3.7068     0.0000
 76 C      5.8711     6.0000     0.1289     3.6558     3.6558    -0.0000
 77 C      5.8468     6.0000     0.1532     3.6323     3.6323    -0.0000
 78 C      6.1907     6.0000    -0.1907     2.9722     2.9722    -0.0000
 79 C      6.2054     6.0000    -0.2054     2.9921     2.9921    -0.0000

  Mayer bond orders larger than 0.100000
B(  0-H , 34-O ) :   0.8445 B(  1-H , 35-O ) :   0.8437 B(  2-H , 36-C ) :   0.9837 
B(  3-H , 37-C ) :   0.9790 B(  4-H , 38-C ) :   0.9835 B(  5-H , 39-C ) :   0.9823 
B(  6-H , 40-C ) :   0.9630 B(  7-H , 41-C ) :   0.9630 B(  8-H , 42-C ) :   0.9584 
B(  9-H , 43-C ) :   0.9578 B( 10-H , 44-C ) :   0.9627 B( 11-H , 45-C ) :   0.9631 
B( 12-H , 46-C ) :   0.9671 B( 13-H , 47-C ) :   0.9665 B( 14-H , 48-C ) :   0.9679 
B( 15-H , 49-C ) :   0.9675 B( 16-H , 50-C ) :   0.9679 B( 17-H , 51-C ) :   0.9671 
B( 18-H , 52-C ) :   0.9750 B( 19-H , 53-C ) :   0.9752 B( 20-H , 54-C ) :   0.9613 
B( 21-H , 55-C ) :   0.9635 B( 22-H , 56-C ) :   0.9832 B( 23-H , 57-C ) :   0.9806 
B( 24-H , 58-C ) :   0.9541 B( 25-H , 59-C ) :   0.9553 B( 26-H , 60-C ) :   0.9614 
B( 27-H , 61-C ) :   0.9607 B( 28-H , 62-C ) :   1.0005 B( 29-H , 63-C ) :   0.9721 
B( 30-N , 38-C ) :   1.6042 B( 30-N , 64-C ) :   1.3271 B( 31-N , 39-C ) :   1.6034 
B( 31-N , 65-C ) :   1.3389 B( 32-N , 36-C ) :   1.9296 B( 32-N , 66-C ) :   1.0663 
B( 33-N , 37-C ) :   1.9152 B( 33-N , 67-C ) :   1.0758 B( 34-O , 68-C ) :   1.2752 
B( 35-O , 69-C ) :   1.2299 B( 36-C , 64-C ) :   0.9377 B( 37-C , 65-C ) :   0.9494 
B( 38-C , 70-C ) :   1.2793 B( 39-C , 71-C ) :   1.3159 B( 40-C , 42-C ) :   1.4241 
B( 40-C , 44-C ) :   1.4065 B( 41-C , 43-C ) :   1.4229 B( 41-C , 45-C ) :   1.4073 
B( 42-C , 60-C ) :   1.4148 B( 43-C , 61-C ) :   1.4207 B( 44-C , 52-C ) :   1.4342 
B( 45-C , 53-C ) :   1.4349 B( 46-C , 48-C ) :   1.2720 B( 46-C , 56-C ) :   1.5314 
B( 47-C , 49-C ) :   1.2704 B( 47-C , 57-C ) :   1.5344 B( 48-C , 58-C ) :   1.5450 
B( 49-C , 59-C ) :   1.5462 B( 50-C , 54-C ) :   1.4239 B( 50-C , 64-C ) :   1.3548 
B( 51-C , 55-C ) :   1.4430 B( 51-C , 65-C ) :   1.3353 B( 52-C , 66-C ) :   1.3977 
B( 53-C , 67-C ) :   1.3983 B( 54-C , 70-C ) :   1.4283 B( 55-C , 71-C ) :   1.3676 
B( 56-C , 72-C ) :   1.2313 B( 57-C , 73-C ) :   1.2322 B( 58-C , 76-C ) :   1.3132 
B( 59-C , 77-C ) :   1.3187 B( 60-C , 66-C ) :   1.3565 B( 61-C , 67-C ) :   1.3482 
B( 62-C , 72-C ) :   1.1701 B( 62-C , 74-C ) :   1.4838 B( 63-C , 73-C ) :   1.2113 
B( 63-C , 75-C ) :   1.4836 B( 68-C , 74-C ) :   1.2703 B( 68-C , 78-C ) :   1.3658 
B( 69-C , 75-C ) :   1.2599 B( 69-C , 79-C ) :   1.3563 B( 70-C , 74-C ) :   0.8493 
B( 71-C , 75-C ) :   0.8855 B( 72-C , 76-C ) :   1.2885 B( 73-C , 77-C ) :   1.2752 
B( 76-C , 78-C ) :   1.0946 B( 77-C , 79-C ) :   1.0967 B( 78-C , 79-C ) :   0.6696 


-------
TIMINGS
-------

Total SCF time: 0 days 0 hours 15 min 54 sec 

Total time                  ....     954.276 sec
Sum of individual times     ....     943.662 sec  ( 98.9%)

Fock matrix formation       ....     881.289 sec  ( 92.4%)
  XC integration            ....      21.422 sec  (  2.4% of F)
    Basis function eval.    ....       2.500 sec  ( 11.7% of XC)
    Density eval.           ....       8.190 sec  ( 38.2% of XC)
    XC-Functional eval.     ....       0.334 sec  (  1.6% of XC)
    XC-Potential eval.      ....       4.264 sec  ( 19.9% of XC)
Diagonalization             ....       7.963 sec  (  0.8%)
Density matrix formation    ....       0.809 sec  (  0.1%)
Population analysis         ....       4.487 sec  (  0.5%)
Initial guess               ....       1.994 sec  (  0.2%)
Orbital Transformation      ....       0.000 sec  (  0.0%)
Orbital Orthonormalization  ....       0.000 sec  (  0.0%)
DIIS solution               ....      29.365 sec  (  3.1%)
SOSCF solution              ....       5.245 sec  (  0.5%)
Grid generation             ....      12.510 sec  (  1.3%)


-------------------------------------------------------------------------------
                          DFT DISPERSION CORRECTION                            
                                                                               
                                 DFTD4 V2.0                                    
-------------------------------------------------------------------------------
The PBE0 functional is recognized
Active option DFTDOPT                   ...         5   

-------------------------   ----------------
Dispersion correction           -0.111601043
-------------------------   ----------------


-------------------------   --------------------
FINAL SINGLE POINT ENERGY     -2062.621994002966
-------------------------   --------------------


                            ***************************************
                            *     ORCA property calculations      *
                            ***************************************

                                    ---------------------
                                    Active property flags
                                    ---------------------
   (+) Dipole Moment


------------------------------------------------------------------------------
                       ORCA ELECTRIC PROPERTIES CALCULATION
------------------------------------------------------------------------------

Dipole Moment Calculation                       ... on
Quadrupole Moment Calculation                   ... off
Polarizability Calculation                      ... off
GBWName                                         ... _fe6dd_xtb_dft_sg80_1_0.gbw
Electron density file                           ... _fe6dd_xtb_dft_sg80_1_0.scfp
The origin for moment calculation is the CENTER OF MASS  = (22.236964, 18.041269 25.566633)

-------------
DIPOLE MOMENT
-------------
                                X             Y             Z
Electronic contribution:      3.48722      -1.39837       5.58982
Nuclear contribution   :     -1.39254       1.49421      -3.76581
                        -----------------------------------------
Total Dipole Moment    :      2.09469       0.09584       1.82400
                        -----------------------------------------
Magnitude (a.u.)       :      2.77919
Magnitude (Debye)      :      7.06414



--------------------
Rotational spectrum 
--------------------
 
Rotational constants in cm-1:     0.001925     0.000773     0.000631 
Rotational constants in MHz :    57.707334    23.168424    18.908738 

 Dipole components along the rotational axes: 
x,y,z [a.u.] :    -0.830368     2.625136     0.378216 
x,y,z [Debye]:    -2.110629     6.672565     0.961348 

 

Timings for individual modules:

Sum of individual times         ...      958.165 sec (=  15.969 min)
GTO integral calculation        ...        3.369 sec (=   0.056 min)   0.4 %
SCF iterations                  ...      954.796 sec (=  15.913 min)  99.6 %
                             ****ORCA TERMINATED NORMALLY****
TOTAL RUN TIME: 0 days 0 hours 16 minutes 1 seconds 424 msec
