Job execution start: Fri Apr 16 18:48:32 BST 2021
Shared library path: /work/e05/e05/atarzia/orca_4_2_1_linux_x86-64_openmpi314:/work/e05/e05/atarzia/openmpi-3.1.4/lib:/opt/cray/pe/papi/6.0.0.4/lib64:/opt/cray/libfabric/1.11.0.0.233/lib64
Slurm Job ID is: 207121
Slurm Job name is: fe6dd_xtb_dft_sg80_1_1
nid001101

                                 *****************
                                 * O   R   C   A *
                                 *****************

           --- An Ab Initio, DFT and Semiempirical electronic structure package ---

                  #######################################################
                  #                        -***-                        #
                  #          Department of theory and spectroscopy      #
                  #               Directorship: Frank Neese             #
                  #        Max Planck Institute fuer Kohlenforschung    #
                  #                Kaiser Wilhelm Platz 1               #
                  #                 D-45470 Muelheim/Ruhr               #
                  #                      Germany                        #
                  #                                                     #
                  #                  All rights reserved                #
                  #                        -***-                        #
                  #######################################################


                         Program Version 4.2.1 -  RELEASE  -


 With contributions from (in alphabetic order):
   Daniel Aravena         : Magnetic Suceptibility
   Michael Atanasov       : Ab Initio Ligand Field Theory (pilot matlab implementation)
   Alexander A. Auer      : GIAO ZORA, VPT2
   Ute Becker             : Parallelization
   Giovanni Bistoni       : ED, misc. LED, open-shell LED, HFLD
   Martin Brehm           : Molecular dynamics
   Dmytro Bykov           : SCF Hessian
   Vijay G. Chilkuri      : MRCI spin determinant printing, contributions to CSF-ICE
   Dipayan Datta          : RHF DLPNO-CCSD density
   Achintya Kumar Dutta   : EOM-CC, STEOM-CC
   Dmitry Ganyushin       : Spin-Orbit,Spin-Spin,Magnetic field MRCI
   Miquel Garcia          : C-PCM Hessian, Gaussian charge scheme
   Yang Guo               : DLPNO-NEVPT2, CIM, IAO-localization
   Andreas Hansen         : Spin unrestricted coupled pair/coupled cluster methods
   Benjamin Helmich-Paris : CASSCF linear response (MC-RPA)
   Lee Huntington         : MR-EOM, pCC
   Robert Izsak           : Overlap fitted RIJCOSX, COSX-SCS-MP3, EOM
   Christian Kollmar      : KDIIS, OOCD, Brueckner-CCSD(T), CCSD density
   Simone Kossmann        : Meta GGA functionals, TD-DFT gradient, OOMP2, MP2 Hessian
   Martin Krupicka        : AUTO-CI
   Lucas Lang             : DCDCAS
   Dagmar Lenk            : GEPOL surface, SMD
   Dimitrios Liakos       : Extrapolation schemes; Compound Job, initial MDCI parallelization
   Dimitrios Manganas     : Further ROCIS development; embedding schemes
   Dimitrios Pantazis     : SARC Basis sets
   Taras Petrenko         : DFT Hessian,TD-DFT gradient, ASA, ECA, R-Raman, ABS, FL, XAS/XES, NRVS
   Peter Pinski           : DLPNO-MP2, DLPNO-MP2 Gradient
   Christoph Reimann      : Effective Core Potentials
   Marius Retegan         : Local ZFS, SOC
   Christoph Riplinger    : Optimizer, TS searches, QM/MM, DLPNO-CCSD(T), (RO)-DLPNO pert. Triples
   Tobias Risthaus        : Range-separated hybrids, TD-DFT gradient, RPA, STAB
   Michael Roemelt        : Original ROCIS implementation
   Masaaki Saitow         : Open-shell DLPNO-CCSD energy and density
   Barbara Sandhoefer     : DKH picture change effects
   Avijit Sen             : IP-ROCIS
   Kantharuban Sivalingam : CASSCF convergence, NEVPT2, FIC-MRCI
   Bernardo de Souza      : ESD, SOC TD-DFT
   Georgi Stoychev        : AutoAux, RI-MP2 NMR
   Willem Van den Heuvel  : Paramagnetic NMR
   Boris Wezisla          : Elementary symmetry handling
   Frank Wennmohs         : Technical directorship


 We gratefully acknowledge several colleagues who have allowed us to
 interface, adapt or use parts of their codes:
   Stefan Grimme, W. Hujo, H. Kruse,             : VdW corrections, initial TS optimization,
                  C. Bannwarth                     DFT functionals, gCP, sTDA/sTD-DF
   Ed Valeev, F. Pavosevic, A. Kumar             : LibInt (2-el integral package), F12 methods
   Garnet Chan, S. Sharma, J. Yang, R. Olivares  : DMRG
   Ulf Ekstrom                                   : XCFun DFT Library
   Mihaly Kallay                                 : mrcc  (arbitrary order and MRCC methods)
   Andreas Klamt, Michael Diedenhofen            : otool_cosmo (COSMO solvation model)
   Jiri Pittner, Ondrej Demel                    : Mk-CCSD
   Frank Weinhold                                : gennbo (NPA and NBO analysis)
   Christopher J. Cramer and Donald G. Truhlar   : smd solvation model
   Lars Goerigk                                  : TD-DFT with DH, B97 family of functionals
   V. Asgeirsson, H. Jonsson                     : NEB implementation
   FAccTs GmbH                                   : IRC, NEB, NEB-TS, Multilevel, MM, QM/MM, CI optimization
   S Lehtola, MJT Oliveira, MAL Marques          : LibXC Library


 Your calculation uses the libint2 library for the computation of 2-el integrals
 For citations please refer to: http://libint.valeyev.net

 Your ORCA version has been built with support for libXC version: 4.2.3
 For citations please refer to: https://tddft.org/programs/libxc/

 This ORCA versions uses:
   CBLAS   interface :  Fast vector & matrix operations
   LAPACKE interface :  Fast linear algebra routines
   SCALAPACK package :  Parallel linear algebra routines




***************************************
The coordinates will be read from file: fe6dd_xtb_dft_sg80_1_1.xyz
***************************************


Your calculation utilizes the atom-pairwise dispersion correction
based on tight binding partial charges (D4)
Cite in your paper:
E.Caldeweyher, C.Bannwarth, S.Grimme, J.Chem.Phys., (2017), 147, 034112.
E.Caldeweyher, S.Ehlert, A.Hansen, H.Neugebauer, S.Grimme, J.Chem.Phys., (2018), in progress.
   

----- Orbital basis set information -----
Your calculation utilizes the basis: def2-TZVP
   F. Weigend and R. Ahlrichs, Phys. Chem. Chem. Phys. 7, 3297 (2005).

================================================================================
                                        WARNINGS
                       Please study these warnings very carefully!
================================================================================


INFO   : the flag for use of LIBINT has been found!

================================================================================
                                       INPUT FILE
================================================================================
NAME = fe6dd_xtb_dft_sg80_1_1.in
|  1> # closed shell KS, PBE0/def2-SVP/D4
|  2> ! DFT SP RKS PBE0 def2-TZVP D4 Grid6 NOFINALGRID SlowConv TightSCF printbasis
|  3> 
|  4> %base "_fe6dd_xtb_dft_sg80_1_1"
|  5> %maxcore 4000
|  6> %scf
|  7>    MaxIter 2000
|  8> end
|  9> 
| 10> %pal
| 11>    nprocs 48
| 12> end
| 13> 
| 14> * xyzfile 0 1 fe6dd_xtb_dft_sg80_1_1.xyz
| 15> 
| 16> 
| 17>                          ****END OF INPUT****
================================================================================

                       ****************************
                       * Single Point Calculation *
                       ****************************

---------------------------------
CARTESIAN COORDINATES (ANGSTROEM)
---------------------------------
  H     10.720500    8.337300    7.617300
  H     11.829400    6.897900   10.430800
  H     10.010800   15.604300    7.692100
  H      8.973800    0.684700   13.191000
  H     13.081800   12.245800   10.588200
  H      8.696400    5.274700   10.385400
  H      7.221500   19.805300   10.435700
  H      7.115900    0.726100   18.613600
  H      9.635800   20.239200   10.865100
  H      5.111800    1.119200   17.189300
  H     17.794000    7.190600   10.400700
  H     12.233300    5.078300    2.956700
  H     16.521400    5.191200    9.632000
  H     13.476500    7.098500    3.714200
  H      6.492400   17.561000    9.636000
  H      9.393700    1.093800   17.672800
  H     10.755000   13.467200    6.432300
  H     10.177500    0.610000   10.873600
  H      8.169000   15.769600    9.264400
  H      9.658700    1.849700   15.321800
  H     11.715500   11.166900    6.642400
  H     11.095000    1.981100    8.981000
  H     11.303700   18.457700   10.512700
  H      5.369500    1.884300   14.858900
  H     16.731000    9.428100   10.366200
  H     10.926600    3.741700    4.584500
  H     14.837200   10.856300    9.731900
  H     10.212800    3.336300    6.906100
  H     14.200000    5.413500    8.820900
  H     13.408200    7.807300    6.079900
  N     12.051800   13.703100    9.539100
  N      8.565000    3.518300   11.464600
  N     10.784300   15.964100    9.597200
  N      7.725300    2.309000   13.588400
  O     11.054400    9.197800    7.918100
  O     11.205800    6.169000   10.282800
  C     10.676400   15.290200    8.505500
  C      8.553800    1.643600   12.863100
  C     12.580600   12.487400    9.648000
  C      9.054700    4.247700   10.470100
  C      7.957700   19.015500   10.271500
  C      7.235600    1.059300   17.580700
  C      9.309800   19.256900   10.516300
  C      6.112500    1.284100   16.784000
  C     16.762700    7.304600   10.061100
  C     12.187100    5.379200    4.005300
  C     16.039700    6.171600    9.625400
  C     12.888500    6.527600    4.436300
  C      7.550500   17.761200    9.819000
  C      8.510000    1.260300   17.053000
  C     11.276500   13.156400    7.339400
  C      9.871600    1.647800   10.728600
  C      8.490100   16.759400    9.598000
  C      8.661800    1.671700   15.732300
  C     11.810300   11.882500    7.458900
  C     10.372900    2.408800    9.680300
  C     10.253200   18.254600   10.314300
  C      6.255200    1.712400   15.468100
  C     16.174400    8.545800   10.040100
  C     11.460700    4.638900    4.907500
  C     14.254100    9.981800    9.432500
  C     10.707300    4.255400    7.231600
  C     14.745300    6.290700    9.174300
  C     12.849200    6.927900    5.753600
  C     11.384200   14.035000    8.416800
  C      8.995400    2.249100   11.628000
  C      9.851800   17.003500    9.832400
  C      7.533800    1.891100   14.929200
  C     12.274500    9.008400    8.449400
  C     11.283800    5.826600    8.974700
  C     12.458700   11.511200    8.648000
  C     10.004100    3.754500    9.563300
  C     14.848900    8.707000    9.560600
  C     11.403700    5.022400    6.271800
  C     13.007500   10.162700    8.861900
  C     10.630200    4.629400    8.558800
  C     14.120300    7.560300    9.117900
  C     12.099400    6.193400    6.703600
  C     12.807300    7.736600    8.586000
  C     12.027600    6.576900    8.078900

----------------------------
CARTESIAN COORDINATES (A.U.)
----------------------------
  NO LB      ZA    FRAG     MASS         X           Y           Z
   0 H     1.0000    0     1.008   20.258809   15.755214   14.394611
   1 H     1.0000    0     1.008   22.354326   13.035142   19.711355
   2 H     1.0000    0     1.008   18.917670   29.487854   14.535962
   3 H     1.0000    0     1.008   16.958024    1.293895   24.927377
   4 H     1.0000    0     1.008   24.721019   23.141208   20.008798
   5 H     1.0000    0     1.008   16.433814    9.967738   19.625562
   6 H     1.0000    0     1.008   13.646657   37.426593   19.720615
   7 H     1.0000    0     1.008   13.447102    1.372130   35.174606
   8 H     1.0000    0     1.008   18.209023   38.246545   20.532063
   9 H     1.0000    0     1.008    9.659902    2.114981   32.483069
  10 H     1.0000    0     1.008   33.625787   13.588265   19.654475
  11 H     1.0000    0     1.008   23.117587    9.596596    5.587353
  12 H     1.0000    0     1.008   31.220921    9.809946   18.201842
  13 H     1.0000    0     1.008   25.466894   13.414221    7.018821
  14 H     1.0000    0     1.008   12.268858   33.185481   18.209401
  15 H     1.0000    0     1.008   17.751520    2.066982   33.396752
  16 H     1.0000    0     1.008   20.324005   25.449320   12.155285
  17 H     1.0000    0     1.008   19.232688    1.152733   20.548126
  18 H     1.0000    0     1.008   15.437173   29.800225   17.507179
  19 H     1.0000    0     1.008   18.252298    3.495426   28.954006
  20 H     1.0000    0     1.008   22.139087   21.102383   12.552317
  21 H     1.0000    0     1.008   20.966511    3.743736   16.971630
  22 H     1.0000    0     1.008   21.360897   34.879998   19.866124
  23 H     1.0000    0     1.008   10.146884    3.560811   28.079252
  24 H     1.0000    0     1.008   31.617008   17.816527   19.589279
  25 H     1.0000    0     1.008   20.648282    7.070788    8.663449
  26 H     1.0000    0     1.008   28.038245   20.515434   18.390626
  27 H     1.0000    0     1.008   19.299395    6.304693   13.050638
  28 H     1.0000    0     1.008   26.834111   10.230032   16.669085
  29 H     1.0000    0     1.008   25.337826   14.753659   11.489346
  30 N     7.0000    0    14.007   22.774601   25.895106   18.026287
  31 N     7.0000    0    14.007   16.185504    6.648623   21.664954
  32 N     7.0000    0    14.007   20.379374   30.167777   18.136080
  33 N     7.0000    0    14.007   14.598701    4.363378   25.678355
  34 O     8.0000    0    15.999   20.889789   17.381323   14.963041
  35 O     8.0000    0    15.999   21.175893   11.657721   19.431676
  36 C     6.0000    0    12.011   20.175472   28.894291   16.073066
  37 C     6.0000    0    12.011   16.164339    3.105954   24.307736
  38 C     6.0000    0    12.011   23.773889   23.597766   18.232078
  39 C     6.0000    0    12.011   17.110903    8.026990   19.785622
  40 C     6.0000    0    12.011   15.037874   35.934087   19.410322
  41 C     6.0000    0    12.011   13.673302    2.001787   33.222708
  42 C     6.0000    0    12.011   17.592972   36.390267   19.872927
  43 C     6.0000    0    12.011   11.550951    2.426597   31.717163
  44 C     6.0000    0    12.011   31.676912   13.803694   19.012724
  45 C     6.0000    0    12.011   23.030281   10.165215    7.568920
  46 C     6.0000    0    12.011   30.310640   11.662634   18.189370
  47 C     6.0000    0    12.011   24.355735   12.335376    8.383392
  48 C     6.0000    0    12.011   14.268377   33.563804   18.555221
  49 C     6.0000    0    12.011   16.081569    2.381622   32.225500
  50 C     6.0000    0    12.011   21.309497   24.861993   13.869456
  51 C     6.0000    0    12.011   18.654621    3.113891   20.274116
  52 C     6.0000    0    12.011   16.043964   31.670676   18.137591
  53 C     6.0000    0    12.011   16.368430    3.159055   29.729738
  54 C     6.0000    0    12.011   22.318233   22.454671   14.095278
  55 C     6.0000    0    12.011   19.601940    4.551972   18.293116
  56 C     6.0000    0    12.011   19.375740   34.496195   19.491202
  57 C     6.0000    0    12.011   11.820615    3.235967   29.230473
  58 C     6.0000    0    12.011   30.565186   16.149222   18.973039
  59 C     6.0000    0    12.011   21.657584    8.766251    9.273831
  60 C     6.0000    0    12.011   26.936345   18.862868   17.824842
  61 C     6.0000    0    12.011   20.233865    8.041541   13.665744
  62 C     6.0000    0    12.011   27.864579   11.887700   17.336914
  63 C     6.0000    0    12.011   24.281469   13.091834   10.872728
  64 C     6.0000    0    12.011   21.513020   26.522306   15.905447
  65 C     6.0000    0    12.011   16.998842    4.250183   21.973735
  66 C     6.0000    0    12.011   18.617204   32.131958   18.580543
  67 C     6.0000    0    12.011   14.236819    3.573661   28.212099
  68 C     6.0000    0    12.011   23.195443   17.023409   15.967052
  69 C     6.0000    0    12.011   21.323292   11.010678   16.959725
  70 C     6.0000    0    12.011   23.543531   21.753015   16.342352
  71 C     6.0000    0    12.011   18.905009    7.094977   18.072018
  72 C     6.0000    0    12.011   28.060354   16.453845   18.066916
  73 C     6.0000    0    12.011   21.549870    9.490961   11.851984
  74 C     6.0000    0    12.011   24.580613   19.204720   16.746564
  75 C     6.0000    0    12.011   20.088167    8.748298   16.173788
  76 C     6.0000    0    12.011   26.683500   14.286896   17.230334
  77 C     6.0000    0    12.011   22.864552   11.703830   12.667968
  78 C     6.0000    0    12.011   24.202290   14.620055   16.225189
  79 C     6.0000    0    12.011   22.728870   12.428540   15.266908

--------------------------------
INTERNAL COORDINATES (ANGSTROEM)
--------------------------------
 H      0   0   0     0.000000000000     0.00000000     0.00000000
 H      1   0   0     3.349225853835     0.00000000     0.00000000
 H      1   2   0     7.301955774311   116.82635747     0.00000000
 H      2   1   3     7.374076866971   123.25300693   137.43303155
 H      3   1   2     5.394252354127    47.97461262    24.13342038
 H      2   1   3     3.528814021736    83.85334359   118.24942205
 H      3   1   2     5.740726125674   141.29772737   299.91685170
 H      4   2   1     5.732198280765   118.26321386   234.79710617
 H      7   3   1     2.490280719116    74.86216440   118.14808636
 H      8   4   2     2.489894558008    73.79248539    96.56650832
 H      2   1   3     5.971853352185   107.78167289   276.04396070
 H      1   2   3     5.884797124795   110.00927651   151.75402423
 H     11   2   1     2.491588009684    56.77595091   263.95220118
 H     12   1   2     2.490092474186    55.81452004   261.11287756
 H      7   3   1     2.491583711217    47.90412641   318.61801305
 H      8   4   2     2.491722450435    49.27707623   297.74355581
 H      3   1   2     2.590005036675    31.34030318   137.88355908
 H      4   2   1     2.612434982923    60.89748706    64.58078786
 H      3   1   2     2.427278026926    98.52030767   291.99395427
 H     16   8   4     2.483709083206   119.98958162    23.55138793
 H     17   3   1     2.501615947743   145.91458446   326.91142427
 H     18   4   2     2.510708310418   145.22933815   346.37762638
 H      9   7   3     2.465728780706   120.34883884   342.33557404
 H     10   8   4     2.466282923754   120.35726558   341.20888921
 H     11   2   1     2.477411047848    67.40475074    61.12185829
 H     12   1   2     2.478648278800    69.08394359    56.32078245
 H      5   3   1     2.396954129724   125.87744199    64.46945403
 H     26  12   1     2.462455311270   149.40164943   332.75529020
 H     13  11   2     2.469048087827   120.61831902    24.72111708
 H     14  12   1     2.470546259433   120.68074094    26.32398916
 N      5   3   1     2.070080698910     6.45392270   160.20115625
 N      6   2   1     2.065642650605   116.15983360   158.52586276
 N      3   1   2     2.087382164339    98.33017148     4.12260749
 N      4   2   1     2.086870743482    69.33802039   283.23462167
 O      1   2   3     0.970788390948    90.38841142    17.96830679
 O      2   1   3     0.970606083847    88.96482391   141.12812998
 C      3   1   2     1.096951106476    70.34555558    18.90165839
 C      4   2   1     1.096999371012    45.56303074   308.24469820
 C      5   3   1     1.092496242556    30.58114872    32.00514297
 C      6   2   1     1.091000449129    98.07243421   127.08176212
 C      7   3   1     1.092124589962    21.78257504    74.47884063
 C      8   4   2     1.091894106587    21.84309560    49.20017604
 C      9   7   3     1.092177059821    59.92352343   342.49400099
 C     10   8   4     1.092181573732    59.90986040   341.27325914
 C     11   2   1     1.091743490935    20.47864577   357.60216310
 C     12   1   2     1.091896153487    22.47293266   355.57730911
 C     13  11   2     1.092365602717    60.45438790    23.65645232
 C     14  12   1     1.092290812925    60.54845134    25.75532392
 C     15   7   3     1.092311608471    59.84620385    22.39697022
 C     16   8   4     1.092153826162    59.80800086    23.31162183
 C     17   3   1     1.091507810325    88.16643985   312.11608828
 C     18   4   2     1.091617446728    87.79519627   330.63849579
 C     19   3   1     1.092748008463    92.08999937   151.75350226
 C     20  16   8     1.092704836632    59.83327060   358.99067431
 C     21  17   3     1.089836065654    59.50573737   342.65104409
 C     22  18   4     1.092417589569    59.31664060   341.25247597
 C     23   9   7     1.088192271614    60.52144951     0.40725533
 C     24  10   8     1.088640776381    60.47917271     0.27291634
 C     25  11   2     1.092976696915    59.57507667   338.60944632
 C     26  12   1     1.092959125494    59.58896185   337.40440351
 C     27   5   3     1.092884358018    99.84529388   273.79545310
 C     28  26  12     1.093263604992    90.64070231     6.32276136
 C     29  13  11     1.091660885990    59.75869236   358.81943887
 C     30  14  12     1.091923555017    59.79763219   359.17219302
 C     31   5  39     1.347369533573   147.36087040     3.54563761
 C     32   6   2     1.350115683932   147.38210978   297.51486636
 C     57  23   9     1.399500189353   120.43169247   178.47927909
 C     58  24  10     1.398987083572   120.52015356   178.45506550
 C     35   1   2     1.344171142377   108.04569707    43.01209635
 C     36   2   1     1.354417723599   107.46452666    44.67796339
 C     39   5   3     1.402792233369   119.96433695   192.03838572
 C     56  22  18     1.400218172286   119.79419392   176.76399988
 C     61  27   5     1.412555021937   118.20534629   214.17797161
 C     62  28  26     1.412259891097   118.50779835   358.59615498
 C     61  27   5     1.382866851870   119.29664043    38.51955019
 C     62  28  26     1.381043174560   119.24474101   178.47554220
 C     63  29  13     1.416223894729   119.14482992   177.85261435
 C     64  30  14     1.415694278437   119.23925963   179.30980861
 C     69  35   1     1.385644485429   121.15239697   355.35086781
 C     70  36   2     1.385152038586   121.23758320   352.59527866

---------------------------
INTERNAL COORDINATES (A.U.)
---------------------------
 H      0   0   0     0.000000000000     0.00000000     0.00000000
 H      1   0   0     6.329119624398     0.00000000     0.00000000
 H      1   2   0    13.798696655453   116.82635747     0.00000000
 H      2   1   3    13.934985769060   123.25300693   137.43303155
 H      3   1   2    10.193659646559    47.97461262    24.13342038
 H      2   1   3     6.668492078622    83.85334359   118.24942205
 H      3   1   2    10.848400187371   141.29772737   299.91685170
 H      4   2   1    10.832284895979   118.26321386   234.79710617
 H      7   3   1     4.705948555713    74.86216440   118.14808636
 H      8   4   2     4.705218816977    73.79248539    96.56650832
 H      2   1   3    11.285167347569   107.78167289   276.04396070
 H      1   2   3    11.120654919550   110.00927651   151.75402423
 H     11   2   1     4.708418976864    56.77595091   263.95220118
 H     12   1   2     4.705592824351    55.81452004   261.11287756
 H      7   3   1     4.708410853939    47.90412641   318.61801305
 H      8   4   2     4.708673033065    49.27707623   297.74355581
 H      3   1   2     4.894400204792    31.34030318   137.88355908
 H      4   2   1     4.936786660400    60.89748706    64.58078786
 H      3   1   2     4.586890721776    98.52030767   291.99395427
 H     16   8   4     4.693529963592   119.98958162    23.55138793
 H     17   3   1     4.727369033483   145.91458446   326.91142427
 H     18   4   2     4.744551108849   145.22933815   346.37762638
 H      9   7   3     4.659552116061   120.34883884   342.33557404
 H     10   8   4     4.660599294661   120.35726558   341.20888921
 H     11   2   1     4.681628401584    67.40475074    61.12185829
 H     12   1   2     4.683966429248    69.08394359    56.32078245
 H      5   3   1     4.529586860750   125.87744199    64.46945403
 H     26  12   1     4.653366155319   149.40164943   332.75529020
 H     13  11   2     4.665824697474   120.61831902    24.72111708
 H     14  12   1     4.668655831513   120.68074094    26.32398916
 N      5   3   1     3.911885596056     6.45392270   160.20115625
 N      6   2   1     3.903498900191   116.15983360   158.52586276
 N      3   1   2     3.944580627432    98.33017148     4.12260749
 N      4   2   1     3.943614182073    69.33802039   283.23462167
 O      1   2   3     1.834524192882    90.38841142    17.96830679
 O      2   1   3     1.834179682388    88.96482391   141.12812998
 C      3   1   2     2.072937173542    70.34555558    18.90165839
 C      4   2   1     2.073028380296    45.56303074   308.24469820
 C      5   3   1     2.064518700770    30.58114872    32.00514297
 C      6   2   1     2.061692060839    98.07243421   127.08176212
 C      7   3   1     2.063816379150    21.78257504    74.47884063
 C      8   4   2     2.063380828693    21.84309560    49.20017604
 C      9   7   3     2.063915532814    59.92352343   342.49400099
 C     10   8   4     2.063924062869    59.90986040   341.27325914
 C     11   2   1     2.063096206359    20.47864577   357.60216310
 C     12   1   2     2.063384696773    22.47293266   355.57730911
 C     13  11   2     2.064271827252    60.45438790    23.65645232
 C     14  12   1     2.064130495026    60.54845134    25.75532392
 C     15   7   3     2.064169792913    59.84620385    22.39697022
 C     16   8   4     2.063871627560    59.80800086    23.31162183
 C     17   3   1     2.062650834550    88.16643985   312.11608828
 C     18   4   2     2.062858017325    87.79519627   330.63849579
 C     19   3   1     2.064994469383    92.08999937   151.75350226
 C     20  16   8     2.064912886447    59.83327060   358.99067431
 C     21  17   3     2.059491694956    59.50573737   342.65104409
 C     22  18   4     2.064370068164    59.31664060   341.25247597
 C     23   9   7     2.056385374400    60.52144951     0.40725533
 C     24  10   8     2.057232925580    60.47917271     0.27291634
 C     25  11   2     2.065426627928    59.57507667   338.60944632
 C     26  12   1     2.065393422753    59.58896185   337.40440351
 C     27   5   3     2.065252132700    99.84529388   273.79545310
 C     28  26  12     2.065968805618    90.64070231     6.32276136
 C     29  13  11     2.062940105635    59.75869236   358.81943887
 C     30  14  12     2.063436478159    59.79763219   359.17219302
 C     31   5  39     2.546159419642   147.36087040     3.54563761
 C     32   6   2     2.551348891744   147.38210978   297.51486636
 C     57  23   9     2.644672082249   120.43169247   178.47927909
 C     58  24  10     2.643702452843   120.52015356   178.45506550
 C     35   1   2     2.540115336213   108.04569707    43.01209635
 C     36   2   1     2.559478568532   107.46452666    44.67796339
 C     39   5   3     2.650893143859   119.96433695   192.03838572
 C     56  22  18     2.646028873360   119.79419392   176.76399988
 C     61  27   5     2.669342140556   118.20534629   214.17797161
 C     62  28  26     2.668784424094   118.50779835   358.59615498
 C     61  27   5     2.613239629712   119.29664043    38.51955019
 C     62  28  26     2.609793379040   119.24474101   178.47554220
 C     63  29  13     2.676275305352   119.14482992   177.85261435
 C     64  30  14     2.675274475606   119.23925963   179.30980861
 C     69  35   1     2.618488596439   121.15239697   355.35086781
 C     70  36   2     2.617558006771   121.23758320   352.59527866

---------------------
BASIS SET INFORMATION
---------------------
There are 4 groups of distinct atoms

 Group   1 Type H   : 5s1p contracted to 3s1p pattern {311/1}
 Group   2 Type N   : 11s6p2d1f contracted to 5s3p2d1f pattern {62111/411/11/1}
 Group   3 Type O   : 11s6p2d1f contracted to 5s3p2d1f pattern {62111/411/11/1}
 Group   4 Type C   : 11s6p2d1f contracted to 5s3p2d1f pattern {62111/411/11/1}

Atom   0H    basis set group =>   1
Atom   1H    basis set group =>   1
Atom   2H    basis set group =>   1
Atom   3H    basis set group =>   1
Atom   4H    basis set group =>   1
Atom   5H    basis set group =>   1
Atom   6H    basis set group =>   1
Atom   7H    basis set group =>   1
Atom   8H    basis set group =>   1
Atom   9H    basis set group =>   1
Atom  10H    basis set group =>   1
Atom  11H    basis set group =>   1
Atom  12H    basis set group =>   1
Atom  13H    basis set group =>   1
Atom  14H    basis set group =>   1
Atom  15H    basis set group =>   1
Atom  16H    basis set group =>   1
Atom  17H    basis set group =>   1
Atom  18H    basis set group =>   1
Atom  19H    basis set group =>   1
Atom  20H    basis set group =>   1
Atom  21H    basis set group =>   1
Atom  22H    basis set group =>   1
Atom  23H    basis set group =>   1
Atom  24H    basis set group =>   1
Atom  25H    basis set group =>   1
Atom  26H    basis set group =>   1
Atom  27H    basis set group =>   1
Atom  28H    basis set group =>   1
Atom  29H    basis set group =>   1
Atom  30N    basis set group =>   2
Atom  31N    basis set group =>   2
Atom  32N    basis set group =>   2
Atom  33N    basis set group =>   2
Atom  34O    basis set group =>   3
Atom  35O    basis set group =>   3
Atom  36C    basis set group =>   4
Atom  37C    basis set group =>   4
Atom  38C    basis set group =>   4
Atom  39C    basis set group =>   4
Atom  40C    basis set group =>   4
Atom  41C    basis set group =>   4
Atom  42C    basis set group =>   4
Atom  43C    basis set group =>   4
Atom  44C    basis set group =>   4
Atom  45C    basis set group =>   4
Atom  46C    basis set group =>   4
Atom  47C    basis set group =>   4
Atom  48C    basis set group =>   4
Atom  49C    basis set group =>   4
Atom  50C    basis set group =>   4
Atom  51C    basis set group =>   4
Atom  52C    basis set group =>   4
Atom  53C    basis set group =>   4
Atom  54C    basis set group =>   4
Atom  55C    basis set group =>   4
Atom  56C    basis set group =>   4
Atom  57C    basis set group =>   4
Atom  58C    basis set group =>   4
Atom  59C    basis set group =>   4
Atom  60C    basis set group =>   4
Atom  61C    basis set group =>   4
Atom  62C    basis set group =>   4
Atom  63C    basis set group =>   4
Atom  64C    basis set group =>   4
Atom  65C    basis set group =>   4
Atom  66C    basis set group =>   4
Atom  67C    basis set group =>   4
Atom  68C    basis set group =>   4
Atom  69C    basis set group =>   4
Atom  70C    basis set group =>   4
Atom  71C    basis set group =>   4
Atom  72C    basis set group =>   4
Atom  73C    basis set group =>   4
Atom  74C    basis set group =>   4
Atom  75C    basis set group =>   4
Atom  76C    basis set group =>   4
Atom  77C    basis set group =>   4
Atom  78C    basis set group =>   4
Atom  79C    basis set group =>   4

-------------------------
BASIS SET IN INPUT FORMAT
-------------------------

 # Basis set for element : H 
 NewGTO H 
 S 3 
   1      34.0613410000      0.0254393072
   2       5.1235746000      0.1900859489
   3       1.1646626000      0.8524411301
 S 1 
   1       0.3272304100      1.0000000000
 S 1 
   1       0.1030724100      1.0000000000
 P 1 
   1       0.8000000000      1.0000000000
  end;

 # Basis set for element : C 
 NewGTO C 
 S 6 
   1   13575.3496820000      0.0006064549
   2    2035.2333680000      0.0046979088
   3     463.2256235900      0.0243324776
   4     131.2001959800      0.0973999683
   5      42.8530158910      0.3019558425
   6      15.5841857660      0.6623360915
 S 2 
   1       6.2067138508      0.6559530854
   2       2.5764896527      0.3758563329
 S 1 
   1       0.5769633942      1.0000000000
 S 1 
   1       0.2297283136      1.0000000000
 S 1 
   1       0.0951644400      1.0000000000
 P 4 
   1      34.6972322440      0.0113272200
   2       7.9582622826      0.0761696592
   3       2.3780826883      0.3019225220
   4       0.8143320818      0.7278502735
 P 1 
   1       0.2888754725      1.0000000000
 P 1 
   1       0.1005682367      1.0000000000
 D 1 
   1       1.0970000000      1.0000000000
 D 1 
   1       0.3180000000      1.0000000000
 F 1 
   1       0.7610000000      1.0000000000
  end;

 # Basis set for element : N 
 NewGTO N 
 S 6 
   1   19730.8006470000      0.0005862639
   2    2957.8958745000      0.0045428821
   3     673.2213359500      0.0235584136
   4     190.6824949400      0.0947091933
   5      62.2954418980      0.2971978492
   6      22.6541611820      0.6691624689
 S 2 
   1       8.9791477428      0.6459668363
   2       3.6863002370      0.3870057440
 S 1 
   1       0.8466007680      1.0000000000
 S 1 
   1       0.3364713377      1.0000000000
 S 1 
   1       0.1364765367      1.0000000000
 P 4 
   1      49.2003805100      0.0114488252
   2      11.3467905370      0.0784223379
   3       3.4273972411      0.3081809474
   4       1.1785525134      0.7202719637
 P 1 
   1       0.4164220497      1.0000000000
 P 1 
   1       0.1426082601      1.0000000000
 D 1 
   1       1.6540000000      1.0000000000
 D 1 
   1       0.4690000000      1.0000000000
 F 1 
   1       1.0930000000      1.0000000000
  end;

 # Basis set for element : O 
 NewGTO O 
 S 6 
   1   27032.3826310000      0.0005722733
   2    4052.3871392000      0.0044353233
   3     922.3272271000      0.0230201076
   4     261.2407098900      0.0928224906
   5      85.3546413510      0.2937850002
   6      31.0350352450      0.6740160450
 S 2 
   1      12.2608607280      0.6383993702
   2       4.9987076005      0.3953458713
 S 1 
   1       1.1703108158      1.0000000000
 S 1 
   1       0.4647474099      1.0000000000
 S 1 
   1       0.1850453636      1.0000000000
 P 4 
   1      63.2749548010      0.0120183321
   2      14.6270493790      0.0830054217
   3       4.4501223456      0.3199174393
   4       1.5275799647      0.7071554292
 P 1 
   1       0.5293511794      1.0000000000
 P 1 
   1       0.1747842127      1.0000000000
 D 1 
   1       2.3140000000      1.0000000000
 D 1 
   1       0.6450000000      1.0000000000
 F 1 
   1       1.4280000000      1.0000000000
  end;



           ************************************************************
           *        Program running with 48 parallel MPI-processes    *
           *              working on a common directory               *
           ************************************************************
------------------------------------------------------------------------------
                           ORCA GTO INTEGRAL CALCULATION
------------------------------------------------------------------------------

                         BASIS SET STATISTICS AND STARTUP INFO

 # of primitive gaussian shells          ... 1180
 # of primitive gaussian functions       ... 2540
 # of contracted shells                  ...  670
 # of contracted basis functions         ... 1730
 Highest angular momentum                ...    3
 Maximum contraction depth               ...    6
 Integral package used                   ... LIBINT
 Integral threshhold            Thresh   ...  2.500e-11
 Primitive cut-off              TCut     ...  2.500e-12


------------------------------ INTEGRAL EVALUATION ----------------------------


 * One electron integrals 
 Pre-screening matrix                    ... done
 Shell pair data                         ... done (   0.027 sec)



           ************************************************************
           *        Program running with 48 parallel MPI-processes    *
           *              working on a common directory               *
           ************************************************************
-------------------------------------------------------------------------------
                                 ORCA SCF
-------------------------------------------------------------------------------

------------
SCF SETTINGS
------------
Hamiltonian:
 Density Functional     Method          .... DFT(GTOs)
 Exchange Functional    Exchange        .... PBE
   PBE kappa parameter   XKappa         ....  0.804000
   PBE mue parameter    XMuePBE         ....  0.219520
 Correlation Functional Correlation     .... PBE
   PBE beta parameter  CBetaPBE         ....  0.066725
 LDA part of GGA corr.  LDAOpt          .... PW91-LDA
 Gradients option       PostSCFGGA      .... off
 Hybrid DFT is turned on
   Fraction HF Exchange ScalHFX         ....  0.250000
   Scaling of DF-GGA-X  ScalDFX         ....  0.750000
   Scaling of DF-GGA-C  ScalDFC         ....  1.000000
   Scaling of DF-LDA-C  ScalLDAC        ....  1.000000
   Perturbative correction              ....  0.000000
   Density functional embedding theory  .... OFF
   NL short-range parameter             ....  6.900000


General Settings:
 Integral files         IntName         .... _fe6dd_xtb_dft_sg80_1_1
 Hartree-Fock type      HFTyp           .... RHF
 Total Charge           Charge          ....    0
 Multiplicity           Mult            ....    1
 Number of Electrons    NEL             ....  338
 Basis Dimension        Dim             .... 1730
 Nuclear Repulsion      ENuc            ....   5331.4464339034 Eh

Convergence Acceleration:
 DIIS                   CNVDIIS         .... on
   Start iteration      DIISMaxIt       ....     0
   Startup error        DIISStart       ....  0.200000
   # of expansion vecs  DIISMaxEq       ....     5
   Bias factor          DIISBfac        ....   1.050
   Max. coefficient     DIISMaxC        ....  10.000
 Newton-Raphson         CNVNR           .... off
 SOSCF                  CNVSOSCF        .... on
   Start iteration      SOSCFMaxIt      ....   150
   Startup grad/error   SOSCFStart      ....  0.001000
 Level Shifting         CNVShift        .... on
   Level shift para.    LevelShift      ....    0.2500
   Turn off err/grad.   ShiftErr        ....    0.0000
 Zerner damping         CNVZerner       .... off
 Static damping         CNVDamp         .... on
   Fraction old density DampFac         ....    0.8500
   Max. Damping (<1)    DampMax         ....    0.9800
   Min. Damping (>=0)   DampMin         ....    0.0000
   Turn off err/grad.   DampErr         ....    0.0300
 Fernandez-Rico         CNVRico         .... off

SCF Procedure:
 Maximum # iterations   MaxIter         ....  2000
 SCF integral mode      SCFMode         .... Direct
   Integral package                     .... LIBINT
 Reset frequency        DirectResetFreq ....    20
 Integral Threshold     Thresh          ....  2.500e-11 Eh
 Primitive CutOff       TCut            ....  2.500e-12 Eh

Convergence Tolerance:
 Convergence Check Mode ConvCheckMode   .... Total+1el-Energy
 Convergence forced     ConvForced      .... 0
 Energy Change          TolE            ....  1.000e-08 Eh
 1-El. energy change                    ....  1.000e-05 Eh
 Orbital Gradient       TolG            ....  1.000e-05
 Orbital Rotation angle TolX            ....  1.000e-05
 DIIS Error             TolErr          ....  5.000e-07


Diagonalization of the overlap matrix:
Smallest eigenvalue                        ... 3.379e-06
Time for diagonalization                   ...    0.487 sec
Threshold for overlap eigenvalues          ... 1.000e-08
Number of eigenvalues below threshold      ... 0
Time for construction of square roots      ...    0.414 sec
Total time needed                          ...    0.910 sec

-------------------
DFT GRID GENERATION
-------------------

General Integration Accuracy     IntAcc      ...  5.340
Radial Grid Type                 RadialGrid  ... Gauss-Chebyshev
Angular Grid (max. acc.)         AngularGrid ... Lebedev-590
Angular grid pruning method      GridPruning ... 3 (G Style)
Weight generation scheme         WeightScheme... Becke
Basis function cutoff            BFCut       ...    1.0000e-11
Integration weight cutoff        WCut        ...    1.0000e-14
Grids for H and He will be reduced by one unit

# of grid points (after initial pruning)     ... 1154996 (   0.0 sec)
# of grid points (after weights+screening)   ... 986127 (   1.3 sec)
nearest neighbour list constructed           ...    0.0 sec
Grid point re-assignment to atoms done       ...    0.2 sec
Grid point division into batches done        ...   10.5 sec
Reduced shell lists constructed in   11.2 sec

Total number of grid points                  ...   986127
Total number of batches                      ...    15453
Average number of points per batch           ...       63
Average number of grid points per atom       ...    12327
Average number of shells per batch           ...   168.65 (25.17%)
Average number of basis functions per batch  ...   408.79 (23.63%)
Average number of large shells per batch     ...   100.05 (59.32%)
Average number of large basis fcns per batch ...   237.91 (58.20%)
Maximum spatial batch extension              ...  14.84, 12.82, 11.89 au
Average spatial batch extension              ...   0.04,  0.04,  0.04 au

Time for grid setup =   12.743 sec

------------------------------
INITIAL GUESS: MODEL POTENTIAL
------------------------------
Loading Hartree-Fock densities                     ... done
Calculating cut-offs                               ... done
Setting up the integral package                    ... done
Initializing the effective Hamiltonian             ... done
Starting the Coulomb interaction                   ... done (   0.3 sec)
Reading the grid                                   ... done
Mapping shells                                     ... done
Starting the XC term evaluation                    ... done (   0.7 sec)
  promolecular density results
     # of electrons  =    337.985268987
     EX              =   -276.410690926
     EC              =    -11.370925720
     EX+EC           =   -287.781616646
Transforming the Hamiltonian                       ... done (   0.2 sec)
Diagonalizing the Hamiltonian                      ... done (   0.5 sec)
Back transforming the eigenvectors                 ... done (   0.1 sec)
Now organizing SCF variables                       ... done
                      ------------------
                      INITIAL GUESS DONE (  14.8 sec)
                      ------------------
--------------
SCF ITERATIONS
--------------
ITER       Energy         Delta-E        Max-DP      RMS-DP      [F,P]     Damp
               ***  Starting incremental Fock matrix formation  ***
  0  -2061.5417859370   0.000000000000 0.16999090  0.00037936  0.1980746 0.8500
  1  -2061.7807711545  -0.238985217426 0.23016284  0.00049445  0.1449405 0.8500
                               ***Turning on DIIS***
  2  -2061.9450290958  -0.164257941381 0.17688732  0.00040497  0.0987874 0.8500
  3  -2062.0540451500  -0.109016054181 0.07001595  0.00020531  0.0663418 0.8500
  4  -2062.1347198607  -0.080674710645 0.02330206  0.00011497  0.0514951 0.8500
  5  -2062.1968615153  -0.062141654649 0.01136270  0.00008188  0.0426360 0.8500
  6  -2062.2470636891  -0.050202173816 0.01108116  0.00006695  0.0358667 0.8500
  7  -2062.2886155051  -0.041551815993 0.00952715  0.00005666  0.0303299 0.8500
  8  -2062.3234961452  -0.034880640087 0.05658997  0.00032521  0.0253302 0.0000
  9  -2062.5102063543  -0.186710209065 0.01696690  0.00004105  0.0029822 0.0000
 10  -2062.5103135748  -0.000107220515 0.00181237  0.00001181  0.0024836 0.0000
                      *** Initiating the SOSCF procedure ***
                           *** Shutting down DIIS ***
                      *** Re-Reading the Fockian *** 
                      *** Removing any level shift *** 
ITER      Energy       Delta-E        Grad      Rot      Max-DP    RMS-DP
 11  -2062.51039096  -0.0000773813  0.000115  0.000115  0.001770  0.000008
               *** Restarting incremental Fock matrix formation ***
 12  -2062.51039582  -0.0000048594  0.000062  0.000320  0.001738  0.000009
 13  -2062.51039396   0.0000018547  0.000126  0.000200  0.000470  0.000003
 14  -2062.51039664  -0.0000026831  0.000015  0.000053  0.001904  0.000005
 15  -2062.51039664   0.0000000074  0.000027  0.000038  0.002571  0.000006
 16  -2062.51039670  -0.0000000677  0.000003  0.000009  0.003923  0.000006
 17  -2062.51039670   0.0000000029  0.000003  0.000004  0.001925  0.000003
                  ***Gradient check signals convergence***
              ***Rediagonalizing the Fockian in SOSCF/NRSCF***

               *****************************************************
               *                     SUCCESS                       *
               *           SCF CONVERGED AFTER  18 CYCLES          *
               *****************************************************


----------------
TOTAL SCF ENERGY
----------------

Total Energy       :        -2062.51039671 Eh          -56123.76117 eV

Components:
Nuclear Repulsion  :         5331.44643390 Eh          145076.03299 eV
Electronic Energy  :        -7393.95683062 Eh         -201199.79416 eV
One Electron Energy:       -13406.87706153 Eh         -364819.67192 eV
Two Electron Energy:         6012.92023091 Eh          163619.87776 eV

Virial components:
Potential Energy   :        -4114.46780803 Eh         -111960.36101 eV
Kinetic Energy     :         2051.95741132 Eh           55836.59984 eV
Virial Ratio       :            2.00514289


DFT components:
N(Alpha)           :      168.999985990627 electrons
N(Beta)            :      168.999985990627 electrons
N(Total)           :      337.999971981254 electrons
E(X)               :     -210.823482002859 Eh       
E(C)               :      -11.375413854993 Eh       
E(XC)              :     -222.198895857852 Eh       
DFET-embed. en.    :        0.000000000000 Eh       

---------------
SCF CONVERGENCE
---------------

  Last Energy change         ...   -1.2129e-08  Tolerance :   1.0000e-08
  Last MAX-Density change    ...    1.1225e-03  Tolerance :   1.0000e-07
  Last RMS-Density change    ...    2.8863e-06  Tolerance :   5.0000e-09
  Last Orbital Gradient      ...    5.4060e-07  Tolerance :   1.0000e-05
  Last Orbital Rotation      ...    2.7364e-06  Tolerance :   1.0000e-05

             **** THE GBW FILE WAS UPDATED (_fe6dd_xtb_dft_sg80_1_1.gbw) ****
             **** DENSITY FILE WAS UPDATED (_fe6dd_xtb_dft_sg80_1_1.scfp) ****
             **** ENERGY FILE WAS UPDATED (_fe6dd_xtb_dft_sg80_1_1.en.tmp) ****
             **** THE GBW FILE WAS UPDATED (_fe6dd_xtb_dft_sg80_1_1.gbw) ****
             **** DENSITY FILE WAS UPDATED (_fe6dd_xtb_dft_sg80_1_1.scfp) ****
----------------
ORBITAL ENERGIES
----------------

  NO   OCC          E(Eh)            E(eV) 
   0   2.0000     -19.256654      -524.0002 
   1   2.0000     -19.254345      -523.9374 
   2   2.0000     -14.386784      -391.4843 
   3   2.0000     -14.385444      -391.4478 
   4   2.0000     -14.383208      -391.3870 
   5   2.0000     -14.382515      -391.3681 
   6   2.0000     -10.313278      -280.6386 
   7   2.0000     -10.312240      -280.6103 
   8   2.0000     -10.271906      -279.5128 
   9   2.0000     -10.271479      -279.5012 
  10   2.0000     -10.270365      -279.4708 
  11   2.0000     -10.269935      -279.4591 
  12   2.0000     -10.266615      -279.3688 
  13   2.0000     -10.266066      -279.3539 
  14   2.0000     -10.260699      -279.2078 
  15   2.0000     -10.260639      -279.2062 
  16   2.0000     -10.259872      -279.1853 
  17   2.0000     -10.258991      -279.1613 
  18   2.0000     -10.258689      -279.1531 
  19   2.0000     -10.258083      -279.1366 
  20   2.0000     -10.257761      -279.1279 
  21   2.0000     -10.256995      -279.1070 
  22   2.0000     -10.256823      -279.1024 
  23   2.0000     -10.255065      -279.0545 
  24   2.0000     -10.253989      -279.0252 
  25   2.0000     -10.253617      -279.0151 
  26   2.0000     -10.252988      -278.9980 
  27   2.0000     -10.252378      -278.9814 
  28   2.0000     -10.252347      -278.9805 
  29   2.0000     -10.251745      -278.9642 
  30   2.0000     -10.249357      -278.8992 
  31   2.0000     -10.246539      -278.8225 
  32   2.0000     -10.245583      -278.7965 
  33   2.0000     -10.244184      -278.7584 
  34   2.0000     -10.243387      -278.7367 
  35   2.0000     -10.242127      -278.7024 
  36   2.0000     -10.241839      -278.6946 
  37   2.0000     -10.241261      -278.6789 
  38   2.0000     -10.239727      -278.6371 
  39   2.0000     -10.238959      -278.6162 
  40   2.0000     -10.226797      -278.2853 
  41   2.0000     -10.226340      -278.2729 
  42   2.0000     -10.226313      -278.2721 
  43   2.0000     -10.225829      -278.2589 
  44   2.0000     -10.224847      -278.2322 
  45   2.0000     -10.224478      -278.2222 
  46   2.0000     -10.223035      -278.1829 
  47   2.0000     -10.222637      -278.1721 
  48   2.0000     -10.222544      -278.1696 
  49   2.0000     -10.222469      -278.1675 
  50   2.0000      -1.120644       -30.4943 
  51   2.0000      -1.113682       -30.3048 
  52   2.0000      -0.987091       -26.8601 
  53   2.0000      -0.985736       -26.8232 
  54   2.0000      -0.953933       -25.9578 
  55   2.0000      -0.952696       -25.9242 
  56   2.0000      -0.928067       -25.2540 
  57   2.0000      -0.917084       -24.9551 
  58   2.0000      -0.877178       -23.8692 
  59   2.0000      -0.875421       -23.8214 
  60   2.0000      -0.870128       -23.6774 
  61   2.0000      -0.869026       -23.6474 
  62   2.0000      -0.856194       -23.2982 
  63   2.0000      -0.836095       -22.7513 
  64   2.0000      -0.829232       -22.5645 
  65   2.0000      -0.816004       -22.2046 
  66   2.0000      -0.812243       -22.1023 
  67   2.0000      -0.801353       -21.8059 
  68   2.0000      -0.780869       -21.2485 
  69   2.0000      -0.779308       -21.2060 
  70   2.0000      -0.768157       -20.9026 
  71   2.0000      -0.767644       -20.8887 
  72   2.0000      -0.767185       -20.8762 
  73   2.0000      -0.758526       -20.6405 
  74   2.0000      -0.753181       -20.4951 
  75   2.0000      -0.743576       -20.2337 
  76   2.0000      -0.700985       -19.0748 
  77   2.0000      -0.696123       -18.9425 
  78   2.0000      -0.691325       -18.8119 
  79   2.0000      -0.669772       -18.2254 
  80   2.0000      -0.663818       -18.0634 
  81   2.0000      -0.655410       -17.8346 
  82   2.0000      -0.647179       -17.6106 
  83   2.0000      -0.646310       -17.5870 
  84   2.0000      -0.642187       -17.4748 
  85   2.0000      -0.627066       -17.0633 
  86   2.0000      -0.625956       -17.0331 
  87   2.0000      -0.620123       -16.8744 
  88   2.0000      -0.618567       -16.8321 
  89   2.0000      -0.613544       -16.6954 
  90   2.0000      -0.588450       -16.0125 
  91   2.0000      -0.587970       -15.9995 
  92   2.0000      -0.584633       -15.9087 
  93   2.0000      -0.584240       -15.8980 
  94   2.0000      -0.559649       -15.2288 
  95   2.0000      -0.555666       -15.1204 
  96   2.0000      -0.553195       -15.0532 
  97   2.0000      -0.544796       -14.8247 
  98   2.0000      -0.544002       -14.8030 
  99   2.0000      -0.539615       -14.6837 
 100   2.0000      -0.525411       -14.2972 
 101   2.0000      -0.518684       -14.1141 
 102   2.0000      -0.505358       -13.7515 
 103   2.0000      -0.503869       -13.7110 
 104   2.0000      -0.495506       -13.4834 
 105   2.0000      -0.493243       -13.4218 
 106   2.0000      -0.489714       -13.3258 
 107   2.0000      -0.487642       -13.2694 
 108   2.0000      -0.481523       -13.1029 
 109   2.0000      -0.477940       -13.0054 
 110   2.0000      -0.476150       -12.9567 
 111   2.0000      -0.471354       -12.8262 
 112   2.0000      -0.470777       -12.8105 
 113   2.0000      -0.470081       -12.7915 
 114   2.0000      -0.466768       -12.7014 
 115   2.0000      -0.461562       -12.5597 
 116   2.0000      -0.457400       -12.4465 
 117   2.0000      -0.452693       -12.3184 
 118   2.0000      -0.452130       -12.3031 
 119   2.0000      -0.446565       -12.1516 
 120   2.0000      -0.446016       -12.1367 
 121   2.0000      -0.442339       -12.0367 
 122   2.0000      -0.441430       -12.0119 
 123   2.0000      -0.435577       -11.8527 
 124   2.0000      -0.433870       -11.8062 
 125   2.0000      -0.431188       -11.7332 
 126   2.0000      -0.429954       -11.6996 
 127   2.0000      -0.427772       -11.6403 
 128   2.0000      -0.424761       -11.5583 
 129   2.0000      -0.421910       -11.4808 
 130   2.0000      -0.419425       -11.4131 
 131   2.0000      -0.415362       -11.3026 
 132   2.0000      -0.412401       -11.2220 
 133   2.0000      -0.406080       -11.0500 
 134   2.0000      -0.401185       -10.9168 
 135   2.0000      -0.398735       -10.8501 
 136   2.0000      -0.394754       -10.7418 
 137   2.0000      -0.383640       -10.4394 
 138   2.0000      -0.383298       -10.4301 
 139   2.0000      -0.372981       -10.1493 
 140   2.0000      -0.371210       -10.1011 
 141   2.0000      -0.370380       -10.0785 
 142   2.0000      -0.369617       -10.0578 
 143   2.0000      -0.367720       -10.0062 
 144   2.0000      -0.361646        -9.8409 
 145   2.0000      -0.361073        -9.8253 
 146   2.0000      -0.352589        -9.5944 
 147   2.0000      -0.350797        -9.5457 
 148   2.0000      -0.348849        -9.4927 
 149   2.0000      -0.338959        -9.2235 
 150   2.0000      -0.337226        -9.1764 
 151   2.0000      -0.319149        -8.6845 
 152   2.0000      -0.311641        -8.4802 
 153   2.0000      -0.308385        -8.3916 
 154   2.0000      -0.304979        -8.2989 
 155   2.0000      -0.302523        -8.2321 
 156   2.0000      -0.301649        -8.2083 
 157   2.0000      -0.285257        -7.7622 
 158   2.0000      -0.283480        -7.7139 
 159   2.0000      -0.272529        -7.4159 
 160   2.0000      -0.270239        -7.3536 
 161   2.0000      -0.265151        -7.2151 
 162   2.0000      -0.264613        -7.2005 
 163   2.0000      -0.254276        -6.9192 
 164   2.0000      -0.248585        -6.7643 
 165   2.0000      -0.242584        -6.6010 
 166   2.0000      -0.238339        -6.4855 
 167   2.0000      -0.228519        -6.2183 
 168   2.0000      -0.227897        -6.2014 
 169   0.0000      -0.080432        -2.1887 
 170   0.0000      -0.078337        -2.1317 
 171   0.0000      -0.057120        -1.5543 
 172   0.0000      -0.054320        -1.4781 
 173   0.0000      -0.030202        -0.8219 
 174   0.0000      -0.028710        -0.7812 
 175   0.0000      -0.027028        -0.7355 
 176   0.0000      -0.022404        -0.6096 
 177   0.0000      -0.005657        -0.1539 
 178   0.0000      -0.004806        -0.1308 
 179   0.0000       0.000034         0.0009 
 180   0.0000       0.004993         0.1359 
 181   0.0000       0.006328         0.1722 
 182   0.0000       0.008268         0.2250 
 183   0.0000       0.028067         0.7637 
 184   0.0000       0.035912         0.9772 
 185   0.0000       0.038093         1.0366 
 186   0.0000       0.047910         1.3037 
 187   0.0000       0.050198         1.3660 
 188   0.0000       0.053186         1.4473 
 189   0.0000       0.056850         1.5470 
 190   0.0000       0.060373         1.6428 
 191   0.0000       0.063477         1.7273 
 192   0.0000       0.065050         1.7701 
 193   0.0000       0.068477         1.8634 
 194   0.0000       0.069465         1.8902 
 195   0.0000       0.078768         2.1434 
 196   0.0000       0.079485         2.1629 
 197   0.0000       0.086211         2.3459 
 198   0.0000       0.086713         2.3596 
 199   0.0000       0.089320         2.4305 
 200   0.0000       0.092239         2.5099 
 201   0.0000       0.093374         2.5408 
 202   0.0000       0.097343         2.6488 
 203   0.0000       0.098505         2.6804 
 204   0.0000       0.099280         2.7015 
 205   0.0000       0.106470         2.8972 
 206   0.0000       0.106888         2.9086 
 207   0.0000       0.110238         2.9997 
 208   0.0000       0.113334         3.0840 
 209   0.0000       0.113895         3.0992 
 210   0.0000       0.115335         3.1384 
 211   0.0000       0.120292         3.2733 
 212   0.0000       0.121821         3.3149 
 213   0.0000       0.123056         3.3485 
 214   0.0000       0.125968         3.4278 
 215   0.0000       0.127427         3.4675 
 216   0.0000       0.128369         3.4931 
 217   0.0000       0.132062         3.5936 
 218   0.0000       0.136614         3.7175 
 219   0.0000       0.138732         3.7751 
 220   0.0000       0.141591         3.8529 
 221   0.0000       0.147176         4.0049 
 222   0.0000       0.148546         4.0421 
 223   0.0000       0.153357         4.1730 
 224   0.0000       0.154568         4.2060 
 225   0.0000       0.156530         4.2594 
 226   0.0000       0.160407         4.3649 
 227   0.0000       0.161928         4.4063 
 228   0.0000       0.165150         4.4940 
 229   0.0000       0.167737         4.5644 
 230   0.0000       0.168735         4.5915 
 231   0.0000       0.177335         4.8255 
 232   0.0000       0.180427         4.9097 
 233   0.0000       0.183308         4.9881 
 234   0.0000       0.185855         5.0574 
 235   0.0000       0.187947         5.1143 
 236   0.0000       0.190611         5.1868 
 237   0.0000       0.195747         5.3265 
 238   0.0000       0.196449         5.3457 
 239   0.0000       0.200073         5.4443 
 240   0.0000       0.202512         5.5106 
 241   0.0000       0.203828         5.5464 
 242   0.0000       0.205770         5.5993 
 243   0.0000       0.206212         5.6113 
 244   0.0000       0.210831         5.7370 
 245   0.0000       0.214230         5.8295 
 246   0.0000       0.215541         5.8652 
 247   0.0000       0.217327         5.9138 
 248   0.0000       0.219043         5.9605 
 249   0.0000       0.222145         6.0449 
 250   0.0000       0.222929         6.0662 
 251   0.0000       0.223930         6.0935 
 252   0.0000       0.226395         6.1605 
 253   0.0000       0.226929         6.1750 
 254   0.0000       0.228735         6.2242 
 255   0.0000       0.231275         6.2933 
 256   0.0000       0.231778         6.3070 
 257   0.0000       0.235192         6.3999 
 258   0.0000       0.237912         6.4739 
 259   0.0000       0.239581         6.5193 
 260   0.0000       0.241402         6.5689 
 261   0.0000       0.243533         6.6269 
 262   0.0000       0.244857         6.6629 
 263   0.0000       0.246171         6.6987 
 264   0.0000       0.248199         6.7538 
 265   0.0000       0.249338         6.7848 
 266   0.0000       0.251599         6.8464 
 267   0.0000       0.252466         6.8699 
 268   0.0000       0.254901         6.9362 
 269   0.0000       0.256606         6.9826 
 270   0.0000       0.257257         7.0003 
 271   0.0000       0.258074         7.0226 
 272   0.0000       0.261620         7.1190 
 273   0.0000       0.263142         7.1604 
 274   0.0000       0.265786         7.2324 
 275   0.0000       0.266472         7.2511 
 276   0.0000       0.268572         7.3082 
 277   0.0000       0.269528         7.3342 
 278   0.0000       0.273554         7.4438 
 279   0.0000       0.274244         7.4626 
 280   0.0000       0.274715         7.4754 
 281   0.0000       0.279361         7.6018 
 282   0.0000       0.281099         7.6491 
 283   0.0000       0.282031         7.6745 
 284   0.0000       0.284781         7.7493 
 285   0.0000       0.287533         7.8242 
 286   0.0000       0.288271         7.8443 
 287   0.0000       0.292799         7.9675 
 288   0.0000       0.295514         8.0413 
 289   0.0000       0.298133         8.1126 
 290   0.0000       0.298839         8.1318 
 291   0.0000       0.299269         8.1435 
 292   0.0000       0.303862         8.2685 
 293   0.0000       0.305508         8.3133 
 294   0.0000       0.308373         8.3913 
 295   0.0000       0.310344         8.4449 
 296   0.0000       0.310576         8.4512 
 297   0.0000       0.315219         8.5775 
 298   0.0000       0.317909         8.6507 
 299   0.0000       0.318675         8.6716 
 300   0.0000       0.319076         8.6825 
 301   0.0000       0.322462         8.7746 
 302   0.0000       0.325254         8.8506 
 303   0.0000       0.326636         8.8882 
 304   0.0000       0.328520         8.9395 
 305   0.0000       0.330604         8.9962 
 306   0.0000       0.332609         9.0508 
 307   0.0000       0.334620         9.1055 
 308   0.0000       0.336543         9.1578 
 309   0.0000       0.338232         9.2038 
 310   0.0000       0.341751         9.2995 
 311   0.0000       0.343898         9.3579 
 312   0.0000       0.345017         9.3884 
 313   0.0000       0.346772         9.4362 
 314   0.0000       0.347816         9.4646 
 315   0.0000       0.349377         9.5070 
 316   0.0000       0.353489         9.6189 
 317   0.0000       0.354089         9.6352 
 318   0.0000       0.355037         9.6610 
 319   0.0000       0.357520         9.7286 
 320   0.0000       0.359730         9.7888 
 321   0.0000       0.360358         9.8058 
 322   0.0000       0.361569         9.8388 
 323   0.0000       0.363549         9.8927 
 324   0.0000       0.364075         9.9070 
 325   0.0000       0.367870        10.0102 
 326   0.0000       0.368642        10.0313 
 327   0.0000       0.372041        10.1237 
 328   0.0000       0.373040        10.1509 
 329   0.0000       0.375430        10.2160 
 330   0.0000       0.376726        10.2512 
 331   0.0000       0.379837        10.3359 
 332   0.0000       0.380962        10.3665 
 333   0.0000       0.383170        10.4266 
 334   0.0000       0.386199        10.5090 
 335   0.0000       0.389141        10.5891 
 336   0.0000       0.389545        10.6001 
 337   0.0000       0.393525        10.7084 
 338   0.0000       0.394281        10.7289 
 339   0.0000       0.395419        10.7599 
 340   0.0000       0.398892        10.8544 
 341   0.0000       0.400479        10.8976 
 342   0.0000       0.402245        10.9456 
 343   0.0000       0.402693        10.9578 
 344   0.0000       0.404623        11.0103 
 345   0.0000       0.407572        11.0906 
 346   0.0000       0.409911        11.1543 
 347   0.0000       0.410995        11.1837 
 348   0.0000       0.413338        11.2475 
 349   0.0000       0.413677        11.2567 
 350   0.0000       0.418304        11.3826 
 351   0.0000       0.418437        11.3863 
 352   0.0000       0.421504        11.4697 
 353   0.0000       0.421971        11.4824 
 354   0.0000       0.423759        11.5311 
 355   0.0000       0.425742        11.5850 
 356   0.0000       0.427841        11.6421 
 357   0.0000       0.429452        11.6860 
 358   0.0000       0.431476        11.7411 
 359   0.0000       0.431712        11.7475 
 360   0.0000       0.433766        11.8034 
 361   0.0000       0.436674        11.8825 
 362   0.0000       0.437860        11.9148 
 363   0.0000       0.440591        11.9891 
 364   0.0000       0.441981        12.0269 
 365   0.0000       0.445311        12.1175 
 366   0.0000       0.447470        12.1763 
 367   0.0000       0.448111        12.1937 
 368   0.0000       0.449323        12.2267 
 369   0.0000       0.456136        12.4121 
 370   0.0000       0.457902        12.4601 
 371   0.0000       0.460470        12.5300 
 372   0.0000       0.463489        12.6122 
 373   0.0000       0.465008        12.6535 
 374   0.0000       0.465764        12.6741 
 375   0.0000       0.467735        12.7277 
 376   0.0000       0.468487        12.7482 
 377   0.0000       0.472027        12.8445 
 378   0.0000       0.473106        12.8739 
 379   0.0000       0.474993        12.9252 
 380   0.0000       0.478269        13.0144 
 381   0.0000       0.478705        13.0262 
 382   0.0000       0.479873        13.0580 
 383   0.0000       0.482375        13.1261 
 384   0.0000       0.483198        13.1485 
 385   0.0000       0.489496        13.3199 
 386   0.0000       0.491292        13.3687 
 387   0.0000       0.493556        13.4303 
 388   0.0000       0.495759        13.4903 
 389   0.0000       0.498066        13.5531 
 390   0.0000       0.499884        13.6025 
 391   0.0000       0.504144        13.7185 
 392   0.0000       0.506486        13.7822 
 393   0.0000       0.508092        13.8259 
 394   0.0000       0.508321        13.8321 
 395   0.0000       0.509677        13.8690 
 396   0.0000       0.511032        13.9059 
 397   0.0000       0.513664        13.9775 
 398   0.0000       0.514692        14.0055 
 399   0.0000       0.517498        14.0818 
 400   0.0000       0.520451        14.1622 
 401   0.0000       0.523575        14.2472 
 402   0.0000       0.524629        14.2759 
 403   0.0000       0.526967        14.3395 
 404   0.0000       0.528631        14.3848 
 405   0.0000       0.528992        14.3946 
 406   0.0000       0.532447        14.4886 
 407   0.0000       0.535313        14.5666 
 408   0.0000       0.536598        14.6016 
 409   0.0000       0.539819        14.6892 
 410   0.0000       0.542702        14.7677 
 411   0.0000       0.548394        14.9226 
 412   0.0000       0.550343        14.9756 
 413   0.0000       0.552358        15.0304 
 414   0.0000       0.557597        15.1730 
 415   0.0000       0.560936        15.2638 
 416   0.0000       0.562803        15.3146 
 417   0.0000       0.566636        15.4190 
 418   0.0000       0.567150        15.4329 
 419   0.0000       0.573372        15.6023 
 420   0.0000       0.576973        15.7002 
 421   0.0000       0.582636        15.8543 
 422   0.0000       0.584944        15.9171 
 423   0.0000       0.586883        15.9699 
 424   0.0000       0.591163        16.0864 
 425   0.0000       0.593962        16.1625 
 426   0.0000       0.595425        16.2023 
 427   0.0000       0.595828        16.2133 
 428   0.0000       0.599305        16.3079 
 429   0.0000       0.605755        16.4834 
 430   0.0000       0.609674        16.5901 
 431   0.0000       0.611971        16.6526 
 432   0.0000       0.613520        16.6947 
 433   0.0000       0.616032        16.7631 
 434   0.0000       0.620589        16.8871 
 435   0.0000       0.623933        16.9781 
 436   0.0000       0.629224        17.1221 
 437   0.0000       0.634496        17.2655 
 438   0.0000       0.636570        17.3219 
 439   0.0000       0.640741        17.4354 
 440   0.0000       0.643826        17.5194 
 441   0.0000       0.644739        17.5442 
 442   0.0000       0.647879        17.6297 
 443   0.0000       0.650554        17.7025 
 444   0.0000       0.651378        17.7249 
 445   0.0000       0.655679        17.8419 
 446   0.0000       0.656843        17.8736 
 447   0.0000       0.662785        18.0353 
 448   0.0000       0.664876        18.0922 
 449   0.0000       0.665428        18.1072 
 450   0.0000       0.666084        18.1251 
 451   0.0000       0.670236        18.2380 
 452   0.0000       0.672035        18.2870 
 453   0.0000       0.672198        18.2914 
 454   0.0000       0.675242        18.3743 
 455   0.0000       0.675737        18.3877 
 456   0.0000       0.681076        18.5330 
 457   0.0000       0.687109        18.6972 
 458   0.0000       0.688005        18.7216 
 459   0.0000       0.688955        18.7474 
 460   0.0000       0.690627        18.7929 
 461   0.0000       0.694320        18.8934 
 462   0.0000       0.695481        18.9250 
 463   0.0000       0.697010        18.9666 
 464   0.0000       0.698686        19.0122 
 465   0.0000       0.702737        19.1225 
 466   0.0000       0.704414        19.1681 
 467   0.0000       0.708801        19.2875 
 468   0.0000       0.709858        19.3162 
 469   0.0000       0.710893        19.3444 
 470   0.0000       0.712003        19.3746 
 471   0.0000       0.714579        19.4447 
 472   0.0000       0.715063        19.4579 
 473   0.0000       0.717183        19.5155 
 474   0.0000       0.719702        19.5841 
 475   0.0000       0.721386        19.6299 
 476   0.0000       0.722996        19.6737 
 477   0.0000       0.728261        19.8170 
 478   0.0000       0.730211        19.8701 
 479   0.0000       0.731032        19.8924 
 480   0.0000       0.731255        19.8985 
 481   0.0000       0.733280        19.9536 
 482   0.0000       0.735053        20.0018 
 483   0.0000       0.737275        20.0623 
 484   0.0000       0.740582        20.1523 
 485   0.0000       0.741674        20.1820 
 486   0.0000       0.744044        20.2465 
 487   0.0000       0.747325        20.3357 
 488   0.0000       0.750017        20.4090 
 489   0.0000       0.753684        20.5088 
 490   0.0000       0.756320        20.5805 
 491   0.0000       0.758115        20.6294 
 492   0.0000       0.759319        20.6621 
 493   0.0000       0.762745        20.7554 
 494   0.0000       0.765629        20.8338 
 495   0.0000       0.767842        20.8941 
 496   0.0000       0.771482        20.9931 
 497   0.0000       0.771893        21.0043 
 498   0.0000       0.774971        21.0880 
 499   0.0000       0.778563        21.1858 
 500   0.0000       0.779949        21.2235 
 501   0.0000       0.782023        21.2799 
 502   0.0000       0.786003        21.3882 
 503   0.0000       0.788886        21.4667 
 504   0.0000       0.791419        21.5356 
 505   0.0000       0.792927        21.5766 
 506   0.0000       0.794047        21.6071 
 507   0.0000       0.799064        21.7436 
 508   0.0000       0.799644        21.7594 
 509   0.0000       0.803220        21.8567 
 510   0.0000       0.805117        21.9083 
 511   0.0000       0.809260        22.0211 
 512   0.0000       0.810738        22.0613 
 513   0.0000       0.811337        22.0776 
 514   0.0000       0.816224        22.2106 
 515   0.0000       0.818657        22.2768 
 516   0.0000       0.823105        22.3978 
 517   0.0000       0.825507        22.4632 
 518   0.0000       0.827669        22.5220 
 519   0.0000       0.830962        22.6116 
 520   0.0000       0.835414        22.7328 
 521   0.0000       0.836068        22.7506 
 522   0.0000       0.839859        22.8537 
 523   0.0000       0.843352        22.9488 
 524   0.0000       0.845679        23.0121 
 525   0.0000       0.849481        23.1156 
 526   0.0000       0.851985        23.1837 
 527   0.0000       0.852346        23.1935 
 528   0.0000       0.853204        23.2168 
 529   0.0000       0.857914        23.3450 
 530   0.0000       0.859331        23.3836 
 531   0.0000       0.861909        23.4537 
 532   0.0000       0.865022        23.5384 
 533   0.0000       0.867126        23.5957 
 534   0.0000       0.868597        23.6357 
 535   0.0000       0.872846        23.7513 
 536   0.0000       0.878088        23.8940 
 537   0.0000       0.882438        24.0124 
 538   0.0000       0.885064        24.0838 
 539   0.0000       0.888839        24.1865 
 540   0.0000       0.889636        24.2082 
 541   0.0000       0.892797        24.2942 
 542   0.0000       0.895455        24.3666 
 543   0.0000       0.899129        24.4665 
 544   0.0000       0.900174        24.4950 
 545   0.0000       0.902539        24.5593 
 546   0.0000       0.902848        24.5677 
 547   0.0000       0.905235        24.6327 
 548   0.0000       0.909044        24.7363 
 549   0.0000       0.910907        24.7870 
 550   0.0000       0.914095        24.8738 
 551   0.0000       0.919442        25.0193 
 552   0.0000       0.923705        25.1353 
 553   0.0000       0.926828        25.2203 
 554   0.0000       0.928951        25.2780 
 555   0.0000       0.935155        25.4469 
 556   0.0000       0.936709        25.4892 
 557   0.0000       0.941771        25.6269 
 558   0.0000       0.945076        25.7168 
 559   0.0000       0.950412        25.8620 
 560   0.0000       0.954045        25.9609 
 561   0.0000       0.963108        26.2075 
 562   0.0000       0.968111        26.3436 
 563   0.0000       0.975867        26.5547 
 564   0.0000       0.978749        26.6331 
 565   0.0000       0.981779        26.7156 
 566   0.0000       0.985168        26.8078 
 567   0.0000       0.991854        26.9897 
 568   0.0000       0.993134        27.0246 
 569   0.0000       0.997454        27.1421 
 570   0.0000       1.001731        27.2585 
 571   0.0000       1.004369        27.3303 
 572   0.0000       1.007123        27.4052 
 573   0.0000       1.010541        27.4982 
 574   0.0000       1.011508        27.5245 
 575   0.0000       1.019610        27.7450 
 576   0.0000       1.023368        27.8473 
 577   0.0000       1.024527        27.8788 
 578   0.0000       1.029089        28.0029 
 579   0.0000       1.034799        28.1583 
 580   0.0000       1.037892        28.2425 
 581   0.0000       1.042507        28.3681 
 582   0.0000       1.044410        28.4198 
 583   0.0000       1.048269        28.5248 
 584   0.0000       1.051685        28.6178 
 585   0.0000       1.056066        28.7370 
 586   0.0000       1.058182        28.7946 
 587   0.0000       1.067956        29.0606 
 588   0.0000       1.070669        29.1344 
 589   0.0000       1.074856        29.2483 
 590   0.0000       1.076553        29.2945 
 591   0.0000       1.077663        29.3247 
 592   0.0000       1.082968        29.4691 
 593   0.0000       1.084424        29.5087 
 594   0.0000       1.084696        29.5161 
 595   0.0000       1.089867        29.6568 
 596   0.0000       1.094079        29.7714 
 597   0.0000       1.101062        29.9614 
 598   0.0000       1.103787        30.0356 
 599   0.0000       1.108908        30.1749 
 600   0.0000       1.114937        30.3390 
 601   0.0000       1.121511        30.5179 
 602   0.0000       1.125569        30.6283 
 603   0.0000       1.126012        30.6404 
 604   0.0000       1.134863        30.8812 
 605   0.0000       1.136995        30.9392 
 606   0.0000       1.141561        31.0634 
 607   0.0000       1.142577        31.0911 
 608   0.0000       1.149538        31.2805 
 609   0.0000       1.153428        31.3864 
 610   0.0000       1.154086        31.4043 
 611   0.0000       1.160670        31.5834 
 612   0.0000       1.168603        31.7993 
 613   0.0000       1.172292        31.8997 
 614   0.0000       1.174293        31.9541 
 615   0.0000       1.177610        32.0444 
 616   0.0000       1.178582        32.0708 
 617   0.0000       1.182996        32.1909 
 618   0.0000       1.189057        32.3559 
 619   0.0000       1.193025        32.4639 
 620   0.0000       1.197221        32.5780 
 621   0.0000       1.198257        32.6062 
 622   0.0000       1.208291        32.8793 
 623   0.0000       1.209271        32.9060 
 624   0.0000       1.212662        32.9982 
 625   0.0000       1.213862        33.0309 
 626   0.0000       1.217792        33.1378 
 627   0.0000       1.217985        33.1431 
 628   0.0000       1.219172        33.1753 
 629   0.0000       1.220713        33.2173 
 630   0.0000       1.222926        33.2775 
 631   0.0000       1.226236        33.3676 
 632   0.0000       1.231754        33.5177 
 633   0.0000       1.233163        33.5561 
 634   0.0000       1.233812        33.5737 
 635   0.0000       1.236426        33.6449 
 636   0.0000       1.238053        33.6891 
 637   0.0000       1.243254        33.8307 
 638   0.0000       1.246568        33.9208 
 639   0.0000       1.247479        33.9456 
 640   0.0000       1.248203        33.9653 
 641   0.0000       1.252536        34.0832 
 642   0.0000       1.257878        34.2286 
 643   0.0000       1.259651        34.2769 
 644   0.0000       1.262235        34.3472 
 645   0.0000       1.263999        34.3952 
 646   0.0000       1.268700        34.5231 
 647   0.0000       1.272368        34.6229 
 648   0.0000       1.273027        34.6408 
 649   0.0000       1.275837        34.7173 
 650   0.0000       1.278992        34.8031 
 651   0.0000       1.283558        34.9274 
 652   0.0000       1.285996        34.9937 
 653   0.0000       1.286755        35.0144 
 654   0.0000       1.289831        35.0981 
 655   0.0000       1.290082        35.1049 
 656   0.0000       1.294440        35.2235 
 657   0.0000       1.299831        35.3702 
 658   0.0000       1.302284        35.4370 
 659   0.0000       1.303802        35.4783 
 660   0.0000       1.305866        35.5344 
 661   0.0000       1.309459        35.6322 
 662   0.0000       1.311254        35.6810 
 663   0.0000       1.314061        35.7574 
 664   0.0000       1.322583        35.9893 
 665   0.0000       1.329285        36.1717 
 666   0.0000       1.335674        36.3455 
 667   0.0000       1.343594        36.5611 
 668   0.0000       1.347906        36.6784 
 669   0.0000       1.350358        36.7451 
 670   0.0000       1.356349        36.9081 
 671   0.0000       1.359750        37.0007 
 672   0.0000       1.363502        37.1028 
 673   0.0000       1.367065        37.1997 
 674   0.0000       1.371563        37.3221 
 675   0.0000       1.375409        37.4268 
 676   0.0000       1.378475        37.5102 
 677   0.0000       1.380528        37.5661 
 678   0.0000       1.387211        37.7479 
 679   0.0000       1.391372        37.8612 
 680   0.0000       1.394862        37.9561 
 681   0.0000       1.398799        38.0633 
 682   0.0000       1.404629        38.2219 
 683   0.0000       1.406335        38.2683 
 684   0.0000       1.408127        38.3171 
 685   0.0000       1.411524        38.4095 
 686   0.0000       1.418427        38.5974 
 687   0.0000       1.419273        38.6204 
 688   0.0000       1.423584        38.7377 
 689   0.0000       1.425742        38.7964 
 690   0.0000       1.429059        38.8867 
 691   0.0000       1.431531        38.9539 
 692   0.0000       1.434686        39.0398 
 693   0.0000       1.436143        39.0794 
 694   0.0000       1.439460        39.1697 
 695   0.0000       1.447777        39.3960 
 696   0.0000       1.450245        39.4632 
 697   0.0000       1.453625        39.5551 
 698   0.0000       1.456153        39.6239 
 699   0.0000       1.461616        39.7726 
 700   0.0000       1.462259        39.7901 
 701   0.0000       1.466566        39.9073 
 702   0.0000       1.470147        40.0047 
 703   0.0000       1.471519        40.0421 
 704   0.0000       1.477726        40.2110 
 705   0.0000       1.478269        40.2257 
 706   0.0000       1.480908        40.2976 
 707   0.0000       1.484332        40.3907 
 708   0.0000       1.484953        40.4076 
 709   0.0000       1.487825        40.4858 
 710   0.0000       1.489467        40.5305 
 711   0.0000       1.491843        40.5951 
 712   0.0000       1.495515        40.6950 
 713   0.0000       1.497720        40.7550 
 714   0.0000       1.501363        40.8542 
 715   0.0000       1.504785        40.9473 
 716   0.0000       1.509890        41.0862 
 717   0.0000       1.519584        41.3500 
 718   0.0000       1.520791        41.3828 
 719   0.0000       1.523705        41.4621 
 720   0.0000       1.524938        41.4957 
 721   0.0000       1.526815        41.5467 
 722   0.0000       1.529348        41.6157 
 723   0.0000       1.533471        41.7279 
 724   0.0000       1.536183        41.8017 
 725   0.0000       1.539021        41.8789 
 726   0.0000       1.544681        42.0329 
 727   0.0000       1.547363        42.1059 
 728   0.0000       1.551863        42.2283 
 729   0.0000       1.558481        42.4084 
 730   0.0000       1.559540        42.4372 
 731   0.0000       1.561628        42.4941 
 732   0.0000       1.564247        42.5653 
 733   0.0000       1.566632        42.6302 
 734   0.0000       1.570604        42.7383 
 735   0.0000       1.571780        42.7703 
 736   0.0000       1.575211        42.8637 
 737   0.0000       1.575665        42.8760 
 738   0.0000       1.580188        42.9991 
 739   0.0000       1.584002        43.1029 
 740   0.0000       1.584692        43.1217 
 741   0.0000       1.589543        43.2537 
 742   0.0000       1.591870        43.3170 
[...]
      f+3     :     0.014592
      f-3     :     0.020512
 67 C s       :     2.713565  s :     2.713565
      pz      :     0.907723  p :     2.815509
      px      :     1.062185
      py      :     0.845601
      dz2     :     0.149368  d :     0.603211
      dxz     :     0.173230
      dyz     :     0.111574
      dx2y2   :     0.082383
      dxy     :     0.086657
      f0      :     0.011278  f :     0.072984
      f+1     :     0.022113
      f-1     :     0.010381
      f+2     :     0.008210
      f-2     :     0.008997
      f+3     :     0.006500
      f-3     :     0.005505
 68 C s       :     2.701665  s :     2.701665
      pz      :     0.842183  p :     2.717544
      px      :     0.842327
      py      :     1.033035
      dz2     :     0.085016  d :     0.694817
      dxz     :     0.122388
      dyz     :     0.106957
      dx2y2   :     0.192084
      dxy     :     0.188373
      f0      :     0.006917  f :     0.098779
      f+1     :     0.014664
      f-1     :     0.005731
      f+2     :     0.015147
      f-2     :     0.012876
      f+3     :     0.015917
      f-3     :     0.027527
 69 C s       :     2.703272  s :     2.703272
      pz      :     0.852083  p :     2.714556
      px      :     0.907842
      py      :     0.954631
      dz2     :     0.201138  d :     0.689415
      dxz     :     0.150322
      dyz     :     0.176769
      dx2y2   :     0.083845
      dxy     :     0.077342
      f0      :     0.023292  f :     0.096777
      f+1     :     0.020701
      f-1     :     0.021387
      f+2     :     0.011000
      f-2     :     0.009338
      f+3     :     0.005619
      f-3     :     0.005440
 70 C s       :     2.701255  s :     2.701255
      pz      :     1.013790  p :     2.841441
      px      :     0.872431
      py      :     0.955220
      dz2     :     0.120615  d :     0.506941
      dxz     :     0.075169
      dyz     :     0.146112
      dx2y2   :     0.082072
      dxy     :     0.082974
      f0      :     0.010575  f :     0.056201
      f+1     :     0.005586
      f-1     :     0.010290
      f+2     :     0.008068
      f-2     :     0.009662
      f+3     :     0.005247
      f-3     :     0.006772
 71 C s       :     2.701163  s :     2.701163
      pz      :     0.917176  p :     2.841263
      px      :     0.923995
      py      :     1.000092
      dz2     :     0.089303  d :     0.507940
      dxz     :     0.075527
      dyz     :     0.125024
      dx2y2   :     0.104429
      dxy     :     0.113657
      f0      :     0.007911  f :     0.056782
      f+1     :     0.007187
      f-1     :     0.006851
      f+2     :     0.010799
      f-2     :     0.007130
      f+3     :     0.008792
      f-3     :     0.008112
 72 C s       :     2.688562  s :     2.688562
      pz      :     0.868859  p :     2.836187
      px      :     0.975978
      py      :     0.991350
      dz2     :     0.050640  d :     0.517363
      dxz     :     0.073151
      dyz     :     0.083412
      dx2y2   :     0.157356
      dxy     :     0.152804
      f0      :     0.004229  f :     0.057393
      f+1     :     0.004586
      f-1     :     0.005286
      f+2     :     0.006988
      f-2     :     0.008323
      f+3     :     0.009245
      f-3     :     0.018737
 73 C s       :     2.688363  s :     2.688363
      pz      :     0.991021  p :     2.836457
      px      :     0.893717
      py      :     0.951719
      dz2     :     0.132374  d :     0.517992
      dxz     :     0.103060
      dyz     :     0.141011
      dx2y2   :     0.070701
      dxy     :     0.070846
      f0      :     0.010318  f :     0.057439
      f+1     :     0.009973
      f-1     :     0.012279
      f+2     :     0.007673
      f-2     :     0.007234
      f+3     :     0.005049
      f-3     :     0.004913
 74 C s       :     2.692970  s :     2.692970
      pz      :     0.889142  p :     2.839422
      px      :     0.994193
      py      :     0.956087
      dz2     :     0.054783  d :     0.496346
      dxz     :     0.067712
      dyz     :     0.086692
      dx2y2   :     0.136799
      dxy     :     0.150360
      f0      :     0.004493  f :     0.054933
      f+1     :     0.004743
      f-1     :     0.005273
      f+2     :     0.007278
      f-2     :     0.008339
      f+3     :     0.009383
      f-3     :     0.015424
 75 C s       :     2.692908  s :     2.692908
      pz      :     1.008294  p :     2.839904
      px      :     0.884802
      py      :     0.946808
      dz2     :     0.125992  d :     0.497739
      dxz     :     0.095299
      dyz     :     0.139087
      dx2y2   :     0.068511
      dxy     :     0.068850
      f0      :     0.009989  f :     0.055403
      f+1     :     0.008791
      f-1     :     0.012250
      f+2     :     0.007265
      f-2     :     0.006710
      f+3     :     0.005052
      f-3     :     0.005347
 76 C s       :     2.685299  s :     2.685299
      pz      :     0.855483  p :     2.803781
      px      :     0.950381
      py      :     0.997917
      dz2     :     0.054947  d :     0.524061
      dxz     :     0.079244
      dyz     :     0.085495
      dx2y2   :     0.157177
      dxy     :     0.147198
      f0      :     0.004236  f :     0.056769
      f+1     :     0.004972
      f-1     :     0.005068
      f+2     :     0.006994
      f-2     :     0.008361
      f+3     :     0.009090
      f-3     :     0.018049
 77 C s       :     2.685611  s :     2.685611
      pz      :     0.969024  p :     2.804875
      px      :     0.892241
      py      :     0.943610
      dz2     :     0.132651  d :     0.523440
      dxz     :     0.108343
      dyz     :     0.136831
      dx2y2   :     0.072327
      dxy     :     0.073288
      f0      :     0.010025  f :     0.056637
      f+1     :     0.010207
      f-1     :     0.011401
      f+2     :     0.007769
      f-2     :     0.006996
      f+3     :     0.005064
      f-3     :     0.005175
 78 C s       :     2.685547  s :     2.685547
      pz      :     0.922863  p :     2.861462
      px      :     0.966284
      py      :     0.972315
      dz2     :     0.054384  d :     0.499681
      dxz     :     0.070028
      dyz     :     0.084331
      dx2y2   :     0.146901
      dxy     :     0.144036
      f0      :     0.004373  f :     0.054576
      f+1     :     0.005111
      f-1     :     0.005394
      f+2     :     0.006957
      f-2     :     0.007436
      f+3     :     0.009420
      f-3     :     0.015887
 79 C s       :     2.685981  s :     2.685981
      pz      :     0.989568  p :     2.860249
      px      :     0.935602
      py      :     0.935080
      dz2     :     0.121958  d :     0.499836
      dxz     :     0.103826
      dyz     :     0.133416
      dx2y2   :     0.069880
      dxy     :     0.070756
      f0      :     0.008686  f :     0.054453
      f+1     :     0.009925
      f-1     :     0.011145
      f+2     :     0.007407
      f-2     :     0.007167
      f+3     :     0.004754
      f-3     :     0.005369


                      *****************************
                      * MAYER POPULATION ANALYSIS *
                      *****************************

  NA   - Mulliken gross atomic population
  ZA   - Total nuclear charge
  QA   - Mulliken gross atomic charge
  VA   - Mayer's total valence
  BVA  - Mayer's bonded valence
  FA   - Mayer's free valence

  ATOM       NA         ZA         QA         VA         BVA        FA
  0 H      0.6591     1.0000     0.3409     0.9133     0.9133    -0.0000
  1 H      0.6603     1.0000     0.3397     0.9144     0.9144    -0.0000
  2 H      0.8830     1.0000     0.1170     0.9782     0.9782    -0.0000
  3 H      0.8854     1.0000     0.1146     0.9806     0.9806    -0.0000
  4 H      0.8641     1.0000     0.1359     0.9692     0.9692    -0.0000
  5 H      0.8707     1.0000     0.1293     0.9794     0.9794    -0.0000
  6 H      0.8847     1.0000     0.1153     0.9674     0.9674    -0.0000
  7 H      0.8849     1.0000     0.1151     0.9675     0.9675    -0.0000
  8 H      0.8832     1.0000     0.1168     0.9655     0.9655    -0.0000
  9 H      0.8830     1.0000     0.1170     0.9655     0.9655    -0.0000
 10 H      0.8791     1.0000     0.1209     0.9670     0.9670    -0.0000
 11 H      0.8790     1.0000     0.1210     0.9669     0.9669    -0.0000
 12 H      0.8808     1.0000     0.1192     0.9695     0.9695     0.0000
 13 H      0.8794     1.0000     0.1206     0.9695     0.9695    -0.0000
 14 H      0.8835     1.0000     0.1165     0.9674     0.9674    -0.0000
 15 H      0.8839     1.0000     0.1161     0.9672     0.9672     0.0000
 16 H      0.8749     1.0000     0.1251     0.9691     0.9691    -0.0000
 17 H      0.8738     1.0000     0.1262     0.9692     0.9692    -0.0000
 18 H      0.8694     1.0000     0.1306     0.9736     0.9736    -0.0000
 19 H      0.8700     1.0000     0.1300     0.9733     0.9733    -0.0000
 20 H      0.8682     1.0000     0.1318     0.9864     0.9864    -0.0000
 21 H      0.8589     1.0000     0.1411     0.9686     0.9686    -0.0000
 22 H      0.8866     1.0000     0.1134     0.9897     0.9897    -0.0000
 23 H      0.8861     1.0000     0.1139     0.9888     0.9888    -0.0000
 24 H      0.8801     1.0000     0.1199     0.9705     0.9705    -0.0000
 25 H      0.8815     1.0000     0.1185     0.9703     0.9703    -0.0000
 26 H      0.8590     1.0000     0.1410     0.9652     0.9652    -0.0000
 27 H      0.8700     1.0000     0.1300     0.9705     0.9705    -0.0000
 28 H      0.8664     1.0000     0.1336     0.9734     0.9734     0.0000
 29 H      0.8635     1.0000     0.1365     0.9740     0.9740    -0.0000
 30 N      7.1630     7.0000    -0.1630     3.0699     3.0699     0.0000
 31 N      7.1632     7.0000    -0.1632     3.0674     3.0674    -0.0000
 32 N      7.1006     7.0000    -0.1006     3.0783     3.0783    -0.0000
 33 N      7.0938     7.0000    -0.0938     3.0767     3.0767    -0.0000
 34 O      8.3728     8.0000    -0.3728     2.1263     2.1263    -0.0000
 35 O      8.3593     8.0000    -0.3593     2.1428     2.1428    -0.0000
 36 C      6.2218     6.0000    -0.2218     4.0889     4.0889    -0.0000
 37 C      6.2386     6.0000    -0.2386     4.0941     4.0941    -0.0000
 38 C      6.1570     6.0000    -0.1570     4.1323     4.1323    -0.0000
 39 C      6.1141     6.0000    -0.1141     4.1038     4.1038    -0.0000
 40 C      6.1419     6.0000    -0.1419     3.9838     3.9838    -0.0000
 41 C      6.1440     6.0000    -0.1440     3.9844     3.9844    -0.0000
 42 C      6.0629     6.0000    -0.0629     3.9002     3.9002     0.0000
 43 C      6.0633     6.0000    -0.0633     3.9010     3.9010    -0.0000
 44 C      6.1062     6.0000    -0.1062     3.9181     3.9181    -0.0000
 45 C      6.1030     6.0000    -0.1030     3.9153     3.9153    -0.0000
 46 C      6.1032     6.0000    -0.1032     3.9324     3.9324     0.0000
 47 C      6.1090     6.0000    -0.1090     3.9338     3.9338    -0.0000
 48 C      6.0909     6.0000    -0.0909     3.9191     3.9191    -0.0000
 49 C      6.0851     6.0000    -0.0851     3.9097     3.9097    -0.0000
 50 C      6.1855     6.0000    -0.1855     3.9632     3.9632    -0.0000
 51 C      6.1846     6.0000    -0.1846     3.9518     3.9518    -0.0000
 52 C      6.2809     6.0000    -0.2809     4.0203     4.0203    -0.0000
 53 C      6.2783     6.0000    -0.2783     4.0232     4.0232    -0.0000
 54 C      6.1623     6.0000    -0.1623     3.9550     3.9550    -0.0000
 55 C      6.2264     6.0000    -0.2264     4.0082     4.0082    -0.0000
 56 C      6.2597     6.0000    -0.2597     4.0724     4.0724    -0.0000
 57 C      6.2626     6.0000    -0.2626     4.0730     4.0730    -0.0000
 58 C      6.2303     6.0000    -0.2303     3.9535     3.9535    -0.0000
 59 C      6.2322     6.0000    -0.2322     3.9458     3.9458    -0.0000
 60 C      6.2972     6.0000    -0.2972     3.8907     3.8907    -0.0000
 61 C      6.3115     6.0000    -0.3115     3.8591     3.8591    -0.0000
 62 C      6.2261     6.0000    -0.2261     3.9742     3.9742     0.0000
 63 C      6.2269     6.0000    -0.2269     3.9635     3.9635    -0.0000
 64 C      5.6822     6.0000     0.3178     3.6318     3.6318     0.0000
 65 C      5.6688     6.0000     0.3312     3.6145     3.6145    -0.0000
 66 C      5.7496     6.0000     0.2504     3.9228     3.9228     0.0000
 67 C      5.7519     6.0000     0.2481     3.9272     3.9272    -0.0000
 68 C      5.7025     6.0000     0.2975     3.9227     3.9227    -0.0000
 69 C      5.7517     6.0000     0.2483     4.0055     4.0055    -0.0000
 70 C      5.9195     6.0000     0.0805     3.6573     3.6573     0.0000
 71 C      5.8874     6.0000     0.1126     3.6422     3.6422    -0.0000
 72 C      5.8735     6.0000     0.1265     3.8403     3.8403    -0.0000
 73 C      5.8441     6.0000     0.1559     3.7754     3.7754    -0.0000
 74 C      5.9346     6.0000     0.0654     3.7075     3.7075     0.0000
 75 C      5.9098     6.0000     0.0902     3.6487     3.6487    -0.0000
 76 C      5.8444     6.0000     0.1556     3.6305     3.6305    -0.0000
 77 C      5.8722     6.0000     0.1278     3.6562     3.6562    -0.0000
 78 C      6.2081     6.0000    -0.2081     2.9892     2.9892    -0.0000
 79 C      6.1893     6.0000    -0.1893     2.9713     2.9713    -0.0000

  Mayer bond orders larger than 0.100000
B(  0-H , 34-O ) :   0.8438 B(  1-H , 35-O ) :   0.8443 B(  2-H , 36-C ) :   0.9786 
B(  3-H , 37-C ) :   0.9844 B(  4-H , 38-C ) :   0.9823 B(  5-H , 39-C ) :   0.9835 
B(  6-H , 40-C ) :   0.9630 B(  7-H , 41-C ) :   0.9630 B(  8-H , 42-C ) :   0.9631 
B(  9-H , 43-C ) :   0.9626 B( 10-H , 44-C ) :   0.9665 B( 11-H , 45-C ) :   0.9670 
B( 12-H , 46-C ) :   0.9675 B( 13-H , 47-C ) :   0.9677 B( 14-H , 48-C ) :   0.9578 
B( 15-H , 49-C ) :   0.9585 B( 16-H , 50-C ) :   0.9673 B( 17-H , 51-C ) :   0.9679 
B( 18-H , 52-C ) :   0.9610 B( 19-H , 53-C ) :   0.9613 B( 20-H , 54-C ) :   0.9637 
B( 21-H , 55-C ) :   0.9610 B( 22-H , 56-C ) :   0.9751 B( 23-H , 57-C ) :   0.9751 
B( 24-H , 58-C ) :   0.9806 B( 25-H , 59-C ) :   0.9832 B( 26-H , 60-C ) :   0.9727 
B( 27-H , 61-C ) :   0.9995 B( 28-H , 62-C ) :   0.9551 B( 29-H , 63-C ) :   0.9545 
B( 30-N , 38-C ) :   1.6035 B( 30-N , 64-C ) :   1.3386 B( 31-N , 39-C ) :   1.6042 
B( 31-N , 65-C ) :   1.3271 B( 32-N , 36-C ) :   1.9152 B( 32-N , 66-C ) :   1.0755 
B( 33-N , 37-C ) :   1.9318 B( 33-N , 67-C ) :   1.0659 B( 34-O , 68-C ) :   1.2310 
B( 35-O , 69-C ) :   1.2740 B( 36-C , 64-C ) :   0.9495 B( 37-C , 65-C ) :   0.9367 
B( 38-C , 70-C ) :   1.3166 B( 39-C , 71-C ) :   1.2790 B( 40-C , 42-C ) :   1.4072 
B( 40-C , 48-C ) :   1.4229 B( 41-C , 43-C ) :   1.4066 B( 41-C , 49-C ) :   1.4241 
B( 42-C , 56-C ) :   1.4349 B( 43-C , 57-C ) :   1.4346 B( 44-C , 46-C ) :   1.2702 
B( 44-C , 58-C ) :   1.5346 B( 45-C , 47-C ) :   1.2724 B( 45-C , 59-C ) :   1.5313 
B( 46-C , 62-C ) :   1.5463 B( 47-C , 63-C ) :   1.5448 B( 48-C , 52-C ) :   1.4208 
B( 49-C , 53-C ) :   1.4148 B( 50-C , 54-C ) :   1.4427 B( 50-C , 64-C ) :   1.3359 
B( 51-C , 55-C ) :   1.4242 B( 51-C , 65-C ) :   1.3546 B( 52-C , 66-C ) :   1.3483 
B( 53-C , 67-C ) :   1.3574 B( 54-C , 70-C ) :   1.3671 B( 55-C , 71-C ) :   1.4277 
B( 56-C , 66-C ) :   1.3984 B( 57-C , 67-C ) :   1.3972 B( 58-C , 72-C ) :   1.2322 
B( 59-C , 73-C ) :   1.2309 B( 60-C , 72-C ) :   1.2101 B( 60-C , 74-C ) :   1.4835 
B( 61-C , 73-C ) :   1.1715 B( 61-C , 75-C ) :   1.4832 B( 62-C , 76-C ) :   1.3184 
B( 63-C , 77-C ) :   1.3141 B( 68-C , 74-C ) :   1.2610 B( 68-C , 78-C ) :   1.3547 
B( 69-C , 75-C ) :   1.2709 B( 69-C , 79-C ) :   1.3684 B( 70-C , 74-C ) :   0.8840 
B( 71-C , 75-C ) :   0.8507 B( 72-C , 76-C ) :   1.2752 B( 73-C , 77-C ) :   1.2871 
B( 76-C , 78-C ) :   1.0961 B( 77-C , 79-C ) :   1.0944 B( 78-C , 79-C ) :   0.6661 


-------
TIMINGS
-------

Total SCF time: 0 days 0 hours 15 min 44 sec 

Total time                  ....     944.160 sec
Sum of individual times     ....     934.832 sec  ( 99.0%)

Fock matrix formation       ....     872.639 sec  ( 92.4%)
  XC integration            ....      20.766 sec  (  2.4% of F)
    Basis function eval.    ....       2.499 sec  ( 12.0% of XC)
    Density eval.           ....       8.302 sec  ( 40.0% of XC)
    XC-Functional eval.     ....       0.250 sec  (  1.2% of XC)
    XC-Potential eval.      ....       4.180 sec  ( 20.1% of XC)
Diagonalization             ....       7.945 sec  (  0.8%)
Density matrix formation    ....       0.787 sec  (  0.1%)
Population analysis         ....       4.459 sec  (  0.5%)
Initial guess               ....       2.026 sec  (  0.2%)
Orbital Transformation      ....       0.000 sec  (  0.0%)
Orbital Orthonormalization  ....       0.000 sec  (  0.0%)
DIIS solution               ....      29.138 sec  (  3.1%)
SOSCF solution              ....       5.096 sec  (  0.5%)
Grid generation             ....      12.743 sec  (  1.3%)


-------------------------------------------------------------------------------
                          DFT DISPERSION CORRECTION                            
                                                                               
                                 DFTD4 V2.0                                    
-------------------------------------------------------------------------------
The PBE0 functional is recognized
Active option DFTDOPT                   ...         5   

-------------------------   ----------------
Dispersion correction           -0.111576213
-------------------------   ----------------


-------------------------   --------------------
FINAL SINGLE POINT ENERGY     -2062.621972926791
-------------------------   --------------------


                            ***************************************
                            *     ORCA property calculations      *
                            ***************************************

                                    ---------------------
                                    Active property flags
                                    ---------------------
   (+) Dipole Moment


------------------------------------------------------------------------------
                       ORCA ELECTRIC PROPERTIES CALCULATION
------------------------------------------------------------------------------

Dipole Moment Calculation                       ... on
Quadrupole Moment Calculation                   ... off
Polarizability Calculation                      ... off
GBWName                                         ... _fe6dd_xtb_dft_sg80_1_1.gbw
Electron density file                           ... _fe6dd_xtb_dft_sg80_1_1.scfp
The origin for moment calculation is the CENTER OF MASS  = (20.707453, 15.114870 18.658705)

-------------
DIPOLE MOMENT
-------------
                                X             Y             Z
Electronic contribution:      3.01005      -1.54057      -5.86025
Nuclear contribution   :     -1.77395      -0.02358       3.92893
                        -----------------------------------------
Total Dipole Moment    :      1.23610      -1.56415      -1.93133
                        -----------------------------------------
Magnitude (a.u.)       :      2.77570
Magnitude (Debye)      :      7.05527



--------------------
Rotational spectrum 
--------------------
 
Rotational constants in cm-1:     0.001925     0.000772     0.000630 
Rotational constants in MHz :    57.716100    23.136257    18.878950 

 Dipole components along the rotational axes: 
x,y,z [a.u.] :     0.812726    -2.628799     0.365241 
x,y,z [Debye]:     2.065784    -6.681877     0.928368 

 

Timings for individual modules:

Sum of individual times         ...      948.571 sec (=  15.810 min)
GTO integral calculation        ...        3.872 sec (=   0.065 min)   0.4 %
SCF iterations                  ...      944.699 sec (=  15.745 min)  99.6 %
                             ****ORCA TERMINATED NORMALLY****
TOTAL RUN TIME: 0 days 0 hours 15 minutes 51 seconds 753 msec
