Job execution start: Fri Apr 16 18:44:28 BST 2021
Shared library path: /work/e05/e05/atarzia/orca_4_2_1_linux_x86-64_openmpi314:/work/e05/e05/atarzia/openmpi-3.1.4/lib:/opt/cray/pe/papi/6.0.0.4/lib64:/opt/cray/libfabric/1.11.0.0.233/lib64
Slurm Job ID is: 207120
Slurm Job name is: fe6ll_xtb_dft_sg80_1_1
nid001035

                                 *****************
                                 * O   R   C   A *
                                 *****************

           --- An Ab Initio, DFT and Semiempirical electronic structure package ---

                  #######################################################
                  #                        -***-                        #
                  #          Department of theory and spectroscopy      #
                  #               Directorship: Frank Neese             #
                  #        Max Planck Institute fuer Kohlenforschung    #
                  #                Kaiser Wilhelm Platz 1               #
                  #                 D-45470 Muelheim/Ruhr               #
                  #                      Germany                        #
                  #                                                     #
                  #                  All rights reserved                #
                  #                        -***-                        #
                  #######################################################


                         Program Version 4.2.1 -  RELEASE  -


 With contributions from (in alphabetic order):
   Daniel Aravena         : Magnetic Suceptibility
   Michael Atanasov       : Ab Initio Ligand Field Theory (pilot matlab implementation)
   Alexander A. Auer      : GIAO ZORA, VPT2
   Ute Becker             : Parallelization
   Giovanni Bistoni       : ED, misc. LED, open-shell LED, HFLD
   Martin Brehm           : Molecular dynamics
   Dmytro Bykov           : SCF Hessian
   Vijay G. Chilkuri      : MRCI spin determinant printing, contributions to CSF-ICE
   Dipayan Datta          : RHF DLPNO-CCSD density
   Achintya Kumar Dutta   : EOM-CC, STEOM-CC
   Dmitry Ganyushin       : Spin-Orbit,Spin-Spin,Magnetic field MRCI
   Miquel Garcia          : C-PCM Hessian, Gaussian charge scheme
   Yang Guo               : DLPNO-NEVPT2, CIM, IAO-localization
   Andreas Hansen         : Spin unrestricted coupled pair/coupled cluster methods
   Benjamin Helmich-Paris : CASSCF linear response (MC-RPA)
   Lee Huntington         : MR-EOM, pCC
   Robert Izsak           : Overlap fitted RIJCOSX, COSX-SCS-MP3, EOM
   Christian Kollmar      : KDIIS, OOCD, Brueckner-CCSD(T), CCSD density
   Simone Kossmann        : Meta GGA functionals, TD-DFT gradient, OOMP2, MP2 Hessian
   Martin Krupicka        : AUTO-CI
   Lucas Lang             : DCDCAS
   Dagmar Lenk            : GEPOL surface, SMD
   Dimitrios Liakos       : Extrapolation schemes; Compound Job, initial MDCI parallelization
   Dimitrios Manganas     : Further ROCIS development; embedding schemes
   Dimitrios Pantazis     : SARC Basis sets
   Taras Petrenko         : DFT Hessian,TD-DFT gradient, ASA, ECA, R-Raman, ABS, FL, XAS/XES, NRVS
   Peter Pinski           : DLPNO-MP2, DLPNO-MP2 Gradient
   Christoph Reimann      : Effective Core Potentials
   Marius Retegan         : Local ZFS, SOC
   Christoph Riplinger    : Optimizer, TS searches, QM/MM, DLPNO-CCSD(T), (RO)-DLPNO pert. Triples
   Tobias Risthaus        : Range-separated hybrids, TD-DFT gradient, RPA, STAB
   Michael Roemelt        : Original ROCIS implementation
   Masaaki Saitow         : Open-shell DLPNO-CCSD energy and density
   Barbara Sandhoefer     : DKH picture change effects
   Avijit Sen             : IP-ROCIS
   Kantharuban Sivalingam : CASSCF convergence, NEVPT2, FIC-MRCI
   Bernardo de Souza      : ESD, SOC TD-DFT
   Georgi Stoychev        : AutoAux, RI-MP2 NMR
   Willem Van den Heuvel  : Paramagnetic NMR
   Boris Wezisla          : Elementary symmetry handling
   Frank Wennmohs         : Technical directorship


 We gratefully acknowledge several colleagues who have allowed us to
 interface, adapt or use parts of their codes:
   Stefan Grimme, W. Hujo, H. Kruse,             : VdW corrections, initial TS optimization,
                  C. Bannwarth                     DFT functionals, gCP, sTDA/sTD-DF
   Ed Valeev, F. Pavosevic, A. Kumar             : LibInt (2-el integral package), F12 methods
   Garnet Chan, S. Sharma, J. Yang, R. Olivares  : DMRG
   Ulf Ekstrom                                   : XCFun DFT Library
   Mihaly Kallay                                 : mrcc  (arbitrary order and MRCC methods)
   Andreas Klamt, Michael Diedenhofen            : otool_cosmo (COSMO solvation model)
   Jiri Pittner, Ondrej Demel                    : Mk-CCSD
   Frank Weinhold                                : gennbo (NPA and NBO analysis)
   Christopher J. Cramer and Donald G. Truhlar   : smd solvation model
   Lars Goerigk                                  : TD-DFT with DH, B97 family of functionals
   V. Asgeirsson, H. Jonsson                     : NEB implementation
   FAccTs GmbH                                   : IRC, NEB, NEB-TS, Multilevel, MM, QM/MM, CI optimization
   S Lehtola, MJT Oliveira, MAL Marques          : LibXC Library


 Your calculation uses the libint2 library for the computation of 2-el integrals
 For citations please refer to: http://libint.valeyev.net

 Your ORCA version has been built with support for libXC version: 4.2.3
 For citations please refer to: https://tddft.org/programs/libxc/

 This ORCA versions uses:
   CBLAS   interface :  Fast vector & matrix operations
   LAPACKE interface :  Fast linear algebra routines
   SCALAPACK package :  Parallel linear algebra routines




***************************************
The coordinates will be read from file: fe6ll_xtb_dft_sg80_1_1.xyz
***************************************


Your calculation utilizes the atom-pairwise dispersion correction
based on tight binding partial charges (D4)
Cite in your paper:
E.Caldeweyher, C.Bannwarth, S.Grimme, J.Chem.Phys., (2017), 147, 034112.
E.Caldeweyher, S.Ehlert, A.Hansen, H.Neugebauer, S.Grimme, J.Chem.Phys., (2018), in progress.
   

----- Orbital basis set information -----
Your calculation utilizes the basis: def2-TZVP
   F. Weigend and R. Ahlrichs, Phys. Chem. Chem. Phys. 7, 3297 (2005).

================================================================================
                                        WARNINGS
                       Please study these warnings very carefully!
================================================================================


INFO   : the flag for use of LIBINT has been found!

================================================================================
                                       INPUT FILE
================================================================================
NAME = fe6ll_xtb_dft_sg80_1_1.in
|  1> # closed shell KS, PBE0/def2-SVP/D4
|  2> ! DFT SP RKS PBE0 def2-TZVP D4 Grid6 NOFINALGRID SlowConv TightSCF printbasis
|  3> 
|  4> %base "_fe6ll_xtb_dft_sg80_1_1"
|  5> %maxcore 4000
|  6> %scf
|  7>    MaxIter 2000
|  8> end
|  9> 
| 10> %pal
| 11>    nprocs 48
| 12> end
| 13> 
| 14> * xyzfile 0 1 fe6ll_xtb_dft_sg80_1_1.xyz
| 15> 
| 16> 
| 17>                          ****END OF INPUT****
================================================================================

                       ****************************
                       * Single Point Calculation *
                       ****************************

---------------------------------
CARTESIAN COORDINATES (ANGSTROEM)
---------------------------------
  H     11.226800    7.161900   10.310800
  H     11.290900    9.054100    7.796700
  H      4.086300    4.139800   10.882400
  H     16.014500   15.486100    9.661700
  H      9.453400    4.659600   10.672300
  H     12.316200   11.564500    9.381000
  H      1.436100    4.876100   15.934700
  H     14.597600   20.608000   11.918300
  H      1.759500    6.381600   13.973700
  H     13.263000   18.915000   13.165000
  H     12.071700    5.631100    2.805500
  H     16.975700    4.463100   10.089100
  H     13.851100    6.975600    3.917000
  H     14.820000    3.385700    9.452300
  H      2.973500    2.946800   16.275300
  H     15.706900   19.972600    9.779700
  H      5.040900    4.485200    8.523100
  H     16.902200   13.225300    8.788000
  H      4.827700    2.536000   14.703500
  H     15.414800   17.694100    8.855000
  H      6.992900    5.261600    7.181400
  H     16.473600   10.780800    8.580600
  H      3.622800    5.975900   12.390300
  H     12.983100   16.628800   12.248000
  H     10.105200    4.863700    4.109900
  H     17.130500    6.938000   10.206500
  H      8.937000    4.692300    6.241800
  H     16.089800    9.123700    9.949600
  H     13.686800    7.551700    6.309700
  H     12.868000    4.758400    8.821700
  N      7.431300    4.312000   10.897600
  N     13.579000   13.206900    9.365300
  N      5.398000    4.017100   12.501500
  N     13.963400   15.716200    9.960100
  O     10.447000    6.650200   10.035700
  O     11.952500    9.644500    8.192500
  C      5.119600    4.105600   11.247500
  C     15.007200   15.056700    9.605000
  C      8.487600    4.660700   10.170700
  C     13.347700   11.898100    9.274800
  C      2.252900    4.695800   15.231700
  C     14.471100   19.601800   11.512000
  C      2.433200    5.536400   14.133700
  C     13.711500   18.656100   12.203100
  C     11.977900    5.884800    3.863500
  C     16.106900    5.083500    9.857100
  C     12.985200    6.647300    4.496700
  C     14.886600    4.475800    9.489700
  C      3.117400    3.617300   15.424800
  C     15.089100   19.246900   10.313900
  C      6.035400    4.549800    8.968100
  C     15.901500   12.817800    8.942400
  C      4.161800    3.381000   14.535600
  C     14.932300   17.964400    9.794600
  C      7.127800    4.970900    8.225000
  C     15.657700   11.457600    8.840900
  C      3.468400    5.299000   13.234300
  C     13.535800   17.377500   11.682200
  C     10.889500    5.458000    4.585600
  C     16.196800    6.454100    9.914500
  C      9.684000    5.318100    6.735700
  C     15.167100    8.673500    9.578500
  C     12.894400    6.973500    5.832300
  C     13.792500    5.239400    9.144100
  C      6.212800    4.274900   10.322800
  C     14.841700   13.666500    9.254100
  C      4.337600    4.212900   13.423200
  C     14.133000   17.030900   10.464900
  C     10.569600    6.377200    8.717100
  C     12.935000    8.864600    8.693000
  C      8.392100    5.071000    8.828100
  C     14.367700   10.948700    9.074300
  C     10.769600    5.777000    5.963200
  C     15.084100    7.265400    9.578200
  C      9.555000    5.586300    8.088500
  C     14.141100    9.493600    9.136900
  C     11.784800    6.550200    6.601900
  C     13.869800    6.652100    9.156400
  C     11.658200    6.842100    7.997100
  C     12.801400    7.484700    8.700200

----------------------------
CARTESIAN COORDINATES (A.U.)
----------------------------
  NO LB      ZA    FRAG     MASS         X           Y           Z
   0 H     1.0000    0     1.008   21.215577   13.534030   19.484588
   1 H     1.0000    0     1.008   21.336709   17.109769   14.733628
   2 H     1.0000    0     1.008    7.721988    7.823088   20.564756
   3 H     1.0000    0     1.008   30.263019   29.264488   18.257967
   4 H     1.0000    0     1.008   17.864337    8.805368   20.167724
   5 H     1.0000    0     1.008   23.274245   21.853738   17.727521
   6 H     1.0000    0     1.008    2.713836    9.214494   30.112219
   7 H     1.0000    0     1.008   27.585466   38.943476   22.522323
   8 H     1.0000    0     1.008    3.324973   12.059476   26.406466
   9 H     1.0000    0     1.008   25.063438   35.744170   24.878245
  10 H     1.0000    0     1.008   22.812207   10.641237    5.301627
  11 H     1.0000    0     1.008   32.079424    8.434037   19.065636
  12 H     1.0000    0     1.008   26.174786   13.181974    7.402057
  13 H     1.0000    0     1.008   28.005741    6.398046   17.862258
  14 H     1.0000    0     1.008    5.619101    5.568645   30.755860
  15 H     1.0000    0     1.008   29.681739   37.742744   18.480955
  16 H     1.0000    0     1.008    9.525920    8.475800   16.106325
  17 H     1.0000    0     1.008   31.940529   24.992195   16.606913
  18 H     1.0000    0     1.008    9.123031    4.792345   27.785588
  19 H     1.0000    0     1.008   29.129750   33.437003   16.733525
  20 H     1.0000    0     1.008   13.214666    9.942983   13.570879
  21 H     1.0000    0     1.008   31.130592   20.372760   16.214984
  22 H     1.0000    0     1.008    6.846100   11.292814   23.414274
  23 H     1.0000    0     1.008   24.534503   31.423878   23.145366
  24 H     1.0000    0     1.008   19.096061    9.191061    7.766585
  25 H     1.0000    0     1.008   32.371954   13.110920   19.287490
  26 H     1.0000    0     1.008   16.888482    8.867162   11.795293
  27 H     1.0000    0     1.008   30.405316   17.241294   18.802019
  28 H     1.0000    0     1.008   25.864304   14.270645   11.923605
  29 H     1.0000    0     1.008   24.316996    8.992073   16.670597
  30 N     7.0000    0    14.007   14.043122    8.148499   20.593480
  31 N     7.0000    0    14.007   25.660591   24.957424   17.697852
  32 N     7.0000    0    14.007   10.200742    7.591219   23.624411
  33 N     7.0000    0    14.007   26.387002   29.699314   18.821861
  34 O     8.0000    0    15.999   19.741969   12.567057   18.964725
  35 O     8.0000    0    15.999   22.586952   18.225464   15.481581
  36 C     6.0000    0    12.011    9.674642    7.758460   21.254695
  37 C     6.0000    0    12.011   28.359498   28.453039   18.150820
  38 C     6.0000    0    12.011   16.039240    8.807447   19.219838
  39 C     6.0000    0    12.011   25.223498   22.484151   17.526832
  40 C     6.0000    0    12.011    4.257364    8.873776   28.783742
  41 C     6.0000    0    12.011   27.346416   37.042034   21.754527
  42 C     6.0000    0    12.011    4.598082   10.462280   26.708822
  43 C     6.0000    0    12.011   25.910980   35.254920   23.060517
  44 C     6.0000    0    12.011   22.634951   11.120660    7.300957
  45 C     6.0000    0    12.011   30.437630    9.606423   18.627219
  46 C     6.0000    0    12.011   24.538472   12.561577    8.497532
  47 C     6.0000    0    12.011   28.131597    8.458036   17.932934
  48 C     6.0000    0    12.011    5.891032    6.835706   29.148648
  49 C     6.0000    0    12.011   28.514267   36.371370   19.490446
  50 C     6.0000    0    12.011   11.405253    8.597876   16.947253
  51 C     6.0000    0    12.011   30.049480   24.222132   16.898687
  52 C     6.0000    0    12.011    7.864662    6.389164   27.468303
  53 C     6.0000    0    12.011   28.217958   33.947796   18.509112
  54 C     6.0000    0    12.011   13.469590    9.393640   15.542997
  55 C     6.0000    0    12.011   29.588765   21.651726   16.706880
  56 C     6.0000    0    12.011    6.554326   10.013659   25.009203
  57 C     6.0000    0    12.011   25.578955   32.838716   22.076159
  58 C     6.0000    0    12.011   20.578173   10.314125    8.665528
  59 C     6.0000    0    12.011   30.607516   12.196481   18.735690
  60 C     6.0000    0    12.011   18.300108   10.049753   12.728628
  61 C     6.0000    0    12.011   28.661665   16.390540   18.100742
  62 C     6.0000    0    12.011   24.366885   13.178005   11.021450
  63 C     6.0000    0    12.011   26.064048    9.901031   17.279845
  64 C     6.0000    0    12.011   11.740491    8.078390   19.507265
  65 C     6.0000    0    12.011   28.046748   25.825942   17.487715
  66 C     6.0000    0    12.011    8.196876    7.961227   25.366172
  67 C     6.0000    0    12.011   26.707499   32.183737   19.775795
  68 C     6.0000    0    12.011   19.973649   12.051162   16.472932
  69 C     6.0000    0    12.011   24.443608   16.751666   16.427389
  70 C     6.0000    0    12.011   15.858771    9.582801   16.682691
  71 C     6.0000    0    12.011   27.151018   20.690045   17.147942
  72 C     6.0000    0    12.011   20.351595   10.916948   11.268815
  73 C     6.0000    0    12.011   28.504818   13.729616   18.100175
  74 C     6.0000    0    12.011   18.056333   10.556577   15.285050
  75 C     6.0000    0    12.011   26.722806   17.940304   17.266239
  76 C     6.0000    0    12.011   22.270045   12.378084   12.475783
  77 C     6.0000    0    12.011   26.210124   12.570647   17.303088
  78 C     6.0000    0    12.011   22.030805   12.929695   15.112329
  79 C     6.0000    0    12.011   24.191140   14.144033   16.440995

--------------------------------
INTERNAL COORDINATES (ANGSTROEM)
--------------------------------
 H      0   0   0     0.000000000000     0.00000000     0.00000000
 H      1   0   0     3.147257291675     0.00000000     0.00000000
 H      1   2   0     7.774738273408   108.12761772     0.00000000
 H      2   1   3     8.195196517473   107.56684898   143.02165838
 H      1   2   3     3.088225234661   126.32441922    29.46309936
 H      2   1   3     3.140597831624    94.83326064   125.30126325
 H      3   1   2     5.752515364604   115.97239761   234.36683229
 H      4   2   1     5.773535206440   130.07289784   268.28407732
 H      7   3   1     2.493318834405    47.68263618    79.87850443
 H      8   4   2     2.490314648794    73.98347056    41.49543339
 H      2   1   3     6.102348325030   108.58615223   278.91269085
 H      1   2   3     6.354724505437   102.06609598   142.10387140
 H     11   2   1     2.491862127005    54.82196633   257.60880709
 H     12   1   2     2.492658719119    53.85041034   255.57450702
 H      7   3   1     2.490342468417    74.72499028   279.31779749
 H      8   4   2     2.491563687727    47.85697273   238.89889038
 H      3   1   2     2.568435089700    62.53844223    36.40357699
 H      4   2   1     2.581197322949    55.51200266    84.28145341
 H     15   7   3     2.465232143227   120.41265375    17.26415000
 H      4   2   1     2.426039772963   119.74636286   217.34812579
 H     17   3   1     2.492641139434   145.83020106     0.72716938
 H     18   4   2     2.490440316490   145.96727035   335.35185502
 H      3   1   2     2.420714330523    85.80315399   265.87103427
 H     10   8   4     2.479101339195   120.15009908   343.37140597
 H     11   2   1     2.481427889341    69.03017436    54.97902093
 H     12   1   2     2.482514010031    68.36898842    57.69512463
 H     21  17   3     2.233041750617   145.98112725    88.18106542
 H     22  18   4     2.183447698023   136.30053679   302.38336152
 H     13  11   2     2.466556099098   120.74053453    24.65451563
 H     14  12   1     2.468251537020   120.58554389    22.42444090
 N      5   1   2     2.064091630718   135.38096878   292.13682102
 N      6   2   1     2.071807927874   145.97866357   139.70757893
 N      3   1   2     2.087366041211    60.18107535   194.88295887
 N      4   2   1     2.085425563284    63.40134051   265.48279650
 O      1   2   3     0.972422202544    96.12594104    20.16137684
 O      2   1   3     0.971053222022    93.08515762   149.22607348
 C      3   1   2     1.096438114989    34.01099858   169.97068989
 C      4   2   1     1.096472772120    31.93581346   265.07638641
 C      5   1   2     1.088289212480   117.05473815   329.80256017
 C      6   2   1     1.089293188265   120.31568784   106.11534084
 C      7   3   1     1.092647852695    21.47287017   322.81411057
 C      8   4   2     1.092483583401    20.93086893   356.85118133
 C      9   7   3     1.092627443368    59.84932366   337.94823179
 C     10   8   4     1.092443623259    60.01977025   342.26777589
 C     11   2   1     1.092028447432    20.97547415   355.81748715
 C     12   1   2     1.092489633818    17.59871148     1.19609739
 C     13  11   2     1.092527249088    60.56628362    24.07211689
 C     14  12   1     1.092772771440    60.48688996    20.00425753
 C     15   7   3     1.092532704316    59.95977760    17.20525932
 C     16   8   4     1.092559824449    59.86466436    21.59649015
 C     17   3   1     1.091434107035    88.40094354    18.16828227
 C     18   4   2     1.091465116254    87.92627620   349.44831850
 C     19  15   7     1.088870157549    60.59532240   359.64058865
 C     20   4   2     1.090282761489    92.77812431    97.39202119
 C     21  17   3     1.091698429054    59.95217571    21.05737087
 C     22  18   4     1.091561789364    60.01230560    15.70959287
 C     23   3   1     1.092871890937    92.19609410   244.43299324
 C     24  10   8     1.089109094627    60.06040303   357.69761200
 C     25  11   2     1.092981916593    59.46651299   339.02393128
 C     26  12   1     1.091429750373    59.46927484   342.48188281
 C     27  21  17     1.092507139565   105.01185927   241.74179108
 C     28  22  18     1.091682435510   104.38356518   126.59477218
 C     29  13  11     1.090927935292    60.00572359   359.20484342
 C     30  14  12     1.090872591094    59.96591949   357.11485889
 C     31   5   1     1.347781028209   147.54046178    73.18614601
 C     32   6   2     1.348335599916   147.31429594   302.19521043
 C     53  19  15     1.400141782106   120.45129903   181.28473381
 C     58  24  10     1.399499442658   119.87929987   177.37551248
 C     35   1   2     1.352133765572   108.02419675    42.91135483
 C     36   2   1     1.350574140875   107.19322853    47.51316455
 C     55  21  17     1.404351846939   120.18511945   181.92683374
 C     56  22  18     1.406255584878   120.05751532   180.72668246
 C     61  27  21     1.409209998545   117.73898292   215.29227092
 C     62  28  22     1.410544114872   117.48284259   139.47395564
 C     61  27  21     1.385149840270   119.25871197    37.55948408
 C     62  28  22     1.385731059766   119.34482190   319.34280217
 C     63  29  13     1.415160489132   119.34532381   179.39629217
 C     64  30  14     1.414866732240   119.28322718   178.08842266
 C     69  35   1     1.385489794261   120.68229284   358.48436917
 C     70  36   2     1.386371093899   120.43653261   353.54781587

---------------------------
INTERNAL COORDINATES (A.U.)
---------------------------
 H      0   0   0     0.000000000000     0.00000000     0.00000000
 H      1   0   0     5.947454354252     0.00000000     0.00000000
 H      1   2   0    14.692126099657   108.12761772     0.00000000
 H      2   1   3    15.486677031689   107.56684898   143.02165838
 H      1   2   3     5.835899933375   126.32441922    29.46309936
 H      2   1   3     5.934869798556    94.83326064   125.30126325
 H      3   1   2    10.870678620275   115.97239761   234.36683229
 H      4   2   1    10.910400364724   130.07289784   268.28407732
 H      7   3   1     4.711689761574    47.68263618    79.87850443
 H      8   4   2     4.706012673514    73.98347056    41.49543339
 H      2   1   3    11.531767108100   108.58615223   278.91269085
 H      1   2   3    12.008688971794   102.06609598   142.10387140
 H     11   2   1     4.708936983529    54.82196633   257.60880709
 H     12   1   2     4.710442324466    53.85041034   255.57450702
 H      7   3   1     4.706065244981    74.72499028   279.31779749
 H      8   4   2     4.708373015027    47.85697273   238.89889038
 H      3   1   2     4.853638912286    62.53844223    36.40357699
 H      4   2   1     4.877756037985    55.51200266    84.28145341
 H     15   7   3     4.658613607239   120.41265375    17.26415000
 H      4   2   1     4.584550760901   119.74636286   217.34812579
 H     17   3   1     4.710409103676   145.83020106     0.72716938
 H     18   4   2     4.706250151043   145.96727035   335.35185502
 H      3   1   2     4.574487133147    85.80315399   265.87103427
 H     10   8   4     4.684822589317   120.15009908   343.37140597
 H     11   2   1     4.689219131929    69.03017436    54.97902093
 H     12   1   2     4.691271602581    68.36898842    57.69512463
 H     21  17   3     4.219837354279   145.98112725    88.18106542
 H     22  18   4     4.126118177003   136.30053679   302.38336152
 H     13  11   2     4.661115521249   120.74053453    24.65451563
 H     14  12   1     4.664319434597   120.58554389    22.42444090
 N      5   1   2     3.900567897376   135.38096878   292.13682102
 N      6   2   1     3.915149585768   145.97866357   139.70757893
 N      3   1   2     3.944550159136    60.18107535   194.88295887
 N      4   2   1     3.940883187286    63.40134051   265.48279650
 O      1   2   3     1.837611649352    96.12594104    20.16137684
 O      2   1   3     1.835024651084    93.08515762   149.22607348
 C      3   1   2     2.071967760122    34.01099858   169.97068989
 C      4   2   1     2.072033252608    31.93581346   265.07638641
 C      5   1   2     2.056568566088   117.05473815   329.80256017
 C      6   2   1     2.058465805366   120.31568784   106.11534084
 C      7   3   1     2.064805202412    21.47287017   322.81411057
 C      8   4   2     2.064494778432    20.93086893   356.85118133
 C      9   7   3     2.064766634371    59.84932366   337.94823179
 C     10   8   4     2.064419264709    60.01977025   342.26777589
 C     11   2   1     2.063634696097    20.97547415   355.81748715
 C     12   1   2     2.064506212064    17.59871148     1.19609739
 C     13  11   2     2.064577294623    60.56628362    24.07211689
 C     14  12   1     2.065041264627    60.48688996    20.00425753
 C     15   7   3     2.064587603510    59.95977760    17.20525932
 C     16   8   4     2.064638853134    59.86466436    21.59649015
 C     17   3   1     2.062511555518    88.40094354    18.16828227
 C     18   4   2     2.062570154449    87.92627620   349.44831850
 C     19  15   7     2.057666393167    60.59532240   359.64058865
 C     20   4   2     2.060335827750    92.77812431    97.39202119
 C     21  17   3     2.063011051745    59.95217571    21.05737087
 C     22  18   4     2.062752840151    60.01230560    15.70959287
 C     23   3   1     2.065228573331    92.19609410   244.43299324
 C     24  10   8     2.058117918809    60.06040303   357.69761200
 C     25  11   2     2.065436491690    59.46651299   339.02393128
 C     26  12   1     2.062503322620    59.46927484   342.48188281
 C     27  21  17     2.064539293131   105.01185927   241.74179108
 C     28  22  18     2.062980828325   104.38356518   126.59477218
 C     29  13  11     2.061555029546    60.00572359   359.20484342
 C     30  14  12     2.061450444169    59.96591949   357.11485889
 C     31   5   1     2.546937031810   147.54046178    73.18614601
 C     32   6   2     2.547985020457   147.31429594   302.19521043
 C     53  19  15     2.645884516841   120.45129903   181.28473381
 C     58  24  10     2.644670671199   119.87929987   177.37551248
 C     35   1   2     2.555162513359   108.02419675    42.91135483
 C     36   2   1     2.552215249810   107.19322853    47.51316455
 C     55  21  17     2.653840386381   120.18511945   181.92683374
 C     56  22  18     2.657437929716   120.05751532   180.72668246
 C     61  27  21     2.663020962434   117.73898292   215.29227092
 C     62  28  22     2.665542076922   117.48284259   139.47395564
 C     61  27  21     2.617553852555   119.25871197    37.55948408
 C     62  28  22     2.618652198226   119.34482190   319.34280217
 C     63  29  13     2.674265760005   119.34532381   179.39629217
 C     64  30  14     2.673710639930   119.28322718   178.08842266
 C     69  35   1     2.618196272495   120.68229284   358.48436917
 C     70  36   2     2.619861687455   120.43653261   353.54781587

---------------------
BASIS SET INFORMATION
---------------------
There are 4 groups of distinct atoms

 Group   1 Type H   : 5s1p contracted to 3s1p pattern {311/1}
 Group   2 Type N   : 11s6p2d1f contracted to 5s3p2d1f pattern {62111/411/11/1}
 Group   3 Type O   : 11s6p2d1f contracted to 5s3p2d1f pattern {62111/411/11/1}
 Group   4 Type C   : 11s6p2d1f contracted to 5s3p2d1f pattern {62111/411/11/1}

Atom   0H    basis set group =>   1
Atom   1H    basis set group =>   1
Atom   2H    basis set group =>   1
Atom   3H    basis set group =>   1
Atom   4H    basis set group =>   1
Atom   5H    basis set group =>   1
Atom   6H    basis set group =>   1
Atom   7H    basis set group =>   1
Atom   8H    basis set group =>   1
Atom   9H    basis set group =>   1
Atom  10H    basis set group =>   1
Atom  11H    basis set group =>   1
Atom  12H    basis set group =>   1
Atom  13H    basis set group =>   1
Atom  14H    basis set group =>   1
Atom  15H    basis set group =>   1
Atom  16H    basis set group =>   1
Atom  17H    basis set group =>   1
Atom  18H    basis set group =>   1
Atom  19H    basis set group =>   1
Atom  20H    basis set group =>   1
Atom  21H    basis set group =>   1
Atom  22H    basis set group =>   1
Atom  23H    basis set group =>   1
Atom  24H    basis set group =>   1
Atom  25H    basis set group =>   1
Atom  26H    basis set group =>   1
Atom  27H    basis set group =>   1
Atom  28H    basis set group =>   1
Atom  29H    basis set group =>   1
Atom  30N    basis set group =>   2
Atom  31N    basis set group =>   2
Atom  32N    basis set group =>   2
Atom  33N    basis set group =>   2
Atom  34O    basis set group =>   3
Atom  35O    basis set group =>   3
Atom  36C    basis set group =>   4
Atom  37C    basis set group =>   4
Atom  38C    basis set group =>   4
Atom  39C    basis set group =>   4
Atom  40C    basis set group =>   4
Atom  41C    basis set group =>   4
Atom  42C    basis set group =>   4
Atom  43C    basis set group =>   4
Atom  44C    basis set group =>   4
Atom  45C    basis set group =>   4
Atom  46C    basis set group =>   4
Atom  47C    basis set group =>   4
Atom  48C    basis set group =>   4
Atom  49C    basis set group =>   4
Atom  50C    basis set group =>   4
Atom  51C    basis set group =>   4
Atom  52C    basis set group =>   4
Atom  53C    basis set group =>   4
Atom  54C    basis set group =>   4
Atom  55C    basis set group =>   4
Atom  56C    basis set group =>   4
Atom  57C    basis set group =>   4
Atom  58C    basis set group =>   4
Atom  59C    basis set group =>   4
Atom  60C    basis set group =>   4
Atom  61C    basis set group =>   4
Atom  62C    basis set group =>   4
Atom  63C    basis set group =>   4
Atom  64C    basis set group =>   4
Atom  65C    basis set group =>   4
Atom  66C    basis set group =>   4
Atom  67C    basis set group =>   4
Atom  68C    basis set group =>   4
Atom  69C    basis set group =>   4
Atom  70C    basis set group =>   4
Atom  71C    basis set group =>   4
Atom  72C    basis set group =>   4
Atom  73C    basis set group =>   4
Atom  74C    basis set group =>   4
Atom  75C    basis set group =>   4
Atom  76C    basis set group =>   4
Atom  77C    basis set group =>   4
Atom  78C    basis set group =>   4
Atom  79C    basis set group =>   4

-------------------------
BASIS SET IN INPUT FORMAT
-------------------------

 # Basis set for element : H 
 NewGTO H 
 S 3 
   1      34.0613410000      0.0254393072
   2       5.1235746000      0.1900859489
   3       1.1646626000      0.8524411301
 S 1 
   1       0.3272304100      1.0000000000
 S 1 
   1       0.1030724100      1.0000000000
 P 1 
   1       0.8000000000      1.0000000000
  end;

 # Basis set for element : C 
 NewGTO C 
 S 6 
   1   13575.3496820000      0.0006064549
   2    2035.2333680000      0.0046979088
   3     463.2256235900      0.0243324776
   4     131.2001959800      0.0973999683
   5      42.8530158910      0.3019558425
   6      15.5841857660      0.6623360915
 S 2 
   1       6.2067138508      0.6559530854
   2       2.5764896527      0.3758563329
 S 1 
   1       0.5769633942      1.0000000000
 S 1 
   1       0.2297283136      1.0000000000
 S 1 
   1       0.0951644400      1.0000000000
 P 4 
   1      34.6972322440      0.0113272200
   2       7.9582622826      0.0761696592
   3       2.3780826883      0.3019225220
   4       0.8143320818      0.7278502735
 P 1 
   1       0.2888754725      1.0000000000
 P 1 
   1       0.1005682367      1.0000000000
 D 1 
   1       1.0970000000      1.0000000000
 D 1 
   1       0.3180000000      1.0000000000
 F 1 
   1       0.7610000000      1.0000000000
  end;

 # Basis set for element : N 
 NewGTO N 
 S 6 
   1   19730.8006470000      0.0005862639
   2    2957.8958745000      0.0045428821
   3     673.2213359500      0.0235584136
   4     190.6824949400      0.0947091933
   5      62.2954418980      0.2971978492
   6      22.6541611820      0.6691624689
 S 2 
   1       8.9791477428      0.6459668363
   2       3.6863002370      0.3870057440
 S 1 
   1       0.8466007680      1.0000000000
 S 1 
   1       0.3364713377      1.0000000000
 S 1 
   1       0.1364765367      1.0000000000
 P 4 
   1      49.2003805100      0.0114488252
   2      11.3467905370      0.0784223379
   3       3.4273972411      0.3081809474
   4       1.1785525134      0.7202719637
 P 1 
   1       0.4164220497      1.0000000000
 P 1 
   1       0.1426082601      1.0000000000
 D 1 
   1       1.6540000000      1.0000000000
 D 1 
   1       0.4690000000      1.0000000000
 F 1 
   1       1.0930000000      1.0000000000
  end;

 # Basis set for element : O 
 NewGTO O 
 S 6 
   1   27032.3826310000      0.0005722733
   2    4052.3871392000      0.0044353233
   3     922.3272271000      0.0230201076
   4     261.2407098900      0.0928224906
   5      85.3546413510      0.2937850002
   6      31.0350352450      0.6740160450
 S 2 
   1      12.2608607280      0.6383993702
   2       4.9987076005      0.3953458713
 S 1 
   1       1.1703108158      1.0000000000
 S 1 
   1       0.4647474099      1.0000000000
 S 1 
   1       0.1850453636      1.0000000000
 P 4 
   1      63.2749548010      0.0120183321
   2      14.6270493790      0.0830054217
   3       4.4501223456      0.3199174393
   4       1.5275799647      0.7071554292
 P 1 
   1       0.5293511794      1.0000000000
 P 1 
   1       0.1747842127      1.0000000000
 D 1 
   1       2.3140000000      1.0000000000
 D 1 
   1       0.6450000000      1.0000000000
 F 1 
   1       1.4280000000      1.0000000000
  end;



           ************************************************************
           *        Program running with 48 parallel MPI-processes    *
           *              working on a common directory               *
           ************************************************************
------------------------------------------------------------------------------
                           ORCA GTO INTEGRAL CALCULATION
------------------------------------------------------------------------------

                         BASIS SET STATISTICS AND STARTUP INFO

 # of primitive gaussian shells          ... 1180
 # of primitive gaussian functions       ... 2540
 # of contracted shells                  ...  670
 # of contracted basis functions         ... 1730
 Highest angular momentum                ...    3
 Maximum contraction depth               ...    6
 Integral package used                   ... LIBINT
 Integral threshhold            Thresh   ...  2.500e-11
 Primitive cut-off              TCut     ...  2.500e-12


------------------------------ INTEGRAL EVALUATION ----------------------------


 * One electron integrals 
 Pre-screening matrix                    ... done
 Shell pair data                         ... done (   0.026 sec)



           ************************************************************
           *        Program running with 48 parallel MPI-processes    *
           *              working on a common directory               *
           ************************************************************
-------------------------------------------------------------------------------
                                 ORCA SCF
-------------------------------------------------------------------------------

------------
SCF SETTINGS
------------
Hamiltonian:
 Density Functional     Method          .... DFT(GTOs)
 Exchange Functional    Exchange        .... PBE
   PBE kappa parameter   XKappa         ....  0.804000
   PBE mue parameter    XMuePBE         ....  0.219520
 Correlation Functional Correlation     .... PBE
   PBE beta parameter  CBetaPBE         ....  0.066725
 LDA part of GGA corr.  LDAOpt          .... PW91-LDA
 Gradients option       PostSCFGGA      .... off
 Hybrid DFT is turned on
   Fraction HF Exchange ScalHFX         ....  0.250000
   Scaling of DF-GGA-X  ScalDFX         ....  0.750000
   Scaling of DF-GGA-C  ScalDFC         ....  1.000000
   Scaling of DF-LDA-C  ScalLDAC        ....  1.000000
   Perturbative correction              ....  0.000000
   Density functional embedding theory  .... OFF
   NL short-range parameter             ....  6.900000


General Settings:
 Integral files         IntName         .... _fe6ll_xtb_dft_sg80_1_1
 Hartree-Fock type      HFTyp           .... RHF
 Total Charge           Charge          ....    0
 Multiplicity           Mult            ....    1
 Number of Electrons    NEL             ....  338
 Basis Dimension        Dim             .... 1730
 Nuclear Repulsion      ENuc            ....   5308.7272647017 Eh

Convergence Acceleration:
 DIIS                   CNVDIIS         .... on
   Start iteration      DIISMaxIt       ....     0
   Startup error        DIISStart       ....  0.200000
   # of expansion vecs  DIISMaxEq       ....     5
   Bias factor          DIISBfac        ....   1.050
   Max. coefficient     DIISMaxC        ....  10.000
 Newton-Raphson         CNVNR           .... off
 SOSCF                  CNVSOSCF        .... on
   Start iteration      SOSCFMaxIt      ....   150
   Startup grad/error   SOSCFStart      ....  0.001000
 Level Shifting         CNVShift        .... on
   Level shift para.    LevelShift      ....    0.2500
   Turn off err/grad.   ShiftErr        ....    0.0000
 Zerner damping         CNVZerner       .... off
 Static damping         CNVDamp         .... on
   Fraction old density DampFac         ....    0.8500
   Max. Damping (<1)    DampMax         ....    0.9800
   Min. Damping (>=0)   DampMin         ....    0.0000
   Turn off err/grad.   DampErr         ....    0.0300
 Fernandez-Rico         CNVRico         .... off

SCF Procedure:
 Maximum # iterations   MaxIter         ....  2000
 SCF integral mode      SCFMode         .... Direct
   Integral package                     .... LIBINT
 Reset frequency        DirectResetFreq ....    20
 Integral Threshold     Thresh          ....  2.500e-11 Eh
 Primitive CutOff       TCut            ....  2.500e-12 Eh

Convergence Tolerance:
 Convergence Check Mode ConvCheckMode   .... Total+1el-Energy
 Convergence forced     ConvForced      .... 0
 Energy Change          TolE            ....  1.000e-08 Eh
 1-El. energy change                    ....  1.000e-05 Eh
 Orbital Gradient       TolG            ....  1.000e-05
 Orbital Rotation angle TolX            ....  1.000e-05
 DIIS Error             TolErr          ....  5.000e-07


Diagonalization of the overlap matrix:
Smallest eigenvalue                        ... 3.251e-06
Time for diagonalization                   ...    0.768 sec
Threshold for overlap eigenvalues          ... 1.000e-08
Number of eigenvalues below threshold      ... 0
Time for construction of square roots      ...    0.410 sec
Total time needed                          ...    1.182 sec

-------------------
DFT GRID GENERATION
-------------------

General Integration Accuracy     IntAcc      ...  5.340
Radial Grid Type                 RadialGrid  ... Gauss-Chebyshev
Angular Grid (max. acc.)         AngularGrid ... Lebedev-590
Angular grid pruning method      GridPruning ... 3 (G Style)
Weight generation scheme         WeightScheme... Becke
Basis function cutoff            BFCut       ...    1.0000e-11
Integration weight cutoff        WCut        ...    1.0000e-14
Grids for H and He will be reduced by one unit

# of grid points (after initial pruning)     ... 1154996 (   0.0 sec)
# of grid points (after weights+screening)   ... 986708 (   1.0 sec)
nearest neighbour list constructed           ...    0.0 sec
Grid point re-assignment to atoms done       ...    0.1 sec
Grid point division into batches done        ...   10.5 sec
Reduced shell lists constructed in   11.2 sec

Total number of grid points                  ...   986708
Total number of batches                      ...    15458
Average number of points per batch           ...       63
Average number of grid points per atom       ...    12334
Average number of shells per batch           ...   162.60 (24.27%)
Average number of basis functions per batch  ...   390.40 (22.57%)
Average number of large shells per batch     ...    94.54 (58.14%)
Average number of large basis fcns per batch ...   225.04 (57.64%)
Maximum spatial batch extension              ...  11.48, 14.08, 15.97 au
Average spatial batch extension              ...   0.04,  0.05,  0.05 au

Time for grid setup =   12.717 sec

------------------------------
INITIAL GUESS: MODEL POTENTIAL
------------------------------
Loading Hartree-Fock densities                     ... done
Calculating cut-offs                               ... done
Setting up the integral package                    ... done
Initializing the effective Hamiltonian             ... done
Starting the Coulomb interaction                   ... done (   0.3 sec)
Reading the grid                                   ... done
Mapping shells                                     ... done
Starting the XC term evaluation                    ... done (   0.7 sec)
  promolecular density results
     # of electrons  =    337.985346819
     EX              =   -276.406991995
     EC              =    -11.373760021
     EX+EC           =   -287.780752016
Transforming the Hamiltonian                       ... done (   0.2 sec)
Diagonalizing the Hamiltonian                      ... done (   0.4 sec)
Back transforming the eigenvectors                 ... done (   0.1 sec)
Now organizing SCF variables                       ... done
                      ------------------
                      INITIAL GUESS DONE (  14.9 sec)
                      ------------------
--------------
SCF ITERATIONS
--------------
ITER       Energy         Delta-E        Max-DP      RMS-DP      [F,P]     Damp
               ***  Starting incremental Fock matrix formation  ***
  0  -2061.5383266399   0.000000000000 0.13045209  0.00034847  0.1944981 0.8500
  1  -2061.7779632672  -0.239636627352 0.18376096  0.00045423  0.1427229 0.8500
                               ***Turning on DIIS***
  2  -2061.9424581711  -0.164494903915 0.14007374  0.00037438  0.0978727 0.8500
  3  -2062.0514236319  -0.108965460771 0.05106165  0.00019172  0.0662769 0.8500
  4  -2062.1320323580  -0.080608726129 0.02530073  0.00011259  0.0515165 0.8500
  5  -2062.1941243392  -0.062091981104 0.01693534  0.00008512  0.0425870 0.8500
  6  -2062.2442907589  -0.050166419791 0.01266554  0.00007141  0.0357912 0.8500
  7  -2062.2858224970  -0.041531738067 0.01076186  0.00006029  0.0302642 0.8500
  8  -2062.3206968012  -0.034874304222 0.06421156  0.00034484  0.0253168 0.0000
  9  -2062.5074239445  -0.186727143310 0.01293775  0.00003874  0.0041429 0.0000
 10  -2062.5075363067  -0.000112362151 0.00138851  0.00001048  0.0031903 0.0000
                      *** Initiating the SOSCF procedure ***
                           *** Shutting down DIIS ***
                      *** Re-Reading the Fockian *** 
                      *** Removing any level shift *** 
ITER      Energy       Delta-E        Grad      Rot      Max-DP    RMS-DP
 11  -2062.50761620  -0.0000798908  0.000105  0.000105  0.001081  0.000006
               *** Restarting incremental Fock matrix formation ***
 12  -2062.50762132  -0.0000051264  0.000063  0.000321  0.001713  0.000010
 13  -2062.50761942   0.0000019040  0.000143  0.000228  0.000491  0.000003
 14  -2062.50762224  -0.0000028219  0.000016  0.000057  0.001252  0.000005
 15  -2062.50762225  -0.0000000083  0.000029  0.000042  0.000825  0.000003
 16  -2062.50762232  -0.0000000656  0.000004  0.000010  0.004336  0.000007
 17  -2062.50762231   0.0000000097  0.000004  0.000006  0.000393  0.000002
                  ***Gradient check signals convergence***
              ***Rediagonalizing the Fockian in SOSCF/NRSCF***

               *****************************************************
               *                     SUCCESS                       *
               *           SCF CONVERGED AFTER  18 CYCLES          *
               *****************************************************


----------------
TOTAL SCF ENERGY
----------------

Total Energy       :        -2062.50762229 Eh          -56123.68568 eV

Components:
Nuclear Repulsion  :         5308.72726470 Eh          144457.81297 eV
Electronic Energy  :        -7371.23488700 Eh         -200581.49864 eV
One Electron Energy:       -13361.50161273 Eh         -363584.94318 eV
Two Electron Energy:         5990.26672574 Eh          163003.44454 eV

Virial components:
Potential Energy   :        -4114.41561359 Eh         -111958.94073 eV
Kinetic Energy     :         2051.90799129 Eh           55835.25505 eV
Virial Ratio       :            2.00516574


DFT components:
N(Alpha)           :      169.000003521636 electrons
N(Beta)            :      169.000003521636 electrons
N(Total)           :      338.000007043272 electrons
E(X)               :     -210.816350439229 Eh       
E(C)               :      -11.376071149745 Eh       
E(XC)              :     -222.192421588974 Eh       
DFET-embed. en.    :        0.000000000000 Eh       

---------------
SCF CONVERGENCE
---------------

  Last Energy change         ...    1.2416e-08  Tolerance :   1.0000e-08
  Last MAX-Density change    ...    7.3432e-04  Tolerance :   1.0000e-07
  Last RMS-Density change    ...    2.6324e-06  Tolerance :   5.0000e-09
  Last Orbital Gradient      ...    7.6288e-07  Tolerance :   1.0000e-05
  Last Orbital Rotation      ...    2.7043e-06  Tolerance :   1.0000e-05

             **** THE GBW FILE WAS UPDATED (_fe6ll_xtb_dft_sg80_1_1.gbw) ****
             **** DENSITY FILE WAS UPDATED (_fe6ll_xtb_dft_sg80_1_1.scfp) ****
             **** ENERGY FILE WAS UPDATED (_fe6ll_xtb_dft_sg80_1_1.en.tmp) ****
             **** THE GBW FILE WAS UPDATED (_fe6ll_xtb_dft_sg80_1_1.gbw) ****
             **** DENSITY FILE WAS UPDATED (_fe6ll_xtb_dft_sg80_1_1.scfp) ****
----------------
ORBITAL ENERGIES
----------------

  NO   OCC          E(Eh)            E(eV) 
   0   2.0000     -19.256368      -523.9924 
   1   2.0000     -19.256155      -523.9866 
   2   2.0000     -14.386330      -391.4719 
   3   2.0000     -14.385981      -391.4624 
   4   2.0000     -14.382204      -391.3597 
   5   2.0000     -14.381995      -391.3540 
   6   2.0000     -10.314581      -280.6740 
   7   2.0000     -10.314418      -280.6696 
   8   2.0000     -10.270766      -279.4817 
   9   2.0000     -10.270578      -279.4766 
  10   2.0000     -10.270287      -279.4687 
  11   2.0000     -10.270112      -279.4640 
  12   2.0000     -10.264018      -279.2981 
  13   2.0000     -10.263809      -279.2924 
  14   2.0000     -10.262550      -279.2582 
  15   2.0000     -10.262310      -279.2517 
  16   2.0000     -10.259280      -279.1692 
  17   2.0000     -10.258817      -279.1566 
  18   2.0000     -10.258738      -279.1544 
  19   2.0000     -10.258635      -279.1516 
  20   2.0000     -10.258589      -279.1504 
  21   2.0000     -10.257647      -279.1248 
  22   2.0000     -10.255598      -279.0690 
  23   2.0000     -10.254840      -279.0484 
  24   2.0000     -10.254386      -279.0360 
  25   2.0000     -10.253773      -279.0193 
  26   2.0000     -10.252516      -278.9851 
  27   2.0000     -10.252183      -278.9761 
  28   2.0000     -10.251877      -278.9678 
  29   2.0000     -10.251191      -278.9491 
  30   2.0000     -10.247958      -278.8611 
  31   2.0000     -10.247493      -278.8484 
  32   2.0000     -10.244141      -278.7572 
  33   2.0000     -10.243549      -278.7411 
  34   2.0000     -10.242491      -278.7123 
  35   2.0000     -10.242054      -278.7005 
  36   2.0000     -10.239763      -278.6381 
  37   2.0000     -10.239591      -278.6334 
  38   2.0000     -10.239333      -278.6264 
  39   2.0000     -10.239026      -278.6181 
  40   2.0000     -10.227776      -278.3119 
  41   2.0000     -10.227028      -278.2916 
  42   2.0000     -10.226748      -278.2840 
  43   2.0000     -10.226235      -278.2700 
  44   2.0000     -10.225847      -278.2594 
  45   2.0000     -10.225068      -278.2383 
  46   2.0000     -10.223973      -278.2084 
  47   2.0000     -10.223257      -278.1890 
  48   2.0000     -10.223010      -278.1822 
  49   2.0000     -10.222933      -278.1801 
  50   2.0000      -1.119072       -30.4515 
  51   2.0000      -1.115214       -30.3465 
  52   2.0000      -0.985490       -26.8165 
  53   2.0000      -0.984780       -26.7972 
  54   2.0000      -0.952859       -25.9286 
  55   2.0000      -0.952830       -25.9278 
  56   2.0000      -0.928188       -25.2573 
  57   2.0000      -0.916348       -24.9351 
  58   2.0000      -0.876122       -23.8405 
  59   2.0000      -0.875846       -23.8330 
  60   2.0000      -0.870064       -23.6756 
  61   2.0000      -0.869326       -23.6556 
  62   2.0000      -0.856192       -23.2982 
  63   2.0000      -0.835550       -22.7365 
  64   2.0000      -0.827931       -22.5291 
  65   2.0000      -0.815156       -22.1815 
  66   2.0000      -0.812180       -22.1005 
  67   2.0000      -0.799721       -21.7615 
  68   2.0000      -0.780388       -21.2354 
  69   2.0000      -0.779717       -21.2172 
  70   2.0000      -0.768253       -20.9052 
  71   2.0000      -0.767401       -20.8820 
  72   2.0000      -0.766554       -20.8590 
  73   2.0000      -0.758797       -20.6479 
  74   2.0000      -0.753260       -20.4972 
  75   2.0000      -0.743328       -20.2270 
  76   2.0000      -0.701522       -19.0894 
  77   2.0000      -0.699423       -19.0323 
  78   2.0000      -0.688454       -18.7338 
  79   2.0000      -0.667883       -18.1740 
  80   2.0000      -0.662255       -18.0209 
  81   2.0000      -0.659494       -17.9458 
  82   2.0000      -0.645423       -17.5628 
  83   2.0000      -0.645150       -17.5554 
  84   2.0000      -0.640213       -17.4211 
  85   2.0000      -0.627894       -17.0859 
  86   2.0000      -0.626837       -17.0571 
  87   2.0000      -0.619522       -16.8580 
  88   2.0000      -0.618994       -16.8437 
  89   2.0000      -0.612706       -16.6726 
  90   2.0000      -0.588859       -16.0237 
  91   2.0000      -0.588474       -16.0132 
  92   2.0000      -0.585575       -15.9343 
  93   2.0000      -0.583533       -15.8787 
  94   2.0000      -0.559981       -15.2379 
  95   2.0000      -0.555453       -15.1147 
  96   2.0000      -0.554117       -15.0783 
  97   2.0000      -0.543030       -14.7766 
  98   2.0000      -0.541741       -14.7415 
  99   2.0000      -0.540453       -14.7065 
 100   2.0000      -0.523912       -14.2564 
 101   2.0000      -0.520656       -14.1678 
 102   2.0000      -0.505739       -13.7618 
 103   2.0000      -0.501046       -13.6342 
 104   2.0000      -0.496838       -13.5197 
 105   2.0000      -0.495879       -13.4935 
 106   2.0000      -0.488352       -13.2887 
 107   2.0000      -0.487453       -13.2643 
 108   2.0000      -0.479492       -13.0476 
 109   2.0000      -0.478997       -13.0342 
 110   2.0000      -0.476139       -12.9564 
 111   2.0000      -0.471031       -12.8174 
 112   2.0000      -0.470664       -12.8074 
 113   2.0000      -0.470114       -12.7925 
 114   2.0000      -0.464599       -12.6424 
 115   2.0000      -0.459434       -12.5018 
 116   2.0000      -0.454482       -12.3671 
 117   2.0000      -0.453565       -12.3421 
 118   2.0000      -0.451792       -12.2939 
 119   2.0000      -0.446075       -12.1383 
 120   2.0000      -0.444558       -12.0971 
 121   2.0000      -0.441381       -12.0106 
 122   2.0000      -0.438903       -11.9432 
 123   2.0000      -0.434082       -11.8120 
 124   2.0000      -0.433587       -11.7985 
 125   2.0000      -0.430027       -11.7016 
 126   2.0000      -0.429799       -11.6954 
 127   2.0000      -0.427591       -11.6353 
 128   2.0000      -0.421916       -11.4809 
 129   2.0000      -0.421096       -11.4586 
 130   2.0000      -0.420219       -11.4347 
 131   2.0000      -0.418399       -11.3852 
 132   2.0000      -0.414324       -11.2743 
 133   2.0000      -0.412393       -11.2218 
 134   2.0000      -0.405373       -11.0308 
 135   2.0000      -0.395633       -10.7657 
 136   2.0000      -0.392832       -10.6895 
 137   2.0000      -0.383844       -10.4449 
 138   2.0000      -0.382694       -10.4136 
 139   2.0000      -0.371333       -10.1045 
 140   2.0000      -0.370419       -10.0796 
 141   2.0000      -0.369859       -10.0644 
 142   2.0000      -0.369232       -10.0473 
 143   2.0000      -0.366122        -9.9627 
 144   2.0000      -0.362814        -9.8727 
 145   2.0000      -0.362557        -9.8657 
 146   2.0000      -0.353984        -9.6324 
 147   2.0000      -0.352855        -9.6017 
 148   2.0000      -0.349409        -9.5079 
 149   2.0000      -0.340187        -9.2569 
 150   2.0000      -0.337187        -9.1753 
 151   2.0000      -0.319510        -8.6943 
 152   2.0000      -0.310878        -8.4594 
 153   2.0000      -0.307138        -8.3577 
 154   2.0000      -0.305041        -8.3006 
 155   2.0000      -0.301783        -8.2119 
 156   2.0000      -0.298567        -8.1244 
 157   2.0000      -0.286776        -7.8036 
 158   2.0000      -0.285492        -7.7686 
 159   2.0000      -0.268755        -7.3132 
 160   2.0000      -0.265801        -7.2328 
 161   2.0000      -0.264984        -7.2106 
 162   2.0000      -0.264765        -7.2046 
 163   2.0000      -0.250852        -6.8260 
 164   2.0000      -0.249537        -6.7902 
 165   2.0000      -0.240941        -6.5563 
 166   2.0000      -0.239422        -6.5150 
 167   2.0000      -0.232207        -6.3187 
 168   2.0000      -0.226929        -6.1751 
 169   0.0000      -0.083514        -2.2725 
 170   0.0000      -0.082313        -2.2398 
 171   0.0000      -0.054256        -1.4764 
 172   0.0000      -0.052932        -1.4404 
 173   0.0000      -0.031276        -0.8511 
 174   0.0000      -0.029320        -0.7978 
 175   0.0000      -0.025043        -0.6814 
 176   0.0000      -0.021431        -0.5832 
 177   0.0000      -0.006126        -0.1667 
 178   0.0000      -0.005175        -0.1408 
 179   0.0000       0.000635         0.0173 
 180   0.0000       0.004521         0.1230 
 181   0.0000       0.007206         0.1961 
 182   0.0000       0.007706         0.2097 
 183   0.0000       0.031080         0.8457 
 184   0.0000       0.036224         0.9857 
 185   0.0000       0.038285         1.0418 
 186   0.0000       0.046192         1.2570 
 187   0.0000       0.049041         1.3345 
 188   0.0000       0.052879         1.4389 
 189   0.0000       0.058166         1.5828 
 190   0.0000       0.060607         1.6492 
 191   0.0000       0.062777         1.7083 
 192   0.0000       0.063618         1.7311 
 193   0.0000       0.068355         1.8600 
 194   0.0000       0.071162         1.9364 
 195   0.0000       0.081905         2.2288 
 196   0.0000       0.082707         2.2506 
 197   0.0000       0.086094         2.3427 
 198   0.0000       0.087509         2.3812 
 199   0.0000       0.090145         2.4530 
 200   0.0000       0.093470         2.5435 
 201   0.0000       0.097281         2.6471 
 202   0.0000       0.098118         2.6699 
 203   0.0000       0.098842         2.6896 
 204   0.0000       0.102438         2.7875 
 205   0.0000       0.108972         2.9653 
 206   0.0000       0.110641         3.0107 
 207   0.0000       0.111600         3.0368 
 208   0.0000       0.113647         3.0925 
 209   0.0000       0.115523         3.1435 
 210   0.0000       0.118192         3.2162 
 211   0.0000       0.119400         3.2490 
 212   0.0000       0.124003         3.3743 
 213   0.0000       0.126645         3.4462 
 214   0.0000       0.128008         3.4833 
 215   0.0000       0.129080         3.5124 
 216   0.0000       0.131672         3.5830 
 217   0.0000       0.133150         3.6232 
 218   0.0000       0.136039         3.7018 
 219   0.0000       0.138246         3.7619 
 220   0.0000       0.145245         3.9523 
 221   0.0000       0.148179         4.0322 
 222   0.0000       0.149409         4.0656 
 223   0.0000       0.152366         4.1461 
 224   0.0000       0.155351         4.2273 
 225   0.0000       0.157020         4.2727 
 226   0.0000       0.161605         4.3975 
 227   0.0000       0.163405         4.4465 
 228   0.0000       0.167086         4.5466 
 229   0.0000       0.171097         4.6558 
 230   0.0000       0.172400         4.6912 
 231   0.0000       0.181425         4.9368 
 232   0.0000       0.183315         4.9883 
 233   0.0000       0.187320         5.0972 
 234   0.0000       0.188423         5.1272 
 235   0.0000       0.190520         5.1843 
 236   0.0000       0.191445         5.2095 
 237   0.0000       0.197362         5.3705 
 238   0.0000       0.199748         5.4354 
 239   0.0000       0.202314         5.5052 
 240   0.0000       0.205360         5.5881 
 241   0.0000       0.206304         5.6138 
 242   0.0000       0.208258         5.6670 
 243   0.0000       0.208329         5.6689 
 244   0.0000       0.212328         5.7777 
 245   0.0000       0.213395         5.8068 
 246   0.0000       0.216719         5.8972 
 247   0.0000       0.217388         5.9154 
 248   0.0000       0.219398         5.9701 
 249   0.0000       0.219785         5.9806 
 250   0.0000       0.221169         6.0183 
 251   0.0000       0.224084         6.0976 
 252   0.0000       0.225547         6.1374 
 253   0.0000       0.227142         6.1809 
 254   0.0000       0.229123         6.2347 
 255   0.0000       0.229478         6.2444 
 256   0.0000       0.232288         6.3209 
 257   0.0000       0.234819         6.3898 
 258   0.0000       0.237943         6.4748 
 259   0.0000       0.239091         6.5060 
 260   0.0000       0.243131         6.6159 
 261   0.0000       0.243958         6.6384 
 262   0.0000       0.245980         6.6934 
 263   0.0000       0.246264         6.7012 
 264   0.0000       0.247427         6.7328 
 265   0.0000       0.248965         6.7747 
 266   0.0000       0.250405         6.8139 
 267   0.0000       0.251403         6.8410 
 268   0.0000       0.251958         6.8561 
 269   0.0000       0.256803         6.9880 
 270   0.0000       0.258601         7.0369 
 271   0.0000       0.260213         7.0808 
 272   0.0000       0.263287         7.1644 
 273   0.0000       0.264224         7.1899 
 274   0.0000       0.265128         7.2145 
 275   0.0000       0.266433         7.2500 
 276   0.0000       0.267042         7.2666 
 277   0.0000       0.269908         7.3446 
 278   0.0000       0.271918         7.3993 
 279   0.0000       0.274858         7.4793 
 280   0.0000       0.275642         7.5006 
 281   0.0000       0.276929         7.5356 
 282   0.0000       0.279435         7.6038 
 283   0.0000       0.281721         7.6660 
 284   0.0000       0.283122         7.7041 
 285   0.0000       0.284929         7.7533 
 286   0.0000       0.290005         7.8914 
 287   0.0000       0.292516         7.9598 
 288   0.0000       0.294030         8.0010 
 289   0.0000       0.296676         8.0730 
 290   0.0000       0.299306         8.1445 
 291   0.0000       0.301312         8.1991 
 292   0.0000       0.303814         8.2672 
 293   0.0000       0.304117         8.2754 
 294   0.0000       0.307356         8.3636 
 295   0.0000       0.310442         8.4475 
 296   0.0000       0.311893         8.4870 
 297   0.0000       0.313592         8.5333 
 298   0.0000       0.316537         8.6134 
 299   0.0000       0.318783         8.6745 
 300   0.0000       0.321692         8.7537 
 301   0.0000       0.322122         8.7654 
 302   0.0000       0.324524         8.8307 
 303   0.0000       0.325692         8.8625 
 304   0.0000       0.327584         8.9140 
 305   0.0000       0.329273         8.9600 
 306   0.0000       0.331884         9.0310 
 307   0.0000       0.334711         9.1079 
 308   0.0000       0.337926         9.1954 
 309   0.0000       0.338526         9.2117 
 310   0.0000       0.339202         9.2301 
 311   0.0000       0.344050         9.3621 
 312   0.0000       0.344675         9.3791 
 313   0.0000       0.346737         9.4352 
 314   0.0000       0.347703         9.4615 
 315   0.0000       0.351867         9.5748 
 316   0.0000       0.353256         9.6126 
 317   0.0000       0.353432         9.6174 
 318   0.0000       0.355725         9.6798 
 319   0.0000       0.356902         9.7118 
 320   0.0000       0.358548         9.7566 
 321   0.0000       0.360635         9.8134 
 322   0.0000       0.362678         9.8690 
 323   0.0000       0.364106         9.9078 
 324   0.0000       0.366671         9.9776 
 325   0.0000       0.369921        10.0661 
 326   0.0000       0.371246        10.1021 
 327   0.0000       0.373148        10.1539 
 328   0.0000       0.375838        10.2271 
 329   0.0000       0.378336        10.2951 
 330   0.0000       0.380951        10.3662 
 331   0.0000       0.381805        10.3895 
 332   0.0000       0.383131        10.4255 
 333   0.0000       0.384894        10.4735 
 334   0.0000       0.389563        10.6006 
 335   0.0000       0.391189        10.6448 
 336   0.0000       0.391900        10.6641 
 337   0.0000       0.393259        10.7011 
 338   0.0000       0.396933        10.8011 
 339   0.0000       0.398653        10.8479 
 340   0.0000       0.399417        10.8687 
 341   0.0000       0.401958        10.9378 
 342   0.0000       0.403406        10.9772 
 343   0.0000       0.403916        10.9911 
 344   0.0000       0.405684        11.0392 
 345   0.0000       0.408226        11.1084 
 346   0.0000       0.410115        11.1598 
 347   0.0000       0.412504        11.2248 
 348   0.0000       0.413426        11.2499 
 349   0.0000       0.414497        11.2790 
 350   0.0000       0.417557        11.3623 
 351   0.0000       0.420725        11.4485 
 352   0.0000       0.422520        11.4973 
 353   0.0000       0.424596        11.5539 
 354   0.0000       0.425491        11.5782 
 355   0.0000       0.427727        11.6390 
 356   0.0000       0.429429        11.6854 
 357   0.0000       0.431329        11.7371 
 358   0.0000       0.432087        11.7577 
 359   0.0000       0.433993        11.8095 
 360   0.0000       0.434815        11.8319 
 361   0.0000       0.436591        11.8802 
 362   0.0000       0.438267        11.9259 
 363   0.0000       0.438767        11.9395 
 364   0.0000       0.442772        12.0484 
 365   0.0000       0.444096        12.0845 
 366   0.0000       0.447538        12.1781 
 367   0.0000       0.449091        12.2204 
 368   0.0000       0.453325        12.3356 
 369   0.0000       0.455434        12.3930 
 370   0.0000       0.456131        12.4120 
 371   0.0000       0.458941        12.4884 
 372   0.0000       0.461689        12.5632 
 373   0.0000       0.461977        12.5710 
 374   0.0000       0.464898        12.6505 
 375   0.0000       0.466976        12.7071 
 376   0.0000       0.469520        12.7763 
 377   0.0000       0.471110        12.8196 
 378   0.0000       0.472896        12.8681 
 379   0.0000       0.477128        12.9833 
 380   0.0000       0.477641        12.9973 
 381   0.0000       0.479655        13.0521 
 382   0.0000       0.482024        13.1165 
 383   0.0000       0.483760        13.1638 
 384   0.0000       0.484639        13.1877 
 385   0.0000       0.489063        13.3081 
 386   0.0000       0.493840        13.4381 
 387   0.0000       0.496355        13.5065 
 388   0.0000       0.496937        13.5223 
 389   0.0000       0.501610        13.6495 
 390   0.0000       0.502419        13.6715 
 391   0.0000       0.503623        13.7043 
 392   0.0000       0.506370        13.7790 
 393   0.0000       0.507566        13.8116 
 394   0.0000       0.508515        13.8374 
 395   0.0000       0.510033        13.8787 
 396   0.0000       0.511195        13.9103 
 397   0.0000       0.512512        13.9462 
 398   0.0000       0.513946        13.9852 
 399   0.0000       0.518092        14.0980 
 400   0.0000       0.518457        14.1079 
 401   0.0000       0.521005        14.1773 
 402   0.0000       0.522605        14.2208 
 403   0.0000       0.529294        14.4028 
 404   0.0000       0.530857        14.4453 
 405   0.0000       0.532693        14.4953 
 406   0.0000       0.533845        14.5267 
 407   0.0000       0.536808        14.6073 
 408   0.0000       0.539580        14.6827 
 409   0.0000       0.543737        14.7958 
 410   0.0000       0.546050        14.8588 
 411   0.0000       0.548582        14.9277 
 412   0.0000       0.552013        15.0210 
 413   0.0000       0.555798        15.1240 
 414   0.0000       0.560323        15.2472 
 415   0.0000       0.561143        15.2695 
 416   0.0000       0.566140        15.4055 
 417   0.0000       0.567765        15.4497 
 418   0.0000       0.574149        15.6234 
 419   0.0000       0.579664        15.7734 
 420   0.0000       0.581742        15.8300 
 421   0.0000       0.584510        15.9053 
 422   0.0000       0.588713        16.0197 
 423   0.0000       0.590776        16.0758 
 424   0.0000       0.593791        16.1579 
 425   0.0000       0.596038        16.2190 
 426   0.0000       0.599494        16.3130 
 427   0.0000       0.603378        16.4187 
 428   0.0000       0.606675        16.5085 
 429   0.0000       0.609960        16.5979 
 430   0.0000       0.616595        16.7784 
 431   0.0000       0.617577        16.8051 
 432   0.0000       0.619974        16.8704 
 433   0.0000       0.623710        16.9720 
 434   0.0000       0.626579        17.0501 
 435   0.0000       0.630433        17.1550 
 436   0.0000       0.631750        17.1908 
 437   0.0000       0.634615        17.2688 
 438   0.0000       0.637849        17.3568 
 439   0.0000       0.639636        17.4054 
 440   0.0000       0.640170        17.4199 
 441   0.0000       0.645029        17.5521 
 442   0.0000       0.648448        17.6452 
 443   0.0000       0.650957        17.7134 
 444   0.0000       0.652643        17.7593 
 445   0.0000       0.656931        17.8760 
 446   0.0000       0.659765        17.9531 
 447   0.0000       0.660864        17.9830 
 448   0.0000       0.663335        18.0503 
 449   0.0000       0.666802        18.1446 
 450   0.0000       0.669305        18.2127 
 451   0.0000       0.669731        18.2243 
 452   0.0000       0.671596        18.2751 
 453   0.0000       0.674448        18.3527 
 454   0.0000       0.677219        18.4281 
 455   0.0000       0.678132        18.4529 
 456   0.0000       0.679023        18.4771 
 457   0.0000       0.681903        18.5555 
 458   0.0000       0.685789        18.6613 
 459   0.0000       0.688786        18.7428 
 460   0.0000       0.691561        18.8183 
 461   0.0000       0.693688        18.8762 
 462   0.0000       0.695230        18.9182 
 463   0.0000       0.696805        18.9610 
 464   0.0000       0.698232        18.9999 
 465   0.0000       0.700923        19.0731 
 466   0.0000       0.703578        19.1453 
 467   0.0000       0.706911        19.2360 
 468   0.0000       0.708247        19.2724 
 469   0.0000       0.709328        19.3018 
 470   0.0000       0.711351        19.3568 
 471   0.0000       0.713511        19.4156 
 472   0.0000       0.715433        19.4679 
 473   0.0000       0.716582        19.4992 
 474   0.0000       0.720661        19.6102 
 475   0.0000       0.721832        19.6420 
 476   0.0000       0.722495        19.6601 
 477   0.0000       0.726159        19.7598 
 478   0.0000       0.728328        19.8188 
 479   0.0000       0.730374        19.8745 
 480   0.0000       0.733631        19.9631 
 481   0.0000       0.734818        19.9954 
 482   0.0000       0.737478        20.0678 
 483   0.0000       0.740743        20.1566 
 484   0.0000       0.744482        20.2584 
 485   0.0000       0.745939        20.2980 
 486   0.0000       0.748189        20.3593 
 487   0.0000       0.748892        20.3784 
 488   0.0000       0.751065        20.4375 
 489   0.0000       0.752344        20.4723 
 490   0.0000       0.757580        20.6148 
 491   0.0000       0.761017        20.7083 
 492   0.0000       0.762726        20.7548 
 493   0.0000       0.764746        20.8098 
 494   0.0000       0.767280        20.8788 
 495   0.0000       0.768397        20.9091 
 496   0.0000       0.771245        20.9866 
 497   0.0000       0.772330        21.0162 
 498   0.0000       0.775612        21.1055 
 499   0.0000       0.776880        21.1400 
 500   0.0000       0.778266        21.1777 
 501   0.0000       0.783250        21.3133 
 502   0.0000       0.784974        21.3602 
 503   0.0000       0.786482        21.4013 
 504   0.0000       0.792391        21.5621 
 505   0.0000       0.794971        21.6323 
 506   0.0000       0.798215        21.7205 
 507   0.0000       0.798606        21.7312 
 508   0.0000       0.803471        21.8636 
 509   0.0000       0.806040        21.9335 
 510   0.0000       0.807036        21.9606 
 511   0.0000       0.810091        22.0437 
 512   0.0000       0.813293        22.1308 
 513   0.0000       0.814377        22.1603 
 514   0.0000       0.816612        22.2211 
 515   0.0000       0.818771        22.2799 
 516   0.0000       0.820266        22.3206 
 517   0.0000       0.827263        22.5110 
 518   0.0000       0.828725        22.5507 
 519   0.0000       0.832931        22.6652 
 520   0.0000       0.835505        22.7353 
 521   0.0000       0.837727        22.7957 
 522   0.0000       0.838592        22.8193 
 523   0.0000       0.843449        22.9514 
 524   0.0000       0.847617        23.0648 
 525   0.0000       0.849116        23.1056 
 526   0.0000       0.850334        23.1388 
 527   0.0000       0.853792        23.2329 
 528   0.0000       0.858569        23.3629 
 529   0.0000       0.860094        23.4043 
 530   0.0000       0.863196        23.4888 
 531   0.0000       0.865227        23.5440 
 532   0.0000       0.865732        23.5578 
 533   0.0000       0.868735        23.6395 
 534   0.0000       0.872662        23.7463 
 535   0.0000       0.876743        23.8574 
 536   0.0000       0.881376        23.9835 
 537   0.0000       0.883331        24.0367 
 538   0.0000       0.886431        24.1210 
 539   0.0000       0.887379        24.1468 
 540   0.0000       0.894106        24.3299 
 541   0.0000       0.894649        24.3446 
 542   0.0000       0.895571        24.3697 
 543   0.0000       0.899618        24.4798 
 544   0.0000       0.901361        24.5273 
 545   0.0000       0.902920        24.5697 
 546   0.0000       0.907371        24.6908 
 547   0.0000       0.908896        24.7323 
 548   0.0000       0.910857        24.7857 
 549   0.0000       0.914959        24.8973 
 550   0.0000       0.916093        24.9282 
 551   0.0000       0.922230        25.0952 
 552   0.0000       0.924397        25.1541 
 553   0.0000       0.927411        25.2361 
 554   0.0000       0.930247        25.3133 
 555   0.0000       0.932003        25.3611 
 556   0.0000       0.936344        25.4792 
 557   0.0000       0.941180        25.6108 
 558   0.0000       0.944071        25.6895 
 559   0.0000       0.952789        25.9267 
 560   0.0000       0.957363        26.0512 
 561   0.0000       0.958857        26.0918 
 562   0.0000       0.964458        26.2442 
 563   0.0000       0.965639        26.2764 
 564   0.0000       0.972730        26.4693 
 565   0.0000       0.978522        26.6269 
 566   0.0000       0.980832        26.6898 
 567   0.0000       0.986160        26.8348 
 568   0.0000       0.993343        27.0302 
 569   0.0000       0.997363        27.1396 
 570   0.0000       0.999038        27.1852 
 571   0.0000       1.002934        27.2912 
 572   0.0000       1.004910        27.3450 
 573   0.0000       1.012693        27.5568 
 574   0.0000       1.016551        27.6618 
 575   0.0000       1.018983        27.7279 
 576   0.0000       1.020422        27.7671 
 577   0.0000       1.022584        27.8259 
 578   0.0000       1.027024        27.9467 
 579   0.0000       1.030878        28.0516 
 580   0.0000       1.034856        28.1599 
 581   0.0000       1.039257        28.2796 
 582   0.0000       1.041025        28.3277 
 583   0.0000       1.044406        28.4197 
 584   0.0000       1.046112        28.4662 
 585   0.0000       1.054946        28.7065 
 586   0.0000       1.058687        28.8083 
 587   0.0000       1.063741        28.9459 
 588   0.0000       1.067617        29.0513 
 589   0.0000       1.071109        29.1464 
 590   0.0000       1.074818        29.2473 
 591   0.0000       1.075971        29.2786 
 592   0.0000       1.078522        29.3481 
 593   0.0000       1.080199        29.3937 
 594   0.0000       1.085445        29.5365 
 595   0.0000       1.086308        29.5599 
 596   0.0000       1.090987        29.6873 
 597   0.0000       1.093297        29.7501 
 598   0.0000       1.100481        29.9456 
 599   0.0000       1.102436        29.9988 
 600   0.0000       1.111193        30.2371 
 601   0.0000       1.116201        30.3734 
 602   0.0000       1.126117        30.6432 
 603   0.0000       1.130311        30.7573 
 604   0.0000       1.132625        30.8203 
 605   0.0000       1.135449        30.8971 
 606   0.0000       1.139284        31.0015 
 607   0.0000       1.143186        31.1077 
 608   0.0000       1.147432        31.2232 
 609   0.0000       1.148281        31.2463 
 610   0.0000       1.153503        31.3884 
 611   0.0000       1.155331        31.4382 
 612   0.0000       1.160789        31.5867 
 613   0.0000       1.162750        31.6400 
 614   0.0000       1.170579        31.8531 
 615   0.0000       1.172772        31.9127 
 616   0.0000       1.175641        31.9908 
 617   0.0000       1.177345        32.0372 
 618   0.0000       1.183911        32.2158 
 619   0.0000       1.188255        32.3341 
 620   0.0000       1.193417        32.4745 
 621   0.0000       1.197726        32.5918 
 622   0.0000       1.201624        32.6979 
 623   0.0000       1.205486        32.8029 
 624   0.0000       1.209507        32.9124 
 625   0.0000       1.214295        33.0426 
 626   0.0000       1.215027        33.0626 
 627   0.0000       1.217032        33.1171 
 628   0.0000       1.219232        33.1770 
 629   0.0000       1.221488        33.2384 
 630   0.0000       1.222335        33.2614 
 631   0.0000       1.227431        33.4001 
 632   0.0000       1.231277        33.5048 
 633   0.0000       1.232676        33.5428 
 634   0.0000       1.234119        33.5821 
 635   0.0000       1.236964        33.6595 
 636   0.0000       1.239579        33.7306 
 637   0.0000       1.241012        33.7696 
 638   0.0000       1.245563        33.8935 
 639   0.0000       1.246865        33.9289 
 640   0.0000       1.249222        33.9931 
 641   0.0000       1.252854        34.0919 
 642   0.0000       1.255316        34.1589 
 643   0.0000       1.260523        34.3006 
 644   0.0000       1.261419        34.3250 
 645   0.0000       1.264056        34.3967 
 646   0.0000       1.266267        34.4569 
 647   0.0000       1.272992        34.6399 
 648   0.0000       1.275888        34.7187 
 649   0.0000       1.278504        34.7899 
 650   0.0000       1.281051        34.8592 
 651   0.0000       1.284650        34.9571 
 652   0.0000       1.287467        35.0338 
 653   0.0000       1.290525        35.1170 
 654   0.0000       1.293038        35.1854 
 655   0.0000       1.295128        35.2422 
 656   0.0000       1.296241        35.2725 
 657   0.0000       1.297887        35.3173 
 658   0.0000       1.304203        35.4892 
 659   0.0000       1.306066        35.5399 
 660   0.0000       1.307071        35.5672 
 661   0.0000       1.311153        35.6783 
 662   0.0000       1.314297        35.7639 
 663   0.0000       1.317157        35.8417 
 664   0.0000       1.324866        36.0514 
 665   0.0000       1.333251        36.2796 
 666   0.0000       1.335454        36.3395 
 667   0.0000       1.341169        36.4951 
 668   0.0000       1.343805        36.5668 
 669   0.0000       1.346225        36.6327 
 670   0.0000       1.350122        36.7387 
 671   0.0000       1.356732        36.9186 
 672   0.0000       1.365759        37.1642 
 673   0.0000       1.369348        37.2618 
 674   0.0000       1.371625        37.3238 
 675   0.0000       1.372085        37.3363 
 676   0.0000       1.376630        37.4600 
 677   0.0000       1.383725        37.6531 
 678   0.0000       1.386303        37.7232 
 679   0.0000       1.388710        37.7887 
 680   0.0000       1.392816        37.9005 
 681   0.0000       1.399738        38.0888 
 682   0.0000       1.402402        38.1613 
 683   0.0000       1.404288        38.2126 
 684   0.0000       1.407505        38.3002 
 685   0.0000       1.413621        38.4666 
 686   0.0000       1.416577        38.5470 
 687   0.0000       1.418458        38.5982 
 688   0.0000       1.426845        38.8264 
 689   0.0000       1.426981        38.8301 
 690   0.0000       1.429606        38.9016 
 691   0.0000       1.435644        39.0659 
 692   0.0000       1.436655        39.0934 
 693   0.0000       1.440282        39.1921 
 694   0.0000       1.440959        39.2105 
 695   0.0000       1.442469        39.2516 
 696   0.0000       1.446016        39.3481 
 697   0.0000       1.450654        39.4743 
 698   0.0000       1.456747        39.6401 
 699   0.0000       1.460337        39.7378 
 700   0.0000       1.462609        39.7996 
 701   0.0000       1.464230        39.8437 
 702   0.0000       1.468059        39.9479 
 703   0.0000       1.469378        39.9838 
 704   0.0000       1.473865        40.1059 
 705   0.0000       1.477477        40.2042 
 706   0.0000       1.480710        40.2922 
 707   0.0000       1.483155        40.3587 
 708   0.0000       1.485740        40.4290 
 709   0.0000       1.487357        40.4730 
 710   0.0000       1.489730        40.5376 
 711   0.0000       1.491193        40.5774 
 712   0.0000       1.499424        40.8014 
 713   0.0000       1.500585        40.8330 
 714   0.0000       1.505333        40.9622 
 715   0.0000       1.510543        41.1040 
 716   0.0000       1.513025        41.1715 
 717   0.0000       1.515950        41.2511 
 718   0.0000       1.518099        41.3096 
 719   0.0000       1.519434        41.3459 
 720   0.0000       1.520543        41.3761 
 721   0.0000       1.522321        41.4245 
 722   0.0000       1.527655        41.5696 
 723   0.0000       1.532972        41.7143 
 724   0.0000       1.535765        41.7903 
 725   0.0000       1.537980        41.8506 
 726   0.0000       1.543566        42.0026 
 727   0.0000       1.545977        42.0682 
 728   0.0000       1.553337        42.2684 
 729   0.0000       1.556163        42.3454 
 730   0.0000       1.557797        42.3898 
 731   0.0000       1.561518        42.4911 
 732   0.0000       1.565032        42.5867 
 733   0.0000       1.565756        42.6064 
 734   0.0000       1.566942        42.6387 
 735   0.0000       1.573139        42.8073 
 736   0.0000       1.575322        42.8667 
 737   0.0000       1.579009        42.9670 
 738   0.0000       1.581537        43.0358 
 739   0.0000       1.584423        43.1143 
 740   0.0000       1.586126        43.1607 
 741   0.0000       1.589662        43.2569 
 742   0.0000       1.594410        43.3861 
[...]
      f+3     :     0.007660
      f-3     :     0.009533
 67 C s       :     2.713330  s :     2.713330
      pz      :     0.987665  p :     2.816094
      px      :     0.913423
      py      :     0.915006
      dz2     :     0.122330  d :     0.602796
      dxz     :     0.086425
      dyz     :     0.149760
      dx2y2   :     0.112729
      dxy     :     0.131552
      f0      :     0.008007  f :     0.072910
      f+1     :     0.007336
      f-1     :     0.015210
      f+2     :     0.011293
      f-2     :     0.009106
      f+3     :     0.013510
      f-3     :     0.008448
 68 C s       :     2.704949  s :     2.704949
      pz      :     0.841161  p :     2.717499
      px      :     0.986040
      py      :     0.890299
      dz2     :     0.194981  d :     0.687611
      dxz     :     0.177920
      dyz     :     0.152539
      dx2y2   :     0.083207
      dxy     :     0.078964
      f0      :     0.020291  f :     0.096696
      f+1     :     0.027817
      f-1     :     0.020025
      f+2     :     0.008943
      f-2     :     0.007905
      f+3     :     0.005659
      f-3     :     0.006056
 69 C s       :     2.705228  s :     2.705228
      pz      :     0.844163  p :     2.717981
      px      :     0.888093
      py      :     0.985725
      dz2     :     0.079247  d :     0.688959
      dxz     :     0.098880
      dyz     :     0.129027
      dx2y2   :     0.174136
      dxy     :     0.207669
      f0      :     0.006771  f :     0.097210
      f+1     :     0.010567
      f-1     :     0.009122
      f+2     :     0.012955
      f-2     :     0.014296
      f+3     :     0.027816
      f-3     :     0.015683
 70 C s       :     2.702022  s :     2.702022
      pz      :     1.005792  p :     2.841871
      px      :     0.977949
      py      :     0.858130
      dz2     :     0.124137  d :     0.505488
      dxz     :     0.153874
      dyz     :     0.072649
      dx2y2   :     0.075546
      dxy     :     0.079281
      f0      :     0.007329  f :     0.055719
      f+1     :     0.017343
      f-1     :     0.006099
      f+2     :     0.006620
      f-2     :     0.006836
      f+3     :     0.005718
      f-3     :     0.005774
 71 C s       :     2.703209  s :     2.703209
      pz      :     0.844740  p :     2.840645
      px      :     1.032210
      py      :     0.963695
      dz2     :     0.038007  d :     0.503979
      dxz     :     0.065714
      dyz     :     0.075961
      dx2y2   :     0.166237
      dxy     :     0.158060
      f0      :     0.004003  f :     0.055366
      f+1     :     0.004182
      f-1     :     0.004401
      f+2     :     0.006461
      f-2     :     0.006637
      f+3     :     0.017715
      f-3     :     0.011967
 72 C s       :     2.687586  s :     2.687586
      pz      :     0.987366  p :     2.836096
      px      :     0.956947
      py      :     0.891783
      dz2     :     0.131910  d :     0.519682
      dxz     :     0.139432
      dyz     :     0.099895
      dx2y2   :     0.074177
      dxy     :     0.074268
      f0      :     0.007501  f :     0.057803
      f+1     :     0.016578
      f-1     :     0.009007
      f+2     :     0.006982
      f-2     :     0.007046
      f+3     :     0.004928
      f-3     :     0.005760
 73 C s       :     2.686947  s :     2.686947
      pz      :     0.860420  p :     2.836218
      px      :     0.982432
      py      :     0.993365
      dz2     :     0.044911  d :     0.520686
      dxz     :     0.070710
      dyz     :     0.083646
      dx2y2   :     0.161903
      dxy     :     0.159516
      f0      :     0.004215  f :     0.058023
      f+1     :     0.004516
      f-1     :     0.004812
      f+2     :     0.008304
      f-2     :     0.006620
      f+3     :     0.020096
      f-3     :     0.009461
 74 C s       :     2.693818  s :     2.693818
      pz      :     1.007360  p :     2.839961
      px      :     0.932511
      py      :     0.900090
      dz2     :     0.119198  d :     0.493663
      dxz     :     0.137169
      dyz     :     0.094646
      dx2y2   :     0.071738
      dxy     :     0.070911
      f0      :     0.007673  f :     0.054479
      f+1     :     0.014754
      f-1     :     0.009055
      f+2     :     0.005893
      f-2     :     0.006088
      f+3     :     0.005500
      f-3     :     0.005517
 75 C s       :     2.694394  s :     2.694394
      pz      :     0.889229  p :     2.840069
      px      :     0.987108
      py      :     0.963731
      dz2     :     0.047554  d :     0.492586
      dxz     :     0.067353
      dyz     :     0.082964
      dx2y2   :     0.150406
      dxy     :     0.144310
      f0      :     0.004290  f :     0.054394
      f+1     :     0.004546
      f-1     :     0.004827
      f+2     :     0.007380
      f-2     :     0.007250
      f+3     :     0.016143
      f-3     :     0.009958
 76 C s       :     2.684991  s :     2.684991
      pz      :     0.962955  p :     2.800101
      px      :     0.960342
      py      :     0.876804
      dz2     :     0.132574  d :     0.523298
      dxz     :     0.137047
      dyz     :     0.103662
      dx2y2   :     0.074207
      dxy     :     0.075807
      f0      :     0.007469  f :     0.056801
      f+1     :     0.016181
      f-1     :     0.008774
      f+2     :     0.006816
      f-2     :     0.006784
      f+3     :     0.005077
      f-3     :     0.005699
 77 C s       :     2.683986  s :     2.683986
      pz      :     0.846810  p :     2.798797
      px      :     0.955107
      py      :     0.996881
      dz2     :     0.049281  d :     0.524782
      dxz     :     0.070823
      dyz     :     0.092955
      dx2y2   :     0.153708
      dxy     :     0.158015
      f0      :     0.004138  f :     0.057221
      f+1     :     0.004555
      f-1     :     0.005173
      f+2     :     0.008537
      f-2     :     0.006662
      f+3     :     0.018802
      f-3     :     0.009355
 78 C s       :     2.686900  s :     2.686900
      pz      :     0.980813  p :     2.862928
      px      :     0.957704
      py      :     0.924410
      dz2     :     0.123403  d :     0.499092
      dxz     :     0.140043
      dyz     :     0.091269
      dx2y2   :     0.069958
      dxy     :     0.074419
      f0      :     0.006996  f :     0.054424
      f+1     :     0.015906
      f-1     :     0.007489
      f+2     :     0.006874
      f-2     :     0.006453
      f+3     :     0.005460
      f-3     :     0.005247
 79 C s       :     2.687113  s :     2.687113
      pz      :     0.923652  p :     2.863702
      px      :     0.941948
      py      :     0.998101
      dz2     :     0.056436  d :     0.498113
      dxz     :     0.064793
      dyz     :     0.094655
      dx2y2   :     0.144290
      dxy     :     0.137940
      f0      :     0.004531  f :     0.054593
      f+1     :     0.005588
      f-1     :     0.005506
      f+2     :     0.008290
      f-2     :     0.005969
      f+3     :     0.015664
      f-3     :     0.009045


                      *****************************
                      * MAYER POPULATION ANALYSIS *
                      *****************************

  NA   - Mulliken gross atomic population
  ZA   - Total nuclear charge
  QA   - Mulliken gross atomic charge
  VA   - Mayer's total valence
  BVA  - Mayer's bonded valence
  FA   - Mayer's free valence

  ATOM       NA         ZA         QA         VA         BVA        FA
  0 H      0.6595     1.0000     0.3405     0.9145     0.9145    -0.0000
  1 H      0.6601     1.0000     0.3399     0.9169     0.9169    -0.0000
  2 H      0.8823     1.0000     0.1177     0.9777     0.9777    -0.0000
  3 H      0.8899     1.0000     0.1101     0.9814     0.9814    -0.0000
  4 H      0.8620     1.0000     0.1380     0.9848     0.9848     0.0000
  5 H      0.8571     1.0000     0.1429     0.9820     0.9820    -0.0000
  6 H      0.8846     1.0000     0.1154     0.9674     0.9674     0.0000
  7 H      0.8840     1.0000     0.1160     0.9674     0.9674    -0.0000
  8 H      0.8836     1.0000     0.1164     0.9675     0.9675    -0.0000
  9 H      0.8823     1.0000     0.1177     0.9658     0.9658    -0.0000
 10 H      0.8795     1.0000     0.1205     0.9672     0.9672     0.0000
 11 H      0.8794     1.0000     0.1206     0.9673     0.9673    -0.0000
 12 H      0.8805     1.0000     0.1195     0.9697     0.9697    -0.0000
 13 H      0.8788     1.0000     0.1212     0.9692     0.9692    -0.0000
 14 H      0.8830     1.0000     0.1170     0.9655     0.9655    -0.0000
 15 H      0.8845     1.0000     0.1155     0.9674     0.9674    -0.0000
 16 H      0.8748     1.0000     0.1252     0.9699     0.9699    -0.0000
 17 H      0.8757     1.0000     0.1243     0.9696     0.9696    -0.0000
 18 H      0.8862     1.0000     0.1138     0.9893     0.9893    -0.0000
 19 H      0.8777     1.0000     0.1223     0.9779     0.9779    -0.0000
 20 H      0.8669     1.0000     0.1331     0.9740     0.9740     0.0000
 21 H      0.8591     1.0000     0.1409     0.9700     0.9700    -0.0000
 22 H      0.8705     1.0000     0.1295     0.9737     0.9737    -0.0000
 23 H      0.8832     1.0000     0.1168     0.9900     0.9900    -0.0000
 24 H      0.8837     1.0000     0.1163     0.9714     0.9714     0.0000
 25 H      0.8840     1.0000     0.1160     0.9715     0.9715     0.0000
 26 H      0.8713     1.0000     0.1287     0.9734     0.9734     0.0000
 27 H      0.8669     1.0000     0.1331     0.9728     0.9728     0.0000
 28 H      0.8633     1.0000     0.1367     0.9735     0.9735    -0.0000
 29 H      0.8633     1.0000     0.1367     0.9739     0.9739    -0.0000
 30 N      7.1627     7.0000    -0.1627     3.0737     3.0737    -0.0000
 31 N      7.1583     7.0000    -0.1583     3.0697     3.0697    -0.0000
 32 N      7.1012     7.0000    -0.1012     3.0818     3.0818    -0.0000
 33 N      7.1053     7.0000    -0.1053     3.0760     3.0760    -0.0000
 34 O      8.3734     8.0000    -0.3734     2.1187     2.1187    -0.0000
 35 O      8.3785     8.0000    -0.3785     2.1084     2.1084    -0.0000
 36 C      6.2150     6.0000    -0.2150     4.0845     4.0845    -0.0000
 37 C      6.1940     6.0000    -0.1940     4.0531     4.0531    -0.0000
 38 C      6.1161     6.0000    -0.1161     4.0832     4.0832    -0.0000
 39 C      6.1271     6.0000    -0.1271     4.0918     4.0918    -0.0000
 40 C      6.1405     6.0000    -0.1405     3.9830     3.9830    -0.0000
 41 C      6.1362     6.0000    -0.1362     3.9756     3.9756    -0.0000
 42 C      6.0940     6.0000    -0.0940     3.9229     3.9229    -0.0000
 43 C      6.0718     6.0000    -0.0718     3.9027     3.9027    -0.0000
 44 C      6.1092     6.0000    -0.1092     3.9197     3.9197     0.0000
 45 C      6.1186     6.0000    -0.1186     3.9312     3.9312    -0.0000
 46 C      6.1024     6.0000    -0.1024     3.9280     3.9280    -0.0000
 47 C      6.0960     6.0000    -0.0960     3.9285     3.9285    -0.0000
 48 C      6.0638     6.0000    -0.0638     3.9013     3.9013    -0.0000
 49 C      6.0952     6.0000    -0.0952     3.9214     3.9214    -0.0000
 50 C      6.1993     6.0000    -0.1993     3.9835     3.9835    -0.0000
 51 C      6.1934     6.0000    -0.1934     3.9909     3.9909    -0.0000
 52 C      6.2609     6.0000    -0.2609     4.0700     4.0700    -0.0000
 53 C      6.2512     6.0000    -0.2512     4.0087     4.0087    -0.0000
 54 C      6.1801     6.0000    -0.1801     4.0024     4.0024     0.0000
 55 C      6.1925     6.0000    -0.1925     4.0045     4.0045    -0.0000
 56 C      6.2762     6.0000    -0.2762     4.0178     4.0178    -0.0000
 57 C      6.2410     6.0000    -0.2410     4.0667     4.0667    -0.0000
 58 C      6.2270     6.0000    -0.2270     3.9401     3.9401     0.0000
 59 C      6.2149     6.0000    -0.2149     3.9357     3.9357    -0.0000
 60 C      6.2886     6.0000    -0.2886     3.8763     3.8763    -0.0000
 61 C      6.3039     6.0000    -0.3039     3.9001     3.9001     0.0000
 62 C      6.2158     6.0000    -0.2158     3.9592     3.9592    -0.0000
 63 C      6.2374     6.0000    -0.2374     3.9646     3.9646    -0.0000
 64 C      5.6880     6.0000     0.3120     3.6479     3.6479    -0.0000
 65 C      5.7029     6.0000     0.2971     3.7152     3.7152    -0.0000
 66 C      5.7523     6.0000     0.2477     3.9268     3.9268    -0.0000
 67 C      5.7790     6.0000     0.2210     3.9521     3.9521    -0.0000
 68 C      5.6855     6.0000     0.3145     3.8983     3.8983    -0.0000
 69 C      5.6855     6.0000     0.3145     3.9008     3.9008    -0.0000
 70 C      5.9254     6.0000     0.0746     3.6633     3.6633    -0.0000
 71 C      5.9091     6.0000     0.0909     3.6638     3.6638    -0.0000
 72 C      5.8974     6.0000     0.1026     3.8710     3.8710    -0.0000
 73 C      5.8930     6.0000     0.1070     3.8558     3.8558    -0.0000
 74 C      5.9155     6.0000     0.0845     3.7307     3.7307    -0.0000
 75 C      5.9317     6.0000     0.0683     3.7430     3.7430    -0.0000
 76 C      5.8301     6.0000     0.1699     3.6608     3.6608    -0.0000
 77 C      5.7886     6.0000     0.2114     3.6387     3.6387     0.0000
 78 C      6.2246     6.0000    -0.2246     3.1031     3.1031    -0.0000
 79 C      6.2926     6.0000    -0.2926     3.1241     3.1241    -0.0000

  Mayer bond orders larger than 0.100000
B(  0-H , 34-O ) :   0.8441 B(  1-H , 35-O ) :   0.8444 B(  2-H , 36-C ) :   0.9794 
B(  3-H , 37-C ) :   0.9634 B(  4-H , 38-C ) :   0.9783 B(  5-H , 39-C ) :   0.9766 
B(  6-H , 40-C ) :   0.9629 B(  7-H , 41-C ) :   0.9628 B(  8-H , 42-C ) :   0.9577 
B(  9-H , 43-C ) :   0.9628 B( 10-H , 44-C ) :   0.9673 B( 11-H , 45-C ) :   0.9671 
B( 12-H , 46-C ) :   0.9687 B( 13-H , 47-C ) :   0.9679 B( 14-H , 48-C ) :   0.9629 
B( 15-H , 49-C ) :   0.9583 B( 16-H , 50-C ) :   0.9647 B( 17-H , 51-C ) :   0.9649 
B( 18-H , 52-C ) :   0.9746 B( 19-H , 53-C ) :   0.9643 B( 20-H , 54-C ) :   0.9522 
B( 21-H , 55-C ) :   0.9456 B( 22-H , 56-C ) :   0.9608 B( 23-H , 57-C ) :   0.9711 
B( 24-H , 58-C ) :   0.9827 B( 25-H , 59-C ) :   0.9817 B( 26-H , 60-C ) :   0.9616 
B( 27-H , 61-C ) :   0.9573 B( 28-H , 62-C ) :   0.9513 B( 29-H , 63-C ) :   0.9527 
B( 30-N , 38-C ) :   1.5996 B( 30-N , 64-C ) :   1.3460 B( 31-N , 39-C ) :   1.5999 
B( 31-N , 65-C ) :   1.3537 B( 32-N , 36-C ) :   1.9097 B( 32-N , 66-C ) :   1.0768 
B( 33-N , 37-C ) :   1.9036 B( 33-N , 67-C ) :   1.0639 B( 34-O , 68-C ) :   1.2231 
B( 35-O , 69-C ) :   1.2045 B( 36-C , 64-C ) :   0.9531 B( 37-C , 65-C ) :   0.9667 
B( 38-C , 70-C ) :   1.2771 B( 39-C , 71-C ) :   1.2811 B( 40-C , 42-C ) :   1.4237 
B( 40-C , 48-C ) :   1.4070 B( 41-C , 43-C ) :   1.4077 B( 41-C , 49-C ) :   1.4228 
B( 42-C , 56-C ) :   1.4217 B( 43-C , 57-C ) :   1.4303 B( 44-C , 46-C ) :   1.2671 
B( 44-C , 58-C ) :   1.5341 B( 45-C , 47-C ) :   1.2711 B( 45-C , 59-C ) :   1.5340 
B( 46-C , 62-C ) :   1.5432 B( 47-C , 63-C ) :   1.5443 B( 48-C , 52-C ) :   1.4353 
B( 49-C , 53-C ) :   1.4171 B( 50-C , 54-C ) :   1.4495 B( 50-C , 64-C ) :   1.3407 
B( 51-C , 55-C ) :   1.4557 B( 51-C , 65-C ) :   1.3457 B( 52-C , 66-C ) :   1.3988 
B( 53-C , 67-C ) :   1.3611 B( 54-C , 70-C ) :   1.4095 B( 55-C , 71-C ) :   1.3989 
B( 56-C , 66-C ) :   1.3479 B( 57-C , 67-C ) :   1.4147 B( 58-C , 72-C ) :   1.2213 
B( 59-C , 73-C ) :   1.2208 B( 60-C , 72-C ) :   1.2296 B( 60-C , 74-C ) :   1.4749 
B( 61-C , 73-C ) :   1.2284 B( 61-C , 75-C ) :   1.4758 B( 62-C , 76-C ) :   1.3063 
B( 63-C , 77-C ) :   1.2979 B( 68-C , 74-C ) :   1.2615 B( 68-C , 78-C ) :   1.3444 
B( 69-C , 75-C ) :   1.2608 B( 69-C , 79-C ) :   1.3468 B( 70-C , 74-C ) :   0.8959 
B( 71-C , 75-C ) :   0.9075 B( 72-C , 76-C ) :   1.2876 B( 73-C , 77-C ) :   1.2722 
B( 76-C , 78-C ) :   1.1212 B( 77-C , 79-C ) :   1.1238 B( 78-C , 79-C ) :   0.7409 


-------
TIMINGS
-------

Total SCF time: 0 days 0 hours 15 min 51 sec 

Total time                  ....     951.299 sec
Sum of individual times     ....     939.583 sec  ( 98.8%)

Fock matrix formation       ....     877.188 sec  ( 92.2%)
  XC integration            ....      24.600 sec  (  2.8% of F)
    Basis function eval.    ....       2.456 sec  ( 10.0% of XC)
    Density eval.           ....       8.162 sec  ( 33.2% of XC)
    XC-Functional eval.     ....       0.305 sec  (  1.2% of XC)
    XC-Potential eval.      ....       3.967 sec  ( 16.1% of XC)
Diagonalization             ....       7.870 sec  (  0.8%)
Density matrix formation    ....       0.810 sec  (  0.1%)
Population analysis         ....       4.539 sec  (  0.5%)
Initial guess               ....       2.135 sec  (  0.2%)
Orbital Transformation      ....       0.000 sec  (  0.0%)
Orbital Orthonormalization  ....       0.000 sec  (  0.0%)
DIIS solution               ....      29.232 sec  (  3.1%)
SOSCF solution              ....       5.091 sec  (  0.5%)
Grid generation             ....      12.717 sec  (  1.3%)


-------------------------------------------------------------------------------
                          DFT DISPERSION CORRECTION                            
                                                                               
                                 DFTD4 V2.0                                    
-------------------------------------------------------------------------------
The PBE0 functional is recognized
Active option DFTDOPT                   ...         5   

-------------------------   ----------------
Dispersion correction           -0.111671664
-------------------------   ----------------


-------------------------   --------------------
FINAL SINGLE POINT ENERGY     -2062.619293957871
-------------------------   --------------------


                            ***************************************
                            *     ORCA property calculations      *
                            ***************************************

                                    ---------------------
                                    Active property flags
                                    ---------------------
   (+) Dipole Moment


------------------------------------------------------------------------------
                       ORCA ELECTRIC PROPERTIES CALCULATION
------------------------------------------------------------------------------

Dipole Moment Calculation                       ... on
Quadrupole Moment Calculation                   ... off
Polarizability Calculation                      ... off
GBWName                                         ... _fe6ll_xtb_dft_sg80_1_1.gbw
Electron density file                           ... _fe6ll_xtb_dft_sg80_1_1.scfp
The origin for moment calculation is the CENTER OF MASS  = (21.012935, 16.081418 18.232613)

-------------
DIPOLE MOMENT
-------------
                                X             Y             Z
Electronic contribution:      1.89812      -5.89946      -4.90798
Nuclear contribution   :     -0.64740       5.11018       3.26815
                        -----------------------------------------
Total Dipole Moment    :      1.25072      -0.78928      -1.63983
                        -----------------------------------------
Magnitude (a.u.)       :      2.20823
Magnitude (Debye)      :      5.61289



--------------------
Rotational spectrum 
--------------------
 
Rotational constants in cm-1:     0.001934     0.000750     0.000603 
Rotational constants in MHz :    57.980674    22.498070    18.075541 

 Dipole components along the rotational axes: 
x,y,z [a.u.] :     0.379483    -2.154603    -0.299963 
x,y,z [Debye]:     0.964569    -5.476565    -0.762445 

 

Timings for individual modules:

Sum of individual times         ...     1043.802 sec (=  17.397 min)
GTO integral calculation        ...       44.056 sec (=   0.734 min)   4.2 %
SCF iterations                  ...      999.746 sec (=  16.662 min)  95.8 %
                             ****ORCA TERMINATED NORMALLY****
TOTAL RUN TIME: 0 days 0 hours 18 minutes 12 seconds 490 msec
