Job execution start: Fri Apr 16 18:43:19 BST 2021
Shared library path: /work/e05/e05/atarzia/orca_4_2_1_linux_x86-64_openmpi314:/work/e05/e05/atarzia/openmpi-3.1.4/lib:/opt/cray/pe/papi/6.0.0.4/lib64:/opt/cray/libfabric/1.11.0.0.233/lib64
Slurm Job ID is: 207118
Slurm Job name is: fe6ll_xtb_dft_sg56_2_2
nid001133

                                 *****************
                                 * O   R   C   A *
                                 *****************

           --- An Ab Initio, DFT and Semiempirical electronic structure package ---

                  #######################################################
                  #                        -***-                        #
                  #          Department of theory and spectroscopy      #
                  #               Directorship: Frank Neese             #
                  #        Max Planck Institute fuer Kohlenforschung    #
                  #                Kaiser Wilhelm Platz 1               #
                  #                 D-45470 Muelheim/Ruhr               #
                  #                      Germany                        #
                  #                                                     #
                  #                  All rights reserved                #
                  #                        -***-                        #
                  #######################################################


                         Program Version 4.2.1 -  RELEASE  -


 With contributions from (in alphabetic order):
   Daniel Aravena         : Magnetic Suceptibility
   Michael Atanasov       : Ab Initio Ligand Field Theory (pilot matlab implementation)
   Alexander A. Auer      : GIAO ZORA, VPT2
   Ute Becker             : Parallelization
   Giovanni Bistoni       : ED, misc. LED, open-shell LED, HFLD
   Martin Brehm           : Molecular dynamics
   Dmytro Bykov           : SCF Hessian
   Vijay G. Chilkuri      : MRCI spin determinant printing, contributions to CSF-ICE
   Dipayan Datta          : RHF DLPNO-CCSD density
   Achintya Kumar Dutta   : EOM-CC, STEOM-CC
   Dmitry Ganyushin       : Spin-Orbit,Spin-Spin,Magnetic field MRCI
   Miquel Garcia          : C-PCM Hessian, Gaussian charge scheme
   Yang Guo               : DLPNO-NEVPT2, CIM, IAO-localization
   Andreas Hansen         : Spin unrestricted coupled pair/coupled cluster methods
   Benjamin Helmich-Paris : CASSCF linear response (MC-RPA)
   Lee Huntington         : MR-EOM, pCC
   Robert Izsak           : Overlap fitted RIJCOSX, COSX-SCS-MP3, EOM
   Christian Kollmar      : KDIIS, OOCD, Brueckner-CCSD(T), CCSD density
   Simone Kossmann        : Meta GGA functionals, TD-DFT gradient, OOMP2, MP2 Hessian
   Martin Krupicka        : AUTO-CI
   Lucas Lang             : DCDCAS
   Dagmar Lenk            : GEPOL surface, SMD
   Dimitrios Liakos       : Extrapolation schemes; Compound Job, initial MDCI parallelization
   Dimitrios Manganas     : Further ROCIS development; embedding schemes
   Dimitrios Pantazis     : SARC Basis sets
   Taras Petrenko         : DFT Hessian,TD-DFT gradient, ASA, ECA, R-Raman, ABS, FL, XAS/XES, NRVS
   Peter Pinski           : DLPNO-MP2, DLPNO-MP2 Gradient
   Christoph Reimann      : Effective Core Potentials
   Marius Retegan         : Local ZFS, SOC
   Christoph Riplinger    : Optimizer, TS searches, QM/MM, DLPNO-CCSD(T), (RO)-DLPNO pert. Triples
   Tobias Risthaus        : Range-separated hybrids, TD-DFT gradient, RPA, STAB
   Michael Roemelt        : Original ROCIS implementation
   Masaaki Saitow         : Open-shell DLPNO-CCSD energy and density
   Barbara Sandhoefer     : DKH picture change effects
   Avijit Sen             : IP-ROCIS
   Kantharuban Sivalingam : CASSCF convergence, NEVPT2, FIC-MRCI
   Bernardo de Souza      : ESD, SOC TD-DFT
   Georgi Stoychev        : AutoAux, RI-MP2 NMR
   Willem Van den Heuvel  : Paramagnetic NMR
   Boris Wezisla          : Elementary symmetry handling
   Frank Wennmohs         : Technical directorship


 We gratefully acknowledge several colleagues who have allowed us to
 interface, adapt or use parts of their codes:
   Stefan Grimme, W. Hujo, H. Kruse,             : VdW corrections, initial TS optimization,
                  C. Bannwarth                     DFT functionals, gCP, sTDA/sTD-DF
   Ed Valeev, F. Pavosevic, A. Kumar             : LibInt (2-el integral package), F12 methods
   Garnet Chan, S. Sharma, J. Yang, R. Olivares  : DMRG
   Ulf Ekstrom                                   : XCFun DFT Library
   Mihaly Kallay                                 : mrcc  (arbitrary order and MRCC methods)
   Andreas Klamt, Michael Diedenhofen            : otool_cosmo (COSMO solvation model)
   Jiri Pittner, Ondrej Demel                    : Mk-CCSD
   Frank Weinhold                                : gennbo (NPA and NBO analysis)
   Christopher J. Cramer and Donald G. Truhlar   : smd solvation model
   Lars Goerigk                                  : TD-DFT with DH, B97 family of functionals
   V. Asgeirsson, H. Jonsson                     : NEB implementation
   FAccTs GmbH                                   : IRC, NEB, NEB-TS, Multilevel, MM, QM/MM, CI optimization
   S Lehtola, MJT Oliveira, MAL Marques          : LibXC Library


 Your calculation uses the libint2 library for the computation of 2-el integrals
 For citations please refer to: http://libint.valeyev.net

 Your ORCA version has been built with support for libXC version: 4.2.3
 For citations please refer to: https://tddft.org/programs/libxc/

 This ORCA versions uses:
   CBLAS   interface :  Fast vector & matrix operations
   LAPACKE interface :  Fast linear algebra routines
   SCALAPACK package :  Parallel linear algebra routines




***************************************
The coordinates will be read from file: fe6ll_xtb_dft_sg56_2_2.xyz
***************************************


Your calculation utilizes the atom-pairwise dispersion correction
based on tight binding partial charges (D4)
Cite in your paper:
E.Caldeweyher, C.Bannwarth, S.Grimme, J.Chem.Phys., (2017), 147, 034112.
E.Caldeweyher, S.Ehlert, A.Hansen, H.Neugebauer, S.Grimme, J.Chem.Phys., (2018), in progress.
   

----- Orbital basis set information -----
Your calculation utilizes the basis: def2-TZVP
   F. Weigend and R. Ahlrichs, Phys. Chem. Chem. Phys. 7, 3297 (2005).

================================================================================
                                        WARNINGS
                       Please study these warnings very carefully!
================================================================================


INFO   : the flag for use of LIBINT has been found!

================================================================================
                                       INPUT FILE
================================================================================
NAME = fe6ll_xtb_dft_sg56_2_2.in
|  1> # closed shell KS, PBE0/def2-SVP/D4
|  2> ! DFT SP RKS PBE0 def2-TZVP D4 Grid6 NOFINALGRID SlowConv TightSCF printbasis
|  3> 
|  4> %base "_fe6ll_xtb_dft_sg56_2_2"
|  5> %maxcore 4000
|  6> %scf
|  7>    MaxIter 2000
|  8> end
|  9> 
| 10> %pal
| 11>    nprocs 48
| 12> end
| 13> 
| 14> * xyzfile 0 1 fe6ll_xtb_dft_sg56_2_2.xyz
| 15> 
| 16> 
| 17>                          ****END OF INPUT****
================================================================================

                       ****************************
                       * Single Point Calculation *
                       ****************************

---------------------------------
CARTESIAN COORDINATES (ANGSTROEM)
---------------------------------
  H     11.889200   14.254300    5.763100
  H      6.516100    4.955800   16.368800
  H     10.130700   12.960500   10.694500
  H      7.805500    6.669700   11.449600
  H     16.555600   17.354600    4.928800
  H      8.805700   -0.136200   17.926900
  H     16.328200   14.875000    4.864600
  H      7.270500   -0.628300   16.028900
  H     14.919200   18.713200    6.224900
  H      9.529900    2.210300   18.353400
  H      9.764400   12.760000    5.813400
  H      5.737600    7.435100   15.830700
  H     13.097400   17.606500    7.493100
  H      8.764100    4.037800   16.862200
  H      8.149400   11.441900    7.184800
  H      5.934900    9.360700   14.254000
  H      8.327500   12.477800   11.691400
  H      7.474000   10.805900   13.256100
  H     14.484800   13.763300    6.113400
  H      6.504700    1.183400   14.541100
  H      8.040700    9.613100    8.470300
  H      7.093000    7.983200   10.009400
  N     10.863900   13.618700    8.886400
  N      7.153200    5.846000   13.216400
  N     12.629500   14.969300    7.576500
  N      7.174900    3.795100   14.757500
  C     11.820900   14.278100    6.857500
  C      6.741500    4.882600   15.298000
  C     10.014500   12.906100    9.613700
  C      7.307000    6.873200   12.396800
  C     15.752200   16.863300    5.482500
  C      8.462600    0.671400   17.276300
  C     15.625600   15.475200    5.447200
  C      7.608200    0.394700   16.208500
  C     14.839100   17.623800    6.213800
  C      8.868100    1.984200   17.514300
  C      9.814200   12.773800    6.903400
  C      6.186600    7.306300   14.844500
  C     13.814400   17.010300    6.929500
  C      8.427600    3.012800   16.687300
  C      8.927000   12.034000    7.670900
  C      6.309800    8.376500   13.966000
  C      8.092200   11.479200   11.317600
  C      7.583400   10.539200   12.202900
  C     14.591400   14.851000    6.140100
  C      7.173300    1.415500   15.368800
  C      7.906900    9.893100    9.516700
  C      7.389400    8.958800   10.397700
  C     10.793200   13.532800    7.543400
  C      6.646400    6.050300   14.448600
  C     13.690900   15.620100    6.888800
  C      7.576400    2.735600   15.607100
  C      9.045200   12.056700    9.067400
  C      6.922500    8.179700   12.720100
  C      8.306400   11.158300    9.967200
  C      7.263200    9.246400   11.765900

----------------------------
CARTESIAN COORDINATES (A.U.)
----------------------------
  NO LB      ZA    FRAG     MASS         X           Y           Z
   0 H     1.0000    0     1.008   22.467332   26.936723   10.890681
   1 H     1.0000    0     1.008   12.313644    9.365105   30.932549
   2 H     1.0000    0     1.008   19.144249   24.491796   20.209676
   3 H     1.0000    0     1.008   14.750257   12.603906   21.636608
   4 H     1.0000    0     1.008   31.285550   32.795441    9.314082
   5 H     1.0000    0     1.008   16.640361   -0.257381   33.876931
   6 H     1.0000    0     1.008   30.855826   28.109676    9.192762
   7 H     1.0000    0     1.008   13.739254   -1.187315   30.290231
   8 H     1.0000    0     1.008   28.193202   35.362823   11.763356
   9 H     1.0000    0     1.008   18.008901    4.176862   34.682900
  10 H     1.0000    0     1.008   18.452042   24.112905   10.985734
  11 H     1.0000    0     1.008   10.842493   14.050303   29.915688
  12 H     1.0000    0     1.008   24.750499   33.271463   14.159907
  13 H     1.0000    0     1.008   16.561749    7.630336   31.864940
  14 H     1.0000    0     1.008   15.400134   21.622057   13.577304
  15 H     1.0000    0     1.008   11.215336   17.689159   26.936156
  16 H     1.0000    0     1.008   15.736694   23.579625   22.093544
  17 H     1.0000    0     1.008   14.123813   20.420192   25.050399
  18 H     1.0000    0     1.008   27.372305   26.008868   11.552652
  19 H     1.0000    0     1.008   12.292102    2.236302   27.478697
  20 H     1.0000    0     1.008   15.194721   18.166126   16.006547
  21 H     1.0000    0     1.008   13.403827   15.086062   18.915025
  22 N     7.0000    0    14.007   20.529796   25.735613   16.792862
  23 N     7.0000    0    14.007   13.517589   11.047339   24.975376
  24 N     7.0000    0    14.007   23.866296   28.287877   14.317510
  25 N     7.0000    0    14.007   13.558596    7.171700   27.887633
  26 C     6.0000    0    12.011   22.338264   26.981699   12.958797
  27 C     6.0000    0    12.011   12.739589    9.226777   28.909030
  28 C     6.0000    0    12.011   18.924662   24.388994   18.167260
  29 C     6.0000    0    12.011   13.808229   12.988466   23.426557
  30 C     6.0000    0    12.011   29.767344   31.867019   10.360424
  31 C     6.0000    0    12.011   15.991996    1.268762   32.647476
  32 C     6.0000    0    12.011   29.528105   29.243890   10.293716
  33 C     6.0000    0    12.011   14.377414    0.745875   30.629626
  34 C     6.0000    0    12.011   28.041835   33.304155   11.742380
  35 C     6.0000    0    12.011   16.758280    3.749595   33.097230
  36 C     6.0000    0    12.011   18.546150   24.138984   13.045535
  37 C     6.0000    0    12.011   11.690980   13.806906   28.052040
  38 C     6.0000    0    12.011   26.105433   32.144808   13.094857
  39 C     6.0000    0    12.011   15.925856    5.693367   31.534427
  40 C     6.0000    0    12.011   16.869585   22.740964   14.495900
  41 C     6.0000    0    12.011   11.923794   15.829291   26.391915
  42 C     6.0000    0    12.011   15.292042   21.692544   21.387164
  43 C     6.0000    0    12.011   14.330549   19.916202   23.060139
  44 C     6.0000    0    12.011   27.573750   28.064323   11.603107
  45 C     6.0000    0    12.011   13.555572    2.674907   29.042823
  46 C     6.0000    0    12.011   14.941876   18.695250   17.983957
  47 C     6.0000    0    12.011   13.963942   16.929678   19.648805
  48 C     6.0000    0    12.011   20.396192   25.573286   14.254960
  49 C     6.0000    0    12.011   12.559876   11.433410   27.303897
  50 C     6.0000    0    12.011   25.872052   29.517711   13.017945
  51 C     6.0000    0    12.011   14.317321    5.169535   29.493145
  52 C     6.0000    0    12.011   17.092951   22.783861   17.134903
  53 C     6.0000    0    12.011   13.081629   15.457393   24.037505
  54 C     6.0000    0    12.011   15.696821   21.086131   18.835278
  55 C     6.0000    0    12.011   13.725459   17.473164   22.234329

--------------------------------
INTERNAL COORDINATES (ANGSTROEM)
--------------------------------
 H      0   0   0     0.000000000000     0.00000000     0.00000000
 H      1   0   0    15.093481319762     0.00000000     0.00000000
 H      1   2   0     5.393046138316    24.98894740     0.00000000
 H      2   1   3     5.366426577342    22.12008538   164.76856183
 H      1   2   4     5.664203875215   137.22078486   227.68126668
 H      2   1   3     5.796413353963   126.11848959   232.75479863
 H      5   1   2     2.490832904873    51.95376481    70.86506016
 H      6   2   1     2.490262124757    74.05044265   272.38887248
 H      5   1   2     2.490677443990    71.37607949   272.59127485
 H      6   2   1     2.492474701978    48.22101141    73.56373103
 H      1   2  10     2.598121940941    48.77151597   135.35400891
 H      2   1   3     2.653778881143    52.14948605    43.42084508
 H      9   5   1     2.480336946868   120.34851087    21.03475766
 H      2   1   3     2.477836063988    92.59019793   261.02646505
 H     11   1   2     2.495265631150   147.54048294    17.04343592
 H     12   2   1     2.496566750560   145.63537584     8.71161009
 H      3   1   2     2.116208671185   139.75722024   287.70736332
 H     16  12   2     2.335216533857   143.06318380   303.72056430
 H      7   5   1     2.488674725632   119.95892957   335.50462869
 H      8   6   2     2.466222895442   120.40146717    17.46025138
 H     15  11   1     2.238042756517   141.14771448   293.87737144
 H      4   2   1     2.075358894264   139.09217888   282.92904470
 N      3   1   2     2.059134548785     5.30863209   167.66451097
 N      4   2   1     2.055616506063     7.21127255   198.98254359
 N      1   2  14     2.085111184086    74.12969553   291.73824696
 N      2   1   3     2.092254673791    71.85224235   192.78675705
 C      1   2  26     1.096787440665    44.77012428   210.10237748
 C      2   1   3     1.096711466157    44.10126254   175.08628838
 C      3   1   2     1.088388919458    30.54603545   314.93100141
 C      4   2   1     1.089542261686    32.09308046   309.09228139
 C      5   1   2     1.092433494543    22.07604861   327.31701457
 C      6   2   1     1.092344144489    20.98913953   317.05949908
 C      7   5   1     1.092387092564    59.86835140   334.95714409
 C      8   6   2     1.092165944351    59.93073632    17.36378057
 C      9   5   1     1.092397171362    59.92786649    21.16021596
 C     10   6   2     1.092332028277    59.84459162   338.19450777
 C     11   1   2     1.091224303248    88.55267797    22.52543113
 C     12   2   1     1.091229068528    87.26451556    20.64160219
 C     13   9   5     1.089581754620    59.75713298     0.21319941
 C     14   2   1     1.092907708821    92.07818229   234.95185556
 C     15  11   1     1.091575640989    59.81162754     5.65680071
 C     16  12   2     1.091853309744    59.89859766    13.22400418
 C     17   3   1     1.091922382773   103.35330351    71.47973227
 C     18  16  12     1.091937493632   109.08940992   107.13033038
 C     19   7   5     1.093237275252    59.70767747   359.82613958
 C     20   8   6     1.089028769133    60.48957665   359.79192424
 C     21  15  11     1.091446471431   110.30415663   109.92627418
 C     22   4   2     1.091066088741   103.04329883    76.77476476
 C     23   3  29     1.347600200356   146.72362866   355.30538289
 C     24   4  30     1.347924912597   147.59524486   351.00820199
 C     39  13   9     1.396268161923   120.11104650   181.69900852
 C     46  20   8     1.400692867834   120.45434170   181.29447921
 C     29   3   1     1.399809465606   119.45919708   171.84898260
 C     30   4   2     1.399751903017   120.05343051   165.22045471
 C     47  21  15     1.401171488434   120.32734787   336.47436344
 C     44  18  16     1.401723539076   120.20384284   337.15343932

---------------------------
INTERNAL COORDINATES (A.U.)
---------------------------
 H      0   0   0     0.000000000000     0.00000000     0.00000000
 H      1   0   0    28.522546101806     0.00000000     0.00000000
 H      1   2   0    10.191380229018    24.98894740     0.00000000
 H      2   1   3    10.141076548972    22.12008538   164.76856183
 H      1   2   4    10.703794090852   137.22078486   227.68126668
 H      2   1   3    10.953633797994   126.11848959   232.75479863
 H      5   1   2     4.706992035570    51.95376481    70.86506016
 H      6   2   1     4.705913417468    74.05044265   272.38887248
 H      5   1   2     4.706698257076    71.37607949   272.59127485
 H      6   2   1     4.710094582465    48.22101141    73.56373103
 H      1   2  10     4.909738930911    48.77151597   135.35400891
 H      2   1   3     5.014915305344    52.14948605    43.42084508
 H      9   5   1     4.687157549427   120.34851087    21.03475766
 H      2   1   3     4.682431565691    92.59019793   261.02646505
 H     11   1   2     4.715368674260   147.54048294    17.04343592
 H     12   2   1     4.717827433611   145.63537584     8.71161009
 H      3   1   2     3.999054830770   139.75722024   287.70736332
 H     16  12   2     4.412919712395   143.06318380   303.72056430
 H      7   5   1     4.702913667856   119.95892957   335.50462869
 H      8   6   2     4.660485857591   120.40146717    17.46025138
 H     15  11   1     4.229287885824   141.14771448   293.87737144
 H      4   2   1     3.921859939756   139.09217888   282.92904470
 N      3   1   2     3.891200370099     5.30863209   167.66451097
 N      4   2   1     3.884552232828     7.21127255   198.98254359
 N      1   2  14     3.940289096699    74.12969553   291.73824696
 N      2   1   3     3.953788335882    71.85224235   192.78675705
 C      1   2  26     2.072627889981    44.77012428   210.10237748
 C      2   1   3     2.072484318968    44.10126254   175.08628838
 C      3   1   2     2.056756984971    30.54603545   314.93100141
 C      4   2   1     2.058936485920    32.09308046   309.09228139
 C      5   1   2     2.064400124209    22.07604861   327.31701457
 C      6   2   1     2.064231277077    20.98913953   317.05949908
 C      7   5   1     2.064312437176    59.86835140   334.95714409
 C      8   6   2     2.063894527619    59.93073632    17.36378057
 C      9   5   1     2.064331483345    59.92786649    21.16021596
 C     10   6   2     2.064208380754    59.84459162   338.19450777
 C     11   1   2     2.062115083819    88.55267797    22.52543113
 C     12   2   1     2.062124088891    87.26451556    20.64160219
 C     13   9   5     2.059011116748    59.75713298     0.21319941
 C     14   2   1     2.065296259323    92.07818229   234.95185556
 C     15  11   1     2.062779015928    59.81162754     5.65680071
 C     16  12   2     2.063303733833    59.89859766    13.22400418
 C     17   3   1     2.063434262939   103.35330351    71.47973227
 C     18  16  12     2.063462818325   109.08940992   107.13033038
 C     19   7   5     2.065919049620    59.70767747   359.82613958
 C     20   8   6     2.057966125623    60.48957665   359.79192424
 C     21  15  11     2.062534920840   110.30415663   109.92627418
 C     22   4   2     2.061816101729   103.04329883    76.77476476
 C     23   3  29     2.546595316691   146.72362866   355.30538289
 C     24   4  30     2.547208933898   147.59524486   351.00820199
 C     39  13   9     2.638564435548   120.11104650   181.69900852
 C     46  20   8     2.646925917942   120.45434170   181.29447921
 C     29   3   1     2.645256529666   119.45919708   171.84898260
 C     30   4   2     2.645147752137   120.05343051   165.22045471
 C     47  21  15     2.647830379799   120.32734787   336.47436344
 C     44  18  16     2.648873604325   120.20384284   337.15343932

---------------------
BASIS SET INFORMATION
---------------------
There are 3 groups of distinct atoms

 Group   1 Type H   : 5s1p contracted to 3s1p pattern {311/1}
 Group   2 Type N   : 11s6p2d1f contracted to 5s3p2d1f pattern {62111/411/11/1}
 Group   3 Type C   : 11s6p2d1f contracted to 5s3p2d1f pattern {62111/411/11/1}

Atom   0H    basis set group =>   1
Atom   1H    basis set group =>   1
Atom   2H    basis set group =>   1
Atom   3H    basis set group =>   1
Atom   4H    basis set group =>   1
Atom   5H    basis set group =>   1
Atom   6H    basis set group =>   1
Atom   7H    basis set group =>   1
Atom   8H    basis set group =>   1
Atom   9H    basis set group =>   1
Atom  10H    basis set group =>   1
Atom  11H    basis set group =>   1
Atom  12H    basis set group =>   1
Atom  13H    basis set group =>   1
Atom  14H    basis set group =>   1
Atom  15H    basis set group =>   1
Atom  16H    basis set group =>   1
Atom  17H    basis set group =>   1
Atom  18H    basis set group =>   1
Atom  19H    basis set group =>   1
Atom  20H    basis set group =>   1
Atom  21H    basis set group =>   1
Atom  22N    basis set group =>   2
Atom  23N    basis set group =>   2
Atom  24N    basis set group =>   2
Atom  25N    basis set group =>   2
Atom  26C    basis set group =>   3
Atom  27C    basis set group =>   3
Atom  28C    basis set group =>   3
Atom  29C    basis set group =>   3
Atom  30C    basis set group =>   3
Atom  31C    basis set group =>   3
Atom  32C    basis set group =>   3
Atom  33C    basis set group =>   3
Atom  34C    basis set group =>   3
Atom  35C    basis set group =>   3
Atom  36C    basis set group =>   3
Atom  37C    basis set group =>   3
Atom  38C    basis set group =>   3
Atom  39C    basis set group =>   3
Atom  40C    basis set group =>   3
Atom  41C    basis set group =>   3
Atom  42C    basis set group =>   3
Atom  43C    basis set group =>   3
Atom  44C    basis set group =>   3
Atom  45C    basis set group =>   3
Atom  46C    basis set group =>   3
Atom  47C    basis set group =>   3
Atom  48C    basis set group =>   3
Atom  49C    basis set group =>   3
Atom  50C    basis set group =>   3
Atom  51C    basis set group =>   3
Atom  52C    basis set group =>   3
Atom  53C    basis set group =>   3
Atom  54C    basis set group =>   3
Atom  55C    basis set group =>   3

-------------------------
BASIS SET IN INPUT FORMAT
-------------------------

 # Basis set for element : H 
 NewGTO H 
 S 3 
   1      34.0613410000      0.0254393072
   2       5.1235746000      0.1900859489
   3       1.1646626000      0.8524411301
 S 1 
   1       0.3272304100      1.0000000000
 S 1 
   1       0.1030724100      1.0000000000
 P 1 
   1       0.8000000000      1.0000000000
  end;

 # Basis set for element : C 
 NewGTO C 
 S 6 
   1   13575.3496820000      0.0006064549
   2    2035.2333680000      0.0046979088
   3     463.2256235900      0.0243324776
   4     131.2001959800      0.0973999683
   5      42.8530158910      0.3019558425
   6      15.5841857660      0.6623360915
 S 2 
   1       6.2067138508      0.6559530854
   2       2.5764896527      0.3758563329
 S 1 
   1       0.5769633942      1.0000000000
 S 1 
   1       0.2297283136      1.0000000000
 S 1 
   1       0.0951644400      1.0000000000
 P 4 
   1      34.6972322440      0.0113272200
   2       7.9582622826      0.0761696592
   3       2.3780826883      0.3019225220
   4       0.8143320818      0.7278502735
 P 1 
   1       0.2888754725      1.0000000000
 P 1 
   1       0.1005682367      1.0000000000
 D 1 
   1       1.0970000000      1.0000000000
 D 1 
   1       0.3180000000      1.0000000000
 F 1 
   1       0.7610000000      1.0000000000
  end;

 # Basis set for element : N 
 NewGTO N 
 S 6 
   1   19730.8006470000      0.0005862639
   2    2957.8958745000      0.0045428821
   3     673.2213359500      0.0235584136
   4     190.6824949400      0.0947091933
   5      62.2954418980      0.2971978492
   6      22.6541611820      0.6691624689
 S 2 
   1       8.9791477428      0.6459668363
   2       3.6863002370      0.3870057440
 S 1 
   1       0.8466007680      1.0000000000
 S 1 
   1       0.3364713377      1.0000000000
 S 1 
   1       0.1364765367      1.0000000000
 P 4 
   1      49.2003805100      0.0114488252
   2      11.3467905370      0.0784223379
   3       3.4273972411      0.3081809474
   4       1.1785525134      0.7202719637
 P 1 
   1       0.4164220497      1.0000000000
 P 1 
   1       0.1426082601      1.0000000000
 D 1 
   1       1.6540000000      1.0000000000
 D 1 
   1       0.4690000000      1.0000000000
 F 1 
   1       1.0930000000      1.0000000000
  end;



           ************************************************************
           *        Program running with 48 parallel MPI-processes    *
           *              working on a common directory               *
           ************************************************************
------------------------------------------------------------------------------
                           ORCA GTO INTEGRAL CALCULATION
------------------------------------------------------------------------------

                         BASIS SET STATISTICS AND STARTUP INFO

 # of primitive gaussian shells          ...  812
 # of primitive gaussian functions       ... 1740
 # of contracted shells                  ...  462
 # of contracted basis functions         ... 1186
 Highest angular momentum                ...    3
 Maximum contraction depth               ...    6
 Integral package used                   ... LIBINT
 Integral threshhold            Thresh   ...  2.500e-11
 Primitive cut-off              TCut     ...  2.500e-12


------------------------------ INTEGRAL EVALUATION ----------------------------


 * One electron integrals 
 Pre-screening matrix                    ... done
 Shell pair data                         ... done (   0.013 sec)



           ************************************************************
           *        Program running with 48 parallel MPI-processes    *
           *              working on a common directory               *
           ************************************************************
-------------------------------------------------------------------------------
                                 ORCA SCF
-------------------------------------------------------------------------------

------------
SCF SETTINGS
------------
Hamiltonian:
 Density Functional     Method          .... DFT(GTOs)
 Exchange Functional    Exchange        .... PBE
   PBE kappa parameter   XKappa         ....  0.804000
   PBE mue parameter    XMuePBE         ....  0.219520
 Correlation Functional Correlation     .... PBE
   PBE beta parameter  CBetaPBE         ....  0.066725
 LDA part of GGA corr.  LDAOpt          .... PW91-LDA
 Gradients option       PostSCFGGA      .... off
 Hybrid DFT is turned on
   Fraction HF Exchange ScalHFX         ....  0.250000
   Scaling of DF-GGA-X  ScalDFX         ....  0.750000
   Scaling of DF-GGA-C  ScalDFC         ....  1.000000
   Scaling of DF-LDA-C  ScalLDAC        ....  1.000000
   Perturbative correction              ....  0.000000
   Density functional embedding theory  .... OFF
   NL short-range parameter             ....  6.900000


General Settings:
 Integral files         IntName         .... _fe6ll_xtb_dft_sg56_2_2
 Hartree-Fock type      HFTyp           .... RHF
 Total Charge           Charge          ....    0
 Multiplicity           Mult            ....    1
 Number of Electrons    NEL             ....  230
 Basis Dimension        Dim             .... 1186
 Nuclear Repulsion      ENuc            ....   2696.2335421603 Eh

Convergence Acceleration:
 DIIS                   CNVDIIS         .... on
   Start iteration      DIISMaxIt       ....     0
   Startup error        DIISStart       ....  0.200000
   # of expansion vecs  DIISMaxEq       ....     5
   Bias factor          DIISBfac        ....   1.050
   Max. coefficient     DIISMaxC        ....  10.000
 Newton-Raphson         CNVNR           .... off
 SOSCF                  CNVSOSCF        .... on
   Start iteration      SOSCFMaxIt      ....   150
   Startup grad/error   SOSCFStart      ....  0.001000
 Level Shifting         CNVShift        .... on
   Level shift para.    LevelShift      ....    0.2500
   Turn off err/grad.   ShiftErr        ....    0.0000
 Zerner damping         CNVZerner       .... off
 Static damping         CNVDamp         .... on
   Fraction old density DampFac         ....    0.8500
   Max. Damping (<1)    DampMax         ....    0.9800
   Min. Damping (>=0)   DampMin         ....    0.0000
   Turn off err/grad.   DampErr         ....    0.0300
 Fernandez-Rico         CNVRico         .... off

SCF Procedure:
 Maximum # iterations   MaxIter         ....  2000
 SCF integral mode      SCFMode         .... Direct
   Integral package                     .... LIBINT
 Reset frequency        DirectResetFreq ....    20
 Integral Threshold     Thresh          ....  2.500e-11 Eh
 Primitive CutOff       TCut            ....  2.500e-12 Eh

Convergence Tolerance:
 Convergence Check Mode ConvCheckMode   .... Total+1el-Energy
 Convergence forced     ConvForced      .... 0
 Energy Change          TolE            ....  1.000e-08 Eh
 1-El. energy change                    ....  1.000e-05 Eh
 Orbital Gradient       TolG            ....  1.000e-05
 Orbital Rotation angle TolX            ....  1.000e-05
 DIIS Error             TolErr          ....  5.000e-07


Diagonalization of the overlap matrix:
Smallest eigenvalue                        ... 7.163e-06
Time for diagonalization                   ...    0.271 sec
Threshold for overlap eigenvalues          ... 1.000e-08
Number of eigenvalues below threshold      ... 0
Time for construction of square roots      ...    0.187 sec
Total time needed                          ...    0.463 sec

-------------------
DFT GRID GENERATION
-------------------

General Integration Accuracy     IntAcc      ...  5.340
Radial Grid Type                 RadialGrid  ... Gauss-Chebyshev
Angular Grid (max. acc.)         AngularGrid ... Lebedev-590
Angular grid pruning method      GridPruning ... 3 (G Style)
Weight generation scheme         WeightScheme... Becke
Basis function cutoff            BFCut       ...    1.0000e-11
Integration weight cutoff        WCut        ...    1.0000e-14
Grids for H and He will be reduced by one unit

# of grid points (after initial pruning)     ... 802588 (   0.0 sec)
# of grid points (after weights+screening)   ... 702144 (   0.7 sec)
nearest neighbour list constructed           ...    0.0 sec
Grid point re-assignment to atoms done       ...    0.1 sec
Grid point division into batches done        ...    7.6 sec
Reduced shell lists constructed in    7.9 sec

Total number of grid points                  ...   702144
Total number of batches                      ...    11000
Average number of points per batch           ...       63
Average number of grid points per atom       ...    12538
Average number of shells per batch           ...   102.89 (22.27%)
Average number of basis functions per batch  ...   258.58 (21.80%)
Average number of large shells per batch     ...    66.58 (64.71%)
Average number of large basis fcns per batch ...   161.81 (62.58%)
Maximum spatial batch extension              ...  13.45, 14.67, 13.69 au
Average spatial batch extension              ...   0.04,  0.04,  0.04 au

Time for grid setup =    8.864 sec

------------------------------
INITIAL GUESS: MODEL POTENTIAL
------------------------------
Loading Hartree-Fock densities                     ... done
Calculating cut-offs                               ... done
Setting up the integral package                    ... done
Initializing the effective Hamiltonian             ... done
Starting the Coulomb interaction                   ... done (   0.1 sec)
Reading the grid                                   ... done
Mapping shells                                     ... done
Starting the XC term evaluation                    ... done (   0.4 sec)
  promolecular density results
     # of electrons  =    229.989231090
     EX              =   -186.047235743
     EC              =     -7.692967621
     EX+EC           =   -193.740203364
Transforming the Hamiltonian                       ... done (   0.1 sec)
Diagonalizing the Hamiltonian                      ... done (   0.2 sec)
Back transforming the eigenvectors                 ... done (   0.1 sec)
Now organizing SCF variables                       ... done
                      ------------------
                      INITIAL GUESS DONE (   9.9 sec)
                      ------------------
--------------
SCF ITERATIONS
--------------
ITER       Energy         Delta-E        Max-DP      RMS-DP      [F,P]     Damp
               ***  Starting incremental Fock matrix formation  ***
  0  -1373.5832239578   0.000000000000 0.03591152  0.00035650  0.1802474 0.8500
  1  -1373.7503622921  -0.167138334330 0.05314637  0.00047022  0.1331401 0.8500
                               ***Turning on DIIS***
  2  -1373.8654099208  -0.115047628677 0.03941856  0.00038553  0.0901620 0.8500
  3  -1373.9414297016  -0.076019780788 0.01256834  0.00018514  0.0594742 0.8500
  4  -1373.9975743058  -0.056144604176 0.00607634  0.00009841  0.0461370 0.8500
  5  -1374.0407809917  -0.043206685914 0.00632896  0.00007231  0.0389235 0.8500
  6  -1374.0756647155  -0.034883723849 0.00696358  0.00006161  0.0332896 0.8500
  7  -1374.1045351758  -0.028870460224 0.04167353  0.00035480  0.0283434 0.0000
  8  -1374.2586452881  -0.154110112359 0.00587880  0.00005462  0.0047818 0.0000
  9  -1374.2586798778  -0.000034589712 0.00113441  0.00001250  0.0045888 0.0000
 10  -1374.2588101237  -0.000130245862 0.00068238  0.00000642  0.0012004 0.0000
                      *** Initiating the SOSCF procedure ***
                           *** Shutting down DIIS ***
                      *** Re-Reading the Fockian *** 
                      *** Removing any level shift *** 
ITER      Energy       Delta-E        Grad      Rot      Max-DP    RMS-DP
 11  -1374.25881923  -0.0000091051  0.000101  0.000101  0.000438  0.000004
               *** Restarting incremental Fock matrix formation ***
 12  -1374.25882005  -0.0000008168  0.000054  0.000310  0.000315  0.000004
 13  -1374.25882009  -0.0000000420  0.000044  0.000140  0.000295  0.000002
 14  -1374.25882017  -0.0000000782  0.000012  0.000059  0.000242  0.000002
 15  -1374.25882025  -0.0000000804  0.000008  0.000040  0.000156  0.000001
 16  -1374.25882029  -0.0000000394  0.000007  0.000040  0.000148  0.000001
 17  -1374.25882025   0.0000000380  0.000003  0.000007  0.000090  0.000001
                  ***Gradient check signals convergence***
              ***Rediagonalizing the Fockian in SOSCF/NRSCF***

               *****************************************************
               *                     SUCCESS                       *
               *           SCF CONVERGED AFTER  18 CYCLES          *
               *****************************************************


----------------
TOTAL SCF ENERGY
----------------

Total Energy       :        -1374.25882025 Eh          -37395.48365 eV

Components:
Nuclear Repulsion  :         2696.23354216 Eh           73368.24465 eV
Electronic Energy  :        -4070.49236241 Eh         -110763.72830 eV
One Electron Energy:        -7217.82095129 Eh         -196406.89322 eV
Two Electron Energy:         3147.32858888 Eh           85643.16492 eV

Virial components:
Potential Energy   :        -2741.43323101 Eh          -74598.19071 eV
Kinetic Energy     :         1367.17441076 Eh           37202.70707 eV
Virial Ratio       :            2.00518179


DFT components:
N(Alpha)           :      114.999999494115 electrons
N(Beta)            :      114.999999494115 electrons
N(Total)           :      229.999998988230 electrons
E(X)               :     -141.983350091575 Eh       
E(C)               :       -7.697315794444 Eh       
E(XC)              :     -149.680665886019 Eh       
DFET-embed. en.    :        0.000000000000 Eh       

---------------
SCF CONVERGENCE
---------------

  Last Energy change         ...   -1.0732e-10  Tolerance :   1.0000e-08
  Last MAX-Density change    ...    2.3723e-04  Tolerance :   1.0000e-07
  Last RMS-Density change    ...    1.5308e-06  Tolerance :   5.0000e-09
  Last Orbital Gradient      ...    1.1528e-06  Tolerance :   1.0000e-05
  Last Orbital Rotation      ...    1.2111e-05  Tolerance :   1.0000e-05

             **** THE GBW FILE WAS UPDATED (_fe6ll_xtb_dft_sg56_2_2.gbw) ****
             **** DENSITY FILE WAS UPDATED (_fe6ll_xtb_dft_sg56_2_2.scfp) ****
             **** ENERGY FILE WAS UPDATED (_fe6ll_xtb_dft_sg56_2_2.en.tmp) ****
             **** THE GBW FILE WAS UPDATED (_fe6ll_xtb_dft_sg56_2_2.gbw) ****
             **** DENSITY FILE WAS UPDATED (_fe6ll_xtb_dft_sg56_2_2.scfp) ****
----------------
ORBITAL ENERGIES
----------------

  NO   OCC          E(Eh)            E(eV) 
   0   2.0000     -14.389618      -391.5614 
   1   2.0000     -14.389351      -391.5541 
   2   2.0000     -14.387575      -391.5058 
   3   2.0000     -14.385632      -391.4529 
   4   2.0000     -10.274982      -279.5965 
   5   2.0000     -10.274543      -279.5845 
   6   2.0000     -10.274072      -279.5717 
   7   2.0000     -10.273563      -279.5578 
   8   2.0000     -10.268862      -279.4299 
   9   2.0000     -10.267955      -279.4053 
  10   2.0000     -10.260862      -279.2122 
  11   2.0000     -10.260669      -279.2070 
  12   2.0000     -10.260511      -279.2027 
  13   2.0000     -10.259992      -279.1886 
  14   2.0000     -10.259923      -279.1867 
  15   2.0000     -10.259865      -279.1851 
  16   2.0000     -10.259683      -279.1802 
  17   2.0000     -10.259438      -279.1735 
  18   2.0000     -10.253504      -279.0120 
  19   2.0000     -10.252897      -278.9955 
  20   2.0000     -10.249026      -278.8902 
  21   2.0000     -10.248304      -278.8705 
  22   2.0000     -10.247880      -278.8590 
  23   2.0000     -10.247087      -278.8374 
  24   2.0000     -10.228650      -278.3357 
  25   2.0000     -10.228596      -278.3342 
  26   2.0000     -10.228234      -278.3244 
  27   2.0000     -10.228076      -278.3201 
  28   2.0000     -10.227048      -278.2921 
  29   2.0000     -10.226503      -278.2773 
  30   2.0000     -10.224969      -278.2356 
  31   2.0000     -10.224667      -278.2273 
  32   2.0000     -10.224659      -278.2271 
  33   2.0000     -10.223798      -278.2037 
  34   2.0000      -0.991911       -26.9913 
  35   2.0000      -0.991111       -26.9695 
  36   2.0000      -0.957973       -26.0678 
  37   2.0000      -0.956005       -26.0142 
  38   2.0000      -0.913249       -24.8508 
  39   2.0000      -0.875059       -23.8116 
  40   2.0000      -0.873172       -23.7602 
  41   2.0000      -0.862682       -23.4748 
  42   2.0000      -0.840719       -22.8771 
  43   2.0000      -0.826929       -22.5019 
  44   2.0000      -0.815509       -22.1911 
  45   2.0000      -0.791660       -21.5422 
  46   2.0000      -0.784333       -21.3428 
  47   2.0000      -0.769740       -20.9457 
  48   2.0000      -0.769278       -20.9331 
  49   2.0000      -0.763470       -20.7751 
  50   2.0000      -0.749678       -20.3998 
  51   2.0000      -0.708328       -19.2746 
  52   2.0000      -0.684820       -18.6349 
  53   2.0000      -0.680851       -18.5269 
  54   2.0000      -0.666386       -18.1333 
  55   2.0000      -0.646194       -17.5838 
  56   2.0000      -0.633642       -17.2423 
  57   2.0000      -0.632071       -17.1995 
  58   2.0000      -0.625038       -17.0081 
  59   2.0000      -0.622720       -16.9451 
  60   2.0000      -0.613671       -16.6988 
  61   2.0000      -0.591144       -16.0859 
  62   2.0000      -0.589234       -16.0339 
  63   2.0000      -0.567433       -15.4406 
  64   2.0000      -0.552242       -15.0273 
  65   2.0000      -0.545494       -14.8436 
  66   2.0000      -0.539890       -14.6912 
  67   2.0000      -0.522628       -14.2214 
  68   2.0000      -0.520816       -14.1721 
  69   2.0000      -0.507100       -13.7989 
  70   2.0000      -0.502250       -13.6669 
  71   2.0000      -0.490356       -13.3433 
  72   2.0000      -0.483011       -13.1434 
  73   2.0000      -0.476117       -12.9558 
  74   2.0000      -0.475505       -12.9392 
  75   2.0000      -0.471418       -12.8279 
  76   2.0000      -0.470352       -12.7989 
  77   2.0000      -0.469015       -12.7625 
  78   2.0000      -0.459704       -12.5092 
  79   2.0000      -0.452942       -12.3252 
  80   2.0000      -0.450090       -12.2476 
  81   2.0000      -0.447477       -12.1765 
  82   2.0000      -0.445340       -12.1183 
  83   2.0000      -0.437863       -11.9149 
  84   2.0000      -0.433503       -11.7962 
  85   2.0000      -0.432874       -11.7791 
  86   2.0000      -0.431010       -11.7284 
  87   2.0000      -0.424171       -11.5423 
  88   2.0000      -0.421841       -11.4789 
  89   2.0000      -0.408718       -11.1218 
  90   2.0000      -0.400883       -10.9086 
  91   2.0000      -0.387767       -10.5517 
  92   2.0000      -0.385298       -10.4845 
  93   2.0000      -0.381343       -10.3769 
  94   2.0000      -0.373086       -10.1522 
  95   2.0000      -0.371652       -10.1132 
  96   2.0000      -0.369627       -10.0581 
  97   2.0000      -0.365730        -9.9520 
  98   2.0000      -0.362462        -9.8631 
  99   2.0000      -0.353949        -9.6314 
 100   2.0000      -0.345412        -9.3991 
 101   2.0000      -0.320862        -8.7311 
 102   2.0000      -0.312292        -8.4979 
 103   2.0000      -0.308569        -8.3966 
 104   2.0000      -0.305525        -8.3137 
 105   2.0000      -0.299339        -8.1454 
 106   2.0000      -0.287943        -7.8353 
 107   2.0000      -0.279717        -7.6115 
 108   2.0000      -0.277096        -7.5402 
 109   2.0000      -0.272483        -7.4146 
 110   2.0000      -0.266881        -7.2622 
 111   2.0000      -0.266715        -7.2577 
 112   2.0000      -0.245486        -6.6800 
 113   2.0000      -0.234673        -6.3858 
 114   2.0000      -0.229244        -6.2381 
 115   0.0000      -0.090421        -2.4605 
 116   0.0000      -0.070537        -1.9194 
 117   0.0000      -0.041962        -1.1419 
 118   0.0000      -0.034346        -0.9346 
 119   0.0000      -0.026240        -0.7140 
 120   0.0000      -0.020965        -0.5705 
 121   0.0000      -0.007702        -0.2096 
 122   0.0000      -0.007023        -0.1911 
 123   0.0000       0.002794         0.0760 
 124   0.0000       0.010734         0.2921 
 125   0.0000       0.030982         0.8431 
 126   0.0000       0.044764         1.2181 
 127   0.0000       0.047381         1.2893 
 128   0.0000       0.050033         1.3615 
 129   0.0000       0.059534         1.6200 
 130   0.0000       0.061267         1.6672 
 131   0.0000       0.063602         1.7307 
 132   0.0000       0.068423         1.8619 
 133   0.0000       0.073943         2.0121 
 134   0.0000       0.082254         2.2382 
 135   0.0000       0.091407         2.4873 
 136   0.0000       0.093395         2.5414 
 137   0.0000       0.095542         2.5998 
 138   0.0000       0.097404         2.6505 
 139   0.0000       0.100647         2.7387 
 140   0.0000       0.105664         2.8753 
 141   0.0000       0.111239         3.0270 
 142   0.0000       0.112147         3.0517 
 143   0.0000       0.112636         3.0650 
 144   0.0000       0.120495         3.2788 
 145   0.0000       0.123248         3.3538 
 146   0.0000       0.124046         3.3755 
 147   0.0000       0.125919         3.4264 
 148   0.0000       0.129657         3.5281 
 149   0.0000       0.134830         3.6689 
 150   0.0000       0.137148         3.7320 
 151   0.0000       0.137612         3.7446 
 152   0.0000       0.146766         3.9937 
 153   0.0000       0.149326         4.0634 
 154   0.0000       0.150475         4.0946 
 155   0.0000       0.153426         4.1749 
 156   0.0000       0.157184         4.2772 
 157   0.0000       0.159592         4.3427 
 158   0.0000       0.162665         4.4263 
 159   0.0000       0.176138         4.7930 
 160   0.0000       0.178079         4.8458 
 161   0.0000       0.179827         4.8934 
 162   0.0000       0.183977         5.0063 
 163   0.0000       0.192550         5.2395 
 164   0.0000       0.194959         5.3051 
 165   0.0000       0.196203         5.3390 
 166   0.0000       0.199297         5.4231 
 167   0.0000       0.207979         5.6594 
 168   0.0000       0.209404         5.6982 
 169   0.0000       0.211218         5.7475 
 170   0.0000       0.215693         5.8693 
 171   0.0000       0.216531         5.8921 
 172   0.0000       0.220287         5.9943 
 173   0.0000       0.220574         6.0021 
 174   0.0000       0.222065         6.0427 
 175   0.0000       0.224144         6.0993 
 176   0.0000       0.229555         6.2465 
 177   0.0000       0.231389         6.2964 
 178   0.0000       0.233247         6.3470 
 179   0.0000       0.236003         6.4220 
 180   0.0000       0.240063         6.5325 
 181   0.0000       0.242590         6.6012 
 182   0.0000       0.244818         6.6618 
 183   0.0000       0.245456         6.6792 
 184   0.0000       0.248541         6.7632 
 185   0.0000       0.249547         6.7905 
 186   0.0000       0.252508         6.8711 
 187   0.0000       0.254467         6.9244 
 188   0.0000       0.255803         6.9608 
 189   0.0000       0.259226         7.0539 
 190   0.0000       0.261962         7.1284 
 191   0.0000       0.263294         7.1646 
 192   0.0000       0.267624         7.2824 
 193   0.0000       0.270364         7.3570 
 194   0.0000       0.274919         7.4809 
 195   0.0000       0.275169         7.4877 
 196   0.0000       0.278964         7.5910 
 197   0.0000       0.285385         7.7657 
 198   0.0000       0.291815         7.9407 
 199   0.0000       0.293100         7.9756 
 200   0.0000       0.294536         8.0147 
 201   0.0000       0.296655         8.0724 
 202   0.0000       0.303247         8.2518 
 203   0.0000       0.303891         8.2693 
 204   0.0000       0.308173         8.3858 
 205   0.0000       0.311219         8.4687 
 206   0.0000       0.314673         8.5627 
 207   0.0000       0.317800         8.6478 
 208   0.0000       0.321321         8.7436 
 209   0.0000       0.322939         8.7876 
 210   0.0000       0.323285         8.7970 
 211   0.0000       0.329348         8.9620 
 212   0.0000       0.332222         9.0402 
 213   0.0000       0.335656         9.1337 
 214   0.0000       0.336214         9.1488 
 215   0.0000       0.341284         9.2868 
 216   0.0000       0.347226         9.4485 
 217   0.0000       0.348076         9.4716 
 218   0.0000       0.349441         9.5088 
 219   0.0000       0.351226         9.5573 
 220   0.0000       0.354478         9.6458 
 221   0.0000       0.355776         9.6812 
 222   0.0000       0.356989         9.7142 
 223   0.0000       0.360881         9.8201 
 224   0.0000       0.363852         9.9009 
 225   0.0000       0.364877         9.9288 
 226   0.0000       0.367740        10.0067 
 227   0.0000       0.368373        10.0239 
 228   0.0000       0.371500        10.1090 
 229   0.0000       0.374642        10.1945 
 230   0.0000       0.375525        10.2185 
 231   0.0000       0.379770        10.3341 
 232   0.0000       0.383231        10.4282 
 233   0.0000       0.387346        10.5402 
 234   0.0000       0.388278        10.5656 
 235   0.0000       0.388888        10.5822 
 236   0.0000       0.391890        10.6639 
 237   0.0000       0.396770        10.7967 
 238   0.0000       0.397592        10.8190 
 239   0.0000       0.401142        10.9156 
 240   0.0000       0.403420        10.9776 
 241   0.0000       0.408308        11.1106 
 242   0.0000       0.409427        11.1411 
 243   0.0000       0.412931        11.2364 
 244   0.0000       0.414245        11.2722 
 245   0.0000       0.419379        11.4119 
 246   0.0000       0.421409        11.4671 
 247   0.0000       0.423135        11.5141 
 248   0.0000       0.425988        11.5917 
 249   0.0000       0.429196        11.6790 
 250   0.0000       0.430950        11.7267 
 251   0.0000       0.432669        11.7735 
 252   0.0000       0.437652        11.9091 
 253   0.0000       0.440441        11.9850 
 254   0.0000       0.443508        12.0685 
 255   0.0000       0.444256        12.0888 
 256   0.0000       0.447687        12.1822 
 257   0.0000       0.451013        12.2727 
 258   0.0000       0.454972        12.3804 
 259   0.0000       0.457628        12.4527 
 260   0.0000       0.460308        12.5256 
 261   0.0000       0.460922        12.5423 
 262   0.0000       0.462542        12.5864 
 263   0.0000       0.464841        12.6490 
 264   0.0000       0.469749        12.7825 
 265   0.0000       0.472710        12.8631 
 266   0.0000       0.475529        12.9398 
 267   0.0000       0.476906        12.9773 
 268   0.0000       0.480618        13.0783 
 269   0.0000       0.484040        13.1714 
 270   0.0000       0.490822        13.3560 
 271   0.0000       0.495018        13.4701 
 272   0.0000       0.498569        13.5667 
 273   0.0000       0.501351        13.6425 
 274   0.0000       0.503675        13.7057 
 275   0.0000       0.504185        13.7196 
 276   0.0000       0.506216        13.7748 
 277   0.0000       0.508797        13.8451 
 278   0.0000       0.509794        13.8722 
 279   0.0000       0.512563        13.9475 
 280   0.0000       0.513963        13.9857 
 281   0.0000       0.518083        14.0978 
 282   0.0000       0.521841        14.2000 
 283   0.0000       0.524833        14.2814 
 284   0.0000       0.527596        14.3566 
 285   0.0000       0.530551        14.4370 
 286   0.0000       0.532227        14.4826 
 287   0.0000       0.546077        14.8595 
 288   0.0000       0.549175        14.9438 
 289   0.0000       0.553443        15.0599 
 290   0.0000       0.558889        15.2081 
 291   0.0000       0.561236        15.2720 
 292   0.0000       0.573414        15.6034 
 293   0.0000       0.579892        15.7797 
 294   0.0000       0.584379        15.9018 
 295   0.0000       0.590915        16.0796 
 296   0.0000       0.592081        16.1113 
 297   0.0000       0.594583        16.1794 
 298   0.0000       0.598771        16.2934 
 299   0.0000       0.601006        16.3542 
 300   0.0000       0.603454        16.4208 
 301   0.0000       0.608434        16.5563 
 302   0.0000       0.613895        16.7049 
 303   0.0000       0.622585        16.9414 
 304   0.0000       0.624606        16.9964 
 305   0.0000       0.631000        17.1704 
 306   0.0000       0.633954        17.2508 
 307   0.0000       0.637358        17.3434 
 308   0.0000       0.641053        17.4439 
 309   0.0000       0.649910        17.6850 
 310   0.0000       0.650924        17.7125 
 311   0.0000       0.652197        17.7472 
 312   0.0000       0.656416        17.8620 
 313   0.0000       0.663186        18.0462 
 314   0.0000       0.664808        18.0903 
 315   0.0000       0.669981        18.2311 
 316   0.0000       0.672903        18.3106 
 317   0.0000       0.674231        18.3468 
 318   0.0000       0.675774        18.3887 
 319   0.0000       0.679734        18.4965 
 320   0.0000       0.688208        18.7271 
 321   0.0000       0.690599        18.7922 
 322   0.0000       0.692114        18.8334 
 323   0.0000       0.697620        18.9832 
 324   0.0000       0.697716        18.9858 
 325   0.0000       0.705208        19.1897 
 326   0.0000       0.706642        19.2287 
 327   0.0000       0.709309        19.3013 
 328   0.0000       0.711583        19.3632 
 329   0.0000       0.714862        19.4524 
 330   0.0000       0.717888        19.5347 
 331   0.0000       0.718292        19.5457 
 332   0.0000       0.721016        19.6198 
 333   0.0000       0.722988        19.6735 
 334   0.0000       0.727942        19.8083 
 335   0.0000       0.730979        19.8909 
 336   0.0000       0.732086        19.9211 
 337   0.0000       0.733285        19.9537 
 338   0.0000       0.737333        20.0639 
 339   0.0000       0.743164        20.2225 
 340   0.0000       0.744648        20.2629 
 341   0.0000       0.751859        20.4591 
 342   0.0000       0.754390        20.5280 
 343   0.0000       0.755776        20.5657 
 344   0.0000       0.759454        20.6658 
 345   0.0000       0.762562        20.7504 
 346   0.0000       0.766620        20.8608 
 347   0.0000       0.769787        20.9470 
 348   0.0000       0.774534        21.0761 
 349   0.0000       0.776259        21.1231 
 350   0.0000       0.778455        21.1828 
 351   0.0000       0.780741        21.2450 
 352   0.0000       0.784205        21.3393 
 353   0.0000       0.792534        21.5659 
 354   0.0000       0.794055        21.6073 
 355   0.0000       0.796658        21.6782 
 356   0.0000       0.800077        21.7712 
 357   0.0000       0.804128        21.8814 
 358   0.0000       0.807818        21.9819 
 359   0.0000       0.811142        22.0723 
 360   0.0000       0.815530        22.1917 
 361   0.0000       0.820218        22.3193 
 362   0.0000       0.830859        22.6088 
 363   0.0000       0.832930        22.6652 
 364   0.0000       0.836358        22.7585 
 365   0.0000       0.841562        22.9001 
 366   0.0000       0.842350        22.9215 
 367   0.0000       0.845314        23.0022 
 368   0.0000       0.849873        23.1262 
 369   0.0000       0.857388        23.3307 
 370   0.0000       0.863148        23.4875 
 371   0.0000       0.865918        23.5628 
 372   0.0000       0.868485        23.6327 
 373   0.0000       0.875079        23.8121 
 374   0.0000       0.878489        23.9049 
 375   0.0000       0.883391        24.0383 
 376   0.0000       0.890658        24.2360 
 377   0.0000       0.896353        24.3910 
 378   0.0000       0.901269        24.5248 
 379   0.0000       0.903363        24.5818 
 380   0.0000       0.904426        24.6107 
 381   0.0000       0.910466        24.7750 
 382   0.0000       0.914712        24.8906 
 383   0.0000       0.920338        25.0437 
 384   0.0000       0.927344        25.2343 
 385   0.0000       0.929903        25.3039 
 386   0.0000       0.935694        25.4615 
 387   0.0000       0.944248        25.6943 
 388   0.0000       0.948930        25.8217 
 389   0.0000       0.957623        26.0583 
 390   0.0000       0.958649        26.0862 
 391   0.0000       0.962170        26.1820 
 392   0.0000       0.978270        26.6201 
 393   0.0000       0.982507        26.7354 
 394   0.0000       0.986047        26.8317 
 395   0.0000       0.997773        27.1508 
 396   0.0000       1.001019        27.2391 
 397   0.0000       1.003705        27.3122 
 398   0.0000       1.006589        27.3907 
 399   0.0000       1.008279        27.4367 
 400   0.0000       1.013098        27.5678 
 401   0.0000       1.021873        27.8066 
 402   0.0000       1.024176        27.8693 
 403   0.0000       1.024803        27.8863 
 404   0.0000       1.039070        28.2745 
 405   0.0000       1.043500        28.3951 
 406   0.0000       1.045259        28.4430 
 407   0.0000       1.046420        28.4745 
 408   0.0000       1.053097        28.6562 
 409   0.0000       1.067848        29.0576 
 410   0.0000       1.069857        29.1123 
 411   0.0000       1.071536        29.1580 
 412   0.0000       1.074488        29.2383 
 413   0.0000       1.083567        29.4853 
 414   0.0000       1.085192        29.5296 
 415   0.0000       1.087511        29.5927 
 416   0.0000       1.096677        29.8421 
 417   0.0000       1.105354        30.0782 
 418   0.0000       1.109361        30.1872 
 419   0.0000       1.128065        30.6962 
 420   0.0000       1.131035        30.7770 
 421   0.0000       1.137591        30.9554 
 422   0.0000       1.140477        31.0340 
 423   0.0000       1.144844        31.1528 
 424   0.0000       1.150252        31.3000 
 425   0.0000       1.152524        31.3618 
 426   0.0000       1.164195        31.6794 
 427   0.0000       1.165113        31.7043 
 428   0.0000       1.170754        31.8578 
 429   0.0000       1.184224        32.2244 
 430   0.0000       1.188422        32.3386 
 431   0.0000       1.194032        32.4913 
 432   0.0000       1.199316        32.6350 
 433   0.0000       1.205850        32.8128 
 434   0.0000       1.208732        32.8913 
 435   0.0000       1.210171        32.9304 
 436   0.0000       1.212814        33.0023 
 437   0.0000       1.215249        33.0686 
 438   0.0000       1.215927        33.0871 
 439   0.0000       1.228648        33.4332 
 440   0.0000       1.229872        33.4665 
 441   0.0000       1.233003        33.5517 
 442   0.0000       1.236728        33.6531 
 443   0.0000       1.240677        33.7605 
 444   0.0000       1.246679        33.9239 
 445   0.0000       1.252264        34.0758 
 446   0.0000       1.255722        34.1699 
 447   0.0000       1.256763        34.1983 
 448   0.0000       1.261698        34.3326 
 449   0.0000       1.262904        34.3654 
 450   0.0000       1.265585        34.4383 
 451   0.0000       1.274420        34.6787 
 452   0.0000       1.280237        34.8370 
 453   0.0000       1.285148        34.9707 
 454   0.0000       1.286290        35.0017 
 455   0.0000       1.289750        35.0959 
 456   0.0000       1.293197        35.1897 
 457   0.0000       1.300831        35.3974 
 458   0.0000       1.304631        35.5008 
 459   0.0000       1.310010        35.6472 
 460   0.0000       1.312500        35.7149 
 461   0.0000       1.318122        35.8679 
 462   0.0000       1.321655        35.9641 
 463   0.0000       1.337143        36.3855 
 464   0.0000       1.345724        36.6190 
 465   0.0000       1.351838        36.7854 
 466   0.0000       1.359411        36.9915 
 467   0.0000       1.366480        37.1838 
 468   0.0000       1.368255        37.2321 
 469   0.0000       1.370512        37.2935 
 470   0.0000       1.376284        37.4506 
 471   0.0000       1.380298        37.5598 
 472   0.0000       1.384512        37.6745 
 473   0.0000       1.387230        37.7484 
 474   0.0000       1.404718        38.2243 
 475   0.0000       1.406707        38.2784 
 476   0.0000       1.411697        38.4142 
 477   0.0000       1.414341        38.4862 
 478   0.0000       1.418295        38.5938 
 479   0.0000       1.421360        38.6772 
 480   0.0000       1.424166        38.7535 
 481   0.0000       1.426873        38.8272 
 482   0.0000       1.431747        38.9598 
 483   0.0000       1.438250        39.1368 
 484   0.0000       1.439264        39.1644 
 485   0.0000       1.449822        39.4517 
 486   0.0000       1.460826        39.7511 
 487   0.0000       1.466474        39.9048 
 488   0.0000       1.467518        39.9332 
 489   0.0000       1.471152        40.0321 
 490   0.0000       1.474868        40.1332 
 491   0.0000       1.479980        40.2723 
 492   0.0000       1.480900        40.2973 
 493   0.0000       1.483441        40.3665 
 494   0.0000       1.487762        40.4841 
 495   0.0000       1.489475        40.5307 
 496   0.0000       1.500788        40.8385 
 497   0.0000       1.507363        41.0174 
 498   0.0000       1.511156        41.1207 
 499   0.0000       1.511689        41.1351 
 500   0.0000       1.513371        41.1809 
 501   0.0000       1.516947        41.2782 
 502   0.0000       1.518236        41.3133 
 503   0.0000       1.521264        41.3957 
 504   0.0000       1.528872        41.6027 
 505   0.0000       1.533835        41.7378 
 506   0.0000       1.546528        42.0832 
 507   0.0000       1.546959        42.0949 
 508   0.0000       1.548923        42.1483 
 509   0.0000       1.555748        42.3341 
 510   0.0000       1.564874        42.5824 
 511   0.0000       1.566851        42.6362 
 512   0.0000       1.568591        42.6835 
 513   0.0000       1.573276        42.8110 
 514   0.0000       1.578177        42.9444 
 515   0.0000       1.581272        43.0286 
 516   0.0000       1.587979        43.2111 
 517   0.0000       1.591383        43.3037 
 518   0.0000       1.593712        43.3671 
 519   0.0000       1.596726        43.4491 
 520   0.0000       1.604331        43.6561 
 521   0.0000       1.612929        43.8900 
 522   0.0000       1.615308        43.9548 
 523   0.0000       1.620356        44.0921 
 524   0.0000       1.622271        44.1442 
 525   0.0000       1.626618        44.2625 
 526   0.0000       1.635135        44.4943 
 527   0.0000       1.640552        44.6417 
 528   0.0000       1.648542        44.8591 
 529   0.0000       1.652181        44.9581 
 530   0.0000       1.655282        45.0425 
 531   0.0000       1.660662        45.1889 
 532   0.0000       1.667282        45.3691 
 533   0.0000       1.670029        45.4438 
 534   0.0000       1.673765        45.5455 
 535   0.0000       1.676799        45.6280 
 536   0.0000       1.678381        45.6711 
 537   0.0000       1.681852        45.7655 
 538   0.0000       1.688185        45.9378 
 539   0.0000       1.690749        46.0076 
 540   0.0000       1.692994        46.0687 
 541   0.0000       1.697374        46.1879 
 542   0.0000       1.702778        46.3349 
 543   0.0000       1.707721        46.4695 
 544   0.0000       1.717883        46.7460 
 545   0.0000       1.719017        46.7768 
 546   0.0000       1.720416        46.8149 
 547   0.0000       1.726056        46.9684 
 548   0.0000       1.734957        47.2106 
 549   0.0000       1.736714        47.2584 
 550   0.0000       1.744904        47.4812 
 551   0.0000       1.750206        47.6255 
 552   0.0000       1.755289        47.7638 
 553   0.0000       1.756277        47.7907 
 554   0.0000       1.766536        48.0699 
 555   0.0000       1.770436        48.1760 
 556   0.0000       1.771164        48.1958 
 557   0.0000       1.779704        48.4282 
 558   0.0000       1.786072        48.6015 
 559   0.0000       1.789679        48.6997 
 560   0.0000       1.790200        48.7138 
 561   0.0000       1.798302        48.9343 
 562   0.0000       1.804480        49.1024 
 563   0.0000       1.806261        49.1509 
 564   0.0000       1.813585        49.3502 
 565   0.0000       1.817463        49.4557 
 566   0.0000       1.825638        49.6781 
 567   0.0000       1.837956        50.0133 
 568   0.0000       1.841923        50.1213 
 569   0.0000       1.852393        50.4062 
 570   0.0000       1.860254        50.6201 
 571   0.0000       1.861424        50.6519 
 572   0.0000       1.866956        50.8024 
 573   0.0000       1.872830        50.9623 
 574   0.0000       1.873857        50.9902 
 575   0.0000       1.874433        51.0059 
 576   0.0000       1.891792        51.4783 
 577   0.0000       1.896873        51.6166 
 578   0.0000       1.901176        51.7336 
 579   0.0000       1.906452        51.8772 
 580   0.0000       1.910804        51.9956 
 581   0.0000       1.915487        52.1230 
 582   0.0000       1.922022        52.3009 
 583   0.0000       1.933623        52.6166 
 584   0.0000       1.940292        52.7980 
 585   0.0000       1.947676        52.9990 
 586   0.0000       1.956733        53.2454 
 587   0.0000       1.959777        53.3282 
 588   0.0000       1.964095        53.4457 
 589   0.0000       1.969968        53.6055 
 590   0.0000       1.978558        53.8393 
 591   0.0000       1.985425        54.0262 
 592   0.0000       1.989016        54.1239 
 593   0.0000       1.993562        54.2476 
 594   0.0000       2.000585        54.4387 
 595   0.0000       2.010353        54.7045 
 596   0.0000       2.024045        55.0771 
 597   0.0000       2.026279        55.1379 
 598   0.0000       2.032157        55.2978 
 599   0.0000       2.037387        55.4401 
 600   0.0000       2.043079        55.5950 
 601   0.0000       2.053244        55.8716 
 602   0.0000       2.064981        56.1910 
 603   0.0000       2.071592        56.3709 
 604   0.0000       2.074160        56.4407 
 605   0.0000       2.079282        56.5801 
 606   0.0000       2.084078        56.7107 
 607   0.0000       2.088620        56.8342 
 608   0.0000       2.091233        56.9054 
 609   0.0000       2.094203        56.9862 
 610   0.0000       2.095007        57.0080 
 611   0.0000       2.097211        57.0680 
 612   0.0000       2.115643        57.5696 
 613   0.0000       2.121717        57.7349 
 614   0.0000       2.129070        57.9349 
 615   0.0000       2.133340        58.0511 
 616   0.0000       2.150128        58.5080 
 617   0.0000       2.153663        58.6042 
 618   0.0000       2.158900        58.7466 
 619   0.0000       2.162120        58.8343 
 620   0.0000       2.167811        58.9891 
 621   0.0000       2.168523        59.0085 
 622   0.0000       2.173852        59.1535 
 623   0.0000       2.179977        59.3202 
 624   0.0000       2.185112        59.4599 
 625   0.0000       2.187169        59.5159 
 626   0.0000       2.191439        59.6321 
 627   0.0000       2.198733        59.8306 
 628   0.0000       2.205570        60.0166 
 629   0.0000       2.212744        60.2118 
 630   0.0000       2.218300        60.3630 
 631   0.0000       2.224656        60.5360 
 632   0.0000       2.231259        60.7156 
 633   0.0000       2.249579        61.2142 
 634   0.0000       2.255703        61.3808 
 635   0.0000       2.256012        61.3892 
 636   0.0000       2.257513        61.4300 
 637   0.0000       2.263962        61.6055 
 638   0.0000       2.268676        61.7338 
 639   0.0000       2.275224        61.9120 
 640   0.0000       2.279331        62.0237 
 641   0.0000       2.291790        62.3628 
 642   0.0000       2.297630        62.5217 
 643   0.0000       2.299802        62.5808 
 644   0.0000       2.306563        62.7648 
 645   0.0000       2.316737        63.0416 
 646   0.0000       2.339217        63.6533 
 647   0.0000       2.344672        63.8018 
 648   0.0000       2.353164        64.0329 
 649   0.0000       2.373026        64.5733 
 650   0.0000       2.378376        64.7189 
 651   0.0000       2.382156        64.8218 
 652   0.0000       2.388721        65.0004 
 653   0.0000       2.392947        65.1154 
 654   0.0000       2.403179        65.3938 
 655   0.0000       2.410648        65.5971 
 656   0.0000       2.420442        65.8636 
 657   0.0000       2.429201        66.1019 
 658   0.0000       2.434819        66.2548 
 659   0.0000       2.448313        66.6220 
 660   0.0000       2.458908        66.9103 
 661   0.0000       2.462520        67.0086 
 662   0.0000       2.464285        67.0566 
 663   0.0000       2.467184        67.1355 
 664   0.0000       2.472907        67.2912 
 665   0.0000       2.479872        67.4808 
 666   0.0000       2.489272        67.7365 
 667   0.0000       2.501838        68.0785 
 668   0.0000       2.507381        68.2293 
 669   0.0000       2.518168        68.5228 
 670   0.0000       2.523728        68.6741 
 671   0.0000       2.531410        68.8832 
 672   0.0000       2.547404        69.3184 
 673   0.0000       2.548353        69.3442 
 674   0.0000       2.557216        69.5854 
 675   0.0000       2.560887        69.6853 
 676   0.0000       2.564011        69.7703 
 677   0.0000       2.568867        69.9024 
 678   0.0000       2.572007        69.9879 
 679   0.0000       2.576592        70.1126 
 680   0.0000       2.579542        70.1929 
 681   0.0000       2.586760        70.3893 
 682   0.0000       2.587874        70.4196 
 683   0.0000       2.590464        70.4901 
 684   0.0000       2.593229        70.5654 
 685   0.0000       2.600177        70.7544 
 686   0.0000       2.603737        70.8513 
 687   0.0000       2.609334        71.0036 
 688   0.0000       2.615678        71.1762 
 689   0.0000       2.618451        71.2517 
 690   0.0000       2.622867        71.3718 
 691   0.0000       2.627082        71.4865 
 692   0.0000       2.634601        71.6911 
 693   0.0000       2.636034        71.7301 
 694   0.0000       2.639898        71.8353 
 695   0.0000       2.645852        71.9973 
 696   0.0000       2.652864        72.1881 
 697   0.0000       2.657155        72.3049 
 698   0.0000       2.659883        72.3791 
 699   0.0000       2.667138        72.5765 
 700   0.0000       2.671226        72.6878 
 701   0.0000       2.673453        72.7484 
 702   0.0000       2.674077        72.7653 
 703   0.0000       2.676626        72.8347 
 704   0.0000       2.677120        72.8481 
 705   0.0000       2.679492        72.9127 
 706   0.0000       2.680521        72.9407 
 707   0.0000       2.688893        73.1685 
 708   0.0000       2.691498        73.2394 
 709   0.0000       2.698446        73.4285 
 710   0.0000       2.699446        73.4557 
 711   0.0000       2.702110        73.5281 
 712   0.0000       2.702868        73.5488 
 713   0.0000       2.708858        73.7118 
 714   0.0000       2.713865        73.8480 
 715   0.0000       2.717884        73.9574 
 716   0.0000       2.726340        74.1875 
 717   0.0000       2.733925        74.3939 
 718   0.0000       2.735181        74.4281 
 719   0.0000       2.738693        74.5236 
 720   0.0000       2.744073        74.6700 
 721   0.0000       2.746568        74.7379 
 722   0.0000       2.749663        74.8221 
 723   0.0000       2.752154        74.8899 
 724   0.0000       2.754258        74.9472 
 725   0.0000       2.757852        75.0450 
 726   0.0000       2.760323        75.1122 
 727   0.0000       2.762029        75.1586 
 728   0.0000       2.766583        75.2826 
 729   0.0000       2.771516        75.4168 
 730   0.0000       2.778721        75.6129 
 731   0.0000       2.781095        75.6774 
 732   0.0000       2.782393        75.7128 
 733   0.0000       2.785993        75.8107 
 734   0.0000       2.793087        76.0038 
 735   0.0000       2.795036        76.0568 
 736   0.0000       2.798657        76.1553 
 737   0.0000       2.805784        76.3493 
 738   0.0000       2.808791        76.4311 
 739   0.0000       2.813099        76.5483 
 740   0.0000       2.825550        76.8871 
 741   0.0000       2.828096        76.9564 
 742   0.0000       2.831513        77.0494 
 743   0.0000       2.835064        77.1460 
 744   0.0000       2.837999        77.2259 
 745   0.0000       2.843072        77.3639 
 746   0.0000       2.845395        77.4271 
 747   0.0000       2.849102        77.5280 
 748   0.0000       2.851906        77.6043 
 749   0.0000       2.853180        77.6390 
 750   0.0000       2.855485        77.7017 
 751   0.0000       2.860526        77.8389 
 752   0.0000       2.861161        77.8562 
 753   0.0000       2.865359        77.9704 
 754   0.0000       2.868134        78.0459 
 755   0.0000       2.871142        78.1277 
 756   0.0000       2.882859        78.4466 
 757   0.0000       2.886073        78.5340 
 758   0.0000       2.890770        78.6618 
 759   0.0000       2.897436        78.8433 
 760   0.0000       2.905098        79.0517 
 761   0.0000       2.908891        79.1549 
 762   0.0000       2.914409        79.3051 
 763   0.0000       2.916813        79.3705 
 764   0.0000       2.919586        79.4460 
 765   0.0000       2.922723        79.5313 
 766   0.0000       2.924556        79.5812 
 767   0.0000       2.932611        79.8004 
 768   0.0000       2.934207        79.8438 
 769   0.0000       2.945164        80.1420 
 770   0.0000       2.952769        80.3489 
 771   0.0000       2.968855        80.7867 
 772   0.0000       2.976705        81.0003 
 773   0.0000       2.981132        81.1207 
 774   0.0000       2.984073        81.2007 
 775   0.0000       2.990216        81.3679 
 776   0.0000       2.993224        81.4498 
 777   0.0000       2.999060        81.6086 
 778   0.0000       3.009151        81.8831 
 779   0.0000       3.019372        82.1613 
 780   0.0000       3.023029        82.2608 
 781   0.0000       3.026280        82.3493 
 782   0.0000       3.029210        82.4290 
 783   0.0000       3.030742        82.4707 
 784   0.0000       3.043135        82.8079 
 785   0.0000       3.046171        82.8905 
 786   0.0000       3.049416        82.9788 
 787   0.0000       3.055797        83.1525 
 788   0.0000       3.060244        83.2735 
 789   0.0000       3.063269        83.3558 
 790   0.0000       3.067368        83.4673 
 791   0.0000       3.071664        83.5842 
 792   0.0000       3.076513        83.7162 
 793   0.0000       3.083280        83.9003 
 794   0.0000       3.086558        83.9895 
 795   0.0000       3.094888        84.2162 
 796   0.0000       3.095656        84.2371 
 797   0.0000       3.097690        84.2924 
 798   0.0000       3.101408        84.3936 
 799   0.0000       3.107056        84.5473 
 800   0.0000       3.116849        84.8138 
 801   0.0000       3.121144        84.9306 
 802   0.0000       3.123528        84.9955 
 803   0.0000       3.128173        85.1219 
 804   0.0000       3.132106        85.2289 
 805   0.0000       3.133851        85.2764 
 806   0.0000       3.138203        85.3948 
 807   0.0000       3.138766        85.4102 
 808   0.0000       3.142436        85.5100 
 809   0.0000       3.144526        85.5669 
 810   0.0000       3.149311        85.6971 
 811   0.0000       3.152331        85.7793 
 812   0.0000       3.154627        85.8418 
 813   0.0000       3.155392        85.8626 
 814   0.0000       3.157394        85.9171 
 815   0.0000       3.160911        86.0128 
 816   0.0000       3.161554        86.0303 
 817   0.0000       3.165335        86.1331 
 818   0.0000       3.170185        86.2651 
 819   0.0000       3.173512        86.3557 
 820   0.0000       3.180850        86.5553 
 821   0.0000       3.182430        86.5983 
 822   0.0000       3.186419        86.7069 
 823   0.0000       3.189397        86.7879 
 824   0.0000       3.191072        86.8335 
 825   0.0000       3.195139        86.9442 
 826   0.0000       3.197856        87.0181 
 827   0.0000       3.206062        87.2414 
 828   0.0000       3.211233        87.3821 
 829   0.0000       3.216542        87.5266 
 830   0.0000       3.218679        87.5847 
 831   0.0000       3.222417        87.6864 
 832   0.0000       3.225098        87.7594 
 833   0.0000       3.229753        87.8860 
 834   0.0000       3.237195        88.0886 
 835   0.0000       3.238521        88.1246 
 836   0.0000       3.248991        88.4095 
 837   0.0000       3.249865        88.4333 
 838   0.0000       3.252200        88.4969 
 839   0.0000       3.262071        88.7655 
 840   0.0000       3.265082        88.8474 
 841   0.0000       3.267120        88.9028 
 842   0.0000       3.269250        88.9608 
 843   0.0000       3.274145        89.0940 
 844   0.0000       3.274841        89.1129 
 845   0.0000       3.277512        89.1856 
 846   0.0000       3.281842        89.3035 
 847   0.0000       3.283807        89.3569 
 848   0.0000       3.293158        89.6114 
 849   0.0000       3.295372        89.6716 
 850   0.0000       3.301800        89.8466 
 851   0.0000       3.307122        89.9914 
 852   0.0000       3.309495        90.0559 
 853   0.0000       3.313082        90.1536 
 854   0.0000       3.322921        90.4213 
 855   0.0000       3.324836        90.4734 
 856   0.0000       3.326637        90.5224 
 857   0.0000       3.330691        90.6327 
 858   0.0000       3.337855        90.8277 
 859   0.0000       3.350137        91.1619 
 860   0.0000       3.354318        91.2756 
 861   0.0000       3.357570        91.3641 
 862   0.0000       3.359560        91.4183 
 863   0.0000       3.362801        91.5065 
 864   0.0000       3.363726        91.5316 
 865   0.0000       3.366708        91.6128 
 866   0.0000       3.371155        91.7338 
 867   0.0000       3.375722        91.8581 
 868   0.0000       3.378002        91.9201 
 869   0.0000       3.381165        92.0062 
 870   0.0000       3.386158        92.1421 
 871   0.0000       3.389512        92.2333 
 872   0.0000       3.392466        92.3137 
 873   0.0000       3.395268        92.3899 
 874   0.0000       3.399525        92.5058 
 875   0.0000       3.400223        92.5248 
 876   0.0000       3.402561        92.5884 
 877   0.0000       3.410080        92.7930 
 878   0.0000       3.416073        92.9561 
 879   0.0000       3.417748        93.0017 
 880   0.0000       3.419327        93.0446 
 881   0.0000       3.426020        93.2268 
 882   0.0000       3.429180        93.3127 
 883   0.0000       3.431499        93.3758 
 884   0.0000       3.437695        93.5444 
 885   0.0000       3.438343        93.5621 
 886   0.0000       3.447099        93.8003 
 887   0.0000       3.448889        93.8490 
 888   0.0000       3.456201        94.0480 
 889   0.0000       3.464310        94.2687 
 890   0.0000       3.465042        94.2886 
 891   0.0000       3.470100        94.4262 
 892   0.0000       3.472543        94.4927 
 893   0.0000       3.477415        94.6253 
 894   0.0000       3.478698        94.6602 
 895   0.0000       3.486480        94.8719 
 896   0.0000       3.490277        94.9753 
 897   0.0000       3.493208        95.0550 
 898   0.0000       3.494353        95.0862 
 899   0.0000       3.495517        95.1178 
 900   0.0000       3.498705        95.2046 
 901   0.0000       3.502171        95.2989 
 902   0.0000       3.512678        95.5848 
 903   0.0000       3.518155        95.7339 
 904   0.0000       3.527308        95.9829 
 905   0.0000       3.528618        96.0186 
 906   0.0000       3.533906        96.1625 
 907   0.0000       3.534862        96.1885 
 908   0.0000       3.540290        96.3362 
 909   0.0000       3.546517        96.5056 
 910   0.0000       3.550813        96.6225 
 911   0.0000       3.553842        96.7050 
 912   0.0000       3.555770        96.7574 
 913   0.0000       3.560853        96.8957 
 914   0.0000       3.567960        97.0891 
 915   0.0000       3.572757        97.2197 
[...]
      px      :     0.974697
      py      :     1.020008
      dz2     :     0.037292  d :     0.372170
      dxz     :     0.044987
      dyz     :     0.083796
      dx2y2   :     0.089943
      dxy     :     0.116153
      f0      :     0.004609  f :     0.042049
      f+1     :     0.004209
      f-1     :     0.004011
      f+2     :     0.007780
      f-2     :     0.004399
      f+3     :     0.010877
      f-3     :     0.006163
 39 C s       :     2.764627  s :     2.764627
      pz      :     0.982598  p :     2.941609
      px      :     0.962056
      py      :     0.996955
      dz2     :     0.098146  d :     0.378122
      dxz     :     0.064304
      dyz     :     0.078634
      dx2y2   :     0.076737
      dxy     :     0.060301
      f0      :     0.004905  f :     0.041939
      f+1     :     0.005629
      f-1     :     0.007924
      f+2     :     0.006520
      f-2     :     0.007844
      f+3     :     0.004221
      f-3     :     0.004896
 40 C s       :     2.759928  s :     2.759928
      pz      :     1.029931  p :     2.897109
      px      :     0.949581
      py      :     0.917597
      dz2     :     0.105379  d :     0.382780
      dxz     :     0.110507
      dyz     :     0.093096
      dx2y2   :     0.027652
      dxy     :     0.046146
      f0      :     0.007302  f :     0.042670
      f+1     :     0.010941
      f-1     :     0.009256
      f+2     :     0.003838
      f-2     :     0.004676
      f+3     :     0.002960
      f-3     :     0.003697
 41 C s       :     2.761180  s :     2.761180
      pz      :     1.009102  p :     2.897922
      px      :     0.892007
      py      :     0.996813
      dz2     :     0.110472  d :     0.380904
      dxz     :     0.064009
      dyz     :     0.105294
      dx2y2   :     0.051092
      dxy     :     0.050037
      f0      :     0.006915  f :     0.042272
      f+1     :     0.004678
      f-1     :     0.010630
      f+2     :     0.005762
      f-2     :     0.007531
      f+3     :     0.003644
      f-3     :     0.003112
 42 C s       :     2.757306  s :     2.757306
      pz      :     1.024516  p :     2.914827
      px      :     0.903768
      py      :     0.986543
      dz2     :     0.114764  d :     0.382078
      dxz     :     0.074062
      dyz     :     0.114804
      dx2y2   :     0.049914
      dxy     :     0.028533
      f0      :     0.007906  f :     0.041973
      f+1     :     0.006508
      f-1     :     0.010769
      f+2     :     0.005857
      f-2     :     0.005232
      f+3     :     0.002716
      f-3     :     0.002984
 43 C s       :     2.757447  s :     2.757447
      pz      :     0.987620  p :     2.912173
      px      :     0.903682
      py      :     1.020872
      dz2     :     0.108875  d :     0.382988
      dxz     :     0.025520
      dyz     :     0.103692
      dx2y2   :     0.071763
      dxy     :     0.073138
      f0      :     0.005421  f :     0.042252
      f+1     :     0.002652
      f-1     :     0.010246
      f+2     :     0.007708
      f-2     :     0.006033
      f+3     :     0.005596
      f-3     :     0.004596
 44 C s       :     2.764840  s :     2.764840
      pz      :     0.951162  p :     2.943997
      px      :     1.006676
      py      :     0.986160
      dz2     :     0.069540  d :     0.376127
      dxz     :     0.069738
      dyz     :     0.044229
      dx2y2   :     0.118588
      dxy     :     0.074032
      f0      :     0.003212  f :     0.041944
      f+1     :     0.005165
      f-1     :     0.005462
      f+2     :     0.007099
      f-2     :     0.006696
      f+3     :     0.008046
      f-3     :     0.006263
 45 C s       :     2.765335  s :     2.765335
      pz      :     0.965697  p :     2.932104
      px      :     0.930614
      py      :     1.035793
      dz2     :     0.057323  d :     0.371519
      dxz     :     0.051063
      dyz     :     0.093458
      dx2y2   :     0.086707
      dxy     :     0.082969
      f0      :     0.004374  f :     0.041666
      f+1     :     0.003168
      f-1     :     0.007918
      f+2     :     0.006110
      f-2     :     0.006426
      f+3     :     0.005441
      f-3     :     0.008229
 46 C s       :     2.755773  s :     2.755773
      pz      :     0.987291  p :     2.911867
      px      :     0.903616
      py      :     1.020960
      dz2     :     0.110037  d :     0.385219
      dxz     :     0.027014
      dyz     :     0.101397
      dx2y2   :     0.071626
      dxy     :     0.075145
      f0      :     0.005272  f :     0.042618
      f+1     :     0.002978
      f-1     :     0.010530
      f+2     :     0.007449
      f-2     :     0.006262
      f+3     :     0.005560
      f-3     :     0.004566
 47 C s       :     2.755975  s :     2.755975
      pz      :     1.028395  p :     2.913863
      px      :     0.901684
      py      :     0.983784
      dz2     :     0.115115  d :     0.384926
      dxz     :     0.078797
      dyz     :     0.115791
      dx2y2   :     0.044769
      dxy     :     0.030452
      f0      :     0.008131  f :     0.042351
      f+1     :     0.006746
      f-1     :     0.011268
      f+2     :     0.005492
      f-2     :     0.005102
      f+3     :     0.002929
      f-3     :     0.002684
 48 C s       :     2.711551  s :     2.711551
      pz      :     0.958823  p :     2.813205
      px      :     0.954698
      py      :     0.899685
      dz2     :     0.158356  d :     0.623674
      dxz     :     0.180542
      dyz     :     0.141481
      dx2y2   :     0.075577
      dxy     :     0.067718
      f0      :     0.012740  f :     0.077851
      f+1     :     0.023824
      f-1     :     0.018102
      f+2     :     0.004915
      f-2     :     0.006227
      f+3     :     0.006065
      f-3     :     0.005977
 49 C s       :     2.713350  s :     2.713350
      pz      :     0.940979  p :     2.812408
      px      :     0.856396
      py      :     1.015033
      dz2     :     0.135084  d :     0.621994
      dxz     :     0.093497
      dyz     :     0.219165
      dx2y2   :     0.082438
      dxy     :     0.091810
      f0      :     0.013770  f :     0.077824
      f+1     :     0.009219
      f-1     :     0.021485
      f+2     :     0.007854
      f-2     :     0.011752
      f+3     :     0.006502
      f-3     :     0.007242
 50 C s       :     2.714588  s :     2.714588
      pz      :     0.874916  p :     2.814885
      px      :     0.907014
      py      :     1.032956
      dz2     :     0.087966  d :     0.602665
      dxz     :     0.096477
      dyz     :     0.122402
      dx2y2   :     0.142585
      dxy     :     0.153235
      f0      :     0.006772  f :     0.072929
      f+1     :     0.008789
      f-1     :     0.008086
      f+2     :     0.013044
      f-2     :     0.008689
      f+3     :     0.017316
      f-3     :     0.010234
 51 C s       :     2.713790  s :     2.713790
      pz      :     0.928096  p :     2.816182
      px      :     0.916530
      py      :     0.971556
      dz2     :     0.129680  d :     0.603218
      dxz     :     0.069678
      dyz     :     0.173157
      dx2y2   :     0.114278
      dxy     :     0.116425
      f0      :     0.009369  f :     0.072837
      f+1     :     0.005985
      f-1     :     0.016130
      f+2     :     0.010031
      f-2     :     0.012018
      f+3     :     0.008544
      f-3     :     0.010761
 52 C s       :     2.700528  s :     2.700528
      pz      :     1.012070  p :     2.839833
      px      :     0.919880
      py      :     0.907882
      dz2     :     0.129292  d :     0.510388
      dxz     :     0.123056
      dyz     :     0.124016
      dx2y2   :     0.068998
      dxy     :     0.065025
      f0      :     0.008497  f :     0.056434
      f+1     :     0.012795
      f-1     :     0.012783
      f+2     :     0.005785
      f-2     :     0.006227
      f+3     :     0.005207
      f-3     :     0.005140
 53 C s       :     2.700755  s :     2.700755
      pz      :     0.968257  p :     2.839927
      px      :     0.873900
      py      :     0.997770
      dz2     :     0.115157  d :     0.509784
      dxz     :     0.072260
      dyz     :     0.151406
      dx2y2   :     0.082284
      dxy     :     0.088677
      f0      :     0.009582  f :     0.056385
      f+1     :     0.005904
      f-1     :     0.012529
      f+2     :     0.006879
      f-2     :     0.008530
      f+3     :     0.005832
      f-3     :     0.007129
 54 C s       :     2.695870  s :     2.695870
      pz      :     0.994137  p :     2.833885
      px      :     0.861921
      py      :     0.977828
      dz2     :     0.124080  d :     0.516356
      dxz     :     0.088644
      dyz     :     0.151864
      dx2y2   :     0.075794
      dxy     :     0.075974
      f0      :     0.009027  f :     0.056516
      f+1     :     0.008666
      f-1     :     0.014163
      f+2     :     0.007945
      f-2     :     0.005260
      f+3     :     0.005984
      f-3     :     0.005470
 55 C s       :     2.696031  s :     2.696031
      pz      :     1.003672  p :     2.834190
      px      :     0.845005
      py      :     0.985513
      dz2     :     0.126541  d :     0.516224
      dxz     :     0.078248
      dyz     :     0.169417
      dx2y2   :     0.068576
      dxy     :     0.073442
      f0      :     0.009631  f :     0.056513
      f+1     :     0.006851
      f-1     :     0.016140
      f+2     :     0.007555
      f-2     :     0.005691
      f+3     :     0.005381
      f-3     :     0.005264


                      *****************************
                      * MAYER POPULATION ANALYSIS *
                      *****************************

  NA   - Mulliken gross atomic population
  ZA   - Total nuclear charge
  QA   - Mulliken gross atomic charge
  VA   - Mayer's total valence
  BVA  - Mayer's bonded valence
  FA   - Mayer's free valence

  ATOM       NA         ZA         QA         VA         BVA        FA
  0 H      0.8852     1.0000     0.1148     0.9804     0.9804    -0.0000
  1 H      0.8846     1.0000     0.1154     0.9794     0.9794     0.0000
  2 H      0.8799     1.0000     0.1201     0.9765     0.9765    -0.0000
  3 H      0.8749     1.0000     0.1251     0.9744     0.9744     0.0000
  4 H      0.8842     1.0000     0.1158     0.9676     0.9676    -0.0000
  5 H      0.8841     1.0000     0.1159     0.9674     0.9674    -0.0000
  6 H      0.8834     1.0000     0.1166     0.9667     0.9667    -0.0000
  7 H      0.8827     1.0000     0.1173     0.9656     0.9656     0.0000
  8 H      0.8833     1.0000     0.1167     0.9658     0.9658    -0.0000
  9 H      0.8833     1.0000     0.1167     0.9672     0.9672    -0.0000
 10 H      0.8734     1.0000     0.1266     0.9687     0.9687     0.0000
 11 H      0.8727     1.0000     0.1273     0.9686     0.9686     0.0000
 12 H      0.8843     1.0000     0.1157     0.9878     0.9878    -0.0000
 13 H      0.8719     1.0000     0.1281     0.9741     0.9741     0.0000
 14 H      0.8634     1.0000     0.1366     0.9722     0.9722     0.0000
 15 H      0.8646     1.0000     0.1354     0.9723     0.9723     0.0000
 16 H      0.8643     1.0000     0.1357     0.9720     0.9720    -0.0000
 17 H      0.8800     1.0000     0.1200     0.9795     0.9795    -0.0000
 18 H      0.8762     1.0000     0.1238     0.9764     0.9764     0.0000
 19 H      0.8864     1.0000     0.1136     0.9893     0.9893    -0.0000
 20 H      0.8822     1.0000     0.1178     0.9816     0.9816    -0.0000
 21 H      0.8624     1.0000     0.1376     0.9719     0.9719     0.0000
 22 N      7.1577     7.0000    -0.1577     3.0686     3.0686    -0.0000
 23 N      7.1573     7.0000    -0.1573     3.0668     3.0668    -0.0000
 24 N      7.0908     7.0000    -0.0908     3.0643     3.0643    -0.0000
 25 N      7.0956     7.0000    -0.0956     3.0732     3.0732     0.0000
 26 C      6.2440     6.0000    -0.2440     4.0721     4.0721    -0.0000
 27 C      6.2244     6.0000    -0.2244     4.0915     4.0915     0.0000
 28 C      6.1391     6.0000    -0.1391     4.1331     4.1331    -0.0000
 29 C      6.1454     6.0000    -0.1454     4.1358     4.1358     0.0000
 30 C      6.1443     6.0000    -0.1443     3.9776     3.9776    -0.0000
 31 C      6.1416     6.0000    -0.1416     3.9825     3.9825    -0.0000
 32 C      6.0790     6.0000    -0.0790     3.9009     3.9009    -0.0000
 33 C      6.0648     6.0000    -0.0648     3.9041     3.9041    -0.0000
 34 C      6.0696     6.0000    -0.0696     3.9034     3.9034    -0.0000
 35 C      6.0909     6.0000    -0.0909     3.9222     3.9222    -0.0000
 36 C      6.1856     6.0000    -0.1856     3.9711     3.9711     0.0000
 37 C      6.1823     6.0000    -0.1823     3.9672     3.9672     0.0000
 38 C      6.2560     6.0000    -0.2560     4.0645     4.0645    -0.0000
 39 C      6.2755     6.0000    -0.2755     4.0247     4.0247     0.0000
 40 C      6.1718     6.0000    -0.1718     3.9764     3.9764    -0.0000
 41 C      6.1765     6.0000    -0.1765     3.9710     3.9710     0.0000
 42 C      6.1978     6.0000    -0.1978     3.9915     3.9915     0.0000
 43 C      6.2107     6.0000    -0.2107     4.0069     4.0069    -0.0000
 44 C      6.2716     6.0000    -0.2716     4.0266     4.0266    -0.0000
 45 C      6.2579     6.0000    -0.2579     4.0713     4.0713    -0.0000
 46 C      6.2042     6.0000    -0.2042     4.0035     4.0035     0.0000
 47 C      6.2092     6.0000    -0.2092     3.9998     3.9998     0.0000
 48 C      5.6530     6.0000     0.3470     3.5871     3.5871    -0.0000
 49 C      5.6754     6.0000     0.3246     3.6022     3.6022    -0.0000
 50 C      5.7666     6.0000     0.2334     3.9330     3.9330    -0.0000
 51 C      5.7543     6.0000     0.2457     3.9269     3.9269    -0.0000
 52 C      5.8868     6.0000     0.1132     3.6769     3.6769    -0.0000
 53 C      5.8770     6.0000     0.1230     3.6617     3.6617     0.0000
 54 C      5.8169     6.0000     0.1831     3.7043     3.7043     0.0000
 55 C      5.8193     6.0000     0.1807     3.7045     3.7045    -0.0000

  Mayer bond orders larger than 0.100000
B(  0-H , 26-C ) :   0.9876 B(  1-H , 27-C ) :   0.9815 B(  2-H , 28-C ) :   0.9851 
B(  3-H , 29-C ) :   0.9823 B(  4-H , 30-C ) :   0.9624 B(  5-H , 31-C ) :   0.9627 
B(  6-H , 32-C ) :   0.9599 B(  7-H , 33-C ) :   0.9627 B(  8-H , 34-C ) :   0.9623 
B(  9-H , 35-C ) :   0.9577 B( 10-H , 36-C ) :   0.9687 B( 11-H , 37-C ) :   0.9668 
B( 12-H , 38-C ) :   0.9733 B( 13-H , 39-C ) :   0.9601 B( 14-H , 40-C ) :   0.9519 
B( 15-H , 41-C ) :   0.9554 B( 16-H , 42-C ) :   0.9489 B( 17-H , 43-C ) :   0.9523 
B( 18-H , 44-C ) :   0.9686 B( 19-H , 45-C ) :   0.9743 B( 20-H , 46-C ) :   0.9487 
B( 21-H , 47-C ) :   0.9488 B( 22-N , 28-C ) :   1.6184 B( 22-N , 48-C ) :   1.3194 
B( 23-N , 29-C ) :   1.6231 B( 23-N , 49-C ) :   1.3108 B( 24-N , 26-C ) :   1.9197 
B( 24-N , 50-C ) :   1.0523 B( 25-N , 27-C ) :   1.9240 B( 25-N , 51-C ) :   1.0704 
B( 26-C , 48-C ) :   0.9245 B( 27-C , 49-C ) :   0.9436 B( 28-C , 52-C ) :   1.3049 
B( 29-C , 53-C ) :   1.3029 B( 30-C , 32-C ) :   1.4211 B( 30-C , 34-C ) :   1.4087 
B( 31-C , 33-C ) :   1.4065 B( 31-C , 35-C ) :   1.4238 B( 32-C , 44-C ) :   1.4096 
B( 33-C , 45-C ) :   1.4371 B( 34-C , 38-C ) :   1.4274 B( 35-C , 39-C ) :   1.4229 
B( 36-C , 40-C ) :   1.4420 B( 36-C , 48-C ) :   1.3414 B( 37-C , 41-C ) :   1.4376 
B( 37-C , 49-C ) :   1.3480 B( 38-C , 50-C ) :   1.4066 B( 39-C , 51-C ) :   1.3550 
B( 40-C , 52-C ) :   1.3883 B( 41-C , 53-C ) :   1.3834 B( 42-C , 43-C ) :   1.4696 
B( 42-C , 54-C ) :   1.3518 B( 43-C , 55-C ) :   1.3704 B( 44-C , 50-C ) :   1.3652 
B( 45-C , 51-C ) :   1.3957 B( 46-C , 47-C ) :   1.4732 B( 46-C , 54-C ) :   1.3666 
B( 47-C , 55-C ) :   1.3483 B( 52-C , 54-C ) :   0.9346 B( 53-C , 55-C ) :   0.9323 


-------
TIMINGS
-------

Total SCF time: 0 days 0 hours 5 min 5 sec 

Total time                  ....     305.304 sec
Sum of individual times     ....     301.313 sec  ( 98.7%)

Fock matrix formation       ....     273.249 sec  ( 89.5%)
  XC integration            ....      11.768 sec  (  4.3% of F)
    Basis function eval.    ....       1.412 sec  ( 12.0% of XC)
    Density eval.           ....       3.794 sec  ( 32.2% of XC)
    XC-Functional eval.     ....       0.179 sec  (  1.5% of XC)
    XC-Potential eval.      ....       1.988 sec  ( 16.9% of XC)
Diagonalization             ....       3.828 sec  (  1.3%)
Density matrix formation    ....       0.433 sec  (  0.1%)
Population analysis         ....       1.530 sec  (  0.5%)
Initial guess               ....       1.017 sec  (  0.3%)
Orbital Transformation      ....       0.000 sec  (  0.0%)
Orbital Orthonormalization  ....       0.000 sec  (  0.0%)
DIIS solution               ....      10.067 sec  (  3.3%)
SOSCF solution              ....       2.325 sec  (  0.8%)
Grid generation             ....       8.864 sec  (  2.9%)


-------------------------------------------------------------------------------
                          DFT DISPERSION CORRECTION                            
                                                                               
                                 DFTD4 V2.0                                    
-------------------------------------------------------------------------------
The PBE0 functional is recognized
Active option DFTDOPT                   ...         5   

-------------------------   ----------------
Dispersion correction           -0.068053208
-------------------------   ----------------


-------------------------   --------------------
FINAL SINGLE POINT ENERGY     -1374.326873455554
-------------------------   --------------------


                            ***************************************
                            *     ORCA property calculations      *
                            ***************************************

                                    ---------------------
                                    Active property flags
                                    ---------------------
   (+) Dipole Moment


------------------------------------------------------------------------------
                       ORCA ELECTRIC PROPERTIES CALCULATION
------------------------------------------------------------------------------

Dipole Moment Calculation                       ... on
Quadrupole Moment Calculation                   ... off
Polarizability Calculation                      ... off
GBWName                                         ... _fe6ll_xtb_dft_sg56_2_2.gbw
Electron density file                           ... _fe6ll_xtb_dft_sg56_2_2.scfp
The origin for moment calculation is the CENTER OF MASS  = (17.881902, 18.134001 20.939677)

-------------
DIPOLE MOMENT
-------------
                                X             Y             Z
Electronic contribution:     -5.67491       1.65481      -0.49424
Nuclear contribution   :      4.63800      -1.32988       0.32505
                        -----------------------------------------
Total Dipole Moment    :     -1.03691       0.32493      -0.16919
                        -----------------------------------------
Magnitude (a.u.)       :      1.09972
Magnitude (Debye)      :      2.79527



--------------------
Rotational spectrum 
--------------------
 
Rotational constants in cm-1:     0.010189     0.000838     0.000803 
Rotational constants in MHz :   305.462002    25.131207    24.086895 

 Dipole components along the rotational axes: 
x,y,z [a.u.] :    -0.036791     1.095652    -0.087077 
x,y,z [Debye]:    -0.093515     2.784927    -0.221331 

 

Timings for individual modules:

Sum of individual times         ...      308.264 sec (=   5.138 min)
GTO integral calculation        ...        2.473 sec (=   0.041 min)   0.8 %
SCF iterations                  ...      305.791 sec (=   5.097 min)  99.2 %
                             ****ORCA TERMINATED NORMALLY****
TOTAL RUN TIME: 0 days 0 hours 5 minutes 11 seconds 290 msec
