Job execution start: Fri Apr 16 19:09:58 BST 2021
Shared library path: /work/e05/e05/atarzia/orca_4_2_1_linux_x86-64_openmpi314:/work/e05/e05/atarzia/openmpi-3.1.4/lib:/opt/cray/pe/papi/6.0.0.4/lib64:/opt/cray/libfabric/1.11.0.0.233/lib64
Slurm Job ID is: 207137
Slurm Job name is: fe7dd_xtb_dft_sg86_1_0
nid001253

                                 *****************
                                 * O   R   C   A *
                                 *****************

           --- An Ab Initio, DFT and Semiempirical electronic structure package ---

                  #######################################################
                  #                        -***-                        #
                  #          Department of theory and spectroscopy      #
                  #               Directorship: Frank Neese             #
                  #        Max Planck Institute fuer Kohlenforschung    #
                  #                Kaiser Wilhelm Platz 1               #
                  #                 D-45470 Muelheim/Ruhr               #
                  #                      Germany                        #
                  #                                                     #
                  #                  All rights reserved                #
                  #                        -***-                        #
                  #######################################################


                         Program Version 4.2.1 -  RELEASE  -


 With contributions from (in alphabetic order):
   Daniel Aravena         : Magnetic Suceptibility
   Michael Atanasov       : Ab Initio Ligand Field Theory (pilot matlab implementation)
   Alexander A. Auer      : GIAO ZORA, VPT2
   Ute Becker             : Parallelization
   Giovanni Bistoni       : ED, misc. LED, open-shell LED, HFLD
   Martin Brehm           : Molecular dynamics
   Dmytro Bykov           : SCF Hessian
   Vijay G. Chilkuri      : MRCI spin determinant printing, contributions to CSF-ICE
   Dipayan Datta          : RHF DLPNO-CCSD density
   Achintya Kumar Dutta   : EOM-CC, STEOM-CC
   Dmitry Ganyushin       : Spin-Orbit,Spin-Spin,Magnetic field MRCI
   Miquel Garcia          : C-PCM Hessian, Gaussian charge scheme
   Yang Guo               : DLPNO-NEVPT2, CIM, IAO-localization
   Andreas Hansen         : Spin unrestricted coupled pair/coupled cluster methods
   Benjamin Helmich-Paris : CASSCF linear response (MC-RPA)
   Lee Huntington         : MR-EOM, pCC
   Robert Izsak           : Overlap fitted RIJCOSX, COSX-SCS-MP3, EOM
   Christian Kollmar      : KDIIS, OOCD, Brueckner-CCSD(T), CCSD density
   Simone Kossmann        : Meta GGA functionals, TD-DFT gradient, OOMP2, MP2 Hessian
   Martin Krupicka        : AUTO-CI
   Lucas Lang             : DCDCAS
   Dagmar Lenk            : GEPOL surface, SMD
   Dimitrios Liakos       : Extrapolation schemes; Compound Job, initial MDCI parallelization
   Dimitrios Manganas     : Further ROCIS development; embedding schemes
   Dimitrios Pantazis     : SARC Basis sets
   Taras Petrenko         : DFT Hessian,TD-DFT gradient, ASA, ECA, R-Raman, ABS, FL, XAS/XES, NRVS
   Peter Pinski           : DLPNO-MP2, DLPNO-MP2 Gradient
   Christoph Reimann      : Effective Core Potentials
   Marius Retegan         : Local ZFS, SOC
   Christoph Riplinger    : Optimizer, TS searches, QM/MM, DLPNO-CCSD(T), (RO)-DLPNO pert. Triples
   Tobias Risthaus        : Range-separated hybrids, TD-DFT gradient, RPA, STAB
   Michael Roemelt        : Original ROCIS implementation
   Masaaki Saitow         : Open-shell DLPNO-CCSD energy and density
   Barbara Sandhoefer     : DKH picture change effects
   Avijit Sen             : IP-ROCIS
   Kantharuban Sivalingam : CASSCF convergence, NEVPT2, FIC-MRCI
   Bernardo de Souza      : ESD, SOC TD-DFT
   Georgi Stoychev        : AutoAux, RI-MP2 NMR
   Willem Van den Heuvel  : Paramagnetic NMR
   Boris Wezisla          : Elementary symmetry handling
   Frank Wennmohs         : Technical directorship


 We gratefully acknowledge several colleagues who have allowed us to
 interface, adapt or use parts of their codes:
   Stefan Grimme, W. Hujo, H. Kruse,             : VdW corrections, initial TS optimization,
                  C. Bannwarth                     DFT functionals, gCP, sTDA/sTD-DF
   Ed Valeev, F. Pavosevic, A. Kumar             : LibInt (2-el integral package), F12 methods
   Garnet Chan, S. Sharma, J. Yang, R. Olivares  : DMRG
   Ulf Ekstrom                                   : XCFun DFT Library
   Mihaly Kallay                                 : mrcc  (arbitrary order and MRCC methods)
   Andreas Klamt, Michael Diedenhofen            : otool_cosmo (COSMO solvation model)
   Jiri Pittner, Ondrej Demel                    : Mk-CCSD
   Frank Weinhold                                : gennbo (NPA and NBO analysis)
   Christopher J. Cramer and Donald G. Truhlar   : smd solvation model
   Lars Goerigk                                  : TD-DFT with DH, B97 family of functionals
   V. Asgeirsson, H. Jonsson                     : NEB implementation
   FAccTs GmbH                                   : IRC, NEB, NEB-TS, Multilevel, MM, QM/MM, CI optimization
   S Lehtola, MJT Oliveira, MAL Marques          : LibXC Library


 Your calculation uses the libint2 library for the computation of 2-el integrals
 For citations please refer to: http://libint.valeyev.net

 Your ORCA version has been built with support for libXC version: 4.2.3
 For citations please refer to: https://tddft.org/programs/libxc/

 This ORCA versions uses:
   CBLAS   interface :  Fast vector & matrix operations
   LAPACKE interface :  Fast linear algebra routines
   SCALAPACK package :  Parallel linear algebra routines




***************************************
The coordinates will be read from file: fe7dd_xtb_dft_sg86_1_0.xyz
***************************************


Your calculation utilizes the atom-pairwise dispersion correction
based on tight binding partial charges (D4)
Cite in your paper:
E.Caldeweyher, C.Bannwarth, S.Grimme, J.Chem.Phys., (2017), 147, 034112.
E.Caldeweyher, S.Ehlert, A.Hansen, H.Neugebauer, S.Grimme, J.Chem.Phys., (2018), in progress.
   

----- Orbital basis set information -----
Your calculation utilizes the basis: def2-TZVP
   F. Weigend and R. Ahlrichs, Phys. Chem. Chem. Phys. 7, 3297 (2005).

================================================================================
                                        WARNINGS
                       Please study these warnings very carefully!
================================================================================


INFO   : the flag for use of LIBINT has been found!

================================================================================
                                       INPUT FILE
================================================================================
NAME = fe7dd_xtb_dft_sg86_1_0.in
|  1> # closed shell KS, PBE0/def2-SVP/D4
|  2> ! DFT SP RKS PBE0 def2-TZVP D4 Grid6 NOFINALGRID SlowConv TightSCF printbasis
|  3> 
|  4> %base "_fe7dd_xtb_dft_sg86_1_0"
|  5> %maxcore 4000
|  6> %scf
|  7>    MaxIter 2000
|  8> end
|  9> 
| 10> %pal
| 11>    nprocs 48
| 12> end
| 13> 
| 14> * xyzfile 0 1 fe7dd_xtb_dft_sg86_1_0.xyz
| 15> 
| 16> 
| 17>                          ****END OF INPUT****
================================================================================

                       ****************************
                       * Single Point Calculation *
                       ****************************

---------------------------------
CARTESIAN COORDINATES (ANGSTROEM)
---------------------------------
  H     15.659600   15.729300    9.825400
  H      5.232900    5.292700   15.658500
  H     12.377800   12.897400   13.034100
  H     10.004000    5.139900   13.153300
  H     13.636000   17.724700    4.845600
  H      0.477200    4.342200   12.589400
  H     14.910700   15.652700    5.385500
  H      1.839000    2.272500   12.338000
  H     12.307800   18.855600    6.623400
  H      1.553700    6.439100   13.400200
  H     15.826700   10.649400   20.179500
  H     16.748100    4.660400   13.527000
  H     14.734800    8.454100   19.750200
  H     17.447000    6.995000   14.057400
  H     16.810400   14.727100   11.937600
  H      7.221300    6.209000   17.056400
  H     12.241600   17.932000    8.907300
  H      3.975600    6.461200   13.941600
  H     16.603800   13.133400   13.862000
  H      9.612800    6.957900   17.043700
  H     15.911700   12.365700   18.394200
  H     14.363000    4.006300   13.772300
  H     13.726100    7.961000   17.551400
  H     15.805600    8.660900   14.797800
  H     14.848300   14.720200    7.686600
  H      4.246000    2.292200   12.873000
  H     15.431500   13.046400   16.087600
  H     12.059300    4.591800   14.345900
  H     14.619800   10.457400   11.913700
  H     14.129700    8.839900   12.501200
  H     13.080800    9.728000   11.353200
  H     11.087100   10.555100   14.893400
  H     11.482100   10.330800   16.636500
  H      9.778600   10.330900   16.102100
  N     13.486800   14.138400   11.809600
  N      8.146900    5.011500   14.040900
  N     13.574000   15.737100    9.764500
  N      5.638900    4.409900   13.811600
  O     13.018400   10.439300   13.254300
  O     10.754400    8.646800   15.638800
  C     14.709500   15.432700   10.287300
  C      5.976200    4.990400   14.910500
  C     13.375700   13.278100   12.816700
  C      9.421300    5.387500   14.042000
  C     13.613300   17.313900    5.857300
  C      1.541300    4.353800   12.835100
  C     14.329400   16.157000    6.160300
  C      2.305200    3.195400   12.689500
  C     12.866700   17.945600    6.852300
  C      2.142900    5.525800   13.291400
  C     15.383100   10.449600   19.202200
  C     16.001800    5.391700   13.843800
  C     14.763500    9.204000   18.956700
  C     16.394800    6.714000   14.143000
  C     15.844500   14.300300   12.215100
  C      7.874100    5.996100   16.207400
  C     12.829700   17.427600    8.142800
  C      3.496800    5.536400   13.611100
  C     15.723600   13.420300   13.282200
  C      9.198400    6.409700   16.197700
  C     15.431000   11.401600   18.212400
  C     14.682100    5.031900   13.975200
  C     14.198900    8.927900   17.731700
  C     15.474000    7.650300   14.557400
  C     14.308500   15.640700    7.452200
  C      3.662300    3.202500   12.994000
  C     14.922800   12.097700   15.897500
  C     12.355500    5.625300   14.542700
  C     14.704200   14.622500   11.483400
  C      7.369900    5.316800   15.097800
  C     13.567500   16.280900    8.455500
  C      4.263800    4.369700   13.476600
  C     13.671000   10.625600   14.441300
  C     11.797400    7.890800   15.246200
  C     14.475500   12.857900   13.584700
  C     10.005400    6.119200   15.086400
  C     14.860800   11.146300   16.939300
  C     13.712800    5.977800   14.394000
  C     14.340200   11.866300   14.666200
  C     11.412600    6.534500   14.964700
  C     14.228300    9.889800   16.692200
  C     14.100800    7.317700   14.687700
  C     13.643000    9.643800   15.412100
  C     13.119700    8.283400   15.102700
  C     13.758300    9.833700   12.210400
  C     10.800900   10.041600   15.823400

----------------------------
CARTESIAN COORDINATES (A.U.)
----------------------------
  NO LB      ZA    FRAG     MASS         X           Y           Z
   0 H     1.0000    0     1.008   29.592355   29.724069   18.567315
   1 H     1.0000    0     1.008    9.888748   10.001754   29.590277
   2 H     1.0000    0     1.008   23.390652   24.372554   24.630879
   3 H     1.0000    0     1.008   18.904820    9.713003   24.856135
   4 H     1.0000    0     1.008   25.768306   33.494829    9.156857
   5 H     1.0000    0     1.008    0.901777    8.205569   23.790518
   6 H     1.0000    0     1.008   28.177139   29.579316   10.177120
   7 H     1.0000    0     1.008    3.475206    4.294403   23.315441
   8 H     1.0000    0     1.008   23.258371   35.631920   12.516412
   9 H     1.0000    0     1.008    2.936067   12.168136   25.322708
  10 H     1.0000    0     1.008   29.908129   20.124449   38.133729
  11 H     1.0000    0     1.008   31.649322    8.806880   25.562325
  12 H     1.0000    0     1.008   27.844737   15.975934   37.322469
  13 H     1.0000    0     1.008   32.970052   13.218634   26.564636
  14 H     1.0000    0     1.008   31.767052   27.830186   22.558795
  15 H     1.0000    0     1.008   13.646279   11.733310   32.231925
  16 H     1.0000    0     1.008   23.133271   33.886569   16.832358
  17 H     1.0000    0     1.008    7.512795   12.209898   26.345806
  18 H     1.0000    0     1.008   31.376635   24.818529   26.195384
  19 H     1.0000    0     1.008   18.165559   13.148525   32.207925
  20 H     1.0000    0     1.008   30.068755   23.367786   34.760000
  21 H     1.0000    0     1.008   27.142136    7.570810   26.025875
  22 H     1.0000    0     1.008   25.938570   15.044110   33.167339
  23 H     1.0000    0     1.008   29.868255   16.366729   27.963789
  24 H     1.0000    0     1.008   28.059221   27.817147   14.525569
  25 H     1.0000    0     1.008    8.023777    4.331630   24.326445
  26 H     1.0000    0     1.008   29.161309   24.654123   30.401158
  27 H     1.0000    0     1.008   22.788774    8.677244   27.109822
  28 H     1.0000    0     1.008   27.627418   19.761622   22.513630
  29 H     1.0000    0     1.008   26.701263   16.704990   23.623844
  30 H     1.0000    0     1.008   24.719130   18.383256   21.454439
  31 H     1.0000    0     1.008   20.951583   19.946248   28.144447
  32 H     1.0000    0     1.008   21.698024   19.522383   31.438429
  33 H     1.0000    0     1.008   18.478876   19.522572   30.428559
  34 N     7.0000    0    14.007   25.486358   26.717704   22.316910
  35 N     7.0000    0    14.007   15.395410    9.470363   26.533456
  36 N     7.0000    0    14.007   25.651143   29.738809   18.452231
  37 N     7.0000    0    14.007   10.655977    8.333503   26.100141
  38 O     8.0000    0    15.999   24.601211   19.727418   25.046997
  39 O     8.0000    0    15.999   20.322871   16.340084   29.553049
  40 C     6.0000    0    12.011   27.796927   29.163577   19.440180
  41 C     6.0000    0    12.011   11.293381    9.430489   28.176762
  42 C     6.0000    0    12.011   25.276410   25.091973   24.220053
  43 C     6.0000    0    12.011   17.803677   10.180900   26.535534
  44 C     6.0000    0    12.011   25.725409   32.718529   11.068693
  45 C     6.0000    0    12.011    2.912635    8.227490   24.254824
  46 C     6.0000    0    12.011   27.078642   30.532305   11.641280
  47 C     6.0000    0    12.011    4.356197    6.038431   23.979680
  48 C     6.0000    0    12.011   24.314539   33.912269   12.948970
  49 C     6.0000    0    12.011    4.049494   10.442249   25.117106
  50 C     6.0000    0    12.011   29.069846   19.746882   36.286899
  51 C     6.0000    0    12.011   30.239020   10.188836   26.160991
  52 C     6.0000    0    12.011   27.898972   17.393039   35.822971
  53 C     6.0000    0    12.011   30.981682   12.687621   26.726397
  54 C     6.0000    0    12.011   29.941766   27.023651   23.083194
  55 C     6.0000    0    12.011   14.879893   11.330987   30.627547
  56 C     6.0000    0    12.011   24.244619   32.933391   15.387662
  57 C     6.0000    0    12.011    6.607994   10.462280   25.721251
  58 C     6.0000    0    12.011   29.713298   25.360692   25.099720
  59 C     6.0000    0    12.011   17.382457   12.112578   30.609217
  60 C     6.0000    0    12.011   29.160364   21.545901   34.416448
  61 C     6.0000    0    12.011   27.745148    9.508913   26.409301
  62 C     6.0000    0    12.011   26.832032   16.871286   33.508057
  63 C     6.0000    0    12.011   29.241622   14.456972   27.509499
  64 C     6.0000    0    12.011   27.039146   29.556640   14.082617
  65 C     6.0000    0    12.011    6.920744    6.051848   24.555101
  66 C     6.0000    0    12.011   28.200005   22.861340   30.041921
  67 C     6.0000    0    12.011   23.348511   10.630276   27.481720
  68 C     6.0000    0    12.011   27.786911   27.632520   21.700481
  69 C     6.0000    0    12.011   13.927093   10.047296   28.530707
  70 C     6.0000    0    12.011   25.638859   30.766442   15.978579
  71 C     6.0000    0    12.011    8.057414    8.257536   25.467083
  72 C     6.0000    0    12.011   25.834446   20.079474   27.290102
  73 C     6.0000    0    12.011   22.293855   14.911451   28.811143
  74 C     6.0000    0    12.011   27.354731   24.297910   25.671363
  75 C     6.0000    0    12.011   18.907466   11.563612   28.509164
  76 C     6.0000    0    12.011   28.082842   21.063454   32.010638
  77 C     6.0000    0    12.011   25.913437   11.296405   27.200718
  78 C     6.0000    0    12.011   27.099051   22.424057   27.715101
  79 C     6.0000    0    12.011   21.566688   12.348415   28.279185
  80 C     6.0000    0    12.011   26.887590   18.689014   31.543687
  81 C     6.0000    0    12.011   26.646650   13.828449   27.755731
  82 C     6.0000    0    12.011   25.781534   18.224141   29.124648
  83 C     6.0000    0    12.011   24.792640   15.653357   28.539967
  84 C     6.0000    0    12.011   25.999419   18.583000   23.074312
  85 C     6.0000    0    12.011   20.410743   18.975874   29.901893

--------------------------------
INTERNAL COORDINATES (ANGSTROEM)
--------------------------------
 H      0   0   0     0.000000000000     0.00000000     0.00000000
 H      1   0   0    15.863913390459     0.00000000     0.00000000
 H      1   2   0     5.393108986475    15.38371917     0.00000000
 H      2   1   3     5.390989713401    42.78519730   239.10139519
 H      1   2   4     5.733671263684   108.44145661   103.53178779
 H      2   1   3     5.739295039463   117.19021715   135.23576404
 H      5   1   2     2.491894078808    48.84588666   276.61668827
 H      6   2   1     2.490252856639    74.84068485   108.31080628
 H      5   1   2     2.490707307172    74.11517718    75.55201308
 H      6   2   1     2.492636856825    47.84636608   308.55737955
 H      3   1   2     8.246523896164   113.83875517   133.36927395
 H      4   2   1     6.771444214494   149.07059263    96.87947915
 H     11   3   1     2.489153709597    84.69366155   223.11856048
 H     12   4   2     2.494021357166   102.97639174   278.03059920
 H      1   2  10     2.605788617674    74.88212415   166.18441227
 H      2   1   3     2.597588239117    57.49930782   326.79577139
 H      9   5   1     2.464471263781   120.37370391   341.61148594
 H      2   1   3     2.427744045405    76.33206881   120.42060090
 H     15   1   2     2.507165453256   146.12484296   359.20667389
 H     16   2   1     2.506049630394   146.42652894   324.14278121
 H     11   3   1     2.477944063130    36.99016296    26.98989991
 H     12   4   2     2.485300969702    21.29493772    61.69615187
 H     13  11   3     2.468875197332   120.59543633    11.10480174
 H     14  12   4     2.453081517194   120.82231287    13.73461490
 H      7   5   1     2.483648771465   120.00500059    23.62498509
 H      8   6   2     2.465818746380   120.34888711   342.42883880
 H     21  11   3     2.452416785540   149.67437808   338.70990199
 H      4   2   1     2.438640289178   121.66865554   105.96877163
 H      3   1   2     3.497922263287    77.62464445    60.77772369
 H     29   3   1     1.789318448460   110.47800139   184.91486898
 H     30  29   3     1.790758727467    60.10798868    65.12171264
 H      3   1   2     3.257187785498   163.40761503    75.15346978
 H     32   3   1     1.801314270193   123.71295427    84.14309855
 H     33  32   3     1.785355880490    60.07353727   132.18222822
 N      3   1   2     2.066243511787     5.97407434   255.60280099
 N      4   2   1     2.062314411044     5.62364137   204.23347771
 N      1   2  18     2.086503537021    49.92552058    21.41037018
 N      2   1   3     2.086914337006    79.92256853   193.39217091
 O     31  30  29     2.030768982430    65.89371210   284.96770017
 O     34  33  32     2.000756192043    66.66605919    74.70474526
 C      1   2  38     1.097275343749    25.61568605   129.17113970
 C      2   1   3     1.096988687271    59.01776926   218.90928788
 C      3   1   2     1.089953971505    30.77312956   124.28599335
 C      4   2   1     1.091161188826    30.96044563    68.48340351
 C      5   1   2     1.092157873203    21.85927295    29.26367324
 C      6   2   1     1.092159264943    21.65960097    64.76662439
 C      7   5   1     1.092036272291    59.83067041    23.18962615
 C      8   6   2     1.092080171050    59.90643713   342.60913855
 C      9   5   1     1.092183327102    59.89397704   341.67826160
 C     10   6   2     1.092296191516    59.81293462    22.34666697
 C     11   3   1     1.091703389204    26.39850038   244.86021455
 C     12   4   2     1.091845053110    44.58762038   294.18794519
 C     13  11   3     1.092161137379    60.54207819    10.95301658
 C     14  12   4     1.092434528931    60.39440967    12.91571877
 C     15   1   2     1.091845822449    88.03244157   347.24550898
 C     16   2   1     1.091913572587    88.30553254   312.21668224
 C     17   9   5     1.088458184773    60.54424804     0.21505624
 C     18   2   1     1.092581681157    91.91853263   139.78347884
 C     19  15   1     1.092351449855    59.47202337   345.76572728
 C     20  16   2     1.089938805622    59.38966851   346.05520294
 C     21  11   3     1.092525761710    59.57464403   341.54418010
 C     22  12   4     1.093091295364    59.41798059   319.99388678
 C     23  13  11     1.091303596622    59.92657180   359.73910860
 C     24  14  12     1.090441690326    60.49857699   359.09772794
 C     25   7   5     1.092541829863    59.82147531   358.63965915
 C     26   8   6     1.088114323038    60.47350014     0.40453117
 C     27  21  11     1.093135577136    90.79042767     3.90931868
 C     28   4   2     1.092971605304    95.96575726   264.93036194
 C     35   3  43     1.350119257695   147.40488278     1.86069812
 C     36   4  44     1.346838780255   147.47168958     2.46149700
 C     57  17   9     1.398946396400   120.51793095   178.59496991
 C     66  26   8     1.398949909754   120.37852264   178.63680299
 C     39  31  30     1.367319805313   147.75221197    29.69561184
 C     40  34  33     1.346669877884   156.60380053   322.23584974
 C     59  19  15     1.401982032695   119.83196340   177.73214428
 C     44   4   2     1.402615079058   120.16148256   189.57680854
 C     67  27  21     1.412215705903   118.47786367   359.13141344
 C     68  28   4     1.410188366850   118.56914205   221.54523973
 C     67  27  21     1.381690417568   119.77162861   177.99318503
 C     68  28   4     1.376150082658   119.62130889    43.48037564
 C     63  23  13     1.416571996052   119.29992767   179.87395130
 C     64  24  14     1.418900662485   119.42611492   179.53263887
 C     73  39  31     1.381002490946   120.24631663   272.02986189
 C     74  40  34     1.386796416205   127.56943679    11.06104191
 C     31  30  29     1.097711519480    35.47556860   323.70923767
 C     34  33  32     1.098392220475    35.69665315    35.08690179

---------------------------
INTERNAL COORDINATES (A.U.)
---------------------------
 H      0   0   0     0.000000000000     0.00000000     0.00000000
 H      1   0   0    29.978451720215     0.00000000     0.00000000
 H      1   2   0    10.191498994828    15.38371917     0.00000000
 H      2   1   3    10.187494149115    42.78519730   239.10139519
 H      1   2   4    10.835068430298   108.44145661   103.53178779
 H      2   1   3    10.845695826357   117.19021715   135.23576404
 H      5   1   2     4.708997363688    48.84588666   276.61668827
 H      6   2   1     4.705895903263    74.84068485   108.31080628
 H      5   1   2     4.706754690312    74.11517718    75.55201308
 H      6   2   1     4.710401010717    47.84636608   308.55737955
 H      3   1   2    15.583671720587   113.83875517   133.36927395
 H      4   2   1    12.796175096519   149.07059263    96.87947915
 H     11   3   1     4.703818816372    84.69366155   223.11856048
 H     12   4   2     4.713017337194   102.97639174   278.03059920
 H      1   2  10     4.924226850293    74.88212415   166.18441227
 H      2   1   3     4.908730380626    57.49930782   326.79577139
 H      9   5   1     4.657175753464   120.37370391   341.61148594
 H      2   1   3     4.587771369074    76.33206881   120.42060090
 H     15   1   2     4.737856079082   146.12484296   359.20667389
 H     16   2   1     4.735747479460   146.42652894   324.14278121
 H     11   3   1     4.682635654491    36.99016296    26.98989991
 H     12   4   2     4.696538193105    21.29493772    61.69615187
 H     13  11   3     4.665497981788   120.59543633    11.10480174
 H     14  12   4     4.635652251681   120.82231287    13.73461490
 H      7   5   1     4.693415990919   120.00500059    23.62498509
 H      8   6   2     4.659722126548   120.34888711   342.42883880
 H     21  11   3     4.634396090903   149.67437808   338.70990199
 H      4   2   1     4.608362285692   121.66865554   105.96877163
 H      3   1   2     6.610115115359    77.62464445    60.77772369
 H     29   3   1     3.381321833963   110.47800139   184.91486898
 H     30  29   3     3.384043566842    60.10798868    65.12171264
 H      3   1   2     6.155192881345   163.40761503    75.15346978
 H     32   3   1     3.403990651789   123.71295427    84.14309855
 H     33  32   3     3.373833665712    60.07353727   132.18222822
 N      3   1   2     3.904634363268     5.97407434   255.60280099
 N      4   2   1     3.897209438912     5.62364137   204.23347771
 N      1   2  18     3.942920262427    49.92552058    21.41037018
 N      2   1   3     3.943696561895    79.92256853   193.39217091
 O     31  30  29     3.837597218055    65.89371210   284.96770017
 O     34  33  32     3.780881263709    66.66605919    74.70474526
 C      1   2  38     2.073549893190    25.61568605   129.17113970
 C      2   1   3     2.073008190952    59.01776926   218.90928788
 C      3   1   2     2.059714504725    30.77312956   124.28599335
 C      4   2   1     2.061995814845    30.96044563    68.48340351
 C      5   1   2     2.063879275360    21.85927295    29.26367324
 C      6   2   1     2.063881905366    21.65960097    64.76662439
 C      7   5   1     2.063649482939    59.83067041    23.18962615
 C      8   6   2     2.063732439570    59.90643713   342.60913855
 C      9   5   1     2.063927376258    59.89397704   341.67826160
 C     10   6   2     2.064140659090    59.81293462    22.34666697
 C     11   3   1     2.063020425070    26.39850038   244.86021455
 C     12   4   2     2.063288131054    44.58762038   294.18794519
 C     13  11   3     2.063885443757    60.54207819    10.95301658
 C     14  12   4     2.064402078918    60.39440967    12.91571877
 C     15   1   2     2.063289584895    88.03244157   347.24550898
 C     16   2   1     2.063417614101    88.30553254   312.21668224
 C     17   9   5     2.056887877447    60.54424804     0.21505624
 C     18   2   1     2.064680156326    91.91853263   139.78347884
 C     19  15   1     2.064245082217    59.47202337   345.76572728
 C     20  16   2     2.059685845358    59.38966851   346.05520294
 C     21  11   3     2.064574483886    59.57464403   341.54418010
 C     22  12   4     2.065643187611    59.41798059   319.99388678
 C     23  13  11     2.062264926579    59.92657180   359.73910860
 C     24  14  12     2.060636159725    60.49857699   359.09772794
 C     25   7   5     2.064604848294    59.82147531   358.63965915
 C     26   8   6     2.056238072939    60.47350014     0.40453117
 C     27  21  11     2.065726868033    90.79042767     3.90931868
 C     28   4   2     2.065417006176    95.96575726   264.93036194
 C     35   3  43     2.551355645177   147.40488278     1.86069812
 C     36   4  44     2.545156441227   147.47168958     2.46149700
 C     57  17   9     2.643625565232   120.51793095   178.59496991
 C     66  26   8     2.643632204508   120.37852264   178.63680299
 C     39  31  30     2.583859969527   147.75221197    29.69561184
 C     40  34  33     2.544837262002   156.60380053   322.23584974
 C     59  19  15     2.649362086472   119.83196340   177.73214428
 C     44   4   2     2.650558370727   120.16148256   189.57680854
 C     67  27  21     2.668700926180   118.47786367   359.13141344
 C     68  28   4     2.664869810589   118.56914205   221.54523973
 C     67  27  21     2.611016491067   119.77162861   177.99318503
 C     68  28   4     2.600546775397   119.62130889    43.48037564
 C     63  23  13     2.676933121521   119.29992767   179.87395130
 C     64  24  14     2.681333663336   119.42611492   179.53263887
 C     73  39  31     2.609716498152   120.24631663   272.02986189
 C     74  40  34     2.620665430132   127.56943679    11.06104191
 C     31  30  29     2.074374145869    35.47556860   323.70923767
 C     34  33  32     2.075660484327    35.69665315    35.08690179

---------------------
BASIS SET INFORMATION
---------------------
There are 4 groups of distinct atoms

 Group   1 Type H   : 5s1p contracted to 3s1p pattern {311/1}
 Group   2 Type N   : 11s6p2d1f contracted to 5s3p2d1f pattern {62111/411/11/1}
 Group   3 Type O   : 11s6p2d1f contracted to 5s3p2d1f pattern {62111/411/11/1}
 Group   4 Type C   : 11s6p2d1f contracted to 5s3p2d1f pattern {62111/411/11/1}

Atom   0H    basis set group =>   1
Atom   1H    basis set group =>   1
Atom   2H    basis set group =>   1
Atom   3H    basis set group =>   1
Atom   4H    basis set group =>   1
Atom   5H    basis set group =>   1
Atom   6H    basis set group =>   1
Atom   7H    basis set group =>   1
Atom   8H    basis set group =>   1
Atom   9H    basis set group =>   1
Atom  10H    basis set group =>   1
Atom  11H    basis set group =>   1
Atom  12H    basis set group =>   1
Atom  13H    basis set group =>   1
Atom  14H    basis set group =>   1
Atom  15H    basis set group =>   1
Atom  16H    basis set group =>   1
Atom  17H    basis set group =>   1
Atom  18H    basis set group =>   1
Atom  19H    basis set group =>   1
Atom  20H    basis set group =>   1
Atom  21H    basis set group =>   1
Atom  22H    basis set group =>   1
Atom  23H    basis set group =>   1
Atom  24H    basis set group =>   1
Atom  25H    basis set group =>   1
Atom  26H    basis set group =>   1
Atom  27H    basis set group =>   1
Atom  28H    basis set group =>   1
Atom  29H    basis set group =>   1
Atom  30H    basis set group =>   1
Atom  31H    basis set group =>   1
Atom  32H    basis set group =>   1
Atom  33H    basis set group =>   1
Atom  34N    basis set group =>   2
Atom  35N    basis set group =>   2
Atom  36N    basis set group =>   2
Atom  37N    basis set group =>   2
Atom  38O    basis set group =>   3
Atom  39O    basis set group =>   3
Atom  40C    basis set group =>   4
Atom  41C    basis set group =>   4
Atom  42C    basis set group =>   4
Atom  43C    basis set group =>   4
Atom  44C    basis set group =>   4
Atom  45C    basis set group =>   4
Atom  46C    basis set group =>   4
Atom  47C    basis set group =>   4
Atom  48C    basis set group =>   4
Atom  49C    basis set group =>   4
Atom  50C    basis set group =>   4
Atom  51C    basis set group =>   4
Atom  52C    basis set group =>   4
Atom  53C    basis set group =>   4
Atom  54C    basis set group =>   4
Atom  55C    basis set group =>   4
Atom  56C    basis set group =>   4
Atom  57C    basis set group =>   4
Atom  58C    basis set group =>   4
Atom  59C    basis set group =>   4
Atom  60C    basis set group =>   4
Atom  61C    basis set group =>   4
Atom  62C    basis set group =>   4
Atom  63C    basis set group =>   4
Atom  64C    basis set group =>   4
Atom  65C    basis set group =>   4
Atom  66C    basis set group =>   4
Atom  67C    basis set group =>   4
Atom  68C    basis set group =>   4
Atom  69C    basis set group =>   4
Atom  70C    basis set group =>   4
Atom  71C    basis set group =>   4
Atom  72C    basis set group =>   4
Atom  73C    basis set group =>   4
Atom  74C    basis set group =>   4
Atom  75C    basis set group =>   4
Atom  76C    basis set group =>   4
Atom  77C    basis set group =>   4
Atom  78C    basis set group =>   4
Atom  79C    basis set group =>   4
Atom  80C    basis set group =>   4
Atom  81C    basis set group =>   4
Atom  82C    basis set group =>   4
Atom  83C    basis set group =>   4
Atom  84C    basis set group =>   4
Atom  85C    basis set group =>   4

-------------------------
BASIS SET IN INPUT FORMAT
-------------------------

 # Basis set for element : H 
 NewGTO H 
 S 3 
   1      34.0613410000      0.0254393072
   2       5.1235746000      0.1900859489
   3       1.1646626000      0.8524411301
 S 1 
   1       0.3272304100      1.0000000000
 S 1 
   1       0.1030724100      1.0000000000
 P 1 
   1       0.8000000000      1.0000000000
  end;

 # Basis set for element : C 
 NewGTO C 
 S 6 
   1   13575.3496820000      0.0006064549
   2    2035.2333680000      0.0046979088
   3     463.2256235900      0.0243324776
   4     131.2001959800      0.0973999683
   5      42.8530158910      0.3019558425
   6      15.5841857660      0.6623360915
 S 2 
   1       6.2067138508      0.6559530854
   2       2.5764896527      0.3758563329
 S 1 
   1       0.5769633942      1.0000000000
 S 1 
   1       0.2297283136      1.0000000000
 S 1 
   1       0.0951644400      1.0000000000
 P 4 
   1      34.6972322440      0.0113272200
   2       7.9582622826      0.0761696592
   3       2.3780826883      0.3019225220
   4       0.8143320818      0.7278502735
 P 1 
   1       0.2888754725      1.0000000000
 P 1 
   1       0.1005682367      1.0000000000
 D 1 
   1       1.0970000000      1.0000000000
 D 1 
   1       0.3180000000      1.0000000000
 F 1 
   1       0.7610000000      1.0000000000
  end;

 # Basis set for element : N 
 NewGTO N 
 S 6 
   1   19730.8006470000      0.0005862639
   2    2957.8958745000      0.0045428821
   3     673.2213359500      0.0235584136
   4     190.6824949400      0.0947091933
   5      62.2954418980      0.2971978492
   6      22.6541611820      0.6691624689
 S 2 
   1       8.9791477428      0.6459668363
   2       3.6863002370      0.3870057440
 S 1 
   1       0.8466007680      1.0000000000
 S 1 
   1       0.3364713377      1.0000000000
 S 1 
   1       0.1364765367      1.0000000000
 P 4 
   1      49.2003805100      0.0114488252
   2      11.3467905370      0.0784223379
   3       3.4273972411      0.3081809474
   4       1.1785525134      0.7202719637
 P 1 
   1       0.4164220497      1.0000000000
 P 1 
   1       0.1426082601      1.0000000000
 D 1 
   1       1.6540000000      1.0000000000
 D 1 
   1       0.4690000000      1.0000000000
 F 1 
   1       1.0930000000      1.0000000000
  end;

 # Basis set for element : O 
 NewGTO O 
 S 6 
   1   27032.3826310000      0.0005722733
   2    4052.3871392000      0.0044353233
   3     922.3272271000      0.0230201076
   4     261.2407098900      0.0928224906
   5      85.3546413510      0.2937850002
   6      31.0350352450      0.6740160450
 S 2 
   1      12.2608607280      0.6383993702
   2       4.9987076005      0.3953458713
 S 1 
   1       1.1703108158      1.0000000000
 S 1 
   1       0.4647474099      1.0000000000
 S 1 
   1       0.1850453636      1.0000000000
 P 4 
   1      63.2749548010      0.0120183321
   2      14.6270493790      0.0830054217
   3       4.4501223456      0.3199174393
   4       1.5275799647      0.7071554292
 P 1 
   1       0.5293511794      1.0000000000
 P 1 
   1       0.1747842127      1.0000000000
 D 1 
   1       2.3140000000      1.0000000000
 D 1 
   1       0.6450000000      1.0000000000
 F 1 
   1       1.4280000000      1.0000000000
  end;



           ************************************************************
           *        Program running with 48 parallel MPI-processes    *
           *              working on a common directory               *
           ************************************************************
------------------------------------------------------------------------------
                           ORCA GTO INTEGRAL CALCULATION
------------------------------------------------------------------------------

                         BASIS SET STATISTICS AND STARTUP INFO

 # of primitive gaussian shells          ... 1244
 # of primitive gaussian functions       ... 2664
 # of contracted shells                  ...  708
 # of contracted basis functions         ... 1816
 Highest angular momentum                ...    3
 Maximum contraction depth               ...    6
 Integral package used                   ... LIBINT
 Integral threshhold            Thresh   ...  2.500e-11
 Primitive cut-off              TCut     ...  2.500e-12


------------------------------ INTEGRAL EVALUATION ----------------------------


 * One electron integrals 
 Pre-screening matrix                    ... done
 Shell pair data                         ... done (   0.030 sec)



           ************************************************************
           *        Program running with 48 parallel MPI-processes    *
           *              working on a common directory               *
           ************************************************************
-------------------------------------------------------------------------------
                                 ORCA SCF
-------------------------------------------------------------------------------

------------
SCF SETTINGS
------------
Hamiltonian:
 Density Functional     Method          .... DFT(GTOs)
 Exchange Functional    Exchange        .... PBE
   PBE kappa parameter   XKappa         ....  0.804000
   PBE mue parameter    XMuePBE         ....  0.219520
 Correlation Functional Correlation     .... PBE
   PBE beta parameter  CBetaPBE         ....  0.066725
 LDA part of GGA corr.  LDAOpt          .... PW91-LDA
 Gradients option       PostSCFGGA      .... off
 Hybrid DFT is turned on
   Fraction HF Exchange ScalHFX         ....  0.250000
   Scaling of DF-GGA-X  ScalDFX         ....  0.750000
   Scaling of DF-GGA-C  ScalDFC         ....  1.000000
   Scaling of DF-LDA-C  ScalLDAC        ....  1.000000
   Perturbative correction              ....  0.000000
   Density functional embedding theory  .... OFF
   NL short-range parameter             ....  6.900000


General Settings:
 Integral files         IntName         .... _fe7dd_xtb_dft_sg86_1_0
 Hartree-Fock type      HFTyp           .... RHF
 Total Charge           Charge          ....    0
 Multiplicity           Mult            ....    1
 Number of Electrons    NEL             ....  354
 Basis Dimension        Dim             .... 1816
 Nuclear Repulsion      ENuc            ....   5858.9701051903 Eh

Convergence Acceleration:
 DIIS                   CNVDIIS         .... on
   Start iteration      DIISMaxIt       ....     0
   Startup error        DIISStart       ....  0.200000
   # of expansion vecs  DIISMaxEq       ....     5
   Bias factor          DIISBfac        ....   1.050
   Max. coefficient     DIISMaxC        ....  10.000
 Newton-Raphson         CNVNR           .... off
 SOSCF                  CNVSOSCF        .... on
   Start iteration      SOSCFMaxIt      ....   150
   Startup grad/error   SOSCFStart      ....  0.001000
 Level Shifting         CNVShift        .... on
   Level shift para.    LevelShift      ....    0.2500
   Turn off err/grad.   ShiftErr        ....    0.0000
 Zerner damping         CNVZerner       .... off
 Static damping         CNVDamp         .... on
   Fraction old density DampFac         ....    0.8500
   Max. Damping (<1)    DampMax         ....    0.9800
   Min. Damping (>=0)   DampMin         ....    0.0000
   Turn off err/grad.   DampErr         ....    0.0300
 Fernandez-Rico         CNVRico         .... off

SCF Procedure:
 Maximum # iterations   MaxIter         ....  2000
 SCF integral mode      SCFMode         .... Direct
   Integral package                     .... LIBINT
 Reset frequency        DirectResetFreq ....    20
 Integral Threshold     Thresh          ....  2.500e-11 Eh
 Primitive CutOff       TCut            ....  2.500e-12 Eh

Convergence Tolerance:
 Convergence Check Mode ConvCheckMode   .... Total+1el-Energy
 Convergence forced     ConvForced      .... 0
 Energy Change          TolE            ....  1.000e-08 Eh
 1-El. energy change                    ....  1.000e-05 Eh
 Orbital Gradient       TolG            ....  1.000e-05
 Orbital Rotation angle TolX            ....  1.000e-05
 DIIS Error             TolErr          ....  5.000e-07


Diagonalization of the overlap matrix:
Smallest eigenvalue                        ... 2.449e-06
Time for diagonalization                   ...    1.204 sec
Threshold for overlap eigenvalues          ... 1.000e-08
Number of eigenvalues below threshold      ... 0
Time for construction of square roots      ...    0.467 sec
Total time needed                          ...    1.684 sec

-------------------
DFT GRID GENERATION
-------------------

General Integration Accuracy     IntAcc      ...  5.340
Radial Grid Type                 RadialGrid  ... Gauss-Chebyshev
Angular Grid (max. acc.)         AngularGrid ... Lebedev-590
Angular grid pruning method      GridPruning ... 3 (G Style)
Weight generation scheme         WeightScheme... Becke
Basis function cutoff            BFCut       ...    1.0000e-11
Integration weight cutoff        WCut        ...    1.0000e-14
Grids for H and He will be reduced by one unit

# of grid points (after initial pruning)     ... 1232188 (   0.0 sec)
# of grid points (after weights+screening)   ... 1043787 (   1.8 sec)
nearest neighbour list constructed           ...    0.0 sec
Grid point re-assignment to atoms done       ...    0.2 sec
Grid point division into batches done        ...   11.0 sec
Reduced shell lists constructed in   11.5 sec

Total number of grid points                  ...  1043787
Total number of batches                      ...    16352
Average number of points per batch           ...       63
Average number of grid points per atom       ...    12137
Average number of shells per batch           ...   101.92 (14.40%)
Average number of basis functions per batch  ...   250.24 (13.78%)
Average number of large shells per batch     ...    64.18 (62.96%)
Average number of large basis fcns per batch ...   154.78 (61.85%)
Maximum spatial batch extension              ...  14.69, 13.99, 11.68 au
Average spatial batch extension              ...   0.04,  0.05,  0.04 au

Time for grid setup =   14.949 sec

------------------------------
INITIAL GUESS: MODEL POTENTIAL
------------------------------
Loading Hartree-Fock densities                     ... done
Calculating cut-offs                               ... done
Setting up the integral package                    ... done
Initializing the effective Hamiltonian             ... done
Starting the Coulomb interaction                   ... done (   0.3 sec)
Reading the grid                                   ... done
Mapping shells                                     ... done
Starting the XC term evaluation                    ... done (   0.9 sec)
  promolecular density results
     # of electrons  =    353.983322298
     EX              =   -287.799016777
     EC              =    -11.897884053
     EX+EC           =   -299.696900830
Transforming the Hamiltonian                       ... done (   0.3 sec)
Diagonalizing the Hamiltonian                      ... done (   0.5 sec)
Back transforming the eigenvectors                 ... done (   0.1 sec)
Now organizing SCF variables                       ... done
                      ------------------
                      INITIAL GUESS DONE (  17.4 sec)
                      ------------------
--------------
SCF ITERATIONS
--------------
ITER       Energy         Delta-E        Max-DP      RMS-DP      [F,P]     Damp
               ***  Starting incremental Fock matrix formation  ***
  0  -2140.0414347514   0.000000000000 0.05105647  0.00032654  0.1779871 0.8500
  1  -2140.2792127564  -0.237778004970 0.08378636  0.00042200  0.1313891 0.8500
                               ***Turning on DIIS***
  2  -2140.4439074565  -0.164694700168 0.06700719  0.00034994  0.0888795 0.8500
  3  -2140.5537925775  -0.109885121013 0.03332268  0.00018437  0.0585571 0.8500
  4  -2140.6352383964  -0.081445818900 0.01661375  0.00010967  0.0455350 0.8500
  5  -2140.6979981525  -0.062759756099 0.02292493  0.00008365  0.0385032 0.8500
  6  -2140.7486913319  -0.050693179339 0.02307358  0.00007066  0.0329143 0.8500
  7  -2140.7906447720  -0.041953440083 0.14025214  0.00040272  0.0279740 0.0000
  8  -2141.0142072453  -0.223562473331 0.00924953  0.00004711  0.0051204 0.0000
  9  -2141.0142756608  -0.000068415473 0.00173527  0.00001308  0.0045343 0.0000
 10  -2141.0144591754  -0.000183514633 0.00449153  0.00001043  0.0010771 0.0000
                      *** Initiating the SOSCF procedure ***
                           *** Shutting down DIIS ***
                      *** Re-Reading the Fockian *** 
                      *** Removing any level shift *** 
ITER      Energy       Delta-E        Grad      Rot      Max-DP    RMS-DP
 11  -2141.01447245  -0.0000132710  0.000065  0.000065  0.001565  0.000006
               *** Restarting incremental Fock matrix formation ***
 12  -2141.01447381  -0.0000013685  0.000048  0.000237  0.001748  0.000008
 13  -2141.01447384  -0.0000000288  0.000051  0.000127  0.001320  0.000005
 14  -2141.01447394  -0.0000000924  0.000010  0.000063  0.000842  0.000004
 15  -2141.01447412  -0.0000001860  0.000008  0.000023  0.001263  0.000004
 16  -2141.01447424  -0.0000001165  0.000005  0.000031  0.001555  0.000005
                  ***Gradient check signals convergence***
              ***Rediagonalizing the Fockian in SOSCF/NRSCF***

               *****************************************************
               *                     SUCCESS                       *
               *           SCF CONVERGED AFTER  17 CYCLES          *
               *****************************************************


----------------
TOTAL SCF ENERGY
----------------

Total Energy       :        -2141.01447407 Eh          -58259.96572 eV

Components:
Nuclear Repulsion  :         5858.97010519 Eh          159430.68186 eV
Electronic Energy  :        -7999.98457926 Eh         -217690.64758 eV
One Electron Energy:       -14566.10117079 Eh         -396363.76360 eV
Two Electron Energy:         6566.11659153 Eh          178673.11602 eV

Virial components:
Potential Energy   :        -4271.00222095 Eh         -116219.87894 eV
Kinetic Energy     :         2129.98774688 Eh           57959.91322 eV
Virial Ratio       :            2.00517690


DFT components:
N(Alpha)           :      176.999991383198 electrons
N(Beta)            :      176.999991383198 electrons
N(Total)           :      353.999982766396 electrons
E(X)               :     -219.610195956632 Eh       
E(C)               :      -11.893693136223 Eh       
E(XC)              :     -231.503889092855 Eh       
DFET-embed. en.    :        0.000000000000 Eh       

---------------
SCF CONVERGENCE
---------------

  Last Energy change         ...    1.6971e-07  Tolerance :   1.0000e-08
  Last MAX-Density change    ...    2.8014e-03  Tolerance :   1.0000e-07
  Last RMS-Density change    ...    7.3921e-06  Tolerance :   5.0000e-09
  Last Orbital Gradient      ...    1.8601e-06  Tolerance :   1.0000e-05
  Last Orbital Rotation      ...    5.3151e-06  Tolerance :   1.0000e-05

             **** THE GBW FILE WAS UPDATED (_fe7dd_xtb_dft_sg86_1_0.gbw) ****
             **** DENSITY FILE WAS UPDATED (_fe7dd_xtb_dft_sg86_1_0.scfp) ****
             **** ENERGY FILE WAS UPDATED (_fe7dd_xtb_dft_sg86_1_0.en.tmp) ****
             **** THE GBW FILE WAS UPDATED (_fe7dd_xtb_dft_sg86_1_0.gbw) ****
             **** DENSITY FILE WAS UPDATED (_fe7dd_xtb_dft_sg86_1_0.scfp) ****
----------------
ORBITAL ENERGIES
----------------

  NO   OCC          E(Eh)            E(eV) 
   0   2.0000     -19.249690      -523.8107 
   1   2.0000     -19.237166      -523.4699 
   2   2.0000     -14.388561      -391.5326 
   3   2.0000     -14.385435      -391.4476 
   4   2.0000     -14.382867      -391.3777 
   5   2.0000     -14.378034      -391.2462 
   6   2.0000     -10.306503      -280.4542 
   7   2.0000     -10.298980      -280.2495 
   8   2.0000     -10.276677      -279.6426 
   9   2.0000     -10.273599      -279.5588 
  10   2.0000     -10.273078      -279.5447 
  11   2.0000     -10.272571      -279.5309 
  12   2.0000     -10.267798      -279.4010 
  13   2.0000     -10.267785      -279.4006 
  14   2.0000     -10.266217      -279.3580 
  15   2.0000     -10.260981      -279.2155 
  16   2.0000     -10.260300      -279.1969 
  17   2.0000     -10.259980      -279.1883 
  18   2.0000     -10.258463      -279.1470 
  19   2.0000     -10.258181      -279.1393 
  20   2.0000     -10.256198      -279.0853 
  21   2.0000     -10.254623      -279.0425 
  22   2.0000     -10.254100      -279.0283 
  23   2.0000     -10.252969      -278.9975 
  24   2.0000     -10.251704      -278.9631 
  25   2.0000     -10.251162      -278.9483 
  26   2.0000     -10.251126      -278.9473 
  27   2.0000     -10.250762      -278.9374 
  28   2.0000     -10.249360      -278.8993 
  29   2.0000     -10.248749      -278.8826 
  30   2.0000     -10.248228      -278.8685 
  31   2.0000     -10.243778      -278.7474 
  32   2.0000     -10.243337      -278.7354 
  33   2.0000     -10.243329      -278.7351 
  34   2.0000     -10.241594      -278.6879 
  35   2.0000     -10.241196      -278.6771 
  36   2.0000     -10.240904      -278.6692 
  37   2.0000     -10.239682      -278.6359 
  38   2.0000     -10.237180      -278.5678 
  39   2.0000     -10.235996      -278.5356 
  40   2.0000     -10.233357      -278.4638 
  41   2.0000     -10.233243      -278.4607 
  42   2.0000     -10.228433      -278.3298 
  43   2.0000     -10.227841      -278.3137 
  44   2.0000     -10.226653      -278.2814 
  45   2.0000     -10.225041      -278.2375 
  46   2.0000     -10.224606      -278.2257 
  47   2.0000     -10.224443      -278.2212 
  48   2.0000     -10.224401      -278.2201 
  49   2.0000     -10.222937      -278.1803 
  50   2.0000     -10.221200      -278.1330 
  51   2.0000     -10.220821      -278.1227 
  52   2.0000      -1.114197       -30.3188 
  53   2.0000      -1.101162       -29.9641 
  54   2.0000      -0.988207       -26.8905 
  55   2.0000      -0.982390       -26.7322 
  56   2.0000      -0.955361       -25.9967 
  57   2.0000      -0.950018       -25.8513 
  58   2.0000      -0.925055       -25.1720 
  59   2.0000      -0.911458       -24.8020 
  60   2.0000      -0.876643       -23.8547 
  61   2.0000      -0.872075       -23.7304 
  62   2.0000      -0.870836       -23.6966 
  63   2.0000      -0.866409       -23.5762 
  64   2.0000      -0.852917       -23.2090 
  65   2.0000      -0.834424       -22.7058 
  66   2.0000      -0.826227       -22.4828 
  67   2.0000      -0.815424       -22.1888 
  68   2.0000      -0.808737       -22.0069 
  69   2.0000      -0.798151       -21.7188 
  70   2.0000      -0.784551       -21.3487 
  71   2.0000      -0.782527       -21.2936 
  72   2.0000      -0.770260       -20.9598 
  73   2.0000      -0.768536       -20.9129 
  74   2.0000      -0.766582       -20.8598 
  75   2.0000      -0.763480       -20.7753 
  76   2.0000      -0.753207       -20.4958 
  77   2.0000      -0.743284       -20.2258 
  78   2.0000      -0.729729       -19.8569 
  79   2.0000      -0.714029       -19.4297 
  80   2.0000      -0.699389       -19.0313 
  81   2.0000      -0.691119       -18.8063 
  82   2.0000      -0.668035       -18.1782 
  83   2.0000      -0.664614       -18.0851 
  84   2.0000      -0.656470       -17.8634 
  85   2.0000      -0.645265       -17.5585 
  86   2.0000      -0.640023       -17.4159 
  87   2.0000      -0.636150       -17.3105 
  88   2.0000      -0.632719       -17.2172 
  89   2.0000      -0.627809       -17.0836 
  90   2.0000      -0.623156       -16.9569 
  91   2.0000      -0.620944       -16.8968 
  92   2.0000      -0.615415       -16.7463 
  93   2.0000      -0.603785       -16.4298 
  94   2.0000      -0.589235       -16.0339 
  95   2.0000      -0.584666       -15.9096 
  96   2.0000      -0.559745       -15.2314 
  97   2.0000      -0.557436       -15.1686 
  98   2.0000      -0.555284       -15.1100 
  99   2.0000      -0.551688       -15.0122 
 100   2.0000      -0.550619       -14.9831 
 101   2.0000      -0.542689       -14.7673 
 102   2.0000      -0.539608       -14.6835 
 103   2.0000      -0.537551       -14.6275 
 104   2.0000      -0.524540       -14.2734 
 105   2.0000      -0.516231       -14.0474 
 106   2.0000      -0.504933       -13.7399 
 107   2.0000      -0.501370       -13.6430 
 108   2.0000      -0.497457       -13.5365 
 109   2.0000      -0.495512       -13.4836 
 110   2.0000      -0.492687       -13.4067 
 111   2.0000      -0.487359       -13.2617 
 112   2.0000      -0.484044       -13.1715 
 113   2.0000      -0.479480       -13.0473 
 114   2.0000      -0.478080       -13.0092 
 115   2.0000      -0.474504       -12.9119 
 116   2.0000      -0.472878       -12.8677 
 117   2.0000      -0.470175       -12.7941 
 118   2.0000      -0.468607       -12.7515 
 119   2.0000      -0.467964       -12.7340 
 120   2.0000      -0.464096       -12.6287 
 121   2.0000      -0.455508       -12.3950 
 122   2.0000      -0.451662       -12.2904 
 123   2.0000      -0.451648       -12.2900 
 124   2.0000      -0.449000       -12.2179 
 125   2.0000      -0.445388       -12.1196 
 126   2.0000      -0.444251       -12.0887 
 127   2.0000      -0.442222       -12.0335 
 128   2.0000      -0.437360       -11.9012 
 129   2.0000      -0.436213       -11.8700 
 130   2.0000      -0.432341       -11.7646 
 131   2.0000      -0.431884       -11.7522 
 132   2.0000      -0.428714       -11.6659 
 133   2.0000      -0.424125       -11.5410 
 134   2.0000      -0.422137       -11.4869 
 135   2.0000      -0.420117       -11.4320 
 136   2.0000      -0.418035       -11.3753 
 137   2.0000      -0.414785       -11.2869 
 138   2.0000      -0.402112       -10.9420 
 139   2.0000      -0.397202       -10.8084 
 140   2.0000      -0.393579       -10.7098 
 141   2.0000      -0.386324       -10.5124 
 142   2.0000      -0.384650       -10.4669 
 143   2.0000      -0.381551       -10.3825 
 144   2.0000      -0.378720       -10.3055 
 145   2.0000      -0.373440       -10.1618 
 146   2.0000      -0.372107       -10.1255 
 147   2.0000      -0.369929       -10.0663 
 148   2.0000      -0.368538       -10.0284 
 149   2.0000      -0.365828        -9.9547 
 150   2.0000      -0.364747        -9.9253 
 151   2.0000      -0.360714        -9.8155 
 152   2.0000      -0.355433        -9.6718 
 153   2.0000      -0.354574        -9.6484 
 154   2.0000      -0.345404        -9.3989 
 155   2.0000      -0.342201        -9.3118 
 156   2.0000      -0.339286        -9.2325 
 157   2.0000      -0.328022        -8.9259 
 158   2.0000      -0.313371        -8.5273 
 159   2.0000      -0.308302        -8.3893 
 160   2.0000      -0.306386        -8.3372 
 161   2.0000      -0.303502        -8.2587 
 162   2.0000      -0.300655        -8.1812 
 163   2.0000      -0.298758        -8.1296 
 164   2.0000      -0.294566        -8.0156 
 165   2.0000      -0.287915        -7.8346 
 166   2.0000      -0.277185        -7.5426 
 167   2.0000      -0.271961        -7.4004 
 168   2.0000      -0.269153        -7.3240 
 169   2.0000      -0.266763        -7.2590 
 170   2.0000      -0.263272        -7.1640 
 171   2.0000      -0.258244        -7.0272 
 172   2.0000      -0.242106        -6.5880 
 173   2.0000      -0.240441        -6.5427 
 174   2.0000      -0.231800        -6.3076 
 175   2.0000      -0.229118        -6.2346 
 176   2.0000      -0.225948        -6.1484 
 177   0.0000      -0.080409        -2.1880 
 178   0.0000      -0.074646        -2.0312 
 179   0.0000      -0.055875        -1.5204 
 180   0.0000      -0.046301        -1.2599 
 181   0.0000      -0.033220        -0.9040 
 182   0.0000      -0.029298        -0.7972 
 183   0.0000      -0.024259        -0.6601 
 184   0.0000      -0.017810        -0.4846 
 185   0.0000      -0.007112        -0.1935 
 186   0.0000      -0.003429        -0.0933 
 187   0.0000       0.003047         0.0829 
 188   0.0000       0.006160         0.1676 
 189   0.0000       0.009567         0.2603 
 190   0.0000       0.015135         0.4118 
 191   0.0000       0.034297         0.9333 
 192   0.0000       0.039012         1.0616 
 193   0.0000       0.041363         1.1256 
 194   0.0000       0.047404         1.2899 
 195   0.0000       0.051229         1.3940 
 196   0.0000       0.056838         1.5466 
 197   0.0000       0.059832         1.6281 
 198   0.0000       0.061752         1.6804 
 199   0.0000       0.062388         1.6977 
 200   0.0000       0.065586         1.7847 
 201   0.0000       0.067575         1.8388 
 202   0.0000       0.070299         1.9129 
 203   0.0000       0.075117         2.0440 
 204   0.0000       0.077877         2.1191 
 205   0.0000       0.081266         2.2113 
 206   0.0000       0.084120         2.2890 
 207   0.0000       0.089287         2.4296 
 208   0.0000       0.090845         2.4720 
 209   0.0000       0.092230         2.5097 
 210   0.0000       0.094979         2.5845 
 211   0.0000       0.096855         2.6355 
 212   0.0000       0.098899         2.6912 
 213   0.0000       0.099747         2.7143 
 214   0.0000       0.102388         2.7861 
 215   0.0000       0.106087         2.8868 
 216   0.0000       0.108481         2.9519 
 217   0.0000       0.109061         2.9677 
 218   0.0000       0.112087         3.0500 
 219   0.0000       0.114224         3.1082 
 220   0.0000       0.115876         3.1532 
 221   0.0000       0.117895         3.2081 
 222   0.0000       0.121011         3.2929 
 223   0.0000       0.123088         3.3494 
 224   0.0000       0.124238         3.3807 
 225   0.0000       0.125526         3.4157 
 226   0.0000       0.127916         3.4808 
 227   0.0000       0.130281         3.5451 
 228   0.0000       0.132711         3.6113 
 229   0.0000       0.134672         3.6646 
 230   0.0000       0.137317         3.7366 
 231   0.0000       0.140443         3.8216 
 232   0.0000       0.143879         3.9151 
 233   0.0000       0.151445         4.1210 
 234   0.0000       0.152417         4.1475 
 235   0.0000       0.155607         4.2343 
 236   0.0000       0.158131         4.3030 
 237   0.0000       0.159793         4.3482 
 238   0.0000       0.161090         4.3835 
 239   0.0000       0.164847         4.4857 
 240   0.0000       0.165979         4.5165 
 241   0.0000       0.169780         4.6200 
 242   0.0000       0.173577         4.7233 
 243   0.0000       0.178038         4.8447 
 244   0.0000       0.179265         4.8781 
 245   0.0000       0.183062         4.9814 
 246   0.0000       0.185015         5.0345 
 247   0.0000       0.186414         5.0726 
 248   0.0000       0.189073         5.1449 
 249   0.0000       0.193287         5.2596 
 250   0.0000       0.194181         5.2839 
 251   0.0000       0.200336         5.4514 
 252   0.0000       0.201920         5.4945 
 253   0.0000       0.205159         5.5827 
 254   0.0000       0.207053         5.6342 
 255   0.0000       0.207338         5.6419 
 256   0.0000       0.209677         5.7056 
 257   0.0000       0.210761         5.7351 
 258   0.0000       0.212688         5.7875 
 259   0.0000       0.214884         5.8473 
 260   0.0000       0.216504         5.8914 
 261   0.0000       0.218412         5.9433 
 262   0.0000       0.220825         6.0089 
 263   0.0000       0.222881         6.0649 
 264   0.0000       0.224591         6.1114 
 265   0.0000       0.226593         6.1659 
 266   0.0000       0.227912         6.2018 
 267   0.0000       0.229360         6.2412 
 268   0.0000       0.230069         6.2605 
 269   0.0000       0.233895         6.3646 
 270   0.0000       0.236097         6.4245 
 271   0.0000       0.238664         6.4944 
 272   0.0000       0.240816         6.5529 
 273   0.0000       0.242662         6.6032 
 274   0.0000       0.244707         6.6588 
 275   0.0000       0.245450         6.6790 
 276   0.0000       0.246727         6.7138 
 277   0.0000       0.248027         6.7492 
 278   0.0000       0.249862         6.7991 
 279   0.0000       0.251067         6.8319 
 280   0.0000       0.251894         6.8544 
 281   0.0000       0.253539         6.8991 
 282   0.0000       0.256142         6.9700 
 283   0.0000       0.257560         7.0086 
 284   0.0000       0.261806         7.1241 
 285   0.0000       0.262962         7.1556 
 286   0.0000       0.264383         7.1942 
 287   0.0000       0.265675         7.2294 
 288   0.0000       0.267272         7.2728 
 289   0.0000       0.270249         7.3539 
 290   0.0000       0.272143         7.4054 
 291   0.0000       0.272411         7.4127 
 292   0.0000       0.274576         7.4716 
 293   0.0000       0.276067         7.5122 
 294   0.0000       0.278581         7.5806 
 295   0.0000       0.281099         7.6491 
 296   0.0000       0.284757         7.7486 
 297   0.0000       0.285602         7.7716 
 298   0.0000       0.288712         7.8562 
 299   0.0000       0.291165         7.9230 
 300   0.0000       0.293085         7.9753 
 301   0.0000       0.294323         8.0089 
 302   0.0000       0.297926         8.1070 
 303   0.0000       0.299668         8.1544 
 304   0.0000       0.301736         8.2106 
 305   0.0000       0.304172         8.2769 
 306   0.0000       0.306109         8.3297 
 307   0.0000       0.309793         8.4299 
 308   0.0000       0.311057         8.4643 
 309   0.0000       0.312363         8.4998 
 310   0.0000       0.312963         8.5162 
 311   0.0000       0.315338         8.5808 
 312   0.0000       0.320317         8.7163 
 313   0.0000       0.321703         8.7540 
 314   0.0000       0.323894         8.8136 
 315   0.0000       0.324861         8.8399 
 316   0.0000       0.328242         8.9319 
 317   0.0000       0.330116         8.9829 
 318   0.0000       0.330311         8.9882 
 319   0.0000       0.332391         9.0448 
 320   0.0000       0.334134         9.0923 
 321   0.0000       0.335794         9.1374 
 322   0.0000       0.337601         9.1866 
 323   0.0000       0.340108         9.2548 
 324   0.0000       0.341859         9.3025 
 325   0.0000       0.343709         9.3528 
 326   0.0000       0.344615         9.3774 
 327   0.0000       0.346737         9.4352 
 328   0.0000       0.347403         9.4533 
 329   0.0000       0.352156         9.5827 
 330   0.0000       0.353080         9.6078 
 331   0.0000       0.354789         9.6543 
 332   0.0000       0.355997         9.6872 
 333   0.0000       0.356811         9.7093 
 334   0.0000       0.358640         9.7591 
 335   0.0000       0.361489         9.8366 
 336   0.0000       0.363440         9.8897 
 337   0.0000       0.365185         9.9372 
 338   0.0000       0.366653         9.9771 
 339   0.0000       0.368613        10.0305 
 340   0.0000       0.370569        10.0837 
 341   0.0000       0.371618        10.1122 
 342   0.0000       0.373373        10.1600 
 343   0.0000       0.374284        10.1848 
 344   0.0000       0.375501        10.2179 
 345   0.0000       0.378246        10.2926 
 346   0.0000       0.381508        10.3814 
 347   0.0000       0.383144        10.4259 
 348   0.0000       0.383815        10.4441 
 349   0.0000       0.385384        10.4868 
 350   0.0000       0.385985        10.5032 
 351   0.0000       0.387782        10.5521 
 352   0.0000       0.392903        10.6914 
 353   0.0000       0.394508        10.7351 
 354   0.0000       0.395153        10.7527 
 355   0.0000       0.396679        10.7942 
 356   0.0000       0.397778        10.8241 
 357   0.0000       0.400805        10.9065 
 358   0.0000       0.403051        10.9676 
 359   0.0000       0.403752        10.9866 
 360   0.0000       0.405466        11.0333 
 361   0.0000       0.407160        11.0794 
 362   0.0000       0.408495        11.1157 
 363   0.0000       0.410677        11.1751 
 364   0.0000       0.412800        11.2328 
 365   0.0000       0.415048        11.2940 
 366   0.0000       0.417353        11.3568 
 367   0.0000       0.419300        11.4097 
 368   0.0000       0.421393        11.4667 
 369   0.0000       0.423849        11.5335 
 370   0.0000       0.424898        11.5621 
 371   0.0000       0.426314        11.6006 
 372   0.0000       0.427851        11.6424 
 373   0.0000       0.428381        11.6568 
 374   0.0000       0.429934        11.6991 
 375   0.0000       0.431128        11.7316 
 376   0.0000       0.435255        11.8439 
 377   0.0000       0.436697        11.8831 
 378   0.0000       0.438067        11.9204 
 379   0.0000       0.438920        11.9436 
 380   0.0000       0.440090        11.9754 
 381   0.0000       0.441299        12.0084 
 382   0.0000       0.446299        12.1444 
 383   0.0000       0.447261        12.1706 
 384   0.0000       0.447859        12.1868 
 385   0.0000       0.448976        12.2173 
 386   0.0000       0.452111        12.3026 
 387   0.0000       0.455911        12.4060 
 388   0.0000       0.457187        12.4407 
 389   0.0000       0.457650        12.4533 
 390   0.0000       0.460430        12.5290 
 391   0.0000       0.463695        12.6178 
 392   0.0000       0.465382        12.6637 
 393   0.0000       0.467236        12.7141 
 394   0.0000       0.470778        12.8105 
 395   0.0000       0.472424        12.8553 
 396   0.0000       0.473099        12.8737 
 397   0.0000       0.474362        12.9080 
 398   0.0000       0.475244        12.9320 
 399   0.0000       0.477350        12.9894 
 400   0.0000       0.480185        13.0665 
 401   0.0000       0.484006        13.1705 
 402   0.0000       0.484880        13.1943 
 403   0.0000       0.487791        13.2735 
 404   0.0000       0.488452        13.2915 
 405   0.0000       0.490742        13.3538 
 406   0.0000       0.494765        13.4632 
 407   0.0000       0.498108        13.5542 
 408   0.0000       0.499173        13.5832 
 409   0.0000       0.501993        13.6599 
 410   0.0000       0.504279        13.7221 
 411   0.0000       0.506585        13.7849 
 412   0.0000       0.507248        13.8029 
 413   0.0000       0.508498        13.8369 
 414   0.0000       0.509700        13.8696 
 415   0.0000       0.511692        13.9238 
 416   0.0000       0.513052        13.9608 
 417   0.0000       0.515709        14.0331 
 418   0.0000       0.516990        14.0680 
 419   0.0000       0.519969        14.1491 
 420   0.0000       0.521461        14.1897 
 421   0.0000       0.522597        14.2206 
 422   0.0000       0.523013        14.2319 
 423   0.0000       0.526280        14.3208 
 424   0.0000       0.528516        14.3817 
 425   0.0000       0.531356        14.4589 
 426   0.0000       0.533370        14.5137 
 427   0.0000       0.536047        14.5866 
 428   0.0000       0.537752        14.6330 
 429   0.0000       0.539828        14.6895 
 430   0.0000       0.542391        14.7592 
 431   0.0000       0.545510        14.8441 
 432   0.0000       0.548711        14.9312 
 433   0.0000       0.553876        15.0717 
 434   0.0000       0.557288        15.1646 
 435   0.0000       0.559922        15.2363 
 436   0.0000       0.562909        15.3175 
 437   0.0000       0.564045        15.3484 
 438   0.0000       0.571443        15.5497 
 439   0.0000       0.575532        15.6610 
 440   0.0000       0.576292        15.6817 
 441   0.0000       0.579887        15.7795 
 442   0.0000       0.581434        15.8216 
 443   0.0000       0.584728        15.9113 
 444   0.0000       0.589292        16.0354 
 445   0.0000       0.592237        16.1156 
 446   0.0000       0.593137        16.1401 
 447   0.0000       0.594934        16.1890 
 448   0.0000       0.597959        16.2713 
 449   0.0000       0.601816        16.3763 
 450   0.0000       0.602838        16.4041 
 451   0.0000       0.606594        16.5063 
 452   0.0000       0.608587        16.5605 
 453   0.0000       0.612882        16.6774 
 454   0.0000       0.615435        16.7468 
 455   0.0000       0.620541        16.8858 
 456   0.0000       0.623480        16.9657 
 457   0.0000       0.628298        17.0969 
 458   0.0000       0.630513        17.1571 
 459   0.0000       0.636278        17.3140 
 460   0.0000       0.640051        17.4167 
 461   0.0000       0.641053        17.4439 
 462   0.0000       0.642910        17.4945 
 463   0.0000       0.645668        17.5695 
 464   0.0000       0.648434        17.6448 
 465   0.0000       0.649801        17.6820 
 466   0.0000       0.653508        17.7829 
 467   0.0000       0.654235        17.8026 
 468   0.0000       0.657414        17.8892 
 469   0.0000       0.660390        17.9701 
 470   0.0000       0.661305        17.9950 
 471   0.0000       0.663738        18.0612 
 472   0.0000       0.667745        18.1703 
 473   0.0000       0.670807        18.2536 
 474   0.0000       0.671642        18.2763 
 475   0.0000       0.676321        18.4036 
 476   0.0000       0.679042        18.4777 
 477   0.0000       0.679683        18.4951 
 478   0.0000       0.681843        18.5539 
 479   0.0000       0.682803        18.5800 
 480   0.0000       0.685174        18.6445 
 481   0.0000       0.689527        18.7630 
 482   0.0000       0.691269        18.8104 
 483   0.0000       0.694307        18.8930 
 484   0.0000       0.694894        18.9090 
 485   0.0000       0.697662        18.9843 
 486   0.0000       0.700183        19.0530 
 487   0.0000       0.704725        19.1765 
 488   0.0000       0.706623        19.2282 
 489   0.0000       0.709025        19.2936 
 490   0.0000       0.711974        19.3738 
 491   0.0000       0.713325        19.4106 
 492   0.0000       0.713567        19.4171 
 493   0.0000       0.714363        19.4388 
 494   0.0000       0.717804        19.5324 
 495   0.0000       0.719320        19.5737 
 496   0.0000       0.720740        19.6123 
 497   0.0000       0.722291        19.6545 
 498   0.0000       0.724350        19.7106 
 499   0.0000       0.726073        19.7574 
 500   0.0000       0.728913        19.8347 
 501   0.0000       0.731224        19.8976 
 502   0.0000       0.732147        19.9227 
 503   0.0000       0.734489        19.9865 
 504   0.0000       0.735849        20.0235 
 505   0.0000       0.737333        20.0639 
 506   0.0000       0.741166        20.1681 
 507   0.0000       0.742935        20.2163 
 508   0.0000       0.744224        20.2514 
 509   0.0000       0.746996        20.3268 
 510   0.0000       0.749422        20.3928 
 511   0.0000       0.750012        20.4089 
 512   0.0000       0.755259        20.5516 
 513   0.0000       0.760075        20.6827 
 514   0.0000       0.762422        20.7465 
 515   0.0000       0.764357        20.7992 
 516   0.0000       0.764933        20.8149 
 517   0.0000       0.769061        20.9272 
 518   0.0000       0.771306        20.9883 
 519   0.0000       0.772088        21.0096 
 520   0.0000       0.774450        21.0739 
 521   0.0000       0.776654        21.1338 
 522   0.0000       0.777888        21.1674 
 523   0.0000       0.780333        21.2339 
 524   0.0000       0.781522        21.2663 
 525   0.0000       0.782668        21.2975 
 526   0.0000       0.785092        21.3634 
 527   0.0000       0.787695        21.4343 
 528   0.0000       0.790706        21.5162 
 529   0.0000       0.792315        21.5600 
 530   0.0000       0.796661        21.6783 
 531   0.0000       0.798690        21.7335 
 532   0.0000       0.802528        21.8379 
 533   0.0000       0.803581        21.8665 
 534   0.0000       0.806204        21.9379 
 535   0.0000       0.808381        21.9972 
 536   0.0000       0.812937        22.1211 
 537   0.0000       0.815112        22.1803 
 538   0.0000       0.818063        22.2606 
 539   0.0000       0.822824        22.3902 
 540   0.0000       0.823117        22.3982 
 541   0.0000       0.825185        22.4544 
 542   0.0000       0.828873        22.5548 
 543   0.0000       0.833404        22.6781 
 544   0.0000       0.836148        22.7528 
 545   0.0000       0.839650        22.8480 
 546   0.0000       0.842012        22.9123 
 547   0.0000       0.844476        22.9794 
 548   0.0000       0.845553        23.0087 
 549   0.0000       0.849550        23.1174 
 550   0.0000       0.850819        23.1520 
 551   0.0000       0.853585        23.2272 
 552   0.0000       0.857157        23.3244 
 553   0.0000       0.859896        23.3990 
 554   0.0000       0.861736        23.4490 
 555   0.0000       0.863098        23.4861 
 556   0.0000       0.866037        23.5661 
 557   0.0000       0.869971        23.6731 
 558   0.0000       0.872294        23.7363 
 559   0.0000       0.874478        23.7957 
 560   0.0000       0.880738        23.9661 
 561   0.0000       0.881152        23.9774 
 562   0.0000       0.883019        24.0282 
 563   0.0000       0.884639        24.0722 
 564   0.0000       0.887581        24.1523 
 565   0.0000       0.892815        24.2947 
 566   0.0000       0.895869        24.3778 
 567   0.0000       0.897020        24.4092 
 568   0.0000       0.897527        24.4229 
 569   0.0000       0.901231        24.5237 
 570   0.0000       0.902826        24.5671 
 571   0.0000       0.905275        24.6338 
 572   0.0000       0.907438        24.6926 
 573   0.0000       0.909506        24.7489 
 574   0.0000       0.911152        24.7937 
 575   0.0000       0.914908        24.8959 
 576   0.0000       0.919560        25.0225 
 577   0.0000       0.922939        25.1144 
 578   0.0000       0.928972        25.2786 
 579   0.0000       0.932336        25.3701 
 580   0.0000       0.935635        25.4599 
 581   0.0000       0.941699        25.6249 
 582   0.0000       0.944970        25.7139 
 583   0.0000       0.946113        25.7450 
 584   0.0000       0.951169        25.8826 
 585   0.0000       0.955268        25.9942 
 586   0.0000       0.958405        26.0795 
 587   0.0000       0.960458        26.1354 
 588   0.0000       0.970168        26.3996 
 589   0.0000       0.971668        26.4404 
 590   0.0000       0.979878        26.6638 
 591   0.0000       0.980591        26.6832 
 592   0.0000       0.982166        26.7261 
 593   0.0000       0.985573        26.8188 
 594   0.0000       0.992466        27.0064 
 595   0.0000       0.996498        27.1161 
 596   0.0000       1.001411        27.2498 
 597   0.0000       1.002196        27.2711 
 598   0.0000       1.003212        27.2988 
 599   0.0000       1.009985        27.4831 
 600   0.0000       1.010570        27.4990 
 601   0.0000       1.017768        27.6949 
 602   0.0000       1.021467        27.7955 
 603   0.0000       1.023954        27.8632 
 604   0.0000       1.025642        27.9091 
 605   0.0000       1.028685        27.9920 
 606   0.0000       1.029211        28.0063 
 607   0.0000       1.037375        28.2284 
 608   0.0000       1.041584        28.3429 
 609   0.0000       1.043155        28.3857 
 610   0.0000       1.044721        28.4283 
 611   0.0000       1.049290        28.5526 
 612   0.0000       1.050878        28.5958 
 613   0.0000       1.057715        28.7819 
 614   0.0000       1.060485        28.8573 
 615   0.0000       1.065125        28.9835 
 616   0.0000       1.068681        29.0803 
 617   0.0000       1.075012        29.2526 
 618   0.0000       1.076663        29.2975 
 619   0.0000       1.080028        29.3891 
 620   0.0000       1.082206        29.4483 
 621   0.0000       1.085461        29.5369 
 622   0.0000       1.090510        29.6743 
 623   0.0000       1.091495        29.7011 
 624   0.0000       1.098964        29.9043 
 625   0.0000       1.101329        29.9687 
 626   0.0000       1.102784        30.0083 
 627   0.0000       1.110049        30.2060 
 628   0.0000       1.114302        30.3217 
 629   0.0000       1.116324        30.3767 
 630   0.0000       1.119721        30.4692 
 631   0.0000       1.120743        30.4970 
 632   0.0000       1.125707        30.6320 
 633   0.0000       1.131000        30.7761 
 634   0.0000       1.135916        30.9099 
 635   0.0000       1.138653        30.9843 
 636   0.0000       1.139463        31.0064 
 637   0.0000       1.144716        31.1493 
 638   0.0000       1.146861        31.2077 
 639   0.0000       1.152560        31.3628 
 640   0.0000       1.159096        31.5406 
 641   0.0000       1.162517        31.6337 
 642   0.0000       1.167317        31.7643 
 643   0.0000       1.168426        31.7945 
 644   0.0000       1.169290        31.8180 
 645   0.0000       1.173972        31.9454 
 646   0.0000       1.179141        32.0861 
 647   0.0000       1.184077        32.2204 
 648   0.0000       1.190010        32.3818 
 649   0.0000       1.192444        32.4481 
 650   0.0000       1.193228        32.4694 
 651   0.0000       1.199580        32.6422 
 652   0.0000       1.202195        32.7134 
 653   0.0000       1.205453        32.8020 
 654   0.0000       1.209833        32.9212 
 655   0.0000       1.212933        33.0056 
 656   0.0000       1.214751        33.0551 
 657   0.0000       1.216548        33.1040 
 658   0.0000       1.219149        33.1747 
 659   0.0000       1.221489        33.2384 
 660   0.0000       1.223585        33.2955 
 661   0.0000       1.224905        33.3314 
 662   0.0000       1.228134        33.4192 
 663   0.0000       1.229489        33.4561 
 664   0.0000       1.232386        33.5349 
 665   0.0000       1.234120        33.5821 
 666   0.0000       1.236365        33.6432 
 667   0.0000       1.238424        33.6992 
 668   0.0000       1.242027        33.7973 
 669   0.0000       1.246250        33.9122 
 670   0.0000       1.248699        33.9788 
 671   0.0000       1.253439        34.1078 
 672   0.0000       1.254901        34.1476 
 673   0.0000       1.259389        34.2697 
 674   0.0000       1.261213        34.3193 
 675   0.0000       1.266949        34.4754 
 676   0.0000       1.268718        34.5236 
 677   0.0000       1.271091        34.5881 
 678   0.0000       1.271823        34.6081 
 679   0.0000       1.276082        34.7239 
 680   0.0000       1.277852        34.7721 
 681   0.0000       1.279940        34.8289 
 682   0.0000       1.282403        34.8960 
 683   0.0000       1.285508        34.9805 
 684   0.0000       1.288494        35.0617 
 685   0.0000       1.290478        35.1157 
 686   0.0000       1.292562        35.1724 
 687   0.0000       1.294926        35.2367 
 688   0.0000       1.297125        35.2966 
 689   0.0000       1.301192        35.4072 
 690   0.0000       1.304258        35.4907 
 691   0.0000       1.305858        35.5342 
 692   0.0000       1.310407        35.6580 
 693   0.0000       1.313035        35.7295 
 694   0.0000       1.314097        35.7584 
 695   0.0000       1.317285        35.8451 
 696   0.0000       1.321257        35.9532 
 697   0.0000       1.323347        36.0101 
 698   0.0000       1.334136        36.3037 
 699   0.0000       1.336536        36.3690 
 700   0.0000       1.344864        36.5956 
 701   0.0000       1.347535        36.6683 
 702   0.0000       1.356567        36.9141 
 703   0.0000       1.358540        36.9678 
 704   0.0000       1.363353        37.0987 
 705   0.0000       1.369210        37.2581 
 706   0.0000       1.370603        37.2960 
[...]
      pz      :     0.910863  p :     2.843128
      px      :     1.042040
      py      :     0.890226
      dz2     :     0.091511  d :     0.506106
      dxz     :     0.123008
      dyz     :     0.071942
      dx2y2   :     0.114487
      dxy     :     0.105157
      f0      :     0.006821  f :     0.056170
      f+1     :     0.009809
      f-1     :     0.005090
      f+2     :     0.006635
      f-2     :     0.010716
      f+3     :     0.010722
      f-3     :     0.006377
 75 C s       :     2.701823  s :     2.701823
      pz      :     1.006852  p :     2.837555
      px      :     0.949518
      py      :     0.881185
      dz2     :     0.116693  d :     0.507704
      dxz     :     0.138770
      dyz     :     0.078504
      dx2y2   :     0.088358
      dxy     :     0.085378
      f0      :     0.010494  f :     0.056545
      f+1     :     0.008049
      f-1     :     0.006859
      f+2     :     0.010569
      f-2     :     0.007776
      f+3     :     0.006215
      f-3     :     0.006583
 76 C s       :     2.688485  s :     2.688485
      pz      :     0.981298  p :     2.829797
      px      :     0.875994
      py      :     0.972505
      dz2     :     0.127480  d :     0.521173
      dxz     :     0.089616
      dyz     :     0.147786
      dx2y2   :     0.078622
      dxy     :     0.077668
      f0      :     0.012202  f :     0.057713
      f+1     :     0.005971
      f-1     :     0.011516
      f+2     :     0.007063
      f-2     :     0.010111
      f+3     :     0.004991
      f-3     :     0.005858
 77 C s       :     2.687037  s :     2.687037
      pz      :     0.859199  p :     2.835856
      px      :     0.989802
      py      :     0.986855
      dz2     :     0.045513  d :     0.521574
      dxz     :     0.081755
      dyz     :     0.072243
      dx2y2   :     0.159838
      dxy     :     0.162226
      f0      :     0.004099  f :     0.058023
      f+1     :     0.004840
      f-1     :     0.004542
      f+2     :     0.008419
      f-2     :     0.006330
      f+3     :     0.014588
      f-3     :     0.015205
 78 C s       :     2.694093  s :     2.694093
      pz      :     0.987505  p :     2.829221
      px      :     0.890945
      py      :     0.950770
      dz2     :     0.122787  d :     0.504178
      dxz     :     0.086398
      dyz     :     0.137281
      dx2y2   :     0.080541
      dxy     :     0.077171
      f0      :     0.011308  f :     0.055632
      f+1     :     0.006243
      f-1     :     0.010414
      f+2     :     0.006388
      f-2     :     0.009858
      f+3     :     0.005323
      f-3     :     0.006098
 79 C s       :     2.692825  s :     2.692825
      pz      :     0.870868  p :     2.831764
      px      :     0.967988
      py      :     0.992908
      dz2     :     0.045187  d :     0.497456
      dxz     :     0.074930
      dyz     :     0.074330
      dx2y2   :     0.159278
      dxy     :     0.143732
      f0      :     0.004281  f :     0.055391
      f+1     :     0.004757
      f-1     :     0.004562
      f+2     :     0.007473
      f-2     :     0.007128
      f+3     :     0.013980
      f-3     :     0.013211
 80 C s       :     2.685242  s :     2.685242
      pz      :     0.963569  p :     2.810166
      px      :     0.875255
      py      :     0.971341
      dz2     :     0.127055  d :     0.514968
      dxz     :     0.089949
      dyz     :     0.142006
      dx2y2   :     0.077990
      dxy     :     0.077968
      f0      :     0.011797  f :     0.056346
      f+1     :     0.005843
      f-1     :     0.011101
      f+2     :     0.006920
      f-2     :     0.009793
      f+3     :     0.004981
      f-3     :     0.005912
 81 C s       :     2.685675  s :     2.685675
      pz      :     0.849571  p :     2.804124
      px      :     0.985210
      py      :     0.969343
      dz2     :     0.047028  d :     0.519085
      dxz     :     0.085585
      dyz     :     0.071987
      dx2y2   :     0.153858
      dxy     :     0.160627
      f0      :     0.003879  f :     0.056237
      f+1     :     0.004738
      f-1     :     0.004414
      f+2     :     0.008122
      f-2     :     0.006592
      f+3     :     0.013632
      f-3     :     0.014861
 82 C s       :     2.688475  s :     2.688475
      pz      :     0.987623  p :     2.816913
      px      :     0.879574
      py      :     0.949716
      dz2     :     0.118735  d :     0.502597
      dxz     :     0.083538
      dyz     :     0.145235
      dx2y2   :     0.078014
      dxy     :     0.077074
      f0      :     0.010025  f :     0.054643
      f+1     :     0.005187
      f-1     :     0.012031
      f+2     :     0.007688
      f-2     :     0.008865
      f+3     :     0.004913
      f-3     :     0.005934
 83 C s       :     2.685486  s :     2.685486
      pz      :     0.903493  p :     2.835985
      px      :     0.994362
      py      :     0.938130
      dz2     :     0.044011  d :     0.481777
      dxz     :     0.080972
      dyz     :     0.063135
      dx2y2   :     0.145794
      dxy     :     0.147865
      f0      :     0.004341  f :     0.053145
      f+1     :     0.004869
      f-1     :     0.004656
      f+2     :     0.006570
      f-2     :     0.006764
      f+3     :     0.012590
      f-3     :     0.013355
 84 C s       :     2.862294  s :     2.862294
      pz      :     0.926161  p :     3.018133
      px      :     1.038730
      py      :     1.053242
      dz2     :     0.082110  d :     0.394814
      dxz     :     0.109472
      dyz     :     0.060039
      dx2y2   :     0.061806
      dxy     :     0.081387
      f0      :     0.009205  f :     0.055944
      f+1     :     0.009923
      f-1     :     0.007106
      f+2     :     0.011643
      f-2     :     0.009498
      f+3     :     0.003789
      f-3     :     0.004780
 85 C s       :     2.857794  s :     2.857794
      pz      :     1.104992  p :     3.015113
      px      :     1.102364
      py      :     0.807757
      dz2     :     0.043142  d :     0.393490
      dxz     :     0.037841
      dyz     :     0.122400
      dx2y2   :     0.100120
      dxy     :     0.089987
      f0      :     0.006193  f :     0.056848
      f+1     :     0.002498
      f-1     :     0.009780
      f+2     :     0.010163
      f-2     :     0.002154
      f+3     :     0.014774
      f-3     :     0.011286


                      *****************************
                      * MAYER POPULATION ANALYSIS *
                      *****************************

  NA   - Mulliken gross atomic population
  ZA   - Total nuclear charge
  QA   - Mulliken gross atomic charge
  VA   - Mayer's total valence
  BVA  - Mayer's bonded valence
  FA   - Mayer's free valence

  ATOM       NA         ZA         QA         VA         BVA        FA
  0 H      0.8859     1.0000     0.1141     0.9809     0.9809    -0.0000
  1 H      0.8847     1.0000     0.1153     0.9789     0.9789    -0.0000
  2 H      0.8635     1.0000     0.1365     0.9806     0.9806    -0.0000
  3 H      0.8596     1.0000     0.1404     0.9663     0.9663    -0.0000
  4 H      0.8842     1.0000     0.1158     0.9675     0.9675     0.0000
  5 H      0.8853     1.0000     0.1147     0.9675     0.9675     0.0000
  6 H      0.8835     1.0000     0.1165     0.9672     0.9672     0.0000
  7 H      0.8837     1.0000     0.1163     0.9656     0.9656    -0.0000
  8 H      0.8824     1.0000     0.1176     0.9655     0.9655    -0.0000
  9 H      0.8843     1.0000     0.1157     0.9675     0.9675     0.0000
 10 H      0.8798     1.0000     0.1202     0.9669     0.9669    -0.0000
 11 H      0.8828     1.0000     0.1172     0.9679     0.9679    -0.0000
 12 H      0.8799     1.0000     0.1201     0.9699     0.9699    -0.0000
 13 H      0.8840     1.0000     0.1160     0.9683     0.9683    -0.0000
 14 H      0.8741     1.0000     0.1259     0.9695     0.9695    -0.0000
 15 H      0.8773     1.0000     0.1227     0.9695     0.9695     0.0000
 16 H      0.8857     1.0000     0.1143     0.9891     0.9891    -0.0000
 17 H      0.8698     1.0000     0.1302     0.9736     0.9736     0.0000
 18 H      0.8564     1.0000     0.1436     0.9685     0.9685    -0.0000
 19 H      0.8719     1.0000     0.1281     0.9815     0.9815    -0.0000
 20 H      0.8830     1.0000     0.1170     0.9707     0.9707     0.0000
 21 H      0.8829     1.0000     0.1171     0.9706     0.9706    -0.0000
 22 H      0.8608     1.0000     0.1392     0.9750     0.9750    -0.0000
 23 H      0.8674     1.0000     0.1326     0.9799     0.9799    -0.0000
 24 H      0.8709     1.0000     0.1291     0.9734     0.9734     0.0000
 25 H      0.8867     1.0000     0.1133     0.9899     0.9899    -0.0000
 26 H      0.8722     1.0000     0.1278     0.9735     0.9735    -0.0000
 27 H      0.8615     1.0000     0.1385     0.9666     0.9666    -0.0000
 28 H      0.8763     1.0000     0.1237     0.9630     0.9630    -0.0000
 29 H      0.8512     1.0000     0.1488     0.9493     0.9493    -0.0000
 30 H      0.8582     1.0000     0.1418     0.9694     0.9694     0.0000
 31 H      0.8636     1.0000     0.1364     0.9698     0.9698    -0.0000
 32 H      0.8726     1.0000     0.1274     0.9520     0.9520    -0.0000
 33 H      0.8565     1.0000     0.1435     0.9547     0.9547    -0.0000
 34 N      7.1604     7.0000    -0.1604     3.0676     3.0676    -0.0000
 35 N      7.1630     7.0000    -0.1630     3.0688     3.0688    -0.0000
 36 N      7.0931     7.0000    -0.0931     3.0784     3.0784    -0.0000
 37 N      7.0990     7.0000    -0.0990     3.0788     3.0788    -0.0000
 38 O      8.3067     8.0000    -0.3067     2.0291     2.0291    -0.0000
 39 O      8.2335     8.0000    -0.2335     2.1573     2.1573     0.0000
 40 C      6.2563     6.0000    -0.2563     4.0988     4.0988    -0.0000
 41 C      6.2366     6.0000    -0.2366     4.0912     4.0912    -0.0000
 42 C      6.1111     6.0000    -0.1111     4.0979     4.0979    -0.0000
 43 C      6.1738     6.0000    -0.1738     4.1364     4.1364    -0.0000
 44 C      6.1439     6.0000    -0.1439     3.9856     3.9856    -0.0000
 45 C      6.1422     6.0000    -0.1422     3.9835     3.9835     0.0000
 46 C      6.0858     6.0000    -0.0858     3.9125     3.9125    -0.0000
 47 C      6.0631     6.0000    -0.0631     3.9005     3.9005    -0.0000
 48 C      6.0628     6.0000    -0.0628     3.9008     3.9008    -0.0000
 49 C      6.0910     6.0000    -0.0910     3.9192     3.9192    -0.0000
 50 C      6.1029     6.0000    -0.1029     3.9163     3.9163    -0.0000
 51 C      6.1273     6.0000    -0.1273     3.9294     3.9294    -0.0000
 52 C      6.1063     6.0000    -0.1063     3.9249     3.9249    -0.0000
 53 C      6.0814     6.0000    -0.0814     3.9109     3.9109    -0.0000
 54 C      6.1914     6.0000    -0.1914     3.9565     3.9565    -0.0000
 55 C      6.1894     6.0000    -0.1894     3.9450     3.9450    -0.0000
 56 C      6.2618     6.0000    -0.2618     4.0748     4.0748    -0.0000
 57 C      6.2809     6.0000    -0.2809     4.0202     4.0202    -0.0000
 58 C      6.2035     6.0000    -0.2035     3.9848     3.9848     0.0000
 59 C      6.1639     6.0000    -0.1639     3.9713     3.9713    -0.0000
 60 C      6.2294     6.0000    -0.2294     3.9358     3.9358    -0.0000
 61 C      6.2171     6.0000    -0.2171     3.9098     3.9098    -0.0000
 62 C      6.2204     6.0000    -0.2204     3.9407     3.9407     0.0000
 63 C      6.2585     6.0000    -0.2585     3.9223     3.9223    -0.0000
 64 C      6.2787     6.0000    -0.2787     4.0218     4.0218    -0.0000
 65 C      6.2589     6.0000    -0.2589     4.0733     4.0733    -0.0000
 66 C      6.3852     6.0000    -0.3852     3.9028     3.9028     0.0000
 67 C      6.3691     6.0000    -0.3691     3.9175     3.9175     0.0000
 68 C      5.6534     6.0000     0.3466     3.5878     3.5878    -0.0000
 69 C      5.6672     6.0000     0.3328     3.6098     3.6098    -0.0000
 70 C      5.7503     6.0000     0.2497     3.9265     3.9265    -0.0000
 71 C      5.7512     6.0000     0.2488     3.9276     3.9276    -0.0000
 72 C      5.7460     6.0000     0.2540     3.7722     3.7722    -0.0000
 73 C      5.7815     6.0000     0.2185     3.9238     3.9238    -0.0000
 74 C      5.9718     6.0000     0.0282     3.6189     3.6189    -0.0000
 75 C      5.9158     6.0000     0.0842     3.6464     3.6464    -0.0000
 76 C      5.8115     6.0000     0.1885     3.7632     3.7632    -0.0000
 77 C      5.8355     6.0000     0.1645     3.8111     3.8111     0.0000
 78 C      5.8309     6.0000     0.1691     3.5861     3.5861    -0.0000
 79 C      5.8175     6.0000     0.1825     3.5230     3.5230    -0.0000
 80 C      5.8840     6.0000     0.1160     3.5950     3.5950     0.0000
 81 C      6.0026     6.0000    -0.0026     3.6795     3.6795     0.0000
 82 C      6.1612     6.0000    -0.1612     3.0292     3.0292     0.0000
 83 C      5.9035     6.0000     0.0965     2.6813     2.6813    -0.0000
 84 C      6.2288     6.0000    -0.2288     3.8825     3.8825     0.0000
 85 C      6.2166     6.0000    -0.2166     3.9270     3.9270    -0.0000

  Mayer bond orders larger than 0.100000
B(  0-H , 40-C ) :   0.9864 B(  1-H , 41-C ) :   0.9812 B(  2-H , 42-C ) :   0.9824 
B(  3-H , 43-C ) :   0.9821 B(  4-H , 44-C ) :   0.9627 B(  5-H , 45-C ) :   0.9632 
B(  6-H , 46-C ) :   0.9581 B(  7-H , 47-C ) :   0.9632 B(  8-H , 48-C ) :   0.9624 
B(  9-H , 49-C ) :   0.9580 B( 10-H , 50-C ) :   0.9680 B( 11-H , 51-C ) :   0.9712 
B( 12-H , 52-C ) :   0.9687 B( 13-H , 53-C ) :   0.9714 B( 14-H , 54-C ) :   0.9711 
B( 15-H , 55-C ) :   0.9693 B( 16-H , 56-C ) :   0.9748 B( 17-H , 57-C ) :   0.9606 
B( 18-H , 58-C ) :   0.9599 B( 19-H , 59-C ) :   0.9703 B( 20-H , 60-C ) :   0.9862 
B( 21-H , 61-C ) :   0.9845 B( 22-H , 62-C ) :   0.9527 B( 23-H , 63-C ) :   0.9530 
B( 24-H , 64-C ) :   0.9613 B( 25-H , 65-C ) :   0.9745 B( 26-H , 66-C ) :   0.9938 
B( 27-H , 67-C ) :   0.9874 B( 28-H , 84-C ) :   0.9661 B( 29-H , 84-C ) :   0.9628 
B( 30-H , 84-C ) :   0.9708 B( 31-H , 85-C ) :   0.9637 B( 32-H , 85-C ) :   0.9570 
B( 33-H , 85-C ) :   0.9624 B( 34-N , 42-C ) :   1.6056 B( 34-N , 68-C ) :   1.3265 
B( 35-N , 43-C ) :   1.6019 B( 35-N , 69-C ) :   1.3379 B( 36-N , 40-C ) :   1.9380 
B( 36-N , 70-C ) :   1.0686 B( 37-N , 41-C ) :   1.9203 B( 37-N , 71-C ) :   1.0767 
B( 38-O , 72-C ) :   1.0014 B( 38-O , 84-C ) :   0.9359 B( 39-O , 73-C ) :   1.2058 
B( 39-O , 85-C ) :   0.9407 B( 40-C , 68-C ) :   0.9280 B( 41-C , 69-C ) :   0.9413 
B( 42-C , 74-C ) :   1.2858 B( 43-C , 75-C ) :   1.3228 B( 44-C , 46-C ) :   1.4242 
B( 44-C , 48-C ) :   1.4071 B( 45-C , 47-C ) :   1.4071 B( 45-C , 49-C ) :   1.4232 
B( 46-C , 64-C ) :   1.4172 B( 47-C , 65-C ) :   1.4355 B( 48-C , 56-C ) :   1.4347 
B( 49-C , 57-C ) :   1.4208 B( 50-C , 52-C ) :   1.2666 B( 50-C , 60-C ) :   1.5318 
B( 51-C , 53-C ) :   1.2740 B( 51-C , 61-C ) :   1.5188 B( 52-C , 62-C ) :   1.5461 
B( 53-C , 63-C ) :   1.5409 B( 54-C , 58-C ) :   1.4267 B( 54-C , 68-C ) :   1.3497 
B( 55-C , 59-C ) :   1.4332 B( 55-C , 69-C ) :   1.3325 B( 56-C , 70-C ) :   1.3974 
B( 57-C , 71-C ) :   1.3495 B( 58-C , 74-C ) :   1.4253 B( 59-C , 75-C ) :   1.3676 
B( 60-C , 76-C ) :   1.2238 B( 61-C , 77-C ) :   1.2239 B( 62-C , 80-C ) :   1.3106 
B( 63-C , 81-C ) :   1.2911 B( 63-C , 83-C ) :  -0.1116 B( 64-C , 70-C ) :   1.3546 
B( 65-C , 71-C ) :   1.3991 B( 66-C , 76-C ) :   1.1852 B( 66-C , 78-C ) :   1.4563 
B( 67-C , 77-C ) :   1.1783 B( 67-C , 79-C ) :   1.4905 B( 72-C , 78-C ) :   1.2491 
B( 72-C , 82-C ) :   1.3864 B( 73-C , 79-C ) :   1.2055 B( 73-C , 83-C ) :   1.3178 
B( 74-C , 78-C ) :   0.8266 B( 75-C , 79-C ) :   0.8590 B( 76-C , 80-C ) :   1.2751 
B( 77-C , 81-C ) :   1.3324 B( 80-C , 82-C ) :   1.0911 B( 81-C , 83-C ) :   1.0361 
B( 82-C , 83-C ) :   0.5299 

-------
TIMINGS
-------

Total SCF time: 0 days 0 hours 18 min 20 sec 

Total time                  ....    1100.378 sec
Sum of individual times     ....    1088.730 sec  ( 98.9%)

Fock matrix formation       ....    1019.115 sec  ( 92.6%)
  XC integration            ....      22.842 sec  (  2.2% of F)
    Basis function eval.    ....       2.607 sec  ( 11.4% of XC)
    Density eval.           ....       8.309 sec  ( 36.4% of XC)
    XC-Functional eval.     ....       0.252 sec  (  1.1% of XC)
    XC-Potential eval.      ....       4.279 sec  ( 18.7% of XC)
Diagonalization             ....       8.460 sec  (  0.8%)
Density matrix formation    ....       0.922 sec  (  0.1%)
Population analysis         ....       5.130 sec  (  0.5%)
Initial guess               ....       2.422 sec  (  0.2%)
Orbital Transformation      ....       0.000 sec  (  0.0%)
Orbital Orthonormalization  ....       0.000 sec  (  0.0%)
DIIS solution               ....      32.970 sec  (  3.0%)
SOSCF solution              ....       4.763 sec  (  0.4%)
Grid generation             ....      14.949 sec  (  1.4%)


-------------------------------------------------------------------------------
                          DFT DISPERSION CORRECTION                            
                                                                               
                                 DFTD4 V2.0                                    
-------------------------------------------------------------------------------
The PBE0 functional is recognized
Active option DFTDOPT                   ...         5   

-------------------------   ----------------
Dispersion correction           -0.122311531
-------------------------   ----------------


-------------------------   --------------------
FINAL SINGLE POINT ENERGY     -2141.136785600081
-------------------------   --------------------


                            ***************************************
                            *     ORCA property calculations      *
                            ***************************************

                                    ---------------------
                                    Active property flags
                                    ---------------------
   (+) Dipole Moment


------------------------------------------------------------------------------
                       ORCA ELECTRIC PROPERTIES CALCULATION
------------------------------------------------------------------------------

Dipole Moment Calculation                       ... on
Quadrupole Moment Calculation                   ... off
Polarizability Calculation                      ... off
GBWName                                         ... _fe7dd_xtb_dft_sg86_1_0.gbw
Electron density file                           ... _fe7dd_xtb_dft_sg86_1_0.scfp
The origin for moment calculation is the CENTER OF MASS  = (22.183118, 18.009828 25.666386)

-------------
DIPOLE MOMENT
-------------
                                X             Y             Z
Electronic contribution:      1.46496      -3.51101       6.93329
Nuclear contribution   :      0.60043       4.11504      -5.41026
                        -----------------------------------------
Total Dipole Moment    :      2.06538       0.60403       1.52304
                        -----------------------------------------
Magnitude (a.u.)       :      2.63634
Magnitude (Debye)      :      6.70105



--------------------
Rotational spectrum 
--------------------
 
Rotational constants in cm-1:     0.001774     0.000785     0.000609 
Rotational constants in MHz :    53.169180    23.532739    18.258811 

 Dipole components along the rotational axes: 
x,y,z [a.u.] :    -1.304520     2.244570     0.458725 
x,y,z [Debye]:    -3.315827     5.705243     1.165986 

 

Timings for individual modules:

Sum of individual times         ...     1189.571 sec (=  19.826 min)
GTO integral calculation        ...       44.203 sec (=   0.737 min)   3.7 %
SCF iterations                  ...     1145.369 sec (=  19.089 min)  96.3 %
                             ****ORCA TERMINATED NORMALLY****
TOTAL RUN TIME: 0 days 0 hours 20 minutes 36 seconds 945 msec
