 Entering Gaussian System, Link 0=g16
 Input=m4_l1.com
 Output=m4_l1.log
 Initial command:
 /apps/gaussian/g16-c01-avx/g16/l1.exe "/rds/general/user/vposligu/home/work/Pd2L4_cages/New_Cages/original/SP-PBE0_def2svp-solvent/m4_l1/Gau-1472485.inp" -scrdir="/rds/general/user/vposligu/home/work/Pd2L4_cages/New_Cages/original/SP-PBE0_def2svp-solvent/m4_l1/"
 Entering Link 1 = /apps/gaussian/g16-c01-avx/g16/l1.exe PID=   1472486.
  
 Copyright (c) 1988-2019, Gaussian, Inc.  All Rights Reserved.
  
 This is part of the Gaussian(R) 16 program.  It is based on
 the Gaussian(R) 09 system (copyright 2009, Gaussian, Inc.),
 the Gaussian(R) 03 system (copyright 2003, Gaussian, Inc.),
 the Gaussian(R) 98 system (copyright 1998, Gaussian, Inc.),
 the Gaussian(R) 94 system (copyright 1995, Gaussian, Inc.),
 the Gaussian 92(TM) system (copyright 1992, Gaussian, Inc.),
 the Gaussian 90(TM) system (copyright 1990, Gaussian, Inc.),
 the Gaussian 88(TM) system (copyright 1988, Gaussian, Inc.),
 the Gaussian 86(TM) system (copyright 1986, Carnegie Mellon
 University), and the Gaussian 82(TM) system (copyright 1983,
 Carnegie Mellon University). Gaussian is a federally registered
 trademark of Gaussian, Inc.
  
 This software contains proprietary and confidential information,
 including trade secrets, belonging to Gaussian, Inc.
  
 This software is provided under written license and may be
 used, copied, transmitted, or stored only in accord with that
 written license.
  
 The following legend is applicable only to US Government
 contracts under FAR:
  
                    RESTRICTED RIGHTS LEGEND
  
 Use, reproduction and disclosure by the US Government is
 subject to restrictions as set forth in subparagraphs (a)
 and (c) of the Commercial Computer Software - Restricted
 Rights clause in FAR 52.227-19.
  
 Gaussian, Inc.
 340 Quinnipiac St., Bldg. 40, Wallingford CT 06492
  
  
 ---------------------------------------------------------------
 Warning -- This program may not be used in any manner that
 competes with the business of Gaussian, Inc. or will provide
 assistance to any competitor of Gaussian, Inc.  The licensee
 of this program is prohibited from giving any competitor of
 Gaussian, Inc. access to this program.  By using this program,
 the user acknowledges that Gaussian, Inc. is engaged in the
 business of creating and licensing software in the field of
 computational chemistry and represents and warrants to the
 licensee that it is not a competitor of Gaussian, Inc. and that
 it will not use this program in any manner prohibited above.
 ---------------------------------------------------------------
  

 Cite this work as:
 Gaussian 16, Revision C.01,
 M. J. Frisch, G. W. Trucks, H. B. Schlegel, G. E. Scuseria, 
 M. A. Robb, J. R. Cheeseman, G. Scalmani, V. Barone, 
 G. A. Petersson, H. Nakatsuji, X. Li, M. Caricato, A. V. Marenich, 
 J. Bloino, B. G. Janesko, R. Gomperts, B. Mennucci, H. P. Hratchian, 
 J. V. Ortiz, A. F. Izmaylov, J. L. Sonnenberg, D. Williams-Young, 
 F. Ding, F. Lipparini, F. Egidi, J. Goings, B. Peng, A. Petrone, 
 T. Henderson, D. Ranasinghe, V. G. Zakrzewski, J. Gao, N. Rega, 
 G. Zheng, W. Liang, M. Hada, M. Ehara, K. Toyota, R. Fukuda, 
 J. Hasegawa, M. Ishida, T. Nakajima, Y. Honda, O. Kitao, H. Nakai, 
 T. Vreven, K. Throssell, J. A. Montgomery, Jr., J. E. Peralta, 
 F. Ogliaro, M. J. Bearpark, J. J. Heyd, E. N. Brothers, K. N. Kudin, 
 V. N. Staroverov, T. A. Keith, R. Kobayashi, J. Normand, 
 K. Raghavachari, A. P. Rendell, J. C. Burant, S. S. Iyengar, 
 J. Tomasi, M. Cossi, J. M. Millam, M. Klene, C. Adamo, R. Cammi, 
 J. W. Ochterski, R. L. Martin, K. Morokuma, O. Farkas, 
 J. B. Foresman, and D. J. Fox, Gaussian, Inc., Wallingford CT, 2019.
 
 ******************************************
 Gaussian 16:  ES64L-G16RevC.01  3-Jul-2019
                 2-Jan-2023 
 ******************************************
 %nprocshared=48
 Will use up to   48 processors via shared memory.
 %mem=120GB
 %chk=m4_l1_opt.chk
 ------------------------------------------------------------------
 # SP PBE1PBE/def2svp empiricaldispersion=GD3BJ scrf=(solvent=dmso)
 ------------------------------------------------------------------
 1/38=1,172=1/1;
 2/12=2,17=6,18=5,40=1/2;
 3/5=43,7=101,11=2,25=1,30=1,70=2201,72=21,74=-13,124=41/1,2,3;
 4//1;
 5/5=2,38=5,53=21/2;
 6/7=2,8=2,9=2,10=2,28=1/1;
 99/5=1,9=1/99;
 -----
 m4_l1
 -----
 Symbolic Z-matrix:
 Charge =  8 Multiplicity = 1
 Pd                    10.193   -1.778     0.086 
 Pd                    0.954     9.094    -0.122 
 Pd                   -9.908    -0.119     0.763 
 Pd                   -0.667    -10.993    0.958 
 C                     9.123     0.308     1.738 
 N                     10.295   -0.233     1.382 
 C                     11.413    0.431     1.693 
 C                     11.4      1.653     2.335 
 C                     10.182    2.254     2.682 
 C                     10.096    3.568     3.313 
 C                     11.096    3.998     4.205 
 C                     11.034    5.223     4.835 
 C                     9.951     6.041     4.549 
 O                     9.706     7.266     5.055 
 C                     8.547     7.694     4.516 
 C                     7.911     8.902     4.761 
 C                     6.725     9.146     4.102 
 C                     6.155     8.209     3.221 
 C                     4.885     8.491     2.56 
 C                     3.979     7.46      2.263 
 C                     2.81      7.739     1.594 
 N                     2.472     8.974     1.205 
 C                     3.302     9.978     1.508 
 C                     4.494     9.782     2.176 
 C                     6.805     6.995     2.984 
 C                     8.004     6.738     3.625 
 C                     8.937     5.639     3.647 
 C                     9.008     4.4       3.035 
 C                     9.024     1.521     2.378 
 H                     8.227    -0.266     1.498 
 H                     12.352   -0.039     1.411 
 H                     12.334    2.15      2.541 
 H                     11.916    3.339     4.438 
 H                     11.796    5.54      5.528 
 H                     8.334     9.618     5.446 
 H                     6.203     10.068    4.303 
 H                     4.185     6.449     2.574 
 H                     2.104     6.942     1.36 
 H                     2.995     10.973    1.198 
 H                     5.132     10.628    2.374 
 H                     6.405     6.279     2.281 
 H                     8.252     4.105     2.324 
 H                     8.053     1.894     2.663 
 C                     8.993     0.134    -1.683 
 N                     10.191   -0.373    -1.364 
 C                     11.28     0.251    -1.826 
 C                     11.213    1.401    -2.587 
 C                     9.97      1.969    -2.9 
 C                     9.831     3.211    -3.654 
 C                     10.758    3.544    -4.658 
 C                     10.644    4.697    -5.405 
 C                     9.581     5.543    -5.125 
 O                     9.293     6.71     -5.734 
 C                     8.176     7.195    -5.157 
 C                     7.518     8.373    -5.477 
 C                     6.384     8.688    -4.758 
 C                     5.887     7.85     -3.744 
 C                     4.67      8.203    -3.021 
 C                     3.794     7.212    -2.55 
 C                     2.678     7.562    -1.826 
 N                     2.366     8.833    -1.541 
 C                     3.167     9.797    -2.009 
 C                     4.305     9.528    -2.743 
 C                     6.558     6.664    -3.433 
 C                     7.706     6.338    -4.133 
 C                     8.64      5.24     -4.112 
 C                     8.764     4.071    -3.382 
 C                     8.841     1.274    -2.436 
 H                     8.12     -0.409    -1.319 
 H                     12.239   -0.191    -1.569 
 H                     12.127    1.871    -2.912 
 H                     11.562    2.861    -4.883 
 H                     11.35     4.939    -6.183 
 H                     7.885     9.013    -6.263 
 H                     5.844     9.586    -5.014 
 H                     3.979     6.173    -2.771 
 H                     1.995     6.797    -1.458 
 H                     2.881     10.82    -1.78 
 H                     4.922     10.347   -3.076 
 H                     6.216     6.027    -2.631 
 H                     8.064     3.853    -2.589 
 H                     7.851     1.62     -2.682 
 C                     8.815    -3.476     1.94 
 N                     10.056   -3.171     1.541 
 C                     11.056   -3.967     1.933 
 C                     10.852   -5.095     2.703 
 C                     9.556    -5.453     3.1 
 C                     9.265    -6.66      3.868 
 C                     10.189   -7.145     4.812 
 C                     9.937    -8.269     5.571 
 C                     8.735    -8.928     5.364 
 O                     8.301    -10.037    5.996 
 C                     7.085    -10.33     5.495 
 C                     6.266    -11.388    5.863 
 C                     5.051    -11.509    5.221 
 C                     4.632    -10.595    4.238 
 C                     3.328    -10.74     3.598 
 C                     2.597    -9.616     3.182 
 C                     1.394    -9.775     2.536 
 N                     0.86     -10.976    2.278 
 C                     1.521    -12.06     2.697 
 C                     2.734    -11.986    3.352 
 C                     5.466    -9.533     3.878 
 C                     6.695    -9.402     4.5 
 C                     7.792    -8.47      4.412 
 C                     8.057    -7.333     3.671 
 C                     8.528    -4.581     2.707 
 H                     8.021    -2.796     1.631 
 H                     12.056   -3.687     1.611 
 H                     11.696   -5.71      2.97 
 H                     11.106   -6.603     4.981 
 H                     10.643   -8.626     6.302 
 H                     6.574    -12.083    6.626 
 H                     4.39     -12.308    5.516 
 H                     2.964    -8.623     3.384 
 H                     0.822    -8.906     2.209 
 H                     1.057    -13.021    2.493 
 H                     3.23     -12.897    3.647 
 H                     5.181    -8.843     3.097 
 H                     7.352    -7.        2.924 
 H                     7.512    -4.761     3.02 
 C                     8.688    -3.651    -1.479 
 N                     9.954    -3.312    -1.205 
 C                     10.925   -4.147    -1.587 
 C                     10.669   -5.347    -2.221 
 C                     9.349    -5.739    -2.483 
 C                     9.007    -7.016    -3.101 
 C                     9.861    -7.598    -4.056 
 C                     9.558    -8.792    -4.676 
 C                     8.376    -9.422    -4.316 
 O                     7.9      -10.586   -4.8 
 C                     6.724    -10.822   -4.184 
 C                     5.884    -11.908   -4.383 
 C                     4.72     -11.959   -3.645 
 C                     4.372    -10.948   -2.73 
 C                     3.12     -11.023   -1.984 
 C                     2.417    -9.86     -1.631 
 C                     1.266    -9.948    -0.884 
 N                     0.757    -11.114   -0.468 
 C                     1.389    -12.238   -0.823 
 C                     2.55     -12.235   -1.571 
 C                     5.227    -9.859    -2.541 
 C                     6.406    -9.797    -3.262 
 C                     7.504    -8.866    -3.35 
 C                     7.819    -7.66     -2.749 
 C                     8.35     -4.827    -2.106 
 H                     7.916    -2.94     -1.183 
 H                     11.945   -3.839    -1.37 
 H                     11.494   -5.989    -2.486 
 H                     10.762   -7.08     -4.345 
 H                     10.209   -9.225    -5.417 
 H                     6.137    -12.678   -5.092 
 H                     4.041    -12.781   -3.808 
 H                     2.765    -8.893    -1.96 
 H                     0.717    -9.048    -0.606 
 H                     0.945    -13.172   -0.488 
 H                     3.026    -13.173   -1.808 
 H                     4.997    -9.093    -1.816 
 H                     7.169    -7.25     -1.989 
 H                     7.314    -5.034    -2.324 
 C                    -8.707    -2.033     2.531 
 N                    -9.905    -1.526     2.212 
 C                    -10.994   -2.15      2.673 
 C                    -10.927   -3.301     3.432 
 C                    -9.684    -3.869     3.745 
 C                    -9.545    -5.113     4.496 
 C                    -10.473   -5.447     5.5 
 C                    -10.359   -6.602     6.245 
 C                    -9.297    -7.448     5.962 
 O                    -9.01     -8.617     6.569 
 C                    -7.893    -9.102     5.99 
 C                    -7.236    -10.281    6.308 
 C                    -6.102    -10.595    5.589 
 C                    -5.604    -9.754     4.577 
 C                    -4.386    -10.107    3.854 
 C                    -3.51     -9.114     3.386 
 C                    -2.393    -9.464     2.663 
 N                    -2.081    -10.734    2.376 
 C                    -2.882    -11.698    2.841 
 C                    -4.021    -11.431    3.574 
 C                    -6.275    -8.568     4.268 
 C                    -7.423    -8.243     4.969 
 C                    -8.356    -7.144     4.95 
 C                    -8.479    -5.973     4.223 
 C                    -8.555    -3.175     3.282 
 H                    -7.834    -1.489     2.167 
 H                    -11.953   -1.708     2.416 
 H                    -11.841   -3.772     3.757 
 H                    -11.276   -4.764     5.726 
 H                    -11.065   -6.845     7.022 
 H                    -7.603    -10.923    7.092 
 H                    -5.562    -11.494    5.842 
 H                    -3.695    -8.076     3.608 
 H                    -1.709    -8.697     2.297 
 H                    -2.596    -12.721    2.611 
 H                    -4.639    -12.251    3.904 
 H                    -5.931    -7.929     3.468 
 H                    -7.779    -5.754     3.43 
 H                    -7.564    -3.52      3.528 
 C                    -8.837    -2.204    -0.889 
 N                    -10.009   -1.664    -0.534 
 C                    -11.127   -2.327    -0.847 
 C                    -11.113   -3.548    -1.491 
 C                    -9.894    -4.149    -1.838 
 C                    -9.807    -5.46     -2.471 
 C                    -10.806   -5.889    -3.365 
 C                    -10.743   -7.113    -3.999 
 C                    -9.659    -7.93     -3.715 
 O                    -9.413    -9.153    -4.224 
 C                    -8.254    -9.582    -3.686 
 C                    -7.617    -10.789   -3.935 
 C                    -6.431    -11.034   -3.275 
 C                    -5.863    -10.1     -2.389 
 C                    -4.594    -10.383   -1.728 
 C                    -3.689    -9.353    -1.427 
 C                    -2.521    -9.634    -0.757 
 N                    -2.184    -10.87    -0.37 
 C                    -3.013    -11.873   -0.677 
 C                    -4.204    -11.676   -1.347 
 C                    -6.514    -8.887    -2.15 
 C                    -7.712    -8.629    -2.791 
 C                    -8.646    -7.53     -2.811 
 C                    -8.72     -6.293    -2.195 
 C                    -8.737    -3.415    -1.532 
 H                    -7.941    -1.63     -0.648 
 H                    -12.066   -1.858    -0.565 
 H                    -12.047   -4.045    -1.698 
 H                    -11.627   -5.23     -3.596 
 H                    -11.504   -7.428    -4.694 
 H                    -8.039    -11.503   -4.622 
 H                    -5.908    -11.955   -3.478 
 H                    -3.894    -8.341    -1.735 
 H                    -1.815    -8.838    -0.519 
 H                    -2.707    -12.869   -0.369 
 H                    -4.842    -12.521   -1.548 
 H                    -6.115    -8.173    -1.444 
 H                    -7.963    -5.999    -1.483 
 H                    -7.766    -3.787    -1.816 
 C                    -0.978     8.049     1.722 
 N                    -0.469     9.216     1.305 
 C                    -1.101     10.339    1.66 
 C                    -2.261     10.337    2.409 
 C                    -2.831     9.124     2.823 
 C                    -4.082     9.049     3.571 
 C                    -4.429     10.061    4.485 
 C                    -5.591     10.009    5.226 
 C                    -6.431     8.923     5.03 
 O                    -7.605     8.686     5.649 
 C                    -8.081     7.521     5.168 
 C                    -9.261     6.89      5.531 
 C                    -9.566     5.696     4.911 
 C                    -8.714     5.114     3.954 
 C                    -9.057     3.838     3.336 
 C                    -8.059     2.926     2.956 
 C                    -8.4       1.752     2.328 
 N                    -9.666     1.413     2.056 
 C                    -10.637    2.248     2.441 
 C                    -10.379    3.447     3.077 
 C                    -7.527     5.759     3.599 
 C                    -7.211     6.965     4.199 
 C                    -6.114     7.897     4.108 
 C                    -4.937     7.959     3.385 
 C                    -2.128     7.961     2.47 
 H                    -0.429     7.149     1.443 
 H                    -0.657     11.273    1.325 
 H                    -2.737     11.274    2.646 
 H                    -3.751     10.883    4.646 
 H                    -5.843     10.78     5.935 
 H                    -9.911     7.322     6.274 
 H                    -10.465    5.178     5.203 
 H                    -7.024     3.133     3.171 
 H                    -7.629     1.04      2.029 
 H                    -11.657    1.941     2.226 
 H                    -11.202    4.089     3.344 
 H                    -6.879     5.35      2.838 
 H                    -4.708     7.193     2.659 
 H                    -2.475     6.995     2.798 
 C                    -1.109     7.876    -1.698 
 N                    -0.575     9.076    -1.44 
 C                    -1.236     10.161   -1.857 
 C                    -2.45      10.088   -2.51 
 C                    -3.045     8.842    -2.756 
 C                    -4.351     8.698    -3.392 
 C                    -4.771     9.614    -4.374 
 C                    -5.987     9.494    -5.013 
 C                    -6.806     8.436    -4.644 
 O                    -8.024     8.144    -5.143 
 C                    -8.457     7.036    -4.511 
 C                    -9.66      6.377    -4.715 
 C                    -9.911     5.252    -3.957 
 C                    -8.986     4.766    -3.016 
 C                    -9.275     3.558    -2.249 
 C                    -8.246     2.686    -1.859 
 C                    -8.532     1.58     -1.092 
 N                    -9.773     1.275    -0.69 
 C                    -10.773    2.072    -1.08 
 C                    -10.57     3.2      -1.849 
 C                    -7.776     5.438    -2.821 
 C                    -7.512     6.576    -3.562 
 C                    -6.415     7.507    -3.651 
 C                    -5.184     7.636    -3.032 
 C                    -2.314     7.718    -2.342 
 H                    -0.537     7.006    -1.373 
 H                    -0.771     11.122   -1.653 
 H                    -2.946     10.999   -2.803 
 H                    -4.11      10.413   -4.67 
 H                    -6.297     10.19    -5.775 
 H                    -10.367    6.736    -5.445 
 H                    -10.829    4.712    -4.124 
 H                    -7.231     2.865    -2.174 
 H                    -7.738     0.899    -0.785 
 H                    -11.772    1.792    -0.757 
 H                    -11.415    3.816    -2.115 
 H                    -7.069     5.103    -2.076 
 H                    -4.897     6.945    -2.253 
 H                    -2.682     6.725    -2.544 
 
 Stoichiometry    C176H112N16O8Pd4(8+)
 Framework group  C1[X(C176H112N16O8Pd4)]
 Deg. of freedom   942
 Full point group                 C1      NOp   1
 Largest Abelian subgroup         C1      NOp   1
 Largest concise Abelian subgroup C1      NOp   1
                         Standard orientation:                         
 ---------------------------------------------------------------------
 Center     Atomic      Atomic             Coordinates (Angstroms)
 Number     Number       Type             X           Y           Z
 ---------------------------------------------------------------------
      1         46           0       -6.936837   -7.326451   -0.003501
      2         46           0       -7.327145    6.937152    0.003665
      3         46           0        6.937948    7.327940   -0.003030
      4         46           0        7.327298   -6.938326    0.002804
      5          6           0       -7.429177   -5.080089   -1.717227
      6          7           0       -7.961756   -6.261144   -1.378894
      7          6           0       -9.215738   -6.517850   -1.765120
      8          6           0       -9.980486   -5.607933   -2.467137
      9          6           0       -9.454254   -4.351395   -2.797783
     10          6           0      -10.226727   -3.324125   -3.490714
     11          6           0      -11.201146   -3.683297   -4.440487
     12          6           0      -11.932220   -2.738265   -5.128828
     13          6           0      -11.690080   -1.402622   -4.843813
     14          8           0      -12.292834   -0.333800   -5.401482
     15          6           0      -11.750040    0.765583   -4.841378
     16          6           0      -12.067052    2.086197   -5.122924
     17          6           0      -11.389033    3.068205   -4.432735
     18          6           0      -10.395703    2.762766   -3.484562
     19          6           0       -9.680700    3.829188   -2.791122
     20          6           0       -8.338886    3.671041   -2.408327
     21          6           0       -7.697438    4.667857   -1.710570
     22          7           0       -8.293151    5.817334   -1.372015
     23          6           0       -9.560125    6.006090   -1.756559
     24          6           0      -10.274025    5.055674   -2.458384
     25          6           0      -10.084602    1.428236   -3.211226
     26          6           0      -10.764735    0.428094   -3.883285
     27          6           0      -10.724531   -1.013140   -3.884946
     28          6           0       -9.989703   -1.974824   -3.214202
     29          6           0       -8.124141   -4.119391   -2.413542
     30          1           0       -6.395741   -4.905608   -1.414804
     31          1           0       -9.617884   -7.491342   -1.495420
     32          1           0      -10.992965   -5.864668   -2.733171
     33          1           0      -11.357051   -4.724289   -4.670703
     34          1           0      -12.666802   -3.020051   -5.865285
     35          1           0      -12.816032    2.327841   -5.858755
     36          1           0      -11.602942    4.100418   -4.660218
     37          1           0       -7.799145    2.777372   -2.675375
     38          1           0       -6.656258    4.549420   -1.410044
     39          1           0      -10.014085    6.955315   -1.485882
     40          1           0      -11.299546    5.256442   -2.722889
     41          1           0       -9.353829    1.171450   -2.458300
     42          1           0       -9.275352   -1.680456   -2.461120
     43          1           0       -7.633402   -3.196728   -2.680121
     44          6           0       -7.428435   -5.080325    1.710661
     45          7           0       -7.961199   -6.261814    1.372638
     46          6           0       -9.214837   -6.519332    1.760990
     47          6           0       -9.978345   -5.609530    2.464855
     48          6           0       -9.452409   -4.352668    2.795507
     49          6           0      -10.223271   -3.326404    3.490457
     50          6           0      -11.196195   -3.685492    4.440566
     51          6           0      -11.925906   -2.742233    5.132085
     52          6           0      -11.682243   -1.406130    4.850057
     53          8           0      -12.283429   -0.337923    5.409722
     54          6           0      -11.740732    0.761987    4.851582
     55          6           0      -12.056387    2.081976    5.136257
     56          6           0      -11.379002    3.065002    4.445639
     57          6           0      -10.388561    2.760978    3.494827
     58          6           0       -9.674564    3.827675    2.801434
     59          6           0       -8.334148    3.669734    2.414605
     60          6           0       -7.693150    4.666713    1.716547
     61          7           0       -8.290442    5.817256    1.379644
     62          6           0       -9.556947    6.005175    1.767681
     63          6           0      -10.268880    5.053888    2.470791
     64          6           0      -10.077794    1.426464    3.219047
     65          6           0      -10.757077    0.425666    3.890730
     66          6           0      -10.718344   -1.015480    3.889978
     67          6           0       -9.986457   -1.977113    3.215856
     68          6           0       -8.121617   -4.121278    2.410262
     69          1           0       -6.395352   -4.905626    1.407852
     70          1           0       -9.617131   -7.492029    1.490593
     71          1           0      -10.990847   -5.866415    2.730884
     72          1           0      -11.352575   -4.727978    4.669254
     73          1           0      -12.659973   -3.024188    5.869602
     74          1           0      -12.804185    2.322707    5.874451
     75          1           0      -11.591838    4.097044    4.676139
     76          1           0       -7.793082    2.775852    2.680706
     77          1           0       -6.653111    4.549262    1.413787
     78          1           0      -10.011798    6.954527    1.498223
     79          1           0      -11.293680    5.255174    2.738386
     80          1           0       -9.349582    1.171065    2.463788
     81          1           0       -9.271911   -1.681496    2.461928
     82          1           0       -7.631645   -3.199433    2.675707
     83          6           0       -4.666697   -7.692181   -1.715841
     84          7           0       -5.816861   -8.289363   -1.379981
     85          6           0       -6.005414   -9.554503   -1.768759
     86          6           0       -5.054612  -10.267007   -2.472472
     87          6           0       -3.828386   -9.672490   -2.801577
     88          6           0       -2.760419  -10.385626   -3.496010
     89          6           0       -3.065522  -11.375443   -4.448539
     90          6           0       -2.082394  -12.052768   -5.139662
     91          6           0       -0.762878  -11.737514   -4.854306
     92          8           0        0.337648  -12.280521   -5.412559
     93          6           0        1.405519  -11.679963   -4.851767
     94          6           0        2.741837  -11.924556   -5.134569
     95          6           0        3.685641  -11.194949   -4.441793
     96          6           0        3.327215  -10.222832   -3.491129
     97          6           0        4.353273   -9.451650   -2.795770
     98          6           0        4.121902   -8.121881   -2.409796
     99          6           0        5.081858   -7.428514   -1.711561
    100          7           0        6.262894   -7.962140   -1.373157
    101          6           0        6.519822   -9.215422   -1.761501
    102          6           0        5.609623   -9.978823   -2.464798
    103          6           0        1.977579   -9.985382   -3.217080
    104          6           0        1.015471  -10.716654   -3.890930
    105          6           0       -0.426163  -10.754993   -3.891709
    106          6           0       -1.426499  -10.076903   -3.219699
    107          6           0       -3.669721   -8.332087   -2.414585
    108          1           0       -4.548810   -6.651992   -1.411821
    109          1           0       -6.955055  -10.010240   -1.499369
    110          1           0       -5.255563  -11.291716   -2.739753
    111          1           0       -4.097639  -11.586882   -4.679279
    112          1           0       -2.323954  -12.799079   -5.877845
    113          1           0        3.023225  -12.656856   -5.872550
    114          1           0        4.727463  -11.351490   -4.670811
    115          1           0        3.200086   -7.630751   -2.675480
    116          1           0        4.907729   -6.395791   -1.407527
    117          1           0        7.492281   -9.617918   -1.491771
    118          1           0        5.866233  -10.991626   -2.731899
    119          1           0        1.681316   -9.271944   -2.461752
    120          1           0       -1.170681   -9.348919   -2.464372
    121          1           0       -2.775372   -7.791148   -2.679445
    122          6           0       -4.667394   -7.695189    1.709988
    123          7           0       -5.817124   -8.292113    1.371527
    124          6           0       -6.006061   -9.557309    1.758273
    125          6           0       -5.055567  -10.271251    2.461365
    126          6           0       -3.829653   -9.677834    2.792572
    127          6           0       -2.762955  -10.391812    3.486841
    128          6           0       -3.068979  -11.383513    4.437075
    129          6           0       -2.086687  -12.061766    5.127669
    130          6           0       -0.766252  -11.745320    4.844934
    131          8           0        0.333038  -12.287366    5.404823
    132          6           0        1.402360  -11.684958    4.846449
    133          6           0        2.737837  -11.929330    5.131725
    134          6           0        3.682539  -11.198807    4.441787
    135          6           0        3.324228  -10.225462    3.490649
    136          6           0        4.350813   -9.454106    2.797267
    137          6           0        4.120260   -8.123552    2.412744
    138          6           0        5.080509   -7.429354    1.715203
    139          7           0        6.261375   -7.961990    1.378237
    140          6           0        6.518585   -9.216072    1.765468
    141          6           0        5.607474   -9.980179    2.467927
    142          6           0        1.974987   -9.988754    3.214634
    143          6           0        1.012861  -10.721324    3.886483
    144          6           0       -0.428849  -10.761076    3.885717
    145          6           0       -1.429230  -10.081675    3.213025
    146          6           0       -3.671518   -8.336582    2.407981
    147          1           0       -4.549055   -6.654128    1.407816
    148          1           0       -6.955850  -10.012251    1.487566
    149          1           0       -5.257346  -11.296766    2.727106
    150          1           0       -4.101571  -11.596446    4.665240
    151          1           0       -2.327872  -12.809646    5.864471
    152          1           0        3.018935  -12.662455    5.868680
    153          1           0        4.724706  -11.354762    4.671698
    154          1           0        3.197011   -7.632497    2.679034
    155          1           0        4.906090   -6.396426    1.413007
    156          1           0        7.491562   -9.618516    1.495151
    157          1           0        5.863999  -10.993120    2.733887
    158          1           0        1.680452   -9.274169    2.461044
    159          1           0       -1.172288   -9.351811    2.458386
    160          1           0       -2.777192   -7.795794    2.675183
    161          6           0        7.430074    5.079670   -1.716131
    162          7           0        7.962837    6.261159   -1.378108
    163          6           0        9.216414    6.518690   -1.765461
    164          6           0        9.980464    5.608168   -2.467280
    165          6           0        9.454528    4.351306   -2.797932
    166          6           0       10.226537    3.323591   -3.489786
    167          6           0       11.200870    3.682604   -4.439807
    168          6           0       11.931790    2.737882   -5.129229
    169          6           0       11.688684    1.402483   -4.844169
    170          8           0       12.291822    0.333482   -5.401699
    171          6           0       11.749001   -0.766404   -4.841564
    172          6           0       12.065941   -2.086444   -5.124154
    173          6           0       11.387891   -3.068726   -4.433587
    174          6           0       10.394831   -2.763163   -3.484960
    175          6           0        9.680092   -3.830528   -2.791605
    176          6           0        8.338529   -3.671136   -2.407871
    177          6           0        7.696849   -4.668796   -1.710849
    178          7           0        8.293351   -5.818570   -1.372001
    179          6           0        9.559670   -6.006452   -1.757043
    180          6           0       10.273617   -5.055972   -2.459016
    181          6           0       10.084188   -1.428674   -3.211177
    182          6           0       10.764200   -0.428632   -3.883806
    183          6           0       10.724181    1.012565   -3.885139
    184          6           0        9.990404    1.974980   -3.214150
    185          6           0        8.124464    4.119159   -2.413634
    186          1           0        6.396324    4.905715   -1.413372
    187          1           0        9.618708    7.491387   -1.495064
    188          1           0       10.993632    5.864309   -2.733258
    189          1           0       11.356569    4.724409   -4.669531
    190          1           0       12.666461    3.019104   -5.865698
    191          1           0       12.814949   -2.328638   -5.860251
    192          1           0       11.601207   -4.101475   -4.661042
    193          1           0        7.798191   -2.778010   -2.674919
    194          1           0        6.654859   -4.550549   -1.410224
    195          1           0       10.014460   -6.955791   -1.486588
    196          1           0       11.299641   -5.257297   -2.723529
    197          1           0        9.353282   -1.173148   -2.458090
    198          1           0        9.275192    1.680108   -2.460273
    199          1           0        7.633082    3.197391   -2.679168
    200          6           0        7.428879    5.081654    1.710608
    201          7           0        7.962062    6.261977    1.373324
    202          6           0        9.215254    6.519452    1.761494
    203          6           0        9.978469    5.609636    2.465420
    204          6           0        9.451494    4.352430    2.796027
    205          6           0       10.221101    3.326748    3.490765
    206          6           0       11.193986    3.686022    4.442446
    207          6           0       11.923404    2.741115    5.134690
    208          6           0       11.679730    1.405572    4.851583
    209          8           0       12.280222    0.337608    5.412107
    210          6           0       11.738033   -0.762507    4.853051
    211          6           0       12.053388   -2.082995    5.138502
    212          6           0       11.376097   -3.065761    4.447365
    213          6           0       10.386562   -2.761278    3.494430
    214          6           0        9.672968   -3.827777    2.801078
    215          6           0        8.332812   -3.669755    2.414379
    216          6           0        7.693501   -4.667404    1.715763
    217          7           0        8.290500   -5.816932    1.379292
    218          6           0        9.555816   -6.005562    1.767740
    219          6           0       10.268184   -5.055045    2.471473
    220          6           0       10.076994   -1.426850    3.219185
    221          6           0       10.755718   -0.426631    3.891156
    222          6           0       10.716381    1.015246    3.890860
    223          6           0        9.985362    1.977396    3.216338
    224          6           0        8.121581    4.121813    2.409778
    225          1           0        6.395505    4.907160    1.407187
    226          1           0        9.618066    7.492200    1.491845
    227          1           0       10.990886    5.866383    2.732452
    228          1           0       11.350758    4.727657    4.670704
    229          1           0       12.655786    3.023745    5.873004
    230          1           0       12.800169   -2.323794    5.876190
    231          1           0       11.588473   -4.097873    4.676756
    232          1           0        7.791847   -2.776048    2.678344
    233          1           0        6.653234   -4.549760    1.411295
    234          1           0       10.011062   -6.954838    1.499147
    235          1           0       11.292853   -5.255032    2.738921
    236          1           0        9.348482   -1.170921    2.463405
    237          1           0        9.270997    1.681603    2.462271
    238          1           0        7.630238    3.199882    2.675308
    239          6           0       -5.080976    7.427487   -1.710768
    240          7           0       -6.262571    7.960879   -1.372854
    241          6           0       -6.519114    9.214217   -1.760035
    242          6           0       -5.609350    9.978388   -2.463580
    243          6           0       -4.351961    9.451559   -2.793868
    244          6           0       -3.325996   10.222222   -3.489284
    245          6           0       -3.685777   11.195655   -4.439512
    246          6           0       -2.741710   11.924061   -5.132469
    247          6           0       -1.406048   11.679651   -4.850187
    248          8           0       -0.337360   12.279942   -5.411580
    249          6           0        0.762783   11.737115   -4.854634
    250          6           0        2.082583   12.051444   -5.140389
    251          6           0        3.066361   11.374526   -4.449719
    252          6           0        2.761700   10.384187   -3.497414
    253          6           0        3.828474    9.671621   -2.803157
    254          6           0        3.670897    8.331074   -2.415534
    255          6           0        4.667608    7.693186   -1.716531
    256          7           0        5.817462    8.290085   -1.380066
    257          6           0        6.006585    9.555243   -1.769806
    258          6           0        5.055394   10.267081   -2.474919
    259          6           0        1.427866   10.075499   -3.220616
    260          6           0        0.426680   10.754244   -3.892348
    261          6           0       -1.015139   10.715942   -3.890133
    262          6           0       -1.975902    9.984733   -3.216212
    263          6           0       -4.121408    8.121005   -2.409345
    264          1           0       -4.906618    6.394571   -1.407574
    265          1           0       -7.492091    9.616662   -1.489718
    266          1           0       -5.865209   10.990585   -2.729489
    267          1           0       -4.727325   11.352303   -4.667390
    268          1           0       -3.024217   12.657262   -5.869512
    269          1           0        2.323814   12.797887   -5.879174
    270          1           0        4.097652   11.586086   -4.680954
    271          1           0        2.777128    7.790991   -2.679705
    272          1           0        4.550493    6.652086   -1.411277
    273          1           0        6.955831   10.010904   -1.501146
    274          1           0        5.255811   11.291235   -2.742732
    275          1           0        1.171682    9.347728   -2.464954
    276          1           0       -1.680686    9.270828   -2.461586
    277          1           0       -3.199631    7.630037   -2.674725
    278          6           0       -5.080096    7.428651    1.716109
    279          7           0       -6.260466    7.961533    1.377756
    280          6           0       -6.517935    9.215534    1.764053
    281          6           0       -5.607536    9.980322    2.465342
    282          6           0       -4.350443    9.453817    2.796352
    283          6           0       -3.323317   10.227030    3.487743
    284          6           0       -3.682270   11.201291    4.437346
    285          6           0       -2.738204   11.932273    5.127116
    286          6           0       -1.401824   11.687668    4.843315
    287          8           0       -0.333009   12.290281    5.402136
    288          6           0        0.766108   11.747350    4.843795
    289          6           0        2.086552   12.063235    5.126195
    290          6           0        3.069541   11.384510    4.436082
    291          6           0        2.764176   10.393317    3.486561
    292          6           0        3.831261    9.678114    2.793100
    293          6           0        3.671667    8.337080    2.409065
    294          6           0        4.668566    7.695762    1.710333
    295          7           0        5.818916    8.292907    1.371479
    296          6           0        6.006927    9.558766    1.758210
    297          6           0        5.056929   10.271926    2.460964
    298          6           0        1.429312   10.082540    3.212221
    299          6           0        0.429053   10.762042    3.884218
    300          6           0       -1.011976   10.722971    3.884488
    301          6           0       -1.974425    9.988912    3.213656
    302          6           0       -4.119196    8.124073    2.412374
    303          1           0       -4.905424    6.395209    1.414122
    304          1           0       -7.491138    9.617362    1.494286
    305          1           0       -5.864022   10.993101    2.730446
    306          1           0       -4.724154   11.357844    4.667363
    307          1           0       -3.018710   12.666641    5.864123
    308          1           0        2.327585   12.811689    5.863317
    309          1           0        4.101193   11.598080    4.664763
    310          1           0        2.778604    7.796091    2.676009
    311          1           0        4.551221    6.654854    1.408360
    312          1           0        6.955886   10.013823    1.487785
    313          1           0        5.258019   11.298035    2.727234
    314          1           0        1.173217    9.351756    2.458915
    315          1           0       -1.679105    9.273419    2.460300
    316          1           0       -3.196636    7.633612    2.678095
 ---------------------------------------------------------------------
 Rotational constants (GHZ):           0.0024692           0.0024688           0.0014548
 Standard basis: def2SVP (5D, 7F)
 There are  3704 symmetry adapted cartesian basis functions of A   symmetry.
 There are  3484 symmetry adapted basis functions of A   symmetry.
  3484 basis functions,  6044 primitive gaussians,  3704 cartesian basis functions
   704 alpha electrons      704 beta electrons
       nuclear repulsion energy     50423.5727287214 Hartrees.
 NAtoms=  316 NActive=  316 NUniq=  316 SFac= 1.00D+00 NAtFMM=   60 NAOKFM=T Big=T
 Integral buffers will be    131072 words long.
 Raffenetti 2 integral format.
 Two-electron integral symmetry is turned on.
 Nuclear repulsion after empirical dispersion term =    50423.0648839310 Hartrees.
 ------------------------------------------------------------------------------
 Polarizable Continuum Model (PCM)
 =================================
 Model                : PCM.
 Atomic radii         : UFF (Universal Force Field).
 Polarization charges : Total charges.
 Charge compensation  : None.
 Solution method      : On-the-fly selection.
 Cavity type          : Scaled VdW (van der Waals Surface) (Alpha=1.100).
 Cavity algorithm     : GePol (No added spheres)
                        Default sphere list used, NSphG=  316.
                        Lebedev-Laikov grids with approx.  5.0 points / Ang**2.
                        Smoothing algorithm: York/Karplus (Gamma=1.0000).
                        Polarization charges: spherical gaussians, with
                                              point-specific exponents (IZeta= 3).
                        Self-potential: point-specific (ISelfS= 7).
                        Self-field    : sphere-specific E.n sum rule (ISelfD= 2).
 Solvent              : DiMethylSulfoxide, Eps=  46.826000 Eps(inf)=   2.007889
 ------------------------------------------------------------------------------
 One-electron integrals computed using PRISM.
   1 Symmetry operations used in ECPInt.
 ECPInt:  NShTT= 1248990 NPrTT= 4613162 LenC2=  330240 LenP2D=  689668.
 LDataN:  DoStor=T MaxTD1= 7 Len=  274
 Number of processors reduced to  35 by ecpmxn.
 NBasis=  3484 RedAO= T EigKep=  2.17D-04  NBF=  3484
 NBsUse=  3484 1.00D-06 EigRej= -1.00D+00 NBFU=  3484
 Defaulting to unpruned grid for atomic number  46.
 ExpMin= 3.70D-02 ExpMax= 2.27D+03 ExpMxC= 3.41D+02 IAcc=3 IRadAn=         5 AccDes= 0.00D+00
 Harris functional with IExCor= 1009 and IRadAn=       5 diagonalized for initial guess.
 HarFok:  IExCor= 1009 AccDes= 0.00D+00 IRadAn=         5 IDoV= 1 UseB2=F ITyADJ=14
 ICtDFT=  3500011 ScaDFX=  1.000000  1.000000  1.000000  1.000000
 Defaulting to unpruned grid for atomic number  46.
 FoFCou: FMM=F IPFlag=           0 FMFlag=      100000 FMFlg1=        2001
         NFxFlg=           0 DoJE=T BraDBF=F KetDBF=T FulRan=T
         wScrn=  0.000000 ICntrl=       500 IOpCl=  0 I1Cent=   200000004 NGrid=           0
         NMat0=    1 NMatS0=      1 NMatT0=    0 NMatD0=    1 NMtDS0=    0 NMtDT0=    0
 Petite list used in FoFCou.
 Requested convergence on RMS density matrix=1.00D-08 within 128 cycles.
 Requested convergence on MAX density matrix=1.00D-06.
 Requested convergence on             energy=1.00D-06.
 No special actions if energy rises.
 Defaulting to unpruned grid for atomic number  46.
 Defaulting to unpruned grid for atomic number  46.
 Defaulting to unpruned grid for atomic number  46.
 Defaulting to unpruned grid for atomic number  46.
 Defaulting to unpruned grid for atomic number  46.
 Defaulting to unpruned grid for atomic number  46.
 Defaulting to unpruned grid for atomic number  46.
 Defaulting to unpruned grid for atomic number  46.
 Defaulting to unpruned grid for atomic number  46.
 Defaulting to unpruned grid for atomic number  46.
 Defaulting to unpruned grid for atomic number  46.
 Defaulting to unpruned grid for atomic number  46.
 Defaulting to unpruned grid for atomic number  46.
 Defaulting to unpruned grid for atomic number  46.
 Defaulting to unpruned grid for atomic number  46.
 Defaulting to unpruned grid for atomic number  46.
 Defaulting to unpruned grid for atomic number  46.
 Defaulting to unpruned grid for atomic number  46.
 Defaulting to unpruned grid for atomic number  46.
 Defaulting to unpruned grid for atomic number  46.
 Defaulting to unpruned grid for atomic number  46.
 Defaulting to unpruned grid for atomic number  46.
 Defaulting to unpruned grid for atomic number  46.
 Defaulting to unpruned grid for atomic number  46.
 Defaulting to unpruned grid for atomic number  46.
 Defaulting to unpruned grid for atomic number  46.
 Defaulting to unpruned grid for atomic number  46.
 Defaulting to unpruned grid for atomic number  46.
 Defaulting to unpruned grid for atomic number  46.
 Defaulting to unpruned grid for atomic number  46.
 Defaulting to unpruned grid for atomic number  46.
 Defaulting to unpruned grid for atomic number  46.
 Defaulting to unpruned grid for atomic number  46.
 Defaulting to unpruned grid for atomic number  46.
 Defaulting to unpruned grid for atomic number  46.
 Defaulting to unpruned grid for atomic number  46.
 Defaulting to unpruned grid for atomic number  46.
 Defaulting to unpruned grid for atomic number  46.
 Defaulting to unpruned grid for atomic number  46.
 Defaulting to unpruned grid for atomic number  46.
 Defaulting to unpruned grid for atomic number  46.
 Defaulting to unpruned grid for atomic number  46.
 Defaulting to unpruned grid for atomic number  46.
 Defaulting to unpruned grid for atomic number  46.
 Defaulting to unpruned grid for atomic number  46.
 Defaulting to unpruned grid for atomic number  46.
 Defaulting to unpruned grid for atomic number  46.
 Defaulting to unpruned grid for atomic number  46.
 Inv3:  Mode=1 IEnd=  1431874227.
 Iteration    1 A*A^-1 deviation from unit magnitude is 1.60D-14 for  21840.
 Iteration    1 A*A^-1 deviation from orthogonality  is 8.10D-15 for   8684   7682.
 Iteration    1 A^-1*A deviation from unit magnitude is 1.71D-14 for  21840.
 Iteration    1 A^-1*A deviation from orthogonality  is 4.77D-15 for  21812  18806.
 EnCoef did   100 forward-backward iterations
 Error on total polarization charges =  0.03809
 SCF Done:  E(RPBE1PBE) =  -8748.01845112     A.U. after   16 cycles
            NFock= 16  Conv=0.16D-08     -V/T= 2.0477
 Hyperfine terms turned off by default for NAtoms > 100.

 **********************************************************************

            Population analysis using the SCF Density.

 **********************************************************************

 Orbital symmetries:
       Occupied  (A) (A) (A) (A) (A) (A) (A) (A) (A) (A) (A) (A)
                 (A) (A) (A) (A) (A) (A) (A) (A) (A) (A) (A) (A)
                 (A) (A) (A) (A) (A) (A) (A) (A) (A) (A) (A) (A)
                 (A) (A) (A) (A) (A) (A) (A) (A) (A) (A) (A) (A)
                 (A) (A) (A) (A) (A) (A) (A) (A) (A) (A) (A) (A)
                 (A) (A) (A) (A) (A) (A) (A) (A) (A) (A) (A) (A)
                 (A) (A) (A) (A) (A) (A) (A) (A) (A) (A) (A) (A)
                 (A) (A) (A) (A) (A) (A) (A) (A) (A) (A) (A) (A)
                 (A) (A) (A) (A) (A) (A) (A) (A) (A) (A) (A) (A)
                 (A) (A) (A) (A) (A) (A) (A) (A) (A) (A) (A) (A)
                 (A) (A) (A) (A) (A) (A) (A) (A) (A) (A) (A) (A)
                 (A) (A) (A) (A) (A) (A) (A) (A) (A) (A) (A) (A)
                 (A) (A) (A) (A) (A) (A) (A) (A) (A) (A) (A) (A)
                 (A) (A) (A) (A) (A) (A) (A) (A) (A) (A) (A) (A)
                 (A) (A) (A) (A) (A) (A) (A) (A) (A) (A) (A) (A)
                 (A) (A) (A) (A) (A) (A) (A) (A) (A) (A) (A) (A)
                 (A) (A) (A) (A) (A) (A) (A) (A) (A) (A) (A) (A)
                 (A) (A) (A) (A) (A) (A) (A) (A) (A) (A) (A) (A)
                 (A) (A) (A) (A) (A) (A) (A) (A) (A) (A) (A) (A)
                 (A) (A) (A) (A) (A) (A) (A) (A) (A) (A) (A) (A)
                 (A) (A) (A) (A) (A) (A) (A) (A) (A) (A) (A) (A)
                 (A) (A) (A) (A) (A) (A) (A) (A) (A) (A) (A) (A)
                 (A) (A) (A) (A) (A) (A) (A) (A) (A) (A) (A) (A)
                 (A) (A) (A) (A) (A) (A) (A) (A) (A) (A) (A) (A)
                 (A) (A) (A) (A) (A) (A) (A) (A) (A) (A) (A) (A)
                 (A) (A) (A) (A) (A) (A) (A) (A) (A) (A) (A) (A)
                 (A) (A) (A) (A) (A) (A) (A) (A) (A) (A) (A) (A)
                 (A) (A) (A) (A) (A) (A) (A) (A) (A) (A) (A) (A)
                 (A) (A) (A) (A) (A) (A) (A) (A) (A) (A) (A) (A)
                 (A) (A) (A) (A) (A) (A) (A) (A) (A) (A) (A) (A)
                 (A) (A) (A) (A) (A) (A) (A) (A) (A) (A) (A) (A)
                 (A) (A) (A) (A) (A) (A) (A) (A) (A) (A) (A) (A)
                 (A) (A) (A) (A) (A) (A) (A) (A) (A) (A) (A) (A)
                 (A) (A) (A) (A) (A) (A) (A) (A) (A) (A) (A) (A)
                 (A) (A) (A) (A) (A) (A) (A) (A) (A) (A) (A) (A)
                 (A) (A) (A) (A) (A) (A) (A) (A) (A) (A) (A) (A)
                 (A) (A) (A) (A) (A) (A) (A) (A) (A) (A) (A) (A)
                 (A) (A) (A) (A) (A) (A) (A) (A) (A) (A) (A) (A)
                 (A) (A) (A) (A) (A) (A) (A) (A) (A) (A) (A) (A)
                 (A) (A) (A) (A) (A) (A) (A) (A) (A) (A) (A) (A)
                 (A) (A) (A) (A) (A) (A) (A) (A) (A) (A) (A) (A)
                 (A) (A) (A) (A) (A) (A) (A) (A) (A) (A) (A) (A)
                 (A) (A) (A) (A) (A) (A) (A) (A) (A) (A) (A) (A)
                 (A) (A) (A) (A) (A) (A) (A) (A) (A) (A) (A) (A)
                 (A) (A) (A) (A) (A) (A) (A) (A) (A) (A) (A) (A)
                 (A) (A) (A) (A) (A) (A) (A) (A) (A) (A) (A) (A)
                 (A) (A) (A) (A) (A) (A) (A) (A) (A) (A) (A) (A)
                 (A) (A) (A) (A) (A) (A) (A) (A) (A) (A) (A) (A)
                 (A) (A) (A) (A) (A) (A) (A) (A) (A) (A) (A) (A)
                 (A) (A) (A) (A) (A) (A) (A) (A) (A) (A) (A) (A)
                 (A) (A) (A) (A) (A) (A) (A) (A) (A) (A) (A) (A)
                 (A) (A) (A) (A) (A) (A) (A) (A) (A) (A) (A) (A)
                 (A) (A) (A) (A) (A) (A) (A) (A) (A) (A) (A) (A)
                 (A) (A) (A) (A) (A) (A) (A) (A) (A) (A) (A) (A)
                 (A) (A) (A) (A) (A) (A) (A) (A) (A) (A) (A) (A)
                 (A) (A) (A) (A) (A) (A) (A) (A) (A) (A) (A) (A)
                 (A) (A) (A) (A) (A) (A) (A) (A) (A) (A) (A) (A)
                 (A) (A) (A) (A) (A) (A) (A) (A) (A) (A) (A) (A)
                 (A) (A) (A) (A) (A) (A) (A) (A)
       Virtual   (A) (A) (A) (A) (A) (A) (A) (A) (A) (A) (A) (A)
                 (A) (A) (A) (A) (A) (A) (A) (A) (A) (A) (A) (A)
                 (A) (A) (A) (A) (A) (A) (A) (A) (A) (A) (A) (A)
                 (A) (A) (A) (A) (A) (A) (A) (A) (A) (A) (A) (A)
                 (A) (A) (A) (A) (A) (A) (A) (A) (A) (A) (A) (A)
                 (A) (A) (A) (A) (A) (A) (A) (A) (A) (A) (A) (A)
                 (A) (A) (A) (A) (A) (A) (A) (A) (A) (A) (A) (A)
                 (A) (A) (A) (A) (A) (A) (A) (A) (A) (A) (A) (A)
                 (A) (A) (A) (A) (A) (A) (A) (A) (A) (A) (A) (A)
                 (A) (A) (A) (A) (A) (A) (A) (A) (A) (A) (A) (A)
                 (A) (A) (A) (A) (A) (A) (A) (A) (A) (A) (A) (A)
                 (A) (A) (A) (A) (A) (A) (A) (A) (A) (A) (A) (A)
                 (A) (A) (A) (A) (A) (A) (A) (A) (A) (A) (A) (A)
                 (A) (A) (A) (A) (A) (A) (A) (A) (A) (A) (A) (A)
                 (A) (A) (A) (A) (A) (A) (A) (A) (A) (A) (A) (A)
                 (A) (A) (A) (A) (A) (A) (A) (A) (A) (A) (A) (A)
                 (A) (A) (A) (A) (A) (A) (A) (A) (A) (A) (A) (A)
                 (A) (A) (A) (A) (A) (A) (A) (A) (A) (A) (A) (A)
                 (A) (A) (A) (A) (A) (A) (A) (A) (A) (A) (A) (A)
                 (A) (A) (A) (A) (A) (A) (A) (A) (A) (A) (A) (A)
                 (A) (A) (A) (A) (A) (A) (A) (A) (A) (A) (A) (A)
                 (A) (A) (A) (A) (A) (A) (A) (A) (A) (A) (A) (A)
                 (A) (A) (A) (A) (A) (A) (A) (A) (A) (A) (A) (A)
                 (A) (A) (A) (A) (A) (A) (A) (A) (A) (A) (A) (A)
                 (A) (A) (A) (A) (A) (A) (A) (A) (A) (A) (A) (A)
                 (A) (A) (A) (A) (A) (A) (A) (A) (A) (A) (A) (A)
                 (A) (A) (A) (A) (A) (A) (A) (A) (A) (A) (A) (A)
                 (A) (A) (A) (A) (A) (A) (A) (A) (A) (A) (A) (A)
                 (A) (A) (A) (A) (A) (A) (A) (A) (A) (A) (A) (A)
                 (A) (A) (A) (A) (A) (A) (A) (A) (A) (A) (A) (A)
                 (A) (A) (A) (A) (A) (A) (A) (A) (A) (A) (A) (A)
                 (A) (A) (A) (A) (A) (A) (A) (A) (A) (A) (A) (A)
                 (A) (A) (A) (A) (A) (A) (A) (A) (A) (A) (A) (A)
                 (A) (A) (A) (A) (A) (A) (A) (A) (A) (A) (A) (A)
                 (A) (A) (A) (A) (A) (A) (A) (A) (A) (A) (A) (A)
                 (A) (A) (A) (A) (A) (A) (A) (A) (A) (A) (A) (A)
                 (A) (A) (A) (A) (A) (A) (A) (A) (A) (A) (A) (A)
                 (A) (A) (A) (A) (A) (A) (A) (A) (A) (A) (A) (A)
                 (A) (A) (A) (A) (A) (A) (A) (A) (A) (A) (A) (A)
                 (A) (A) (A) (A) (A) (A) (A) (A) (A) (A) (A) (A)
                 (A) (A) (A) (A) (A) (A) (A) (A) (A) (A) (A) (A)
                 (A) (A) (A) (A) (A) (A) (A) (A) (A) (A) (A) (A)
                 (A) (A) (A) (A) (A) (A) (A) (A) (A) (A) (A) (A)
                 (A) (A) (A) (A) (A) (A) (A) (A) (A) (A) (A) (A)
                 (A) (A) (A) (A) (A) (A) (A) (A) (A) (A) (A) (A)
                 (A) (A) (A) (A) (A) (A) (A) (A) (A) (A) (A) (A)
                 (A) (A) (A) (A) (A) (A) (A) (A) (A) (A) (A) (A)
                 (A) (A) (A) (A) (A) (A) (A) (A) (A) (A) (A) (A)
                 (A) (A) (A) (A) (A) (A) (A) (A) (A) (A) (A) (A)
                 (A) (A) (A) (A) (A) (A) (A) (A) (A) (A) (A) (A)
                 (A) (A) (A) (A) (A) (A) (A) (A) (A) (A) (A) (A)
                 (A) (A) (A) (A) (A) (A) (A) (A) (A) (A) (A) (A)
                 (A) (A) (A) (A) (A) (A) (A) (A) (A) (A) (A) (A)
                 (A) (A) (A) (A) (A) (A) (A) (A) (A) (A) (A) (A)
                 (A) (A) (A) (A) (A) (A) (A) (A) (A) (A) (A) (A)
                 (A) (A) (A) (A) (A) (A) (A) (A) (A) (A) (A) (A)
                 (A) (A) (A) (A) (A) (A) (A) (A) (A) (A) (A) (A)
                 (A) (A) (A) (A) (A) (A) (A) (A) (A) (A) (A) (A)
                 (A) (A) (A) (A) (A) (A) (A) (A) (A) (A) (A) (A)
                 (A) (A) (A) (A) (A) (A) (A) (A) (A) (A) (A) (A)
                 (A) (A) (A) (A) (A) (A) (A) (A) (A) (A) (A) (A)
                 (A) (A) (A) (A) (A) (A) (A) (A) (A) (A) (A) (A)
                 (A) (A) (A) (A) (A) (A) (A) (A) (A) (A) (A) (A)
                 (A) (A) (A) (A) (A) (A) (A) (A) (A) (A) (A) (A)
                 (A) (A) (A) (A) (A) (A) (A) (A) (A) (A) (A) (A)
                 (A) (A) (A) (A) (A) (A) (A) (A) (A) (A) (A) (A)
                 (A) (A) (A) (A) (A) (A) (A) (A) (A) (A) (A) (A)
                 (A) (A) (A) (A) (A) (A) (A) (A) (A) (A) (A) (A)
                 (A) (A) (A) (A) (A) (A) (A) (A) (A) (A) (A) (A)
                 (A) (A) (A) (A) (A) (A) (A) (A) (A) (A) (A) (A)
                 (A) (A) (A) (A) (A) (A) (A) (A) (A) (A) (A) (A)
                 (A) (A) (A) (A) (A) (A) (A) (A) (A) (A) (A) (A)
                 (A) (A) (A) (A) (A) (A) (A) (A) (A) (A) (A) (A)
                 (A) (A) (A) (A) (A) (A) (A) (A) (A) (A) (A) (A)
                 (A) (A) (A) (A) (A) (A) (A) (A) (A) (A) (A) (A)
                 (A) (A) (A) (A) (A) (A) (A) (A) (A) (A) (A) (A)
                 (A) (A) (A) (A) (A) (A) (A) (A) (A) (A) (A) (A)
                 (A) (A) (A) (A) (A) (A) (A) (A) (A) (A) (A) (A)
                 (A) (A) (A) (A) (A) (A) (A) (A) (A) (A) (A) (A)
                 (A) (A) (A) (A) (A) (A) (A) (A) (A) (A) (A) (A)
                 (A) (A) (A) (A) (A) (A) (A) (A) (A) (A) (A) (A)
                 (A) (A) (A) (A) (A) (A) (A) (A) (A) (A) (A) (A)
                 (A) (A) (A) (A) (A) (A) (A) (A) (A) (A) (A) (A)
                 (A) (A) (A) (A) (A) (A) (A) (A) (A) (A) (A) (A)
                 (A) (A) (A) (A) (A) (A) (A) (A) (A) (A) (A) (A)
                 (A) (A) (A) (A) (A) (A) (A) (A) (A) (A) (A) (A)
                 (A) (A) (A) (A) (A) (A) (A) (A) (A) (A) (A) (A)
                 (A) (A) (A) (A) (A) (A) (A) (A) (A) (A) (A) (A)
                 (A) (A) (A) (A) (A) (A) (A) (A) (A) (A) (A) (A)
                 (A) (A) (A) (A) (A) (A) (A) (A) (A) (A) (A) (A)
                 (A) (A) (A) (A) (A) (A) (A) (A) (A) (A) (A) (A)
                 (A) (A) (A) (A) (A) (A) (A) (A) (A) (A) (A) (A)
                 (A) (A) (A) (A) (A) (A) (A) (A) (A) (A) (A) (A)
                 (A) (A) (A) (A) (A) (A) (A) (A) (A) (A) (A) (A)
                 (A) (A) (A) (A) (A) (A) (A) (A) (A) (A) (A) (A)
                 (A) (A) (A) (A) (A) (A) (A) (A) (A) (A) (A) (A)
                 (A) (A) (A) (A) (A) (A) (A) (A) (A) (A) (A) (A)
                 (A) (A) (A) (A) (A) (A) (A) (A) (A) (A) (A) (A)
                 (A) (A) (A) (A) (A) (A) (A) (A) (A) (A) (A) (A)
                 (A) (A) (A) (A) (A) (A) (A) (A) (A) (A) (A) (A)
                 (A) (A) (A) (A) (A) (A) (A) (A) (A) (A) (A) (A)
                 (A) (A) (A) (A) (A) (A) (A) (A) (A) (A) (A) (A)
                 (A) (A) (A) (A) (A) (A) (A) (A) (A) (A) (A) (A)
                 (A) (A) (A) (A) (A) (A) (A) (A) (A) (A) (A) (A)
                 (A) (A) (A) (A) (A) (A) (A) (A) (A) (A) (A) (A)
                 (A) (A) (A) (A) (A) (A) (A) (A) (A) (A) (A) (A)
                 (A) (A) (A) (A) (A) (A) (A) (A) (A) (A) (A) (A)
                 (A) (A) (A) (A) (A) (A) (A) (A) (A) (A) (A) (A)
                 (A) (A) (A) (A) (A) (A) (A) (A) (A) (A) (A) (A)
                 (A) (A) (A) (A) (A) (A) (A) (A) (A) (A) (A) (A)
                 (A) (A) (A) (A) (A) (A) (A) (A) (A) (A) (A) (A)
                 (A) (A) (A) (A) (A) (A) (A) (A) (A) (A) (A) (A)
                 (A) (A) (A) (A) (A) (A) (A) (A) (A) (A) (A) (A)
                 (A) (A) (A) (A) (A) (A) (A) (A) (A) (A) (A) (A)
                 (A) (A) (A) (A) (A) (A) (A) (A) (A) (A) (A) (A)
                 (A) (A) (A) (A) (A) (A) (A) (A) (A) (A) (A) (A)
                 (A) (A) (A) (A) (A) (A) (A) (A) (A) (A) (A) (A)
                 (A) (A) (A) (A) (A) (A) (A) (A) (A) (A) (A) (A)
                 (A) (A) (A) (A) (A) (A) (A) (A) (A) (A) (A) (A)
                 (A) (A) (A) (A) (A) (A) (A) (A) (A) (A) (A) (A)
                 (A) (A) (A) (A) (A) (A) (A) (A) (A) (A) (A) (A)
                 (A) (A) (A) (A) (A) (A) (A) (A) (A) (A) (A) (A)
                 (A) (A) (A) (A) (A) (A) (A) (A) (A) (A) (A) (A)
                 (A) (A) (A) (A) (A) (A) (A) (A) (A) (A) (A) (A)
                 (A) (A) (A) (A) (A) (A) (A) (A) (A) (A) (A) (A)
                 (A) (A) (A) (A) (A) (A) (A) (A) (A) (A) (A) (A)
                 (A) (A) (A) (A) (A) (A) (A) (A) (A) (A) (A) (A)
                 (A) (A) (A) (A) (A) (A) (A) (A) (A) (A) (A) (A)
                 (A) (A) (A) (A) (A) (A) (A) (A) (A) (A) (A) (A)
                 (A) (A) (A) (A) (A) (A) (A) (A) (A) (A) (A) (A)
                 (A) (A) (A) (A) (A) (A) (A) (A) (A) (A) (A) (A)
                 (A) (A) (A) (A) (A) (A) (A) (A) (A) (A) (A) (A)
                 (A) (A) (A) (A) (A) (A) (A) (A) (A) (A) (A) (A)
                 (A) (A) (A) (A) (A) (A) (A) (A) (A) (A) (A) (A)
                 (A) (A) (A) (A) (A) (A) (A) (A) (A) (A) (A) (A)
                 (A) (A) (A) (A) (A) (A) (A) (A) (A) (A) (A) (A)
                 (A) (A) (A) (A) (A) (A) (A) (A) (A) (A) (A) (A)
                 (A) (A) (A) (A) (A) (A) (A) (A) (A) (A) (A) (A)
                 (A) (A) (A) (A) (A) (A) (A) (A) (A) (A) (A) (A)
                 (A) (A) (A) (A) (A) (A) (A) (A) (A) (A) (A) (A)
                 (A) (A) (A) (A) (A) (A) (A) (A) (A) (A) (A) (A)
                 (A) (A) (A) (A) (A) (A) (A) (A) (A) (A) (A) (A)
                 (A) (A) (A) (A) (A) (A) (A) (A) (A) (A) (A) (A)
                 (A) (A) (A) (A) (A) (A) (A) (A) (A) (A) (A) (A)
                 (A) (A) (A) (A) (A) (A) (A) (A) (A) (A) (A) (A)
                 (A) (A) (A) (A) (A) (A) (A) (A) (A) (A) (A) (A)
                 (A) (A) (A) (A) (A) (A) (A) (A) (A) (A) (A) (A)
                 (A) (A) (A) (A) (A) (A) (A) (A) (A) (A) (A) (A)
                 (A) (A) (A) (A) (A) (A) (A) (A) (A) (A) (A) (A)
                 (A) (A) (A) (A) (A) (A) (A) (A) (A) (A) (A) (A)
                 (A) (A) (A) (A) (A) (A) (A) (A) (A) (A) (A) (A)
                 (A) (A) (A) (A) (A) (A) (A) (A) (A) (A) (A) (A)
                 (A) (A) (A) (A) (A) (A) (A) (A) (A) (A) (A) (A)
                 (A) (A) (A) (A) (A) (A) (A) (A) (A) (A) (A) (A)
                 (A) (A) (A) (A) (A) (A) (A) (A) (A) (A) (A) (A)
                 (A) (A) (A) (A) (A) (A) (A) (A) (A) (A) (A) (A)
                 (A) (A) (A) (A) (A) (A) (A) (A) (A) (A) (A) (A)
                 (A) (A) (A) (A) (A) (A) (A) (A) (A) (A) (A) (A)
                 (A) (A) (A) (A) (A) (A) (A) (A) (A) (A) (A) (A)
                 (A) (A) (A) (A) (A) (A) (A) (A) (A) (A) (A) (A)
                 (A) (A) (A) (A) (A) (A) (A) (A) (A) (A) (A) (A)
                 (A) (A) (A) (A) (A) (A) (A) (A) (A) (A) (A) (A)
                 (A) (A) (A) (A) (A) (A) (A) (A) (A) (A) (A) (A)
                 (A) (A) (A) (A) (A) (A) (A) (A) (A) (A) (A) (A)
                 (A) (A) (A) (A) (A) (A) (A) (A) (A) (A) (A) (A)
                 (A) (A) (A) (A) (A) (A) (A) (A) (A) (A) (A) (A)
                 (A) (A) (A) (A) (A) (A) (A) (A) (A) (A) (A) (A)
                 (A) (A) (A) (A) (A) (A) (A) (A) (A) (A) (A) (A)
                 (A) (A) (A) (A) (A) (A) (A) (A) (A) (A) (A) (A)
                 (A) (A) (A) (A) (A) (A) (A) (A) (A) (A) (A) (A)
                 (A) (A) (A) (A) (A) (A) (A) (A) (A) (A) (A) (A)
                 (A) (A) (A) (A) (A) (A) (A) (A) (A) (A) (A) (A)
                 (A) (A) (A) (A) (A) (A) (A) (A) (A) (A) (A) (A)
                 (A) (A) (A) (A) (A) (A) (A) (A) (A) (A) (A) (A)
                 (A) (A) (A) (A) (A) (A) (A) (A) (A) (A) (A) (A)
                 (A) (A) (A) (A) (A) (A) (A) (A) (A) (A) (A) (A)
                 (A) (A) (A) (A) (A) (A) (A) (A) (A) (A) (A) (A)
                 (A) (A) (A) (A) (A) (A) (A) (A) (A) (A) (A) (A)
                 (A) (A) (A) (A) (A) (A) (A) (A) (A) (A) (A) (A)
                 (A) (A) (A) (A) (A) (A) (A) (A) (A) (A) (A) (A)
                 (A) (A) (A) (A) (A) (A) (A) (A) (A) (A) (A) (A)
                 (A) (A) (A) (A) (A) (A) (A) (A) (A) (A) (A) (A)
                 (A) (A) (A) (A) (A) (A) (A) (A) (A) (A) (A) (A)
                 (A) (A) (A) (A) (A) (A) (A) (A) (A) (A) (A) (A)
                 (A) (A) (A) (A) (A) (A) (A) (A) (A) (A) (A) (A)
                 (A) (A) (A) (A) (A) (A) (A) (A) (A) (A) (A) (A)
                 (A) (A) (A) (A) (A) (A) (A) (A) (A) (A) (A) (A)
                 (A) (A) (A) (A) (A) (A) (A) (A) (A) (A) (A) (A)
                 (A) (A) (A) (A) (A) (A) (A) (A) (A) (A) (A) (A)
                 (A) (A) (A) (A) (A) (A) (A) (A) (A) (A) (A) (A)
                 (A) (A) (A) (A) (A) (A) (A) (A) (A) (A) (A) (A)
                 (A) (A) (A) (A) (A) (A) (A) (A) (A) (A) (A) (A)
                 (A) (A) (A) (A) (A) (A) (A) (A) (A) (A) (A) (A)
                 (A) (A) (A) (A) (A) (A) (A) (A) (A) (A) (A) (A)
                 (A) (A) (A) (A) (A) (A) (A) (A) (A) (A) (A) (A)
                 (A) (A) (A) (A) (A) (A) (A) (A) (A) (A) (A) (A)
                 (A) (A) (A) (A) (A) (A) (A) (A) (A) (A) (A) (A)
                 (A) (A) (A) (A) (A) (A) (A) (A) (A) (A) (A) (A)
                 (A) (A) (A) (A) (A) (A) (A) (A) (A) (A) (A) (A)
                 (A) (A) (A) (A) (A) (A) (A) (A) (A) (A) (A) (A)
                 (A) (A) (A) (A) (A) (A) (A) (A) (A) (A) (A) (A)
                 (A) (A) (A) (A) (A) (A) (A) (A) (A) (A) (A) (A)
                 (A) (A) (A) (A) (A) (A) (A) (A) (A) (A) (A) (A)
                 (A) (A) (A) (A) (A) (A) (A) (A) (A) (A) (A) (A)
                 (A) (A) (A) (A) (A) (A) (A) (A) (A) (A) (A) (A)
                 (A) (A) (A) (A) (A) (A) (A) (A) (A) (A) (A) (A)
                 (A) (A) (A) (A) (A) (A) (A) (A) (A) (A) (A) (A)
                 (A) (A) (A) (A) (A) (A) (A) (A) (A) (A) (A) (A)
                 (A) (A) (A) (A) (A) (A) (A) (A) (A) (A) (A) (A)
                 (A) (A) (A) (A) (A) (A) (A) (A) (A) (A) (A) (A)
                 (A) (A) (A) (A) (A) (A) (A) (A) (A) (A) (A) (A)
                 (A) (A) (A) (A) (A) (A) (A) (A) (A) (A) (A) (A)
                 (A) (A) (A) (A) (A) (A) (A) (A) (A) (A) (A) (A)
                 (A) (A) (A) (A) (A) (A) (A) (A) (A) (A) (A) (A)
                 (A) (A) (A) (A) (A) (A) (A) (A) (A) (A) (A) (A)
                 (A) (A) (A) (A) (A) (A) (A) (A) (A) (A) (A) (A)
                 (A) (A) (A) (A) (A) (A) (A) (A) (A) (A) (A) (A)
                 (A) (A) (A) (A) (A) (A) (A) (A) (A) (A) (A) (A)
                 (A) (A) (A) (A) (A) (A) (A) (A) (A) (A) (A) (A)
                 (A) (A) (A) (A) (A) (A) (A) (A) (A) (A) (A) (A)
                 (A) (A) (A) (A) (A) (A) (A) (A) (A) (A) (A) (A)
                 (A) (A) (A) (A) (A) (A) (A) (A) (A) (A) (A) (A)
                 (A) (A) (A) (A) (A) (A) (A) (A) (A) (A) (A) (A)
                 (A) (A) (A) (A) (A) (A) (A) (A) (A) (A) (A) (A)
                 (A) (A) (A) (A) (A) (A) (A) (A) (A) (A) (A) (A)
                 (A) (A) (A) (A) (A) (A) (A) (A) (A) (A) (A) (A)
                 (A) (A) (A) (A) (A) (A) (A) (A) (A) (A) (A) (A)
                 (A) (A) (A) (A) (A) (A) (A) (A) (A) (A) (A) (A)
                 (A) (A) (A) (A) (A) (A) (A) (A) (A) (A) (A) (A)
                 (A) (A) (A) (A) (A) (A) (A) (A) (A) (A) (A) (A)
                 (A) (A) (A) (A) (A) (A) (A) (A) (A) (A) (A) (A)
                 (A) (A) (A) (A) (A) (A) (A) (A)
 The electronic state is 1-A.
 Alpha  occ. eigenvalues --  -19.30869 -19.30868 -19.30867 -19.30865 -19.30862
 Alpha  occ. eigenvalues --  -19.30861 -19.30854 -19.30847 -14.48350 -14.48347
 Alpha  occ. eigenvalues --  -14.48346 -14.48346 -14.48340 -14.48339 -14.48338
 Alpha  occ. eigenvalues --  -14.48337 -14.48336 -14.48334 -14.48333 -14.48332
 Alpha  occ. eigenvalues --  -14.48332 -14.48331 -14.48330 -14.48325 -10.32598
 Alpha  occ. eigenvalues --  -10.32597 -10.32597 -10.32595 -10.32594 -10.32592
 Alpha  occ. eigenvalues --  -10.32591 -10.32590 -10.32589 -10.32588 -10.32588
 Alpha  occ. eigenvalues --  -10.32586 -10.32586 -10.32585 -10.32582 -10.32579
 Alpha  occ. eigenvalues --  -10.31845 -10.31841 -10.31834 -10.31831 -10.31831
 Alpha  occ. eigenvalues --  -10.31831 -10.31829 -10.31826 -10.31825 -10.31824
 Alpha  occ. eigenvalues --  -10.31824 -10.31823 -10.31821 -10.31819 -10.31817
 Alpha  occ. eigenvalues --  -10.31817 -10.31808 -10.31807 -10.31807 -10.31803
 Alpha  occ. eigenvalues --  -10.31802 -10.31800 -10.31797 -10.31796 -10.31793
 Alpha  occ. eigenvalues --  -10.31793 -10.31792 -10.31792 -10.31791 -10.31790
 Alpha  occ. eigenvalues --  -10.31789 -10.31787 -10.30248 -10.30246 -10.30245
 Alpha  occ. eigenvalues --  -10.30245 -10.30244 -10.30244 -10.30244 -10.30243
 Alpha  occ. eigenvalues --  -10.30242 -10.30242 -10.30238 -10.30238 -10.30237
 Alpha  occ. eigenvalues --  -10.30237 -10.30236 -10.30234 -10.28038 -10.28037
 Alpha  occ. eigenvalues --  -10.28035 -10.28035 -10.28034 -10.28034 -10.28033
 Alpha  occ. eigenvalues --  -10.28032 -10.28031 -10.28031 -10.28031 -10.28031
 Alpha  occ. eigenvalues --  -10.28030 -10.28028 -10.28028 -10.28024 -10.27989
 Alpha  occ. eigenvalues --  -10.27985 -10.27984 -10.27983 -10.27980 -10.27980
 Alpha  occ. eigenvalues --  -10.27975 -10.27974 -10.27974 -10.27971 -10.27970
 Alpha  occ. eigenvalues --  -10.27969 -10.27967 -10.27966 -10.27965 -10.27963
 Alpha  occ. eigenvalues --  -10.27689 -10.27689 -10.27685 -10.27685 -10.27683
 Alpha  occ. eigenvalues --  -10.27682 -10.27681 -10.27679 -10.27679 -10.27678
 Alpha  occ. eigenvalues --  -10.27678 -10.27678 -10.27678 -10.27677 -10.27675
 Alpha  occ. eigenvalues --  -10.27674 -10.27340 -10.27338 -10.27338 -10.27336
 Alpha  occ. eigenvalues --  -10.27336 -10.27336 -10.27335 -10.27335 -10.27335
 Alpha  occ. eigenvalues --  -10.27335 -10.27334 -10.27334 -10.27334 -10.27333
 Alpha  occ. eigenvalues --  -10.27333 -10.27331 -10.27280 -10.27280 -10.27280
 Alpha  occ. eigenvalues --  -10.27279 -10.27279 -10.27278 -10.27277 -10.27277
 Alpha  occ. eigenvalues --  -10.27275 -10.27274 -10.27274 -10.27273 -10.27272
 Alpha  occ. eigenvalues --  -10.27271 -10.27271 -10.27266 -10.26948 -10.26946
 Alpha  occ. eigenvalues --  -10.26946 -10.26945 -10.26944 -10.26944 -10.26941
 Alpha  occ. eigenvalues --  -10.26939 -10.26939 -10.26939 -10.26938 -10.26934
 Alpha  occ. eigenvalues --  -10.26933 -10.26933 -10.26933 -10.26932 -10.26671
 Alpha  occ. eigenvalues --  -10.26666 -10.26663 -10.26663 -10.26662 -10.26662
 Alpha  occ. eigenvalues --  -10.26661 -10.26661 -10.26659 -10.26658 -10.26657
 Alpha  occ. eigenvalues --  -10.26656 -10.26655 -10.26654 -10.26654 -10.26652
 Alpha  occ. eigenvalues --   -3.57248  -3.57248  -3.57246  -3.57246  -2.25283
 Alpha  occ. eigenvalues --   -2.25283  -2.25281  -2.25280  -2.24894  -2.24894
 Alpha  occ. eigenvalues --   -2.24892  -2.24891  -2.20963  -2.20962  -2.20961
 Alpha  occ. eigenvalues --   -2.20961  -1.17663  -1.17656  -1.17653  -1.17643
 Alpha  occ. eigenvalues --   -1.17637  -1.17637  -1.17628  -1.17606  -1.03798
 Alpha  occ. eigenvalues --   -1.03796  -1.03791  -1.03787  -1.03284  -1.03281
 Alpha  occ. eigenvalues --   -1.03277  -1.03273  -1.02978  -1.02977  -1.02969
 Alpha  occ. eigenvalues --   -1.02965  -1.02934  -1.02929  -1.02929  -1.02922
 Alpha  occ. eigenvalues --   -0.92569  -0.92559  -0.92557  -0.92547  -0.92541
 Alpha  occ. eigenvalues --   -0.92539  -0.92538  -0.92537  -0.92091  -0.92075
 Alpha  occ. eigenvalues --   -0.92074  -0.92059  -0.92052  -0.92049  -0.92048
 Alpha  occ. eigenvalues --   -0.92045  -0.88204  -0.88142  -0.88141  -0.88049
 Alpha  occ. eigenvalues --   -0.88039  -0.88021  -0.88021  -0.88001  -0.87829
 Alpha  occ. eigenvalues --   -0.87737  -0.87736  -0.87674  -0.87665  -0.87645
 Alpha  occ. eigenvalues --   -0.87645  -0.87627  -0.83484  -0.83467  -0.83466
 Alpha  occ. eigenvalues --   -0.83449  -0.83434  -0.83428  -0.83426  -0.83422
 Alpha  occ. eigenvalues --   -0.83003  -0.82981  -0.82980  -0.82929  -0.82920
 Alpha  occ. eigenvalues --   -0.82865  -0.82865  -0.82838  -0.82765  -0.82739
 Alpha  occ. eigenvalues --   -0.82739  -0.82696  -0.82639  -0.82597  -0.82597
 Alpha  occ. eigenvalues --   -0.82572  -0.81150  -0.81101  -0.81099  -0.81058
 Alpha  occ. eigenvalues --   -0.81049  -0.81041  -0.81038  -0.81021  -0.78961
 Alpha  occ. eigenvalues --   -0.78903  -0.78902  -0.78862  -0.78846  -0.78840
 Alpha  occ. eigenvalues --   -0.78838  -0.78817  -0.77696  -0.77686  -0.77685
 Alpha  occ. eigenvalues --   -0.77675  -0.77673  -0.77672  -0.77669  -0.77667
 Alpha  occ. eigenvalues --   -0.71750  -0.71684  -0.71681  -0.71643  -0.71581
 Alpha  occ. eigenvalues --   -0.71542  -0.71538  -0.71533  -0.71529  -0.71522
 Alpha  occ. eigenvalues --   -0.71508  -0.71467  -0.71463  -0.71433  -0.71430
 Alpha  occ. eigenvalues --   -0.71427  -0.70345  -0.70295  -0.70292  -0.70238
 Alpha  occ. eigenvalues --   -0.70076  -0.69961  -0.69958  -0.69930  -0.69849
 Alpha  occ. eigenvalues --   -0.69847  -0.69778  -0.69752  -0.69659  -0.69517
 Alpha  occ. eigenvalues --   -0.69516  -0.69468  -0.67818  -0.67755  -0.67755
 Alpha  occ. eigenvalues --   -0.67691  -0.67655  -0.67645  -0.67644  -0.67632
 Alpha  occ. eigenvalues --   -0.65161  -0.65107  -0.65106  -0.65052  -0.64995
 Alpha  occ. eigenvalues --   -0.64988  -0.64987  -0.64979  -0.63809  -0.63780
 Alpha  occ. eigenvalues --   -0.63780  -0.63752  -0.63735  -0.63716  -0.63715
 Alpha  occ. eigenvalues --   -0.63696  -0.62900  -0.62884  -0.62884  -0.62867
 Alpha  occ. eigenvalues --   -0.62858  -0.62833  -0.62832  -0.62807  -0.60841
 Alpha  occ. eigenvalues --   -0.60605  -0.60603  -0.60094  -0.60011  -0.59918
 Alpha  occ. eigenvalues --   -0.59916  -0.59807  -0.59767  -0.59217  -0.59210
 Alpha  occ. eigenvalues --   -0.59209  -0.59028  -0.59027  -0.58940  -0.58915
 Alpha  occ. eigenvalues --   -0.58121  -0.57978  -0.57933  -0.57929  -0.57791
 Alpha  occ. eigenvalues --   -0.57788  -0.57551  -0.57506  -0.57206  -0.57154
 Alpha  occ. eigenvalues --   -0.57154  -0.57153  -0.57093  -0.57063  -0.57063
 Alpha  occ. eigenvalues --   -0.57052  -0.55296  -0.55292  -0.55274  -0.55263
 Alpha  occ. eigenvalues --   -0.55214  -0.55167  -0.55163  -0.55126  -0.55096
 Alpha  occ. eigenvalues --   -0.54848  -0.54430  -0.54425  -0.54325  -0.54319
 Alpha  occ. eigenvalues --   -0.53998  -0.53990  -0.53698  -0.53622  -0.53620
 Alpha  occ. eigenvalues --   -0.53545  -0.53463  -0.53462  -0.53087  -0.52975
 Alpha  occ. eigenvalues --   -0.52354  -0.51996  -0.51983  -0.51978  -0.51972
 Alpha  occ. eigenvalues --   -0.51967  -0.51965  -0.51958  -0.51953  -0.51900
 Alpha  occ. eigenvalues --   -0.51874  -0.51861  -0.51859  -0.51745  -0.51742
 Alpha  occ. eigenvalues --   -0.51621  -0.51617  -0.51617  -0.51588  -0.51527
 Alpha  occ. eigenvalues --   -0.51469  -0.51398  -0.51225  -0.51223  -0.51194
 Alpha  occ. eigenvalues --   -0.51174  -0.51170  -0.51128  -0.50895  -0.50703
 Alpha  occ. eigenvalues --   -0.50495  -0.50493  -0.50476  -0.50473  -0.50263
 Alpha  occ. eigenvalues --   -0.49846  -0.49152  -0.49151  -0.49122  -0.49118
 Alpha  occ. eigenvalues --   -0.49086  -0.49079  -0.49029  -0.49028  -0.49026
 Alpha  occ. eigenvalues --   -0.48968  -0.48966  -0.48900  -0.48640  -0.48627
 Alpha  occ. eigenvalues --   -0.48624  -0.48623  -0.48621  -0.48602  -0.48595
 Alpha  occ. eigenvalues --   -0.48579  -0.48578  -0.48576  -0.48554  -0.48484
 Alpha  occ. eigenvalues --   -0.48449  -0.48377  -0.48374  -0.48243  -0.48243
 Alpha  occ. eigenvalues --   -0.48137  -0.48136  -0.48094  -0.47996  -0.47895
 Alpha  occ. eigenvalues --   -0.47894  -0.47815  -0.47775  -0.47761  -0.47753
 Alpha  occ. eigenvalues --   -0.47750  -0.47745  -0.47743  -0.47694  -0.47665
 Alpha  occ. eigenvalues --   -0.47288  -0.47157  -0.47154  -0.47143  -0.46911
 Alpha  occ. eigenvalues --   -0.46857  -0.46856  -0.46813  -0.46597  -0.46564
 Alpha  occ. eigenvalues --   -0.46561  -0.46415  -0.46332  -0.46255  -0.46139
 Alpha  occ. eigenvalues --   -0.46132  -0.46129  -0.45848  -0.45642  -0.45639
 Alpha  occ. eigenvalues --   -0.45486  -0.45483  -0.45100  -0.44925  -0.44165
 Alpha  occ. eigenvalues --   -0.44162  -0.44124  -0.44121  -0.44121  -0.44118
 Alpha  occ. eigenvalues --   -0.44093  -0.44042  -0.43042  -0.42918  -0.42885
 Alpha  occ. eigenvalues --   -0.42883  -0.42820  -0.42788  -0.42788  -0.42726
 Alpha  occ. eigenvalues --   -0.42673  -0.42396  -0.42395  -0.42238  -0.42154
 Alpha  occ. eigenvalues --   -0.42148  -0.42145  -0.42051  -0.41995  -0.41975
 Alpha  occ. eigenvalues --   -0.41972  -0.41916  -0.41810  -0.41777  -0.41703
 Alpha  occ. eigenvalues --   -0.41701  -0.41651  -0.41594  -0.41591  -0.41434
 Alpha  occ. eigenvalues --   -0.41256  -0.41253  -0.41219  -0.41158  -0.41026
 Alpha  occ. eigenvalues --   -0.40989  -0.40986  -0.40981  -0.40832  -0.40828
 Alpha  occ. eigenvalues --   -0.40825  -0.40823  -0.40819  -0.40775  -0.40772
 Alpha  occ. eigenvalues --   -0.40758  -0.40617  -0.40615  -0.40615  -0.40583
 Alpha  occ. eigenvalues --   -0.38953  -0.38919  -0.38903  -0.38900  -0.38896
 Alpha  occ. eigenvalues --   -0.38774  -0.38771  -0.38668  -0.38667  -0.38665
 Alpha  occ. eigenvalues --   -0.38647  -0.38629  -0.37547  -0.37469  -0.37465
 Alpha  occ. eigenvalues --   -0.37421  -0.37319  -0.37316  -0.37298  -0.37230
 Alpha  occ. eigenvalues --   -0.37181  -0.37092  -0.37068  -0.37065  -0.37063
 Alpha  occ. eigenvalues --   -0.37032  -0.37030  -0.36921  -0.35534  -0.35512
 Alpha  occ. eigenvalues --   -0.35474  -0.35472  -0.35455  -0.35451  -0.35420
 Alpha  occ. eigenvalues --   -0.35335  -0.35326  -0.35251  -0.35248  -0.35235
 Alpha  occ. eigenvalues --   -0.34312  -0.34311  -0.34310  -0.34307  -0.33911
 Alpha  occ. eigenvalues --   -0.33724  -0.33720  -0.33719  -0.33715  -0.33653
 Alpha  occ. eigenvalues --   -0.33650  -0.33130  -0.32835  -0.32750  -0.32749
 Alpha  occ. eigenvalues --   -0.32749  -0.32746  -0.32636  -0.32619  -0.32619
 Alpha  occ. eigenvalues --   -0.32601  -0.32245  -0.32245  -0.32157  -0.32135
 Alpha  occ. eigenvalues --   -0.32099  -0.32098  -0.31793  -0.31547  -0.31546
 Alpha  occ. eigenvalues --   -0.31544  -0.31543  -0.31374  -0.31373  -0.31370
 Alpha  occ. eigenvalues --   -0.31369  -0.29628  -0.29545  -0.29490  -0.29487
 Alpha  occ. eigenvalues --   -0.29432  -0.29391  -0.29389  -0.29205  -0.29064
 Alpha  occ. eigenvalues --   -0.29058  -0.29058  -0.29027  -0.26487  -0.26465
 Alpha  occ. eigenvalues --   -0.26462  -0.26453  -0.26393  -0.26392  -0.26390
 Alpha  occ. eigenvalues --   -0.26387  -0.26378  -0.26343  -0.26337  -0.26334
 Alpha  occ. eigenvalues --   -0.26299  -0.26281  -0.26278  -0.26211
[...]
    75  H    0.044382
    76  H    0.056497
    77  H    0.094513
    78  H    0.095164
    79  H    0.058175
    80  H    0.031853
    81  H    0.031921
    82  H    0.055847
    83  C    0.148473
    84  N   -0.314481
    85  C    0.154927
    86  C   -0.043022
    87  C    0.061390
    88  C    0.029344
    89  C   -0.023545
    90  C   -0.068773
    91  C    0.209065
    92  O   -0.240783
    93  C    0.207723
    94  C   -0.067871
    95  C   -0.023480
    96  C    0.029768
    97  C    0.061532
    98  C   -0.043388
    99  C    0.148674
   100  N   -0.315409
   101  C    0.155523
   102  C   -0.043382
   103  C   -0.050275
   104  C    0.016919
   105  C    0.017598
   106  C   -0.050303
   107  C   -0.043929
   108  H    0.094776
   109  H    0.095492
   110  H    0.058102
   111  H    0.044345
   112  H    0.039198
   113  H    0.039142
   114  H    0.044050
   115  H    0.056209
   116  H    0.095118
   117  H    0.094935
   118  H    0.058283
   119  H    0.032181
   120  H    0.031659
   121  H    0.056567
   122  C    0.148339
   123  N   -0.314297
   124  C    0.154735
   125  C   -0.043739
   126  C    0.061673
   127  C    0.029530
   128  C   -0.023326
   129  C   -0.068285
   130  C    0.208537
   131  O   -0.241092
   132  C    0.207946
   133  C   -0.067678
   134  C   -0.023351
   135  C    0.029025
   136  C    0.061543
   137  C   -0.044347
   138  C    0.148737
   139  N   -0.314972
   140  C    0.155107
   141  C   -0.043490
   142  C   -0.049849
   143  C    0.017904
   144  C    0.016465
   145  C   -0.050433
   146  C   -0.044372
   147  H    0.094879
   148  H    0.095533
   149  H    0.058379
   150  H    0.044401
   151  H    0.039180
   152  H    0.039050
   153  H    0.044387
   154  H    0.057046
   155  H    0.094906
   156  H    0.095391
   157  H    0.058176
   158  H    0.031551
   159  H    0.032426
   160  H    0.056766
   161  C    0.148057
   162  N   -0.315222
   163  C    0.155439
   164  C   -0.043180
   165  C    0.061542
   166  C    0.029204
   167  C   -0.023197
   168  C   -0.068523
   169  C    0.208540
   170  O   -0.241639
   171  C    0.208871
   172  C   -0.068704
   173  C   -0.023689
   174  C    0.028984
   175  C    0.061576
   176  C   -0.043658
   177  C    0.147914
   178  N   -0.314403
   179  C    0.155131
   180  C   -0.043502
   181  C   -0.049725
   182  C    0.017359
   183  C    0.016935
   184  C   -0.049850
   185  C   -0.043722
   186  H    0.095338
   187  H    0.095129
   188  H    0.058206
   189  H    0.044126
   190  H    0.039434
   191  H    0.039516
   192  H    0.044413
   193  H    0.056138
   194  H    0.095125
   195  H    0.095210
   196  H    0.058455
   197  H    0.032009
   198  H    0.031971
   199  H    0.056309
   200  C    0.148078
   201  N   -0.314602
   202  C    0.155048
   203  C   -0.043008
   204  C    0.061345
   205  C    0.029014
   206  C   -0.023018
   207  C   -0.068979
   208  C    0.208835
   209  O   -0.240463
   210  C    0.208071
   211  C   -0.067882
   212  C   -0.023161
   213  C    0.029055
   214  C    0.060906
   215  C   -0.043432
   216  C    0.148262
   217  N   -0.314260
   218  C    0.155246
   219  C   -0.042627
   220  C   -0.050618
   221  C    0.017628
   222  C    0.016757
   223  C   -0.049814
   224  C   -0.043728
   225  H    0.095307
   226  H    0.095114
   227  H    0.058045
   228  H    0.043947
   229  H    0.039510
   230  H    0.039110
   231  H    0.044238
   232  H    0.056049
   233  H    0.094773
   234  H    0.095020
   235  H    0.058023
   236  H    0.032215
   237  H    0.031825
   238  H    0.056252
   239  C    0.148558
   240  N   -0.315196
   241  C    0.155040
   242  C   -0.042536
   243  C    0.061029
   244  C    0.028802
   245  C   -0.022908
   246  C   -0.068479
   247  C    0.208797
   248  O   -0.240732
   249  C    0.209414
   250  C   -0.069177
   251  C   -0.022909
   252  C    0.029281
   253  C    0.060830
   254  C   -0.042682
   255  C    0.147835
   256  N   -0.314617
   257  C    0.155315
   258  C   -0.042891
   259  C   -0.049912
   260  C    0.016335
   261  C    0.017968
   262  C   -0.050309
   263  C   -0.043244
   264  H    0.095137
   265  H    0.095248
   266  H    0.057672
   267  H    0.043877
   268  H    0.039331
   269  H    0.039434
   270  H    0.043988
   271  H    0.055813
   272  H    0.095201
   273  H    0.095258
   274  H    0.057867
   275  H    0.031865
   276  H    0.031905
   277  H    0.056085
   278  C    0.148625
   279  N   -0.314892
   280  C    0.155113
   281  C   -0.042808
   282  C    0.061545
   283  C    0.029724
   284  C   -0.023347
   285  C   -0.067688
   286  C    0.206996
   287  O   -0.240464
   288  C    0.208910
   289  C   -0.069284
   290  C   -0.023338
   291  C    0.029286
   292  C    0.061497
   293  C   -0.043680
   294  C    0.148492
   295  N   -0.315097
   296  C    0.155509
   297  C   -0.043603
   298  C   -0.049914
   299  C    0.016397
   300  C    0.017345
   301  C   -0.049951
   302  C   -0.044230
   303  H    0.095197
   304  H    0.095235
   305  H    0.057957
   306  H    0.044339
   307  H    0.039518
   308  H    0.039505
   309  H    0.043994
   310  H    0.056330
   311  H    0.094797
   312  H    0.095078
   313  H    0.058743
   314  H    0.032074
   315  H    0.032041
   316  H    0.056415
 Sum of Mulliken charges =   8.00000
 Mulliken charges with hydrogens summed into heavy atoms:
               1
     1  Pd   0.495486
     2  Pd   0.495381
     3  Pd   0.495707
     4  Pd   0.495621
     5  C    0.243588
     6  N   -0.314899
     7  C    0.250219
     8  C    0.015101
     9  C    0.061287
    10  C    0.028623
    11  C    0.021139
    12  C   -0.029521
    13  C    0.209096
    14  O   -0.240866
    15  C    0.208488
    16  C   -0.029084
    17  C    0.020966
    18  C    0.029364
    19  C    0.061214
    20  C    0.012362
    21  C    0.243164
    22  N   -0.314349
    23  C    0.250468
    24  C    0.014942
    25  C   -0.017802
    26  C    0.016814
    27  C    0.016656
    28  C   -0.017438
    29  C    0.012669
    44  C    0.243769
    45  N   -0.315522
    46  C    0.250550
    47  C    0.014811
    48  C    0.061239
    49  C    0.029437
    50  C    0.020880
    51  C   -0.029028
    52  C    0.208470
    53  O   -0.240295
    54  C    0.208417
    55  C   -0.029299
    56  C    0.020678
    57  C    0.029611
    58  C    0.061737
    59  C    0.012210
    60  C    0.243739
    61  N   -0.315502
    62  C    0.250743
    63  C    0.014799
    64  C   -0.017897
    65  C    0.017114
    66  C    0.016438
    67  C   -0.017752
    68  C    0.012869
    83  C    0.243249
    84  N   -0.314481
    85  C    0.250419
    86  C    0.015080
    87  C    0.061390
    88  C    0.029344
    89  C    0.020800
    90  C   -0.029575
    91  C    0.209065
    92  O   -0.240783
    93  C    0.207723
    94  C   -0.028729
    95  C    0.020570
    96  C    0.029768
    97  C    0.061532
    98  C    0.012821
    99  C    0.243792
   100  N   -0.315409
   101  C    0.250458
   102  C    0.014902
   103  C   -0.018094
   104  C    0.016919
   105  C    0.017598
   106  C   -0.018644
   107  C    0.012638
   122  C    0.243219
   123  N   -0.314297
   124  C    0.250268
   125  C    0.014640
   126  C    0.061673
   127  C    0.029530
   128  C    0.021075
   129  C   -0.029105
   130  C    0.208537
   131  O   -0.241092
   132  C    0.207946
   133  C   -0.028628
   134  C    0.021036
   135  C    0.029025
   136  C    0.061543
   137  C    0.012699
   138  C    0.243644
   139  N   -0.314972
   140  C    0.250498
   141  C    0.014686
   142  C   -0.018298
   143  C    0.017904
   144  C    0.016465
   145  C   -0.018007
   146  C    0.012394
   161  C    0.243396
   162  N   -0.315222
   163  C    0.250567
   164  C    0.015026
   165  C    0.061542
   166  C    0.029204
   167  C    0.020929
   168  C   -0.029089
   169  C    0.208540
   170  O   -0.241639
   171  C    0.208871
   172  C   -0.029188
   173  C    0.020724
   174  C    0.028984
   175  C    0.061576
   176  C    0.012480
   177  C    0.243039
   178  N   -0.314403
   179  C    0.250341
   180  C    0.014952
   181  C   -0.017717
   182  C    0.017359
   183  C    0.016935
   184  C   -0.017879
   185  C    0.012587
   200  C    0.243385
   201  N   -0.314602
   202  C    0.250161
   203  C    0.015037
   204  C    0.061345
   205  C    0.029014
   206  C    0.020929
   207  C   -0.029468
   208  C    0.208835
   209  O   -0.240463
   210  C    0.208071
   211  C   -0.028772
   212  C    0.021076
   213  C    0.029055
   214  C    0.060906
   215  C    0.012617
   216  C    0.243035
   217  N   -0.314260
   218  C    0.250265
   219  C    0.015397
   220  C   -0.018404
   221  C    0.017628
   222  C    0.016757
   223  C   -0.017988
   224  C    0.012524
   239  C    0.243695
   240  N   -0.315196
   241  C    0.250289
   242  C    0.015136
   243  C    0.061029
   244  C    0.028802
   245  C    0.020969
   246  C   -0.029148
   247  C    0.208797
   248  O   -0.240732
   249  C    0.209414
   250  C   -0.029743
   251  C    0.021080
   252  C    0.029281
   253  C    0.060830
   254  C    0.013131
   255  C    0.243035
   256  N   -0.314617
   257  C    0.250573
   258  C    0.014975
   259  C   -0.018047
   260  C    0.016335
   261  C    0.017968
   262  C   -0.018404
   263  C    0.012841
   278  C    0.243822
   279  N   -0.314892
   280  C    0.250348
   281  C    0.015149
   282  C    0.061545
   283  C    0.029724
   284  C    0.020992
   285  C   -0.028169
   286  C    0.206996
   287  O   -0.240464
   288  C    0.208910
   289  C   -0.029779
   290  C    0.020656
   291  C    0.029286
   292  C    0.061497
   293  C    0.012650
   294  C    0.243288
   295  N   -0.315097
   296  C    0.250587
   297  C    0.015140
   298  C   -0.017840
   299  C    0.016397
   300  C    0.017345
   301  C   -0.017911
   302  C    0.012185
 Electronic spatial extent (au):  <R**2>=         650174.8583
 Charge=              8.0000 electrons
 Dipole moment (field-independent basis, Debye):
    X=             -0.0313    Y=             -0.0106    Z=              0.0138  Tot=              0.0358
 Quadrupole moment (field-independent basis, Debye-Ang):
   XX=           1065.3451   YY=           1065.0676   ZZ=           -914.2860
   XY=             -0.1392   XZ=              0.0197   YZ=              0.0164
 Traceless Quadrupole moment (field-independent basis, Debye-Ang):
   XX=            659.9696   YY=            659.6920   ZZ=          -1319.6616
   XY=             -0.1392   XZ=              0.0197   YZ=              0.0164
 Octapole moment (field-independent basis, Debye-Ang**2):
  XXX=             -5.1479  YYY=              2.0362  ZZZ=              0.6953  XYY=              0.0138
  XXY=             -1.9404  XXZ=              3.9585  XZZ=             -0.4931  YZZ=             -0.1062
  YYZ=             -1.9069  XYZ=             -5.8586
 Hexadecapole moment (field-independent basis, Debye-Ang**3):
 XXXX=        -216569.0492 YYYY=        -216556.3079 ZZZZ=         -76734.0119 XXXY=          -2985.9743
 XXXZ=              0.7353 YYYX=           2955.4501 YYYZ=             -3.9240 ZZZX=              2.6393
 ZZZY=             -1.2434 XXYY=         -35934.0527 XXZZ=         -60199.1572 YYZZ=         -60169.7856
 XXYZ=              5.1727 YYXZ=              2.1899 ZZXY=              3.4955
 N-N= 5.042306488393D+04 E-N=-1.204741067341D+05  KE= 8.349375922866D+03
 Unable to Open any file for archive entry.
 1\1\GINC-CX3-15-15\SP\RPBE1PBE\def2SVP\C176H112N16O8Pd4(8+)\VPOSLIGU\0
 2-Jan-2023\0\\# SP PBE1PBE/def2svp empiricaldispersion=GD3BJ scrf=(sol
 vent=dmso)\\m4_l1\\8,1\Pd,0,10.193,-1.778,0.086\Pd,0,0.954,9.094,-0.12
 2\Pd,0,-9.908,-0.119,0.763\Pd,0,-0.667,-10.993,0.958\C,0,9.123,0.308,1
 .738\N,0,10.295,-0.233,1.382\C,0,11.413,0.431,1.693\C,0,11.4,1.653,2.3
 35\C,0,10.182,2.254,2.682\C,0,10.096,3.568,3.313\C,0,11.096,3.998,4.20
 5\C,0,11.034,5.223,4.835\C,0,9.951,6.041,4.549\O,0,9.706,7.266,5.055\C
 ,0,8.547,7.694,4.516\C,0,7.911,8.902,4.761\C,0,6.725,9.146,4.102\C,0,6
 .155,8.209,3.221\C,0,4.885,8.491,2.56\C,0,3.979,7.46,2.263\C,0,2.81,7.
 739,1.594\N,0,2.472,8.974,1.205\C,0,3.302,9.978,1.508\C,0,4.494,9.782,
 2.176\C,0,6.805,6.995,2.984\C,0,8.004,6.738,3.625\C,0,8.937,5.639,3.64
 7\C,0,9.008,4.4,3.035\C,0,9.024,1.521,2.378\H,0,8.227,-0.266,1.498\H,0
 ,12.352,-0.039,1.411\H,0,12.334,2.15,2.541\H,0,11.916,3.339,4.438\H,0,
 11.796,5.54,5.528\H,0,8.334,9.618,5.446\H,0,6.203,10.068,4.303\H,0,4.1
 85,6.449,2.574\H,0,2.104,6.942,1.36\H,0,2.995,10.973,1.198\H,0,5.132,1
 0.628,2.374\H,0,6.405,6.279,2.281\H,0,8.252,4.105,2.324\H,0,8.053,1.89
 4,2.663\C,0,8.993,0.134,-1.683\N,0,10.191,-0.373,-1.364\C,0,11.28,0.25
 1,-1.826\C,0,11.213,1.401,-2.587\C,0,9.97,1.969,-2.9\C,0,9.831,3.211,-
 3.654\C,0,10.758,3.544,-4.658\C,0,10.644,4.697,-5.405\C,0,9.581,5.543,
 -5.125\O,0,9.293,6.71,-5.734\C,0,8.176,7.195,-5.157\C,0,7.518,8.373,-5
 .477\C,0,6.384,8.688,-4.758\C,0,5.887,7.85,-3.744\C,0,4.67,8.203,-3.02
 1\C,0,3.794,7.212,-2.55\C,0,2.678,7.562,-1.826\N,0,2.366,8.833,-1.541\
 C,0,3.167,9.797,-2.009\C,0,4.305,9.528,-2.743\C,0,6.558,6.664,-3.433\C
 ,0,7.706,6.338,-4.133\C,0,8.64,5.24,-4.112\C,0,8.764,4.071,-3.382\C,0,
 8.841,1.274,-2.436\H,0,8.12,-0.409,-1.319\H,0,12.239,-0.191,-1.569\H,0
 ,12.127,1.871,-2.912\H,0,11.562,2.861,-4.883\H,0,11.35,4.939,-6.183\H,
 0,7.885,9.013,-6.263\H,0,5.844,9.586,-5.014\H,0,3.979,6.173,-2.771\H,0
 ,1.995,6.797,-1.458\H,0,2.881,10.82,-1.78\H,0,4.922,10.347,-3.076\H,0,
 6.216,6.027,-2.631\H,0,8.064,3.853,-2.589\H,0,7.851,1.62,-2.682\C,0,8.
 815,-3.476,1.94\N,0,10.056,-3.171,1.541\C,0,11.056,-3.967,1.933\C,0,10
 .852,-5.095,2.703\C,0,9.556,-5.453,3.1\C,0,9.265,-6.66,3.868\C,0,10.18
 9,-7.145,4.812\C,0,9.937,-8.269,5.571\C,0,8.735,-8.928,5.364\O,0,8.301
 ,-10.037,5.996\C,0,7.085,-10.33,5.495\C,0,6.266,-11.388,5.863\C,0,5.05
 1,-11.509,5.221\C,0,4.632,-10.595,4.238\C,0,3.328,-10.74,3.598\C,0,2.5
 97,-9.616,3.182\C,0,1.394,-9.775,2.536\N,0,0.86,-10.976,2.278\C,0,1.52
 1,-12.06,2.697\C,0,2.734,-11.986,3.352\C,0,5.466,-9.533,3.878\C,0,6.69
 5,-9.402,4.5\C,0,7.792,-8.47,4.412\C,0,8.057,-7.333,3.671\C,0,8.528,-4
 .581,2.707\H,0,8.021,-2.796,1.631\H,0,12.056,-3.687,1.611\H,0,11.696,-
 5.71,2.97\H,0,11.106,-6.603,4.981\H,0,10.643,-8.626,6.302\H,0,6.574,-1
 2.083,6.626\H,0,4.39,-12.308,5.516\H,0,2.964,-8.623,3.384\H,0,0.822,-8
 .906,2.209\H,0,1.057,-13.021,2.493\H,0,3.23,-12.897,3.647\H,0,5.181,-8
 .843,3.097\H,0,7.352,-7.,2.924\H,0,7.512,-4.761,3.02\C,0,8.688,-3.651,
 -1.479\N,0,9.954,-3.312,-1.205\C,0,10.925,-4.147,-1.587\C,0,10.669,-5.
 347,-2.221\C,0,9.349,-5.739,-2.483\C,0,9.007,-7.016,-3.101\C,0,9.861,-
 7.598,-4.056\C,0,9.558,-8.792,-4.676\C,0,8.376,-9.422,-4.316\O,0,7.9,-
 10.586,-4.8\C,0,6.724,-10.822,-4.184\C,0,5.884,-11.908,-4.383\C,0,4.72
 ,-11.959,-3.645\C,0,4.372,-10.948,-2.73\C,0,3.12,-11.023,-1.984\C,0,2.
 417,-9.86,-1.631\C,0,1.266,-9.948,-0.884\N,0,0.757,-11.114,-0.468\C,0,
 1.389,-12.238,-0.823\C,0,2.55,-12.235,-1.571\C,0,5.227,-9.859,-2.541\C
 ,0,6.406,-9.797,-3.262\C,0,7.504,-8.866,-3.35\C,0,7.819,-7.66,-2.749\C
 ,0,8.35,-4.827,-2.106\H,0,7.916,-2.94,-1.183\H,0,11.945,-3.839,-1.37\H
 ,0,11.494,-5.989,-2.486\H,0,10.762,-7.08,-4.345\H,0,10.209,-9.225,-5.4
 17\H,0,6.137,-12.678,-5.092\H,0,4.041,-12.781,-3.808\H,0,2.765,-8.893,
 -1.96\H,0,0.717,-9.048,-0.606\H,0,0.945,-13.172,-0.488\H,0,3.026,-13.1
 73,-1.808\H,0,4.997,-9.093,-1.816\H,0,7.169,-7.25,-1.989\H,0,7.314,-5.
 034,-2.324\C,0,-8.707,-2.033,2.531\N,0,-9.905,-1.526,2.212\C,0,-10.994
 ,-2.15,2.673\C,0,-10.927,-3.301,3.432\C,0,-9.684,-3.869,3.745\C,0,-9.5
 45,-5.113,4.496\C,0,-10.473,-5.447,5.5\C,0,-10.359,-6.602,6.245\C,0,-9
 .297,-7.448,5.962\O,0,-9.01,-8.617,6.569\C,0,-7.893,-9.102,5.99\C,0,-7
 .236,-10.281,6.308\C,0,-6.102,-10.595,5.589\C,0,-5.604,-9.754,4.577\C,
 0,-4.386,-10.107,3.854\C,0,-3.51,-9.114,3.386\C,0,-2.393,-9.464,2.663\
 N,0,-2.081,-10.734,2.376\C,0,-2.882,-11.698,2.841\C,0,-4.021,-11.431,3
 .574\C,0,-6.275,-8.568,4.268\C,0,-7.423,-8.243,4.969\C,0,-8.356,-7.144
 ,4.95\C,0,-8.479,-5.973,4.223\C,0,-8.555,-3.175,3.282\H,0,-7.834,-1.48
 9,2.167\H,0,-11.953,-1.708,2.416\H,0,-11.841,-3.772,3.757\H,0,-11.276,
 -4.764,5.726\H,0,-11.065,-6.845,7.022\H,0,-7.603,-10.923,7.092\H,0,-5.
 562,-11.494,5.842\H,0,-3.695,-8.076,3.608\H,0,-1.709,-8.697,2.297\H,0,
 -2.596,-12.721,2.611\H,0,-4.639,-12.251,3.904\H,0,-5.931,-7.929,3.468\
 H,0,-7.779,-5.754,3.43\H,0,-7.564,-3.52,3.528\C,0,-8.837,-2.204,-0.889
 \N,0,-10.009,-1.664,-0.534\C,0,-11.127,-2.327,-0.847\C,0,-11.113,-3.54
 8,-1.491\C,0,-9.894,-4.149,-1.838\C,0,-9.807,-5.46,-2.471\C,0,-10.806,
 -5.889,-3.365\C,0,-10.743,-7.113,-3.999\C,0,-9.659,-7.93,-3.715\O,0,-9
 .413,-9.153,-4.224\C,0,-8.254,-9.582,-3.686\C,0,-7.617,-10.789,-3.935\
 C,0,-6.431,-11.034,-3.275\C,0,-5.863,-10.1,-2.389\C,0,-4.594,-10.383,-
 1.728\C,0,-3.689,-9.353,-1.427\C,0,-2.521,-9.634,-0.757\N,0,-2.184,-10
 .87,-0.37\C,0,-3.013,-11.873,-0.677\C,0,-4.204,-11.676,-1.347\C,0,-6.5
 14,-8.887,-2.15\C,0,-7.712,-8.629,-2.791\C,0,-8.646,-7.53,-2.811\C,0,-
 8.72,-6.293,-2.195\C,0,-8.737,-3.415,-1.532\H,0,-7.941,-1.63,-0.648\H,
 0,-12.066,-1.858,-0.565\H,0,-12.047,-4.045,-1.698\H,0,-11.627,-5.23,-3
 .596\H,0,-11.504,-7.428,-4.694\H,0,-8.039,-11.503,-4.622\H,0,-5.908,-1
 1.955,-3.478\H,0,-3.894,-8.341,-1.735\H,0,-1.815,-8.838,-0.519\H,0,-2.
 707,-12.869,-0.369\H,0,-4.842,-12.521,-1.548\H,0,-6.115,-8.173,-1.444\
 H,0,-7.963,-5.999,-1.483\H,0,-7.766,-3.787,-1.816\C,0,-0.978,8.049,1.7
 22\N,0,-0.469,9.216,1.305\C,0,-1.101,10.339,1.66\C,0,-2.261,10.337,2.4
 09\C,0,-2.831,9.124,2.823\C,0,-4.082,9.049,3.571\C,0,-4.429,10.061,4.4
 85\C,0,-5.591,10.009,5.226\C,0,-6.431,8.923,5.03\O,0,-7.605,8.686,5.64
 9\C,0,-8.081,7.521,5.168\C,0,-9.261,6.89,5.531\C,0,-9.566,5.696,4.911\
 C,0,-8.714,5.114,3.954\C,0,-9.057,3.838,3.336\C,0,-8.059,2.926,2.956\C
 ,0,-8.4,1.752,2.328\N,0,-9.666,1.413,2.056\C,0,-10.637,2.248,2.441\C,0
 ,-10.379,3.447,3.077\C,0,-7.527,5.759,3.599\C,0,-7.211,6.965,4.199\C,0
 ,-6.114,7.897,4.108\C,0,-4.937,7.959,3.385\C,0,-2.128,7.961,2.47\H,0,-
 0.429,7.149,1.443\H,0,-0.657,11.273,1.325\H,0,-2.737,11.274,2.646\H,0,
 -3.751,10.883,4.646\H,0,-5.843,10.78,5.935\H,0,-9.911,7.322,6.274\H,0,
 -10.465,5.178,5.203\H,0,-7.024,3.133,3.171\H,0,-7.629,1.04,2.029\H,0,-
 11.657,1.941,2.226\H,0,-11.202,4.089,3.344\H,0,-6.879,5.35,2.838\H,0,-
 4.708,7.193,2.659\H,0,-2.475,6.995,2.798\C,0,-1.109,7.876,-1.698\N,0,-
 0.575,9.076,-1.44\C,0,-1.236,10.161,-1.857\C,0,-2.45,10.088,-2.51\C,0,
 -3.045,8.842,-2.756\C,0,-4.351,8.698,-3.392\C,0,-4.771,9.614,-4.374\C,
 0,-5.987,9.494,-5.013\C,0,-6.806,8.436,-4.644\O,0,-8.024,8.144,-5.143\
 C,0,-8.457,7.036,-4.511\C,0,-9.66,6.377,-4.715\C,0,-9.911,5.252,-3.957
 \C,0,-8.986,4.766,-3.016\C,0,-9.275,3.558,-2.249\C,0,-8.246,2.686,-1.8
 59\C,0,-8.532,1.58,-1.092\N,0,-9.773,1.275,-0.69\C,0,-10.773,2.072,-1.
 08\C,0,-10.57,3.2,-1.849\C,0,-7.776,5.438,-2.821\C,0,-7.512,6.576,-3.5
 62\C,0,-6.415,7.507,-3.651\C,0,-5.184,7.636,-3.032\C,0,-2.314,7.718,-2
 .342\H,0,-0.537,7.006,-1.373\H,0,-0.771,11.122,-1.653\H,0,-2.946,10.99
 9,-2.803\H,0,-4.11,10.413,-4.67\H,0,-6.297,10.19,-5.775\H,0,-10.367,6.
 736,-5.445\H,0,-10.829,4.712,-4.124\H,0,-7.231,2.865,-2.174\H,0,-7.738
 ,0.899,-0.785\H,0,-11.772,1.792,-0.757\H,0,-11.415,3.816,-2.115\H,0,-7
 .069,5.103,-2.076\H,0,-4.897,6.945,-2.253\H,0,-2.682,6.725,-2.544\\Ver
 sion=ES64L-G16RevC.01\State=1-A\HF=-8748.0184511\RMSD=1.617e-09\Dipole
 =0.0117191,0.0048279,-0.0061337\Quadrupole=488.3737967,486.8965053,-97
 5.270302,-2.6991443,-55.5165384,-74.2762394\PG=C01 [X(C176H112N16O8Pd4
 )]\\@
 The archive entry for this job was punched.


 SIGN SEEN IN A RESTAURANT-
 WE RESERVE THE RIGHT TO SERVE REFUSE TO ANYONE.
 Job cpu time:       6 days 16 hours 44 minutes 42.0 seconds.
 Elapsed time:       0 days  3 hours 40 minutes 57.0 seconds.
 File lengths (MBytes):  RWF=  14360 Int=      0 D2E=      0 Chk=    720 Scr=     16
 Normal termination of Gaussian 16 at Mon Jan  2 22:31:43 2023.
