     728
 i =      342, E =     -3436.4444022895
  C        -4.8808253466        6.7202397789        8.1968473550
  C        -5.2419509059        5.6428777516        9.0179416178
  C        -4.4860378654        4.4785761999        9.0081849845
  C        -3.3752309464        4.3248711454        8.1520002970
  C        -2.7040045596        3.0009260469        8.0803833996
  C        -3.5041577545        1.8689379045        8.0802289990
  C        -2.9496368434        0.5718417797        8.0458721123
  C        -3.8034608053       -0.5514503566        8.0546457444
  C        -3.3055152492       -1.8463997250        8.0477287116
  C        -4.2851627346       -2.9634319924        8.0833815881
  C        -4.1290572710       -4.1066268797        8.8913977131
  C        -5.1595850231       -5.0404066151        9.0362999321
  C        -6.3908924428       -4.8284017927        8.3982880377
  C        -6.5348236141       -3.7368954843        7.5291983590
  C        -5.4901400108       -2.8358203696        7.3643831340
  C        -1.8992954097       -2.0177393076        8.0408538056
  C        -1.0064394160       -0.9399663091        8.0233362802
  C         0.4576233196       -1.1220963389        8.0045691040
  C         1.0579992709       -2.3845393829        8.0433814564
  C         2.4632834170       -2.5635711754        8.0537646555
  C         3.1160964578       -3.8928564305        8.1404251789
  C         4.2664046465       -4.0460365577        8.9416374212
  C         4.9899668963       -5.2313894645        8.9537351925
  C         4.5641487486       -6.3281206054        8.1901260446
  C         3.3861866976       -6.2129851388        7.4320789173
  C         2.6798742346       -5.0097630432        7.4050205250
  C         3.2670068462       -1.4362823072        7.9895969098
  C         2.7153608638       -0.1380111877        7.9441556476
  C         3.5716741458        0.9815788520        7.9009347219
  C         3.0778960446        2.2774368582        7.9123930436
  C         4.0819098275        3.3755728093        7.9163361486
  C         5.2069060366        3.2661555473        7.0756265300
  C         6.3035171575        4.1098621953        7.2117820595
  C         6.2909017958        5.1224784633        8.1815419954
  C         5.1382311282        5.3184012909        8.9566690522
  C         4.0535559149        4.4442434702        8.8320694982
  C         1.6730565036        2.4576999301        7.9612343240
  C         0.7741064036        1.3828960643        7.9755526850
  C        -0.6923769779        1.5654349976        8.0012829925
  C        -1.2978580953        2.8274964869        8.0247622269
  C        -1.5277239691        0.3970319558        8.0194690446
  C         1.2941801019        0.0442665074        7.9688052632
  C        -3.0141508581        5.4201130984        7.3480835035
  C        -3.7513437892        6.6082823842        7.3702580528
  H        -6.0924254443        5.7427651135        9.6903792158
  H        -4.7511035378        3.6693578226        9.6886409178
  H        -4.5905443992        1.9669039066        8.0863871662
  H        -4.8784736432       -0.3784203735        8.1146808122
  H        -3.2143179077       -4.2377445062        9.4709275513
  H        -5.0382861071       -5.8930261287        9.7045600805
  H        -7.4592840124       -3.6157046291        6.9661009866
  H        -5.6155207654       -2.0029639031        6.6722137112
  H        -1.5134645823       -3.0365324271        8.0306078421
  H         0.4354458444       -3.2756509438        8.1130204460
  H         4.5838655232       -3.2227671681        9.5821284473
  H         5.8617709336       -5.3358099666        9.5963348831
  H         3.0629604710       -7.0507395172        6.8136276237
  H         1.8007807247       -4.9220769300        6.7644497295
  H         4.3530225990       -1.5369535476        7.9613819366
  H         4.6486602811        0.8093659687        7.9141144219
  H         5.2309502564        2.4851158472        6.3150761394
  H         7.1715527548        3.9953664203        6.5629401266
  H         5.1283038302        6.0976565337        9.7192605948
  H         3.2074306949        4.5495960395        9.5128468549
  H         1.2928067998        3.4789209135        7.9700561944
  H        -0.6773069073        3.7229730560        8.0407489477
  H        -2.1729669517        5.3296650839        6.6589777562
  H        -3.4921099554        7.4296854023        6.7011821222
  C         8.3691809687        4.8750732827       -6.4039790012
  C         9.0895107118        5.2772130056       -5.2702325698
  C         9.0070293163        4.5401555065       -4.0965442710
  C         8.1769597137        3.4044265416       -3.9931027201
  C         8.0609591024        2.7127584560       -2.6837907608
  C         7.9967161172        3.4787668841       -1.5292646883
  C         7.9681107132        2.8828160469       -0.2493534357
  C         7.9618471105        3.6976970983        0.9059747112
  C         8.0443077862        3.1475418797        2.1748914622
  C         8.1414185193        4.1067645916        3.3165409140
  C         9.3573906671        4.3222500483        3.9868143014
  C         9.5211042193        5.4158159946        4.8426641355
  C         8.4507636299        6.2942193809        5.0735442612
  C         7.1975629784        6.0179458605        4.5088859759
  C         7.0597096862        4.9535296660        3.6194634217
  C         8.0731753026        1.7400042096        2.3033312871
  C         8.0138557235        0.8836736999        1.1960517690
  C         7.9720672087       -0.5857301979        1.3281343881
  C         7.9590981825       -1.2298062811        2.5692959013
  C         7.9398413284       -2.6407522152        2.6993089522
  C         8.0067325186       -3.3350522993        4.0102535587
  C         8.8006800996       -4.4946841229        4.1307510597
  C         8.8355304302       -5.2346861769        5.3047020930
  C         8.1037347580       -4.8114001201        6.4232082385
  C         7.3300745070       -3.6425057054        6.3370797050
  C         7.2812594870       -2.9207323409        5.1414253976
  C         7.8901286022       -3.4055404650        1.5434811471
  C         7.9058702801       -2.8097185048        0.2637114724
  C         7.9137072577       -3.6256013754       -0.8903417877
  C         8.0369011204       -3.0786759234       -2.1570364215
  C         8.1505669243       -4.0503316928       -3.2880398439
  C         7.0464904779       -4.8392116942       -3.6577409650
  C         7.1887024503       -5.9296195528       -4.5150968917
  C         8.4630787583       -6.2894186751       -4.9762909654
  C         9.5613374750       -5.4645311221       -4.6856038040
  C         9.3979662003       -4.3459642761       -3.8635179305
  C         8.0929398351       -1.6721764660       -2.2869036829
  C         8.0248168403       -0.8133214932       -1.1814270495
  C         8.0163892146        0.6570802013       -1.3138540910
  C         8.0480351171        1.3015518268       -2.5544774690
  C         7.9914074020        1.4548549629       -0.1196966142
  C         7.9602047193       -1.3829428271        0.1336231368
  C         7.4647094599        3.0102284511       -5.1397803900
  C         7.5596142549        3.7295651337       -6.3342158604
  H         9.7477313161        6.1419232981       -5.3330135608
  H         9.6165165763        4.8348917252       -3.2423589007
  H         7.9678778025        4.5673852492       -1.5947933462
  H         7.9511005085        4.7820499059        0.7834607665
  H        10.2094783356        3.6725433664        3.7822342576
  H        10.4877495271        5.6016962470        5.3128520143
  H         6.3552626255        6.6749949340        4.7175711645
  H         6.0998858406        4.7897905883        3.1279501350
  H         8.1324355697        1.3242559078        3.3086235132
  H         8.0056383307       -0.6389881132        3.4834467660
  H         9.4201685684       -4.8064465391        3.2899989661
  H         9.4669788436       -6.1180138019        5.3809222999
  H         6.7236593197       -3.3363446130        7.1901522094
  H         6.6369586879       -2.0424907430        5.0771387660
  H         7.8374834347       -4.4932602948        1.6074501932
  H         7.8786586765       -4.7093293465       -0.7672983452
  H         6.0641915002       -4.6127109970       -3.2408442054
  H         6.3283118227       -6.5450351673       -4.7727468537
  H        10.5471857727       -5.7117311344       -5.0824339303
  H        10.2676632363       -3.7386369340       -3.6085655631
  H         8.1846674527       -1.2589343884       -3.2907767651
  H         8.1066368995        0.7101494955       -3.4675854126
  H         6.7944238975        2.1507528617       -5.0893049375
  H         6.9619457673        3.4408652489       -7.1995711292
  C         6.6384624852        8.2373617237       -4.7631637886
  C         6.2528336533        9.2559279386       -3.8698381222
  C         5.0932950430        9.1229767485       -3.1076157682
  C         4.2762350409        7.9827219420       -3.2237524136
  C         2.9430758480        7.9101112729       -2.5691182122
  C         1.8336942445        7.7093486207       -3.3745540887
  C         0.5246244965        7.7386159585       -2.8426220545
  C        -0.5869719814        7.6571042702       -3.7087362470
  C        -1.8862443494        7.7751807140       -3.2366630252
  C        -2.9863147824        7.7851549139       -4.2362297412
  C        -4.0192487133        8.7418710303       -4.2153316803
  C        -4.9227323568        8.8543905767       -5.2754242914
  C        -4.7936416911        8.0245907724       -6.3989182554
  C        -3.8114457275        7.0236950635       -6.4062923999
  C        -2.9364671364        6.9016422403       -5.3317744081
  C        -2.0802024486        7.9376870009       -1.8428581162
  C        -1.0180850700        7.9815016023       -0.9329227819
  C        -1.2212311764        8.1085899737        0.5243507548
  C        -2.4916768116        8.1497612125        1.1091006940
  C        -2.6874142552        8.2820101533        2.5069951694
  C        -4.0236967065        8.3352464068        3.1512520771
  C        -4.2307408014        9.2026670542        4.2441477830
  C        -5.4098377547        9.1786015081        4.9780055089
  C        -6.4502823913        8.3095397507        4.6172471895
  C        -6.2859668944        7.4825797159        3.4930178257
  C        -5.0865690753        7.4926071228        2.7785749489
  C        -1.5671010515        8.3450518019        3.3210610071
  C        -0.2621440452        8.2807306074        2.7884479314
  C         0.8482814305        8.3029914542        3.6574936956
  C         2.1487759151        8.2230480226        3.1815419665
  C         3.2397033076        8.2188266500        4.1914522433
  C         3.0541465821        7.4761890164        5.3742345523
  C         3.9159912256        7.6036812163        6.4561995997
  C         5.0226608855        8.4610092249        6.3726106526
  C         5.2934150305        9.1200333402        5.1639488149
  C         4.3998423643        9.0101029336        4.0938925720
  C         2.3437804580        8.1566322302        1.7798801610
  C         1.2781435766        8.1386332750        0.8712028874
  C         1.4786143908        8.0419821863       -0.5875999441
  C         2.7462319282        8.0817517588       -1.1776829406
  C         0.3259094312        7.9110518297       -1.4331266937
  C        -0.0654306713        8.1776983153        1.3732550129
  C         4.6885298690        6.9599070156       -4.0986227976
  C         5.8433848125        7.0847133876       -4.8635594323
  H         6.8216731109       10.1851054846       -3.8174654196
  H         4.7794758274        9.9469540800       -2.4652664027
  H         1.9562503741        7.5959277628       -4.4531221612
  H        -0.4021035675        7.5718727357       -4.7804028446
  H        -4.0747858493        9.4576810773       -3.3937852986
  H        -5.6765846524        9.6421003738       -5.2720997655
  H        -3.7475932776        6.3367863717       -7.2501276386
  H        -2.1841994060        6.1123172509       -5.3487633046
  H        -3.1044026445        8.0213721804       -1.4803880453
  H        -3.3776757873        8.1075491900        0.4764601499
  H        -3.4551001637        9.9214337097        4.5099028581
  H        -5.5557211663        9.8707122238        5.8051744398
  H        -7.0794055823        6.7863270913        3.2207465966
  H        -4.9566883733        6.7983021752        1.9467465071
  H        -1.6786810341        8.4098453610        4.4042971041
  H         0.6649484140        8.4108595522        4.7271623616
  H         2.2055673410        6.7961070497        5.4505039210
  H         3.7517954637        7.0219427572        7.3623429922
  H         6.1601930984        9.7767558214        5.0908032906
  H         4.5755693368        9.6035455608        3.1957481645
  H         3.3667709379        8.0809686004        1.4121844204
  H         3.6288733610        8.2328882868       -0.5570614370
  H         4.0849788611        6.0557639751       -4.1866628345
  H         6.1462655652        6.2811455153       -5.5328620427
  C        -8.1990455510        4.8963322580        6.5213489973
  C        -9.2206642912        3.9942223667        6.1665425686
  C        -9.0926260572        3.1949679575        5.0311020421
  C        -7.9532671035        3.2814640878        4.2100162247
  C        -7.8921432627        2.6054807087        2.8856389542
  C        -7.7398976524        3.4045665780        1.7644609846
  C        -7.7675285839        2.8571138350        0.4620566878
  C        -7.7195928230        3.7121207103       -0.6590815462
  C        -7.8092342612        3.2215615164       -1.9539491727
  C        -7.8303628393        4.2087956161       -3.0645862039
  C        -8.7278532620        4.1280056357       -4.1469852069
  C        -8.8564743661        5.1761839924       -5.0630267221
  C        -8.1078669985        6.3500254145       -4.8920583086
  C        -7.1538788326        6.4147287195       -3.8661990540
  C        -7.0099735855        5.3509324037       -2.9831960233
  C        -7.9235858269        1.8206524846       -2.1310088343
  C        -7.9465916944        0.9235641404       -1.0572656419
  C        -8.0263754098       -0.5390297619       -1.2426997170
  C        -8.0659253368       -1.1368587026       -2.5064257202
  C        -8.1473554526       -2.5401833106       -2.6870307827
  C        -8.2091356345       -3.1910313618       -4.0189608058
  C        -9.0382331642       -4.3172028695       -4.2017912508
  C        -9.0247956696       -5.0444788231       -5.3849350531
  C        -8.2063233615       -4.6451655724       -6.4518232272
  C        -7.4177861186       -3.4905986576       -6.3090291772
  C        -7.4165736402       -2.7818252026       -5.1067484546
  C        -8.1577397817       -3.3460245967       -1.5589684462
  C        -8.1019026756       -2.7986377228       -0.2595351843
  C        -8.0882016484       -3.6562618169        0.8606963745
  C        -8.0430568214       -3.1613366469        2.1554651237
  C        -8.0208576492       -4.1534230833        3.2629119066
  C        -7.1951030512       -5.2876845327        3.1382661910
  C        -7.2874974162       -6.3561214205        4.0228683874
  C        -8.2001693208       -6.3068317967        5.0866657074
  C        -8.9628873715       -5.1466323600        5.2860948540
  C        -8.8804144345       -4.0892550740        4.3754362024
  C        -8.0314565143       -1.7563872891        2.3347827294
  C        -8.0347041533       -0.8590904143        1.2596482721
  C        -7.9837511163        0.6044475586        1.4442173834
  C        -8.0220270266        1.2071630022        2.7066740139
  C        -7.8915271060        1.4405716816        0.2809575948
  C        -8.0548503494       -1.3779028506       -0.0779697189
  C        -6.9230919958        4.1592449729        4.5976551578
  C        -7.0433332218        4.9620082101        5.7274146412
  H       -10.1495520267        3.9657820778        6.7375785263
  H        -9.9204717775        2.5483205246        4.7370031245
  H        -7.6591594475        4.4874113314        1.8738831344
  H        -7.6751529559        4.7878419857       -0.4848411797
  H        -9.3865800623        3.2634572743       -4.2393809853
  H        -9.5905182970        5.1163457517       -5.8665939110
  H        -6.5114633736        7.2902288543       -3.7820961379
  H        -6.2533057825        5.4129022968       -2.2005316680
  H        -7.9826558799        1.4423747222       -3.1510557393
  H        -8.0658020855       -0.5118631710       -3.3986846285
  H        -9.7200703194       -4.6135787866       -3.4042947337
  H        -9.6884808231       -5.8973403114       -5.5120294721
  H        -6.7578819682       -3.1884375326       -7.1225308803
  H        -6.7522665055       -1.9231762941       -4.9959047396
  H        -8.1812633226       -4.4320262994       -1.6602649035
  H        -8.1475170274       -4.7321292754        0.6906788368
  H        -6.4766897058       -5.3374074779        2.3194921231
  H        -6.6451391355       -7.2286684932        3.9031725470
  H        -9.6832985689       -5.1112505577        6.1036976528
  H        -9.5489092070       -3.2348706055        4.4922116687
  H        -7.9831675926       -1.3760195954        3.3547921731
  H        -8.1359730954        0.5917468259        3.5984249724
  H        -6.0192141190        4.2234765388        3.9906886451
  H        -6.2369275610        5.6376269917        6.0088349500
  C        -4.7549662723       -6.4592676856       -8.1571267863
  C        -3.8265216104       -6.1042896534       -9.1553230287
  C        -3.0314796761       -4.9689477698       -9.0081535683
  C        -3.1475317738       -4.1429474881       -7.8740329761
  C        -2.4540411638       -2.8282501338       -7.8041173885
  C        -3.2287636188       -1.6915887902       -7.6323000311
  C        -2.6620854877       -0.3985408343       -7.7073988022
  C        -3.4980590738        0.7417029430       -7.6845221912
  C        -2.9884168034        2.0119521168       -7.9045354592
  C        -3.9681105803        3.1320431711       -8.0111121219
  C        -4.8115855945        3.4377911917       -6.9276218955
  C        -5.8775657410        4.3244436269       -7.0649239989
  C        -6.1589630646        4.8850170938       -8.3186187472
  C        -5.2894262940        4.6465211022       -9.3936189818
  C        -4.1935016521        3.7928685943       -9.2308136764
  C        -1.5924249472        2.1623811083       -8.0700645323
  C        -0.7092431379        1.0777928710       -8.0156333051
  C         0.7544682202        1.2405494478       -8.1001940237
  C         1.3702041251        2.4955727990       -8.1433336634
  C         2.7759862306        2.6569195544       -8.2255358276
  C         3.4439687500        3.9815606977       -8.2737095494
  C         4.5841175275        4.1581849052       -9.0848008195
  C         5.3211442411        5.3355417155       -9.0563449902
  C         4.9177476574        6.4037447651       -8.2412786617
  C         3.7513486717        6.2672108382       -7.4699129204
  C         3.0338115844        5.0699975961       -7.4823358017
  C         3.5643829812        1.5165703675       -8.2396022930
  C         2.9978339399        0.2255232116       -8.1695015732
  C         3.8387465880       -0.9064699681       -8.1415496091
  C         3.3266992176       -2.1929835899       -8.0593513473
  C         4.3117357845       -3.3069434585       -8.0120894590
  C         5.4487178256       -3.1634319502       -7.1928230130
  C         6.5185519452       -4.0471516192       -7.2703620221
  C         6.4689626803       -5.1311999558       -8.1590409002
  C         5.3045068065       -5.3505107080       -8.9103094098
  C         4.2456978265       -4.4395660982       -8.8447348886
  C         1.9191207962       -2.3530074995       -8.0271397034
  C         1.0365201100       -1.2650611649       -8.0495761211
  C        -0.4295640040       -1.4247288021       -7.9642646764
  C        -1.0555812303       -2.6755967182       -7.9709670164
  C        -1.2466526831       -0.2459182606       -7.8831191048
  C         1.5754835265        0.0637028164       -8.1098158802
  C        -4.0567976630       -4.5262514616       -6.8696081960
  C        -4.8537612697       -5.6590434333       -7.0077814081
  H        -3.7717395789       -6.6770657512      -10.0819495028
  H        -2.3619200806       -4.6779573116       -9.8187707200
  H        -4.3107801195       -1.7812679012       -7.5214465625
  H        -4.5742235712        0.6017184661       -7.5685247431
  H        -4.6378683869        2.9578894059       -5.9635307701
  H        -6.5274934492        4.5404596185       -6.2190641050
  H        -5.4833452452        5.1092916786      -10.3623085350
  H        -3.5496379621        3.5830759154      -10.0861397571
  H        -1.2072880240        3.1676570129       -8.2380300184
  H         0.7571266283        3.3960196137       -8.1365827819
  H         4.8847237398        3.3612795965       -9.7654934796
  H         6.1847371117        5.4578601961       -9.7073480474
  H         3.4449491859        7.0825580982       -6.8142436330
  H         2.1652259564        4.9641078722       -6.8302554018
  H         4.6517185195        1.6005952288       -8.2669682350
  H         4.9163713052       -0.7535332968       -8.2126736655
  H         5.4998809092       -2.3289316090       -6.4928836945
  H         7.3930002588       -3.9111881876       -6.6340867147
  H         5.2672949669       -6.1836503875       -9.6125534906
  H         3.3895838472       -4.5724705609       -9.5079852594
  H         1.5248913989       -3.3653396923       -7.9415338144
  H        -0.4593733847       -3.5792772036       -8.0938151576
  H        -4.1473460503       -3.9173758673       -5.9692457335
  H        -5.5487440111       -5.9400473174       -6.2177145025
  C         6.2940067818       -8.1349467047        4.7669144751
  C         5.9066934399       -9.1447125431        3.8643052183
  C         4.7575390224       -8.9946143260        3.0910711144
  C         3.9495335602       -7.8470189715        3.2053176455
  C         2.6311530481       -7.7674832138        2.5228923655
  C         1.4981451255       -7.5670733940        3.2961775794
  C         0.2037086725       -7.6375260494        2.7308590095
  C        -0.9362393381       -7.5976644462        3.5666093969
  C        -2.2072389659       -7.8216063613        3.0601589137
  C        -3.3200177539       -7.9335335993        4.0484540491
  C        -3.6457446161       -6.8464279563        4.8798562002
  C        -4.5090818919       -6.9950321217        5.9638748543
  C        -5.0212089114       -8.2624696995        6.2761956551
  C        -4.7703109567       -9.3408878182        5.4135455070
  C        -3.9432680796       -9.1681084187        4.2997448186
  C        -2.3607401067       -7.9996834992        1.6657188001
  C        -1.2763973407       -7.9607981309        0.7810567389
  C        -1.4380944663       -8.0651339906       -0.6822373980
  C        -2.6922410328       -8.0989310060       -1.3019168851
  C        -2.8488989703       -8.2086360722       -2.7066639125
  C        -4.1683136054       -8.2607452889       -3.3872438165
  C        -4.3330762643       -9.1094601179       -4.5019031540
  C        -5.4962440450       -9.0982420579       -5.2597925072
  C        -6.5622636330       -8.2639915423       -4.8955461135
  C        -6.4402892129       -7.4445799898       -3.7627257155
  C        -5.2525090684       -7.4422933457       -3.0250907692
  C        -1.7061227409       -8.2579372234       -3.4903133698
  C        -0.4162834585       -8.1994878009       -2.9204839679
  C         0.7191369751       -8.2177157155       -3.7571706860
  C         2.0060103118       -8.1418877618       -3.2435714798
  C         3.1310753306       -8.1519977815       -4.2147336573
  C         2.9801195210       -7.4555938551       -5.4305201098
  C         3.8865781314       -7.6054053718       -6.4722546821
  C         5.0059843133       -8.4365656502       -6.3155427586
  C         5.2415745319       -9.0427047189       -5.0721292539
  C         4.3035592362       -8.9129501422       -4.0434089442
  C         2.1594996112       -8.0710082825       -1.8366152889
  C         1.0682990247       -8.0568325555       -0.9592466824
  C         1.2258355431       -7.9434175848        0.5035626733
  C         2.4758998447       -7.9565118862        1.1286988728
  C         0.0482821509       -7.8332488508        1.3180838672
  C        -0.2595351687       -8.1095983221       -1.4996816251
  C         4.3616901074       -6.8342019765        4.0913704155
  C         5.5092266304       -6.9749481018        4.8657600775
  H         6.4658365102      -10.0797017720        3.8124028246
  H         4.4422822880       -9.8104332834        2.4391061023
  H         1.5901194469       -7.4391715534        4.3761692176
  H        -0.7954878275       -7.4713668786        4.6414776715
  H        -3.1969327403       -5.8714277038        4.6850254209
  H        -4.7375928098       -6.1473625318        6.6076919143
  H        -5.2019586189      -10.3197743082        5.6273525372
  H        -3.7207606113      -10.0250852107        3.6622253528
  H        -3.3667770844       -8.1699230991        1.2834531246
  H        -3.5947642063       -8.0628170688       -0.6925226111
  H        -3.5355174054       -9.8030384701       -4.7683140711
  H        -5.6052198288       -9.7669492291       -6.1121630796
  H        -7.2542907896       -6.7684406909       -3.4989051859
  H        -5.1543808197       -6.7590358473       -2.1800877736
  H        -1.7884272394       -8.3037465967       -4.5769274750
  H         0.5643549758       -8.3226228341       -4.8315102203
  H         2.1239009995       -6.7945502551       -5.5655698928
  H         3.7470681701       -7.0606471381       -7.4051213422
  H         6.1169576471       -9.6784450491       -4.9402387594
  H         4.4554048721       -9.4696365145       -3.1177407053
  H         3.1707872578       -7.9880528429       -1.4394084597
  H         3.3779413510       -8.1024040555        0.5354215410
  H         3.7663780369       -5.9247368658        4.1799033857
  H         5.8144277385       -6.1779042864        5.5418313153
 Zn         7.9232690342        8.0548334869        7.9215070907
  C        12.0830933053        5.9596987273        9.7797279505
  C        10.8998561272        5.2608338239        9.5278126325
  C         9.8003651290        5.9494237978        9.0038444406
  H        10.8219969141        4.1957555293        9.7481964047
  N         9.8452876535        7.2757725514        8.7183798959
  C         8.5281054100        5.2682035181        8.7721893388
  C        10.9883102527        7.9384421651        8.9605009200
  C        12.1271975772        7.3230556915        9.4920603469
  H        10.9925754564        9.0030605178        8.7260102413
  H        13.0260021570        7.9113678102        9.6769842013
  H        12.9517456834        5.4514108096       10.1987501925
  N         7.4641036302        5.9070043832        8.4057106321
  H         8.4981369968        4.1860531133        8.9553340368
  C         6.1685927569       10.0480637076       12.1222788983
  C         5.4128385812        9.8876428839       10.9573562888
  C         6.0069564674        9.2943956893        9.8388263727
  H         4.3781584405       10.2289858736       10.9105481318
  N         7.2954070310        8.8624306102        9.8466892064
  C         5.2703180514        9.1211576438        8.5886689536
  C         8.0111525646        9.0120467400       10.9724825120
  C         7.4886832204        9.6002815640       12.1303843571
  H         9.0385894375        8.6490973029       10.9461844812
  H         8.1146377928        9.7032095408       13.0166817700
  H         5.7352434538       10.5167109223       13.0061340682
  N         5.8442661123        8.6652988378        7.5207967939
  H         4.2116585050        9.4107654380        8.5793686907
  C        10.7075719002       11.8062512496        6.2900867310
  C        10.5783166029       10.5884321875        5.6157478587
  C         9.6895282852        9.6280833447        6.1095309865
  H        11.1611077840       10.3827862199        4.7173542686
  N         8.9546160011        9.8361787876        7.2340618286
  C         9.4876303244        8.3541574714        5.4175559947
  C         9.0752764213       11.0131829005        7.8690383378
  C         9.9361268607       12.0259723417        7.4303750406
  H         8.4701704568       11.1434955072        8.7667760176
  H        10.0008297833       12.9621352178        7.9848965219
  H        11.3986563396       12.5693687690        5.9311938618
  N         8.6130542208        7.4948499996        5.8298122949
  H        10.0780527428        8.1744104207        4.5090502971
 Zn         7.5979338109       -7.7597448062        7.8145400338
  C         5.7118288912      -12.2575781476        8.9086440329
  C         4.9295435549      -11.1080243988        8.7762861687
  C         5.5495320111       -9.8899296524        8.4771205446
  H         3.8491358152      -11.1480778967        8.9180334573
  N         6.8936342545       -9.7871722758        8.3024066864
  C         4.7759993201       -8.6527287117        8.4025366628
  C         7.6369522532      -10.8989612683        8.4297460301
  C         7.0905749563      -12.1503419281        8.7341371086
  H         8.7115262940      -10.7822957406        8.2911904058
  H         7.7433859965      -13.0168711959        8.8378066468
  H         5.2549720225      -13.2169735073        9.1523693914