     728
 i =      331, E =     -3436.3988085769
  C        -5.9461342098        5.7727804580        8.2369671999
  C        -4.7002703878        5.9048968704        8.8646665283
  C        -3.7078256023        4.9401620141        8.6501365952
  C        -3.9210283644        3.8524938956        7.7820382303
  C        -3.0663172546        2.6339765598        7.7705909079
  C        -3.7372143568        1.4200614883        7.7509297386
  C        -3.0589281736        0.1946170148        7.8964311866
  C        -3.8059135733       -0.9904620111        8.0300639152
  C        -3.2114087957       -2.1975312389        8.3713591603
  C        -4.1258420117       -3.3161056460        8.7218364729
  C        -3.8968213255       -4.6809458353        8.4563684889
  C        -4.8707747067       -5.6486451710        8.7256118787
  C        -6.1062008447       -5.2779426148        9.2797116964
  C        -6.3335968315       -3.9231373509        9.5765824978
  C        -5.3563886837       -2.9775454694        9.3245979392
  C        -1.7918934258       -2.2405889540        8.4191294745
  C        -0.9963129569       -1.1060517677        8.2022913187
  C         0.4797442092       -1.1446553425        8.1946983436
  C         1.1989788391       -2.3412444623        8.2248232586
  C         2.6170305853       -2.3870767934        8.2356231282
  C         3.3599859625       -3.6726245853        8.2836324589
  C         4.5794626613       -3.7715545874        8.9862899679
  C         5.3136089657       -4.9531674064        9.0144852108
  C         4.8309774951       -6.1040894312        8.3722897654
  C         3.6110042258       -6.0281123351        7.6777721121
  C         2.8981217707       -4.8305014419        7.6289898389
  C         3.3091783732       -1.1841214319        8.2074266741
  C         2.6354536327        0.0597392704        8.1710785972
  C         3.3742429236        1.2665409532        8.1690297510
  C         2.7451790204        2.5044031746        8.1620658680
  C         3.5428382919        3.7554478991        8.2377563618
  C         4.7558037478        3.7867051022        8.9577479266
  C         5.5217662984        4.9434036166        9.0517821280
  C         5.0694842959        6.1350263214        8.4666957849
  C         3.8716996601        6.1256002824        7.7337958854
  C         3.1316731771        4.9489114361        7.6141968861
  C         1.3286420461        2.5293501052        8.1030966970
  C         0.5476513584        1.3724122364        8.0787638913
  C        -0.9252201611        1.4110851913        7.9830925234
  C        -1.6525469308        2.6059898529        7.8821097914
  C        -1.6354782122        0.1653070333        8.0131642923
  C         1.2008083821        0.0959866910        8.1450399875
  C        -5.1240502272        3.8378507632        7.0476549554
  C        -6.1356968415        4.7589741458        7.2886492349
  H        -4.5401588274        6.7025956594        9.5904042504
  H        -2.7916258323        4.9909435994        9.2401635058
  H        -4.8264576338        1.3973276839        7.7246437289
  H        -4.8858248169       -0.9260325581        7.9007740505
  H        -2.9518825322       -4.9940152673        8.0089849517
  H        -4.6762610806       -6.7014462028        8.5227832279
  H        -7.2949669215       -3.6044879591        9.9792969469
  H        -5.5517768039       -1.9441675130        9.6056350112
  H        -1.3156450479       -3.1843592572        8.6850441374
  H         0.6586343366       -3.2862599971        8.2668691686
  H         4.9398257621       -2.9152876508        9.5568389257
  H         6.2318273891       -5.0129184205        9.5966179534
  H         3.2461916320       -6.9033384160        7.1392352996
  H         1.9757282748       -4.7886996332        7.0480937565
  H         4.4000989908       -1.1777271361        8.1944659514
  H         4.4632667425        1.2025935035        8.1678327902
  H         5.0857569735        2.8962691068        9.4925508548
  H         6.4387582720        4.9492208789        9.6390741531
  H         3.5464565211        7.0334989773        7.2250757091
  H         2.2248733022        4.9577993820        7.0083375381
  H         0.8385211599        3.5016379337        8.1087732938
  H        -1.1237062498        3.5587558994        7.8827707179
  H        -5.2940522194        3.0555425246        6.3077191874
  H        -7.0812093191        4.6872848721        6.7539394787
  C         8.8572385166        5.0179395891       -6.0563387415
  C         9.9320385717        4.2857202486       -5.5164419646
  C         9.7871950893        3.6199625453       -4.3027392841
  C         8.5815118843        3.6804877792       -3.5778443992
  C         8.4514845184        2.9430939570       -2.2896443830
  C         8.2671378392        3.6016033825       -1.0831067513
  C         8.2548011438        2.8860423277        0.1432898029
  C         8.1965076985        3.5711669017        1.3850775586
  C         8.3109642028        2.8839170526        2.5843007756
  C         8.3769556037        3.6028693548        3.8881288588
  C         9.5506406493        3.5440256418        4.6635678023
  C         9.6466606888        4.2204583436        5.8765968953
  C         8.5533035914        4.9617917724        6.3641023809
  C         7.3830595268        5.0363280704        5.5923896328
  C         7.2993314673        4.3636505472        4.3736178044
  C         8.4155651180        1.4739821080        2.5590107333
  C         8.4010555536        0.7414227472        1.3726744880
  C         8.4350048144       -0.7334290073        1.3553723348
  C         8.4015605733       -1.4921912727        2.5236104691
  C         8.4277429011       -2.9085133609        2.5227749664
  C         8.4055860079       -3.6563862472        3.8054420940
  C         9.1402543231       -4.8484607770        3.9653842467
  C         9.1415123612       -5.5461523918        5.1692068660
  C         8.4347884130       -5.0461426056        6.2728484813
  C         7.6847407319       -3.8682437110        6.1320151117
  C         7.6664832144       -3.1947211863        4.9113329635
  C         8.4841866220       -3.5663287466        1.3001836343
  C         8.5146557353       -2.8493070089        0.0778172952
  C         8.5572245070       -3.5335302082       -1.1637504869
  C         8.5668839496       -2.8421878685       -2.3687567209
  C         8.5977632385       -3.5468351083       -3.6748873550
  C         9.3447954542       -4.7273148809       -3.8607131538
  C         9.3754141331       -5.3827883468       -5.0896350170
  C         8.6832379870       -4.8567372299       -6.1916491621
  C         7.9395358385       -3.6767539665       -6.0249946506
  C         7.8912094164       -3.0451332684       -4.7850118731
  C         8.5411343907       -1.4266936378       -2.3316564347
  C         8.5087798123       -0.7006577082       -1.1434756458
  C         8.4754807849        0.7729883158       -1.1251248597
  C         8.5585066894        1.5333542164       -2.2903105573
  C         8.3638351741        1.4528322220        0.1300325562
  C         8.4865454305       -1.4131050033        0.0969886795
  C         7.5267534189        4.4429167637       -4.1087769742
  C         7.6597198635        5.1050619187       -5.3289363044
  H        10.8969465206        4.2683013664       -6.0245967913
  H        10.6337694607        3.0702440227       -3.8892620779
  H         8.1989815141        4.6909296391       -1.0582953124
  H         8.1311619128        4.6609272932        1.3832227089
  H        10.4135176803        2.9919200803        4.2886669209
  H        10.5905009955        4.2082669854        6.4229512518
  H         6.5286398155        5.5975902530        5.9682173567
  H         6.3752226394        4.4160599146        3.7963643872
  H         8.5001762618        0.9617626262        3.5164197439
  H         8.3783161124       -0.9896215178        3.4888176982
  H         9.7570360498       -5.2139684736        3.1440904646
  H         9.7434067437       -6.4465288413        5.2811630700
  H         7.0841923558       -3.5093584971        6.9687518557
  H         7.0483916341       -2.3017487292        4.8120832876
  H         8.4802974700       -4.6568894207        1.2622810683
  H         8.5552779317       -4.6249584685       -1.1549374117
  H         9.9478098184       -5.1157461482       -3.0391752331
  H         9.9940349732       -6.2691726176       -5.2205207828
  H         7.3629746037       -3.2842764270       -6.8628032892
  H         7.2730529812       -2.1538219942       -4.6708348571
  H         8.5715238298       -0.8977376616       -3.2823495728
  H         8.7001546445        1.0443103275       -3.2529257402
  H         6.5795591332        4.4982555589       -3.5704008441
  H         6.8213083494        5.6631907890       -5.7432463084
  C         6.6612509967        8.5199811399       -5.0490463759
  C         6.5395157616        7.8970985264       -3.7972665675
  C         5.3274883671        7.9328198370       -3.1110829030
  C         4.2096622157        8.6168457367       -3.6257051846
  C         2.9169421545        8.6601512786       -2.9005868099
  C         1.7190628683        8.7773362789       -3.5902026195
  C         0.4785889801        8.8169178715       -2.9132363217
  C        -0.7180277429        8.9498813622       -3.6474025286
  C        -1.9583079180        8.9492670690       -3.0251609902
  C        -3.1272285166        9.0750207756       -3.9394295426
  C        -4.1528164257        8.1182656333       -4.0378183285
  C        -5.0357611764        8.1242379010       -5.1213666734
  C        -4.9041202189        9.0753541374       -6.1487383393
  C        -3.9947651005       10.1357842763       -5.9603103934
  C        -3.1232758657       10.1258451118       -4.8807988574
  C        -2.0111635605        8.8209813531       -1.6145492139
  C        -0.8534125500        8.7320611748       -0.8286729564
  C        -0.8861986275        8.6512482165        0.6495801960
  C        -2.0722420081        8.7356479662        1.3912877520
  C        -2.0934206072        8.6028367553        2.8015118853
  C        -3.2999595001        8.7437661413        3.6667620375
  C        -3.6069485638        7.7302031733        4.5948605878
  C        -4.5148957056        7.9429363181        5.6293973848
  C        -5.1100734255        9.2032754815        5.7835099345
  C        -4.9005813459       10.1886521186        4.8051240948
  C        -4.0163688363        9.9504426647        3.7489046196
  C        -0.8959316646        8.3965856858        3.4706579011
  C         0.3381812166        8.3821221387        2.7852845518
  C         1.5491916829        8.3019587144        3.5121097432
  C         2.7791895742        8.3627887849        2.8736401195
  C         4.0413430262        8.3647658170        3.6505127537
  C         4.1096892284        9.0004969214        4.9068660695
  C         5.2792326316        8.9999721070        5.6590624172
  C         6.4416992925        8.3940796185        5.1595803949
  C         6.3985140532        7.7742742658        3.8997184792
  C         5.2135457297        7.7525083454        3.1678229602
  C         2.7901178651        8.4556585442        1.4615629261
  C         1.6265785896        8.5098048787        0.6952193000
  C         1.6612395208        8.6045769700       -0.7722010434
  C         2.8577384300        8.5803932578       -1.4881021318
  C         0.4242898510        8.7167423906       -1.4847222113
  C         0.3558053235        8.5028764760        1.3562418344
  C         4.3619787813        9.2590057402       -4.8721231789
  C         5.5531116885        9.1922844168       -5.5856143423
  H         7.3850849230        7.3437378711       -3.3887639588
  H         5.2450646443        7.3965989237       -2.1652766799
  H         1.7064585502        8.8199517804       -4.6798837580
  H        -0.6577389262        9.0293430244       -4.7337680115
  H        -4.2198433793        7.3174662804       -3.2997415559
  H        -5.7998092857        7.3531789010       -5.2013647940
  H        -3.9719986873       10.9766860216       -6.6533945431
  H        -2.4098923101       10.9422834907       -4.7639861632
  H        -2.9914112317        8.8257183153       -1.1383640582
  H        -3.0210175617        8.9012329133        0.8813364989
  H        -3.0897383187        6.7719286335        4.5300327954
  H        -4.7007906826        7.1634710169        6.3663208886
  H        -5.4001118241       11.1548306871        4.8885983688
  H        -3.8176309794       10.7483391693        3.0320949051
  H        -0.8914612113        8.3205083166        4.5590831864
  H         1.4934169208        8.2001419069        4.5970656242
  H         3.2403930197        9.5412186566        5.2818001373
  H         5.3198750118        9.5298356057        6.6088461191
  H         7.2849603161        7.2648072476        3.5216596668
  H         5.1919609055        7.2253034119        2.2132390582
  H         3.7582080453        8.5372417207        0.9709277559
  H         3.7993846276        8.5223576517       -0.9462123337
  H         3.5439028314        9.8559016808       -5.2749702284
  H         5.6556953310        9.7230085852       -6.5306524156
  C        -8.6014656246        6.5543667486        5.4382846413
  C        -9.5487388568        5.5249603004        5.5400058510
  C        -9.4317058831        4.3829762185        4.7370762079
  C        -8.3908916901        4.2654449726        3.8015198084
  C        -8.4068497734        3.2798841279        2.6808120431
  C        -8.4950223635        3.8342508780        1.4148388321
  C        -8.4870667372        3.0319212631        0.2560780412
  C        -8.5931523339        3.6465557332       -1.0063185489
  C        -8.5168419497        2.9157058889       -2.1811749479
  C        -8.6187848560        3.7594762785       -3.4117160313
  C        -7.5331221707        4.0160032106       -4.2675368962
  C        -7.5357253121        5.1266627087       -5.1179282283
  C        -8.6167552492        6.0257769972       -5.1129551901
  C        -9.7805527405        5.6628930347       -4.4056486280
  C        -9.7739184287        4.5523640174       -3.5702643108
  C        -8.3351662717        1.5136228840       -2.0894476260
  C        -8.2725208841        0.8434987400       -0.8559666389
  C        -8.1056285951       -0.6221687822       -0.7423448011
  C        -8.0206162460       -1.4688664272       -1.8570426360
  C        -7.8359730014       -2.8715296559       -1.7426403334
  C        -7.8102075858       -3.8375220560       -2.8765217082
  C        -6.9671477761       -4.9645549022       -2.7886766958
  C        -7.1058622248       -6.0509529614       -3.6446827057
  C        -8.0691879201       -6.0267983232       -4.6641545240
  C        -8.8258811843       -4.8602350455       -4.8563024085
  C        -8.7073409918       -3.7898018857       -3.9614455413
  C        -7.7384740493       -3.4112985258       -0.4677292691
  C        -7.8489946324       -2.6138465242        0.6893298055
  C        -7.8348172608       -3.2304281008        1.9602570149
  C        -8.0794847412       -2.5083256181        3.1181649973
  C        -8.2158995947       -3.3235057499        4.3625644379
  C        -7.1579920977       -4.1538118744        4.7796291410
  C        -7.3697239034       -5.1968853391        5.6793408150
  C        -8.6641293656       -5.4651867304        6.1420841056
  C        -9.6958877329       -4.5512728614        5.8615885735
  C        -9.4642301676       -3.4837010277        4.9925403819
  C        -8.2670989507       -1.1100383273        3.0094122035
  C        -8.2058225224       -0.4373270673        1.7802749180
  C        -8.3137877434        1.0288495425        1.6702099221
  C        -8.3383159007        1.8709854559        2.7922927039
  C        -8.3587002755        1.6108113240        0.3575047907
  C        -8.0433585887       -1.1999358605        0.5741588823
  C        -7.4047253613        5.2716404837        3.7817852812
  C        -7.4935244408        6.3949559156        4.5973430112
  H       -10.3979285560        5.6317793847        6.2163688648
  H       -10.2102232554        3.6201000182        4.7815872143
  H        -8.5876332201        4.9150004231        1.2997288491
  H        -8.7092341147        4.7303256904       -1.0478771960
  H        -6.6378344776        3.3952759605       -4.2063108550
  H        -6.6592266635        5.3397941251       -5.7268702792
  H       -10.6877090742        6.2612788084       -4.4953887090
  H       -10.6651823866        4.3175734008       -2.9872774674
  H        -8.2700180776        0.9455062839       -3.0169536624
  H        -8.0902513474       -1.0444180893       -2.8584893357
  H        -6.2095971116       -5.0057386758       -2.0056353681
  H        -6.4668053940       -6.9259068931       -3.5304428001
  H        -9.5803947833       -4.8313672568       -5.6430185525
  H        -9.3863017309       -2.9418681319       -4.0635186839
  H        -7.6481133776       -4.4897368502       -0.3361612788
  H        -7.7054144067       -4.3124202122        2.0134591372
  H        -6.1680433272       -4.0220550892        4.3407568357
  H        -6.5630048239       -5.8802525509        5.9311245793
  H       -10.6915567768       -4.6994418900        6.2821410787
  H       -10.2929027087       -2.8260542698        4.7262188238
  H        -8.4598335578       -0.5488041177        3.9231932322
  H        -8.2663412608        1.4405446872        3.7907663033
  H        -6.5735581716        5.1868071522        3.0805149145
  H        -6.7407033104        7.1791393213        4.5413346651
  C        -6.1434673805       -5.0525144257       -8.1020916605
  C        -4.9989951224       -5.4010772208       -8.8355316592
  C        -3.8799445332       -4.5609011998       -8.8242064361
  C        -3.8700880873       -3.3794811698       -8.0611962378
  C        -2.9012242331       -2.2609330276       -8.2414096269
  C        -3.4856019897       -1.0349053846       -8.5190149787
  C        -2.7251035024        0.1463906988       -8.6008909124
  C        -3.3793531530        1.3743780474       -8.8125402332
  C        -2.6952359232        2.5783242897       -8.7550706573
  C        -3.5701628316        3.7772578768       -8.8841695144
  C        -4.4422411829        3.8505671999       -9.9904985430
  C        -5.5582253785        4.6763855192       -9.9768956535
  C        -5.8445316950        5.4582964502       -8.8400548330
  C        -4.8734517715        5.5435040006       -7.8276258321
  C        -3.7560908265        4.7053891269       -7.8449604896
  C        -1.2992930947        2.5490075545       -8.5186921642
  C        -0.5887239430        1.3469421881       -8.3771410437
  C         0.8730561346        1.2970291827       -8.1711019477
  C         1.6628815033        2.4473388413       -8.1343205631
  C         3.0718460782        2.4125388790       -7.9792972806
  C         3.8780853310        3.6605967971       -8.0286151382
  C         5.1535695990        3.6666864422       -8.6310633824
  C         5.9118497187        4.8289978790       -8.7280093883
  C         5.3972472781        6.0477804278       -8.2608432418
  C         4.1412936467        6.0597060736       -7.6301788442
  C         3.4033338752        4.8818158901       -7.5115603311
  C         3.6838563136        1.1728485059       -7.8415776217
  C         2.9397921630       -0.0306980327       -7.8961552375
  C         3.6032083893       -1.2839161663       -7.8532486668
  C         2.9114703508       -2.4701090716       -8.0482187863
  C         3.6587624204       -3.7538448407       -8.1727627227
  C         4.5106828805       -4.2195645510       -7.1540273164
  C         5.2724261783       -5.3765080949       -7.3184818082
  C         5.2033656782       -6.1090920590       -8.5144476180
  C         4.3576797337       -5.6478703098       -9.5429775153
  C         3.5912447336       -4.4989788860       -9.3657974978
  C         1.5041920482       -2.4177537419       -8.1985220525
  C         0.7880308245       -1.2188740600       -8.1567047507
  C        -0.6836769565       -1.1740614362       -8.2451112492
  C        -1.4885273745       -2.3192193574       -8.1396155290
  C        -1.3091972729        0.1063284520       -8.4131318968
  C         1.5135232855        0.0160814261       -8.0611271221
  C        -4.9716629160       -3.1373032298       -7.2153670268
  C        -6.1010750819       -3.9463295893       -7.2410806039
  H        -5.0218856104       -6.2741019689       -9.4875549817
  H        -3.0425134972       -4.7853286474       -9.4861377091
  H        -4.5638498464       -0.9674673346       -8.6671962104
  H        -4.4596479690        1.3687969781       -8.9624487847
  H        -4.2574474821        3.2161119721      -10.8580025370
  H        -6.2139933734        4.7056983723      -10.8474542324
  H        -5.0320344825        6.2125935763       -6.9850280144
  H        -3.0722980216        4.7108618093       -6.9946857625
  H        -0.7704269409        3.5005799179       -8.4768736916
  H         1.1958250274        3.4194537874       -8.2845658912
  H         5.5394501358        2.7504858881       -9.0778781277
  H         6.8761845085        4.8144424011       -9.2331717572
  H         3.7633249319        6.9895113537       -7.2030927638
  H         2.4440475235        4.9113632178       -6.9934528192
  H         4.7638388877        1.1057608638       -7.7009735467
  H         4.6898859705       -1.2975245100       -7.7496524150
  H         4.5680184525       -3.6724464929       -6.2117183350
  H         5.9045238760       -5.7360514566       -6.5073916270
  H         4.3366137144       -6.1570333248      -10.5071690116
  H         2.9701057960       -4.1400895577      -10.1876273396
  H         0.9745049061       -3.3581186472       -8.3494982971
  H        -1.0264379709       -3.2838700336       -7.9294246458
  H        -4.9553977077       -2.2666636915       -6.5593136418
  H        -6.9531807058       -3.7289505732       -6.5968513376
  C         6.4516818807       -8.3789504785        5.0204804522
  C         6.0588784355       -9.3951300610        4.1278047776
  C         4.9224074809       -9.2359723130        3.3413558645
  C         4.1280918564       -8.0768038684        3.4362688453
  C         2.8718135866       -7.9619666177        2.6543954612
  C         1.6656982282       -7.7346137582        3.2980180443
  C         0.4426849594       -7.7644083392        2.5837374396
  C        -0.7861227241       -7.6892163417        3.2755836934
  C        -1.9980295297       -7.8597270859        2.6198482168
  C        -3.2140789402       -7.9375225715        3.4719721529
  C        -4.0703442068       -9.0533111608        3.4440288387
  C        -4.9924871815       -9.2778028495        4.4682156535
  C        -5.0988989653       -8.3718411649        5.5400998735
  C        -4.3683580937       -7.1736321353        5.4819030427
  C        -3.4282245203       -6.9741356028        4.4759919996
  C        -1.9915954699       -8.0392994149        1.2154721320
  C        -0.8091163815       -8.0509446367        0.4673971373
  C        -0.7940521573       -8.1811814534       -1.0048456396
  C        -1.9646087768       -8.2438215640       -1.7719920581
  C        -1.9356408117       -8.3520366169       -3.1806525915
  C        -3.1445827171       -8.4403816291       -4.0564753941
  C        -3.5933939080       -9.6910098349       -4.5144142742
  C        -4.5231688611       -9.7832890919       -5.5495047003
  C        -5.0307152269       -8.6152389038       -6.1442176643
  C        -4.6749086098       -7.3641719341       -5.6191004179
  C        -3.7289027281       -7.2829715665       -4.5972465537
  C        -0.7128776832       -8.3810496208       -3.8299222870
  C         0.5006436002       -8.3130647686       -3.1096652528
  C         1.7348786372       -8.3324683380       -3.7982965402
  C         2.9421733893       -8.2678424616       -3.1183514438
  C         4.2264524032       -8.2920068862       -3.8574302971
  C         4.3502316713       -9.0318423604       -5.0509890647
  C         5.5355384281       -9.0478341084       -5.7754965011
  C         6.6581940745       -8.3586912161       -5.2959187381
  C         6.5617839479       -7.6207897840       -4.1071080396
  C         5.3552489825       -7.5820512245       -3.4088461151
  C         2.9068992333       -8.1829623197       -1.7056841506
  C         1.7183101741       -8.1690864824       -0.9776132794
  C         1.7021623346       -8.0837340813        0.4904071303
  C         2.8699497854       -8.1368022712        1.2518452289
  C         0.4438624598       -7.9523381260        1.1615634235
  C         0.4708946892       -8.2211742162       -1.6792483417
  C         4.5253158694       -7.0716644408        4.3359985366
  C         5.6670316245       -7.2186041871        5.1182697623
  H         6.6083353065      -10.3361045126        4.0847907331
  H         4.6100858464      -10.0470113792        2.6822374068
  H         1.6370252581       -7.6141049207        4.3825196752
  H        -0.7682760525       -7.5836500345        4.3614456391
  H        -3.9533687760       -9.8042920557        2.6610304320
  H        -5.6022633559      -10.1823166795        4.4582727755
  H        -4.4721198331       -6.4413303400        6.2796688371
  H        -2.8146843107       -6.0720121766        4.4892105220
  H        -2.9518315630       -8.1635127346        0.7157906669
  H        -2.9383709086       -8.2104718059       -1.2844889006
  H        -3.1767624129      -10.6026950127       -4.0844970509
  H        -4.8481422199      -10.7629746184       -5.9022190670
  H        -5.0826967346       -6.4571587265       -6.0624875471
  H        -3.4020534290       -6.3024865726       -4.2480644936
  H        -0.6770345147       -8.4612624033       -4.9175733631
  H         1.7151673000       -8.3714361024       -4.8881609035
  H         3.5121776501       -9.6347744102       -5.4001036181
  H         5.6184938374       -9.6440646873       -6.6828779366
  H         7.4182298258       -7.0416867967       -3.7611725159
  H         5.2860447943       -6.9672290681       -2.5108083972
  H         3.8578690985       -8.1482312529       -1.1771865027
  H         3.8296391941       -8.3052485059        0.7653570107
  H         3.9373675216       -6.1561717301        4.4128289361
  H         5.9752132607       -6.4197773663        5.7903460341
 Zn         7.8282118706       -7.8272500851        7.9605507406
  C         5.6663084944      -11.9923727744        9.6112638129
  C         4.9661845816      -10.7977610540        9.4293058991
  C         5.6474527059       -9.6681431341        8.9621070312
  H         3.9023415862      -10.7334253805        9.6596893180
  N         6.9755996124       -9.6965204303        8.6742162027
  C         4.9562463907       -8.3887628682        8.8170707464
  C         7.6403630010      -10.8515137015        8.8499951316
  C         7.0284371611      -12.0190107883        9.3166168795
  H         8.7043034977      -10.8383481338        8.6153494664
  H         7.6192215521      -12.9251846871        9.4496739134
  H         5.1602099784      -12.8833528000        9.9834335736
  N         5.5774732376       -7.3116294956        8.4601901709
  H         3.8897969081       -8.3692720547        9.0794085351
  C         9.4858671140       -5.8717160264       12.2126801415
  C         9.4533330322       -5.1735794280       11.0020189767
  C         8.9319646539       -5.8039948683        9.8676355979
  H         9.8396566989       -4.1561319488       10.9327595529
  N         8.4537661762       -7.0756697682        9.9053274959
  C         8.8931598895       -5.1306144723        8.5689534538
  C         8.4812101938       -7.7366646704       11.0730495668
  C         8.9882693284       -7.1735465026       12.2499170189
  H         8.0874353779       -8.7536663640       11.0629510046
  H         8.9938562661       -7.7547086320       13.1719189330
  H         9.8969108180       -5.4087202238       13.1101149475
  N         8.4822158602       -5.7484189194        7.5097997255
  H         9.2513385882       -4.0940371541        8.5197804599
  C        12.0571281316      -10.1202947823        6.6611159727
  C        10.9426826028      -10.0075371086        5.8264829800
  C         9.8172288793       -9.3086651103        6.2803773686
  H        10.9395618531      -10.4626037688        4.8354174879
  N         9.7735113343       -8.7362531892        7.5140176602
  C         8.6348033296       -9.1558177270        5.4405101524
  C        10.8546061696       -8.8397953782        8.3040250734
  C        12.0145362931       -9.5217491995        7.9200676163
  H        10.7850335820       -8.3679382109        9.2844458852
  H        12.8604280607       -9.5839314397        8.6045140618
  H        12.9419686544      -10.6678250171        6.3353553922
  N         7.6000843989       -8.4830192326        5.8424560984
  H         8.6724799932       -9.6075147948        4.4417119458
 Zn        -7.9423544887       -7.8863765256        8.3331864987
  C       -10.9273432079       -7.3349014079       12.3098136172
  C        -9.7452469442       -6.6218599496       12.0980010513
  C        -9.0452353191       -6.8045672349       10.8988747918
  H        -9.3656420156       -5.9315882984       12.8523246408
  N        -9.4672493795       -7.6617162165        9.9302290718
  C        -7.8274113977       -6.0592415660       10.6265761017
  C       -10.6073908669       -8.3395333403       10.1453625948
  C       -11.3686293487       -8.2026146628       11.3117623406
  H       -10.9268223674       -9.0219162410        9.3595117355
  H       -12.2889993088       -8.7746649809       11.4278681633
  H       -11.4916188631       -7.2145875903       13.2350024777