     728
 i =      320, E =     -3436.3887916178
  C        -6.2706961411        5.1797755873        9.0694304746
  C        -6.0487628803        4.3104086840       10.1541709058
  C        -5.0979964168        3.2991784421       10.0588169732
  C        -4.3231943278        3.1337209910        8.8949758767
  C        -3.4005788144        1.9701204220        8.7838425966
  C        -3.9232189244        0.6900321240        8.8802925241
  C        -3.0951081839       -0.4518409991        8.7590929144
  C        -3.6641392218       -1.7443347587        8.7881073487
  C        -2.8842546230       -2.8845244214        8.6555910191
  C        -3.5431286926       -4.2157231735        8.6720334361
  C        -3.1325108294       -5.2743106173        7.8416023965
  C        -3.8102099507       -6.4956594570        7.8333196355
  C        -4.9363743016       -6.6817548685        8.6506800146
  C        -5.3612056066       -5.6355926188        9.4821637101
  C        -4.6590284713       -4.4370872191        9.5063158533
  C        -1.4831280539       -2.7249273371        8.5014486288
  C        -0.8613784369       -1.4735088053        8.4824312254
  C         0.6026333901       -1.3111140670        8.3476467371
  C         1.4886614965       -2.3955389917        8.3173583211
  C         2.8894748711       -2.2336228585        8.1673895605
  C         3.8807408693       -3.3425164265        8.2123678527
  C         5.0227704301       -3.2755421597        7.3898769364
  C         6.1100219844       -4.1214075623        7.5809747574
  C         6.0685433278       -5.0967967033        8.5869442094
  C         4.8932825683       -5.2686089852        9.3317476058
  C         3.8206437607       -4.3880353199        9.1536562663
  C         3.3904545404       -0.9450649431        8.0429442595
  C         2.5512275843        0.1867147577        8.1055893163
  C         3.1148072818        1.4832215169        8.0744698815
  C         2.3333846723        2.6107029865        8.2704898948
  C         2.9990682505        3.9346310462        8.3577357567
  C         3.9380914879        4.3261906213        7.3849141156
  C         4.6888710352        5.4877112040        7.5308061113
  C         4.5064465264        6.3119820432        8.6522808996
  C         3.5520235520        5.9455268097        9.6209714108
  C         2.8070856574        4.7782334287        9.4684481428
  C         0.9389110371        2.4438169994        8.4413938257
  C         0.3211996171        1.1908373829        8.4050336954
  C        -1.1369522705        1.0276437760        8.5315632702
  C        -2.0083141910        2.1192748949        8.5900557011
  C        -1.6786021395       -0.2973606048        8.5922081306
  C         1.1373842592        0.0192511454        8.2725387254
  C        -4.5016238700        4.0527066551        7.8452620947
  C        -5.4610240327        5.0623618823        7.9275858855
  H        -6.6022329027        4.4384428930       11.0850501345
  H        -4.9377263383        2.6332194087       10.9075187489
  H        -4.9958778272        0.5479599476        9.0226634362
  H        -4.7476021817       -1.8281232486        8.8814586349
  H        -2.2909388773       -5.1321395336        7.1620287671
  H        -3.5038383398       -7.2906230274        7.1526972229
  H        -6.2112562957       -5.7885317710       10.1452181910
  H        -4.9683798776       -3.6606421170       10.2058322016
  H        -0.8773257567       -3.6267571875        8.4196165287
  H         1.1015730045       -3.4098340001        8.4120816136
  H         5.0718432669       -2.5256473126        6.5998363664
  H         6.9907905879       -4.0384928731        6.9453507406
  H         4.8487452509       -6.0380041019       10.1028193742
  H         2.9557884632       -4.4730987522        9.8129809750
  H         4.4666587169       -0.7832398417        7.9735897074
  H         4.1970634990        1.5788789782        7.9705250034
  H         4.0839796405        3.7042189340        6.5009328138
  H         5.4083221545        5.7744535526        6.7655968941
  H         3.4397790419        6.5366903108       10.5307074872
  H         2.1161413752        4.4785734446       10.2575916729
  H         0.3392183959        3.3394997000        8.5983373897
  H        -1.6152333579        3.1325940490        8.5162498595
  H        -3.9158279986        3.9464025395        6.9308277967
  H        -5.6265763955        5.7289313359        7.0823151906
  C         8.3768831274        5.9956302229       -4.8764272364
  C         9.4883477639        5.7590102309       -4.0459603441
  C         9.4273725593        4.7851038593       -3.0543684003
  C         8.2713988970        4.0026553963       -2.8705507395
  C         8.1970144254        3.0644419471       -1.7162617559
  C         8.3353856086        3.5764471222       -0.4355346788
  C         8.2560188538        2.7387571902        0.7024418549
  C         8.3274746154        3.2965204175        1.9996153208
  C         8.2208768541        2.5067981396        3.1354702653
  C         8.2421169784        3.1521582084        4.4732411949
  C         7.3681130868        2.7605125786        5.5035269795
  C         7.3219348617        3.4493346424        6.7161184207
  C         8.1385513600        4.5727188971        6.9272194514
  C         9.0429544361        4.9510942809        5.9230829549
  C         9.1045599766        4.2381795953        4.7296461546
  C         8.0688556688        1.1072957058        2.9673605525
  C         8.0220482648        0.4962014725        1.7117393603
  C         7.9200679514       -0.9682515862        1.5425299182
  C         7.9136026593       -1.8566736677        2.6248706132
  C         7.8183142172       -3.2607795679        2.4600603878
  C         7.8443544280       -4.2454904695        3.5738090725
  C         7.0195268725       -5.3843827882        3.4956232401
  C         7.1727451514       -6.4567300232        4.3674263144
  C         8.1415628709       -6.4017839460        5.3780757056
  C         8.9041244999       -5.2363731455        5.5410884174
  C         8.7635423333       -4.1776896239        4.6378339859
  C         7.7516462729       -3.7659268928        1.1698174716
  C         7.7840737357       -2.9209073923        0.0412044097
  C         7.7914450110       -3.4825154030       -1.2544118897
  C         7.8597627192       -2.6873273766       -2.3874801000
  C         7.9439129117       -3.3486157819       -3.7140717559
  C         8.7920613190       -4.4635641534       -3.8710682942
  C         8.8345544249       -5.1809925186       -5.0598105625
  C         8.0479694360       -4.7878681910       -6.1526301608
  C         7.2241996290       -3.6557669149       -6.0270763120
  C         7.1749443454       -2.9511678372       -4.8224630516
  C         7.8888805023       -1.2811207046       -2.2195168432
  C         7.8904374258       -0.6718857071       -0.9603051079
  C         7.9877916703        0.7897676120       -0.7882783561
  C         8.0072593362        1.6721150111       -1.8728085037
  C         8.0877020046        1.3227931743        0.5393197759
  C         7.8545393367       -1.4995229363        0.2107507314
  C         7.1948272510        4.1949291087       -3.7550755940
  C         7.2432141126        5.1764561640       -4.7458755584
  H        10.4117679084        6.3212390367       -4.1890199722
  H        10.2961927525        4.6139082115       -2.4177684456
  H         8.4822791553        4.6481591551       -0.2904561243
  H         8.4315016361        4.3788425594        2.0911692076
  H         6.6798343340        1.9300538598        5.3379679564
  H         6.6065636631        3.1580769057        7.4852328529
  H         9.7265176077        5.7797690224        6.1034429845
  H         9.8474324043        4.5195057988        3.9824424115
  H         8.0189407412        0.4943440276        3.8664793928
  H         7.9791130668       -1.4688998343        3.6411418372
  H         6.2569389187       -5.4412138468        2.7183379468
  H         6.5400704246       -7.3387051190        4.2731974168
  H         9.6642313030       -5.1929457066        6.3216813311
  H         9.4333299839       -3.3204547472        4.7201468436
  H         7.7366097216       -4.8442168505        1.0068002682
  H         7.7425509787       -4.5685038306       -1.3490917700
  H         9.4478096224       -4.7537645171       -3.0496232247
  H         9.5182716523       -6.0201755326       -5.1705393857
  H         6.5810383815       -3.3639513376       -6.8581197158
  H         6.4946466062       -2.1032378905       -4.7277423092
  H         7.9737726644       -0.6683274375       -3.1160636612
  H         7.9161917967        1.2871799144       -2.8878611881
  H         6.2863296226        3.6025584200       -3.6349211738
  H         6.3787529053        5.3516841910       -5.3850219178
  C        -6.2348768553        8.0905455382       -4.5871183132
  C        -5.0434099498        8.7893093683       -4.8298673381
  C        -3.9517924414        8.6311573101       -3.9687542038
  C        -4.0148804702        7.7576045077       -2.8669300675
  C        -2.9951559753        7.7304345987       -1.7834021154
  C        -3.4695744335        7.7882532152       -0.4812352961
  C        -2.5965068897        7.8004106206        0.6260072999
  C        -3.1242224126        7.9063259704        1.9315160722
  C        -2.3003731894        7.9285289764        3.0458368115
  C        -2.9186746808        8.0856523350        4.3860154721
  C        -2.5314699096        7.3229921062        5.5027278196
  C        -3.1960748756        7.4406217066        6.7251576881
  C        -4.2791654816        8.3260416470        6.8606846616
  C        -4.6605050839        9.1071250702        5.7595629522
  C        -3.9802153627        8.9982794727        4.5533216725
  C        -0.9022723304        7.8204386020        2.8462890180
  C        -0.3252346495        7.7290538273        1.5756888300
  C         1.1339993802        7.6612323664        1.3719685495
  C         2.0396817506        7.6585210653        2.4365232223
  C         3.4426516417        7.5976293543        2.2510767643
  C         4.4112253417        7.6382058634        3.3754884430
  C         5.6181159705        6.9168301239        3.2890538176
  C         6.6202880522        7.0606849002        4.2418330508
  C         6.4307254153        7.9111530367        5.3428482856
  C         5.2000834232        8.5673626077        5.4959499795
  C         4.2162847821        8.4444682806        4.5145135992
  C         3.9262411222        7.5421861266        0.9516069540
  C         3.0578511598        7.5504597978       -0.1624759836
  C         3.5941601373        7.5341169880       -1.4687177274
  C         2.7778573404        7.5681750743       -2.5894015931
  C         3.4167237426        7.5974758363       -3.9308319700
  C         4.5839520303        8.3666670554       -4.1220219556
  C         5.2766357699        8.3545281928       -5.3258934252
  C         4.7962711877        7.6002490966       -6.4062395667
  C         3.6200229065        6.8479955750       -6.2471565771
  C         2.9469043555        6.8455847225       -5.0228032849
  C         1.3729986390        7.5939607207       -2.3948877747
  C         0.7850529356        7.6158631899       -1.1252432158
  C        -0.6786120099        7.6762462222       -0.9223458268
  C        -1.5927760988        7.6870058831       -1.9841476284
  C        -1.1795837060        7.7283448371        0.4227638756
  C         1.6378794680        7.6041817614        0.0301143909
  C        -5.1855673885        6.9904782201       -2.7090487532
  C        -6.2875902602        7.1615711808       -3.5395619332
  H        -5.0007155139        9.5188350051       -5.6392273416
  H        -3.0689741044        9.2556456224       -4.1137033447
  H        -4.5407839981        7.8763757563       -0.2959616126
  H        -4.2078629176        7.9577353363        2.0485701158
  H        -1.7241642183        6.5957444394        5.4032439797
  H        -2.9127866694        6.8052195218        7.5650265582
  H        -5.4572517861        9.8389792311        5.8759695887
  H        -4.2576740733        9.6512734549        3.7253651055
  H        -0.2635428867        7.8570027287        3.7278480834
  H         1.6663774484        7.6898172558        3.4591998645
  H         5.7752701592        6.2280700927        2.4584984853
  H         7.5419438365        6.4859148808        4.1601939641
  H         5.0468288035        9.2307288820        6.3460725874
  H         3.3032313921        9.0335029809        4.6078143805
  H         5.0007928521        7.5454871560        0.7649613805
  H         4.6777669130        7.4797508479       -1.5821432878
  H         4.9411185057        9.0050203242       -3.3139627309
  H         6.1657409532        8.9690236927       -5.4548953408
  H         3.2696319938        6.2212273608       -7.0678454798
  H         2.0634975331        6.2162037084       -4.9040542120
  H         0.7413056091        7.6411112677       -3.2814259623
  H        -1.2282162016        7.6433661884       -3.0102539904
  H        -5.2421840552        6.2629593111       -1.8988586157
  H        -7.1924372824        6.5751539721       -3.3828421109
  C        -8.5687395419        5.0179098772       -5.4611321348
  C        -9.5700297096        4.9044190452       -4.4843161126
  C        -9.3627774910        4.0976172608       -3.3603232665
  C        -8.1748574668        3.3617783616       -3.2101751475
  C        -8.0576036443        2.2535192871       -2.2180277637
  C        -7.9553771372        0.9732255308       -2.7391582252
  C        -7.9600976510       -0.1636804317       -1.9009855847
  C        -8.0049008951       -1.4560302858       -2.4691901083
  C        -8.0814821769       -2.5912133998       -1.6769831847
  C        -8.2463298028       -3.9131231597       -2.3318575354
  C        -7.5167008775       -5.0552971484       -1.9558782094
  C        -7.6632068893       -6.2645213953       -2.6380779549
  C        -8.5484853856       -6.3619146945       -3.7258292252
  C        -9.2917640013       -5.2329950310       -4.1003306928
  C        -9.1514218252       -4.0384383147       -3.4051951612
  C        -8.0576665164       -2.4321712976       -0.2699401911
  C        -8.0102908118       -1.1782373070        0.3465533900
  C        -8.0474378540       -1.0154719714        1.8122001820
  C        -8.0746758348       -2.1062993509        2.6877168195
  C        -8.1817793575       -1.9524061173        4.0889511371
  C        -8.2825200063       -3.1062261815        5.0274361044
  C        -9.4408257023       -3.2558992479        5.8134918845
  C        -9.5248375490       -4.2400502366        6.7936083998
  C        -8.4346321027       -5.0977040238        7.0307103195
  C        -7.2997080422       -4.9999895611        6.2090416507
  C        -7.2279057926       -4.0155037421        5.2225071460
  C        -8.2172210615       -0.6715959769        4.6166913254
  C        -8.1368304316        0.4684501916        3.7823008534
  C        -8.1211738994        1.7618403657        4.3514840322
  C        -8.0408661137        2.9006714834        3.5629227668
  C        -8.0125720581        4.2356520250        4.2137961488
  C        -7.1978775207        5.2851028448        3.7509273758
  C        -7.1531191163        6.5149211867        4.4113024189
  C        -7.9185487038        6.7206154474        5.5705998044
  C        -8.7296260520        5.6816918463        6.0497098992
  C        -8.7887152807        4.4727033092        5.3674287468
  C        -7.9932468683        2.7385172134        2.1549189501
  C        -8.0280727478        1.4863034944        1.5356882851
  C        -8.0297710039        1.3248901785        0.0675510473
  C        -8.1029657752        2.4123326842       -0.8129964882
  C        -7.9855103780       -0.0024275038       -0.4762357214
  C        -8.0700543282        0.3100387018        2.3579695473
  C        -7.1538672759        3.5536225417       -4.1595333267
  C        -7.3318266975        4.3903489531       -5.2582128622
  H       -10.5206780535        5.4231073395       -4.6164954691
  H       -10.1686158588        3.9783626141       -2.6345863019
  H        -7.9453697352        0.8277735467       -3.8205818818
  H        -7.9948413460       -1.5457529629       -3.5567615623
  H        -6.7933636005       -4.9858943631       -1.1418540468
  H        -7.0512735500       -7.1246677882       -2.3642168980
  H       -10.0206957693       -5.3185544974       -4.9035800252
  H        -9.7764015662       -3.1870582836       -3.6764684850
  H        -8.1427466151       -3.3307948926        0.3397576884
  H        -8.0531708472       -3.1212753725        2.2925101494
  H       -10.2915570384       -2.5949965664        5.6434425308
  H       -10.4491762480       -4.3550874940        7.3608151277
  H        -6.4509820625       -5.6593551307        6.3860497162
  H        -6.3177568568       -3.9210589416        4.6281359796
  H        -8.2910955902       -0.5288923688        5.6960970196
  H        -8.1402190877        1.8471926465        5.4388026772
  H        -6.5595390234        5.1283176391        2.8801139523
  H        -6.4833226983        7.3022276210        4.0638080477
  H        -9.3518917391        5.8486189693        6.9273209921
  H        -9.4722976103        3.7010621107        5.7214824795
  H        -7.9569377213        3.6392848114        1.5432684259
  H        -8.1947343904        3.4240502113       -0.4189821822
  H        -6.2120092689        3.0148736333       -4.0472095684
  H        -6.5385713831        4.5101737486       -5.9933961096
  C         4.7641306010       -6.7082262541       -8.1260206709
  C         3.8629814608       -6.4571110699       -9.1773791982
  C         2.8933767149       -5.4679882372       -9.0465478326
  C         2.8021962091       -4.6853389413       -7.8797837268
  C         1.6693565767       -3.7288235744       -7.7309137445
  C         0.3770067485       -4.2285200461       -7.7313417960
  C        -0.7420306454       -3.3694859141       -7.6186882128
  C        -2.0463827637       -3.9108992823       -7.5879799286
  C        -3.1672982413       -3.0985572052       -7.4960934691
  C        -4.5139248159       -3.7243803309       -7.4738587605
  C        -5.5573027104       -3.2492019712       -6.6588788212
  C        -6.7959545268       -3.8929541485       -6.6173165495
  C        -7.0164398054       -5.0480471348       -7.3849780967
  C        -5.9853328938       -5.5364927831       -8.2003734733
  C        -4.7680373191       -4.8695731998       -8.2574790921
  C        -2.9750969613       -1.6946130505       -7.4373145993
  C        -1.7102740766       -1.1013649178       -7.4738665584
  C        -1.5167281473        0.3643861973       -7.4665599099
  C        -2.5847055092        1.2713854305       -7.4562726164
  C        -2.3933036047        2.6758426208       -7.4474998446
  C        -3.4823718760        3.6893283376       -7.4706604374
  C        -3.3234507954        4.8659829171       -6.7122836817
  C        -4.1503974686        5.9682208861       -6.8953281362
  C        -5.1969478022        5.9095720465       -7.8256741579
  C        -5.4558622530        4.7064813041       -8.4975265473
  C        -4.5949466034        3.6158085259       -8.3300617138
  C        -1.0930196238        3.1592612853       -7.4709596934
  C         0.0196081706        2.2944151361       -7.5064151683
  C         1.3219713829        2.8329709547       -7.5931322121
  C         2.4395638476        2.0160391219       -7.6556829292
  C         3.7730962068        2.6485472576       -7.8098185943
  C         3.9225552260        3.7206305307       -8.7126830739
  C         5.1182363813        4.4192269988       -8.8162606679
  C         6.2248918007        4.0473394570       -8.0388190362
  C         6.1089927762        2.9515514460       -7.1666820407
  C         4.8967878191        2.2672493260       -7.0551887475
  C         2.2490052875        0.6139618160       -7.6065507824
  C         0.9815328951        0.0270582414       -7.5363936542
  C         0.7850654274       -1.4338473161       -7.5590139140
  C         1.8553443769       -2.3319114800       -7.6228710213
  C        -0.5526888547       -1.9490201625       -7.5463057501
  C        -0.1750339776        0.8748153276       -7.4929566545
  C         3.7542982308       -4.8938439501       -6.8665028283
  C         4.7239660380       -5.8903980177       -6.9848030106
  H         3.9327526068       -7.0196417225      -10.1091041775
  H         2.1994926618       -5.2859560352       -9.8680230877
  H         0.2081433896       -5.3038944166       -7.8093414613
  H        -2.1552170793       -4.9959114819       -7.6136606556
  H        -5.3891059667       -2.3827421509       -6.0174900362
  H        -7.5785793097       -3.5369928217       -5.9467325903
  H        -6.1641028001       -6.4094196780       -8.8259625190
  H        -4.0021487175       -5.2296466654       -8.9442752471
  H        -3.8632380337       -1.0649688203       -7.3984180889
  H        -3.6086371886        0.8987409435       -7.4466467351
  H        -2.5154201477        4.9279427327       -5.9828485200
  H        -3.9971119741        6.8746777732       -6.3113342762
  H        -6.2798326574        4.6503241150       -9.2090914022
  H        -4.7515624943        2.7232669158       -8.9374181879
  H        -0.9121380600        4.2334296389       -7.5230429131
  H         1.4344098416        3.9182791410       -7.6048581142
  H         3.0881744083        3.9921067394       -9.3600819813
  H         5.2222489047        5.2260185160       -9.5387402998
  H         6.9542060938        2.6752060966       -6.5353019358
  H         4.8087734683        1.4505374495       -6.3368456275
  H         3.1331482697       -0.0172897618       -7.6847928174
  H         2.8784116829       -1.9581572533       -7.6379518557
  H         3.7065797532       -4.3016306354       -5.9513283876
  H         5.4172082683       -6.0778664836       -6.1661047771
  C         5.0034131814       -8.5515425771        6.4408691051
  C         4.8381165226       -9.5912746411        5.5128469063
  C         4.0091388305       -9.4108071817        4.4000857546
  C         3.3028920891       -8.2100761952        4.2145977848
  C         2.1694724136       -8.1033070885        3.2496838416
  C         0.9097554306       -7.9452484047        3.8058128736
  C        -0.2528278073       -7.9459888293        3.0041642939
  C        -1.5267503692       -7.9294096258        3.6138685721
  C        -2.6887487968       -7.9974795920        2.8609183125
  C        -3.9932191198       -8.0970504666        3.5621650101
  C        -5.1243891932       -7.3456903890        3.1956582679
  C        -6.3153053741       -7.4309353726        3.9191860483
  C        -6.4048377927       -8.2747439344        5.0400532447
  C        -5.2867606621       -9.0380774287        5.4070791274
  C        -4.1110865378       -8.9591010878        4.6712773379
  C        -2.5743465111       -8.0281883553        1.4497656537
  C        -1.3400293990       -8.0429732708        0.7932930538
  C        -1.2261003529       -8.1353587274       -0.6742088318
  C        -2.3452536402       -8.1561679575       -1.5130951541
  C        -2.2410479611       -8.3152693217       -2.9137931628
  C        -3.4287638177       -8.4088100342       -3.8092855813
  C        -3.6403735352       -9.5853223188       -4.5528991950
  C        -4.6601938622       -9.6684448443       -5.4957935531
  C        -5.4919954914       -8.5596193881       -5.7385557859
  C        -5.3329386698       -7.4044491666       -4.9555031294
  C        -4.3132224254       -7.3334920428       -4.0053248294
  C        -0.9799993746       -8.4104501613       -3.4803662088
  C         0.1887812366       -8.3399860865       -2.6856295131
  C         1.4626361458       -8.3851215685       -3.2957464319
  C         2.6289954530       -8.3162594300       -2.5472733716
  C         3.9414928846       -8.3505385045       -3.2426648710
  C         4.1134182260       -9.1645122191       -4.3817162835
  C         5.2978145966       -9.1612795001       -5.1083426013
  C         6.3777195240       -8.3705446570       -4.6896941621
  C         6.2384624127       -7.5708481572       -3.5439128430
  C         5.0324965788       -7.5592661108       -2.8391479569
  C         2.5146886600       -8.2170221223       -1.1370622550
  C         1.2829597623       -8.1885459238       -0.4774521738
  C         1.1694558721       -8.1322983137        0.9943352961
  C         2.2821993400       -8.2052710395        1.8430930608
  C        -0.1379124939       -8.0272692040        1.5771555503
  C         0.0795431847       -8.2198213993       -1.2601712452
  C         3.5464844578       -7.1543028432        5.1127400732
  C         4.4045003573       -7.3076816878        6.1984969853
  H         5.3333469760      -10.5497913721        5.6751923079
  H         3.8494174752      -10.2443236133        3.7144233936
  H         0.7992534692       -7.8909810928        4.8900751300
  H        -1.5806181308       -7.8777645631        4.7026013225
  H        -5.0592021004       -6.6535072631        2.3545955652
  H        -7.1649041452       -6.8023973468        3.6501616640
  H        -5.3683978821       -9.7352121955        6.2384013006
  H        -3.2704301167       -9.5998132407        4.9390429851
  H        -3.4943089672       -8.1051473124        0.8716244185
  H        -3.3454959597       -8.0882411460       -1.0869861677
  H        -2.9997993088      -10.4506175570       -4.3786007627
  H        -4.8225255683      -10.6055593697       -6.0294943796
  H        -5.9723029121       -6.5415017763       -5.1363790566
  H        -4.1715047572       -6.4092932911       -3.4428420058
  H        -0.8752022636       -8.5249552560       -4.5606090631
  H         1.5112533282       -8.4425530256       -4.3839433548
  H         3.3092265513       -9.8328526812       -4.6893775268
  H         5.4130027166       -9.8108973868       -5.9744454825
  H         7.0589547096       -6.9190887960       -3.2417641240
  H         4.9279442308       -6.8946469328       -1.9802068299
  H         3.4357275468       -8.1911554584       -0.5557724367
  H         3.2778408723       -8.3405605017        1.4215828419
  H         3.0301945261       -6.2037248209        4.9719911920
  H         4.5634016819       -6.4870099397        6.8950671104
 Zn         7.5430619165        7.6234777075        8.4517512282
  C         5.9739027669       12.0176161407       10.2112754698
  C         5.1432442001       10.9064403777       10.0470761859
  C         5.6775318315        9.7254945790        9.5178238109
  H         4.0912652471       10.9497526846       10.3310538609
  N         6.9865143820        9.6228280877        9.1612349151
  C         4.8460134173        8.5429051420        9.3206254788
  C         7.7739373980       10.7003724914        9.3120255378
  C         7.3116370573       11.9143872121        9.8323612541
  H         8.8162588300       10.5846358806        9.0150401682
  H         7.9971462303       12.7546051289        9.9420671950
  H         5.5845822813       12.9463726587       10.6291528110
  N         5.3205878322        7.4642323222        8.7789866402
  H         3.7944086672        8.6149906943        9.6260287510
  C         8.4192506517        5.6065132831       12.9129452033
  C         8.4071736634        4.8558366274       11.7350318490
  C         8.1495824030        5.4955011715       10.5178931227
  H         8.6114974095        3.7848873693       11.7535398041
  N         7.9009573656        6.8298766037       10.4441719135
  C         8.1955494697        4.7525951913        9.2585642472
  C         7.9106715181        7.5434075961       11.5830653601
  C         8.1676854611        6.9753379150       12.8349414424
  H         7.7127471253        8.6108689109       11.4865183472
  H         8.1754575501        7.6040202441       13.7251697490
  H         8.6297115280        5.1332893272       13.8723585118
  N         8.0608795666        5.3455015272        8.1187769418
  H         8.4045036203        3.6758986628        9.3209547419
  C        12.0730769832        9.2083587434        7.2045097499
  C        11.0094459297        9.1064848238        6.3028872112
  C         9.7837581941        8.6033916512        6.7519186194
  H        11.1239987904        9.4235656400        5.2657107174
  N         9.5939301130        8.2074538286        8.0385268306
  C         8.6353804952        8.4796678467        5.8557253232
  C        10.6229213915        8.2997488712        8.8959121561
  C        11.8779860857        8.7938805743        8.5215732378
  H        10.4334633084        7.9689203641        9.9177357624
  H        12.6803646330        8.8526546383        9.2569822049
  H        13.0362821221        9.6065830418        6.8842841553
  N         7.4761572231        8.0993113755        6.2915054537
  H         8.7861699737        8.7337790975        4.7987489988
 Zn         7.7492953049       -7.9754096282        8.3129432130
  C        11.7616264578       -6.0149644903       10.4934782983
  C        10.5829655838       -5.3049460961       10.2461990442
  C         9.5194817804       -5.9539479976        9.6115073327
  H        10.4829479622       -4.2632430674       10.5527049100
  N         9.5935502617       -7.2527706369        9.2201991050
  C         8.2559126523       -5.2651643678        9.3500866636
  C        10.7322656973       -7.9247431047        9.4530299189
  C        11.8377523861       -7.3462914278       10.0877840714
  H        10.7598597919       -8.9623959271        9.1208364294
  H        12.7369167102       -7.9383897484       10.2582472704
  H        12.6034785235       -5.5381092200       10.9961703311