     728
 i =      369, E =     -3436.3555596636
  C        -4.3852942082        6.5547640787        8.3948441857
  C        -3.5369743053        6.0739721559        9.4117720357
  C        -2.9240026040        4.8293883025        9.2858436690
  C        -3.1473370231        4.0182825570        8.1559508527
  C        -2.5551506393        2.6586697650        8.0562295497
  C        -3.3679430805        1.5556030714        7.8459364161
  C        -2.8337064739        0.2427433682        7.8308930074
  C        -3.6950231781       -0.8702699102        7.7185224339
  C        -3.2172189659       -2.1744057587        7.7552525512
  C        -4.2144873717       -3.2789703001        7.7064716931
  C        -4.1172145557       -4.4354308309        8.5057651672
  C        -5.1712457437       -5.3487913713        8.6000861058
  C        -6.3749293568       -5.1027054711        7.9228763981
  C        -6.4535214637       -4.0093518376        7.0457401686
  C        -5.3816649765       -3.1300235717        6.9293908449
  C        -1.8190567576       -2.3699549768        7.9060946184
  C        -0.9130616495       -1.3078383713        8.0143667414
  C         0.5451682371       -1.5059619107        8.1858654262
  C         1.1399552482       -2.7742492743        8.3003802302
  C         2.5344972751       -2.9376501806        8.4846515366
  C         3.3170639110       -4.2015361813        8.6638768027
  C         4.0107561321       -4.3697462916        9.8794054829
  C         5.1287227372       -5.1902644321        9.9640406365
  C         5.5972396195       -5.8655369336        8.8187337800
  C         4.7686600191       -5.8965608006        7.6841634199
  C         3.6507105338       -5.0594043307        7.6019518104
  C         3.3374307483       -1.8075739574        8.5120819362
  C         2.8006119886       -0.5143713651        8.3652227757
  C         3.6652841780        0.6000176231        8.3496415897
  C         3.1812113976        1.8914474925        8.2085990241
  C         4.1646904623        3.0023684797        8.1725893564
  C         5.3867681267        2.8149851449        7.4960306210
  C         6.4208706649        3.7380573305        7.5909571770
  C         6.2536565101        4.9076318325        8.3491418981
  C         5.0112251331        5.1569125383        8.9526270621
  C         3.9884305057        4.2097381438        8.8744599553
  C         1.7779495955        2.0687401401        8.1347966366
  C         0.8793450540        0.9969902120        8.1661065635
  C        -0.5776007361        1.1882448982        8.1103938857
  C        -1.1632260478        2.4526120403        8.1944185569
  C        -1.4212634509        0.0370403192        7.9767732889
  C         1.3862065751       -0.3420267905        8.2367648345
  C        -3.9988645879        4.5088546897        7.1500353442
  C        -4.6147964852        5.7517056277        7.2672152833
  H        -3.4007607757        6.6469047242       10.3298627896
  H        -2.3055678000        4.4535587472       10.1021168229
  H        -4.4480458106        1.6818483389        7.7506298169
  H        -4.7681180639       -0.6841291620        7.6622689099
  H        -3.2328431094       -4.5908341630        9.1250415525
  H        -5.0955416982       -6.2038975743        9.2716345556
  H        -7.3543675943       -3.8624027627        6.4498920384
  H        -5.4622098472       -2.2946008559        6.2331803454
  H        -1.4486475858       -3.3945490673        7.9287091201
  H         0.5185295023       -3.6690420896        8.2796785072
  H         3.7040249343       -3.7939098303       10.7533791860
  H         5.6555930586       -5.2790366754       10.9143472990
  H         5.0472526554       -6.5108740871        6.8304007457
  H         3.0943764094       -5.0048877596        6.6648492685
  H         4.4161906015       -1.9131204596        8.6343856305
  H         4.7338687656        0.4245935373        8.4789234352
  H         5.5299719592        1.9195794050        6.8907718803
  H         7.3578404865        3.5705840063        7.0597067836
  H         4.8818439633        6.0509163748        9.5610748105
  H         3.0649149496        4.3795759159        9.4298458732
  H         1.3986095451        3.0833919480        8.0174906548
  H        -0.5369668373        3.3292647648        8.3554015059
  H        -4.1775115190        3.9075861155        6.2578947737
  H        -5.2567937815        6.1190476900        6.4690580220
  C         8.6536299532        4.8625501621       -6.5309536936
  C         9.4285519029        5.3448919096       -5.4657430255
  C         9.3982325636        4.6965737734       -4.2350816568
  C         8.5621595593        3.5833259331       -4.0079705095
  C         8.5016641840        2.9406390532       -2.6716423193
  C         8.6172596213        3.7060815589       -1.5202069862
  C         8.5444346146        3.1198054664       -0.2353690819
  C         8.6306677265        3.9330699751        0.9184151504
  C         8.4870816859        3.4001323691        2.1899388036
  C         8.5180679517        4.3622985639        3.3308681758
  C         9.6787843115        5.1250252731        3.5634917170
  C         9.6776992349        6.1830882556        4.4678244116
  C         8.4997034511        6.5220006176        5.1597506472
  C         7.3641588129        5.7095977078        5.0058107608
  C         7.3762891799        4.6466308169        4.1006253931
  C         8.3073779930        2.0025683129        2.3258539190
  C         8.2861979625        1.1406736091        1.2220484855
  C         8.1784258002       -0.3256404767        1.3573255397
  C         8.2955375735       -0.9882059837        2.5901972675
  C         8.1383031198       -2.3892314471        2.7067332549
  C         8.3597213073       -3.2470471643        3.9154314640
  C         9.6535038588       -3.7209146548        4.2022710848
  C         9.8428157801       -4.8800451799        4.9529259934
  C         8.7323254515       -5.5952166480        5.4460590705
  C         7.4648419045       -4.9989209046        5.3535734703
  C         7.2785134204       -3.8558799556        4.5750898466
  C         7.8394143938       -3.1212659013        1.5690733230
  C         7.7947254006       -2.5171020563        0.2956522488
  C         7.6537819868       -3.3254521695       -0.8502093077
  C         7.7503296890       -2.7959231746       -2.1284409886
  C         7.7482067303       -3.7597197091       -3.2585535930
  C         6.9090587303       -4.8904402053       -3.1997611324
  C         7.0783395220       -5.9668380253       -4.0622339533
  C         8.0753508477       -5.9233266619       -5.0480035082
  C         8.8325258607       -4.7533454190       -5.2095513038
  C         8.6792651826       -3.6931174430       -4.3128717218
  C         7.9462064962       -1.3988222474       -2.2575139951
  C         8.0462559028       -0.5448749291       -1.1527880579
  C         8.2441706228        0.9103170181       -1.2861431677
  C         8.3120070649        1.5440376061       -2.5276394858
  C         8.3593863953        1.7041046079       -0.0962874483
  C         7.9905575060       -1.1055625422        0.1670792556
  C         7.7732200850        3.1314120880       -5.0823995187
  C         7.8222542881        3.7501127986       -6.3312514249
  H        10.0872510997        6.1984088726       -5.6243766962
  H        10.0566718450        5.0461523114       -3.4398924556
  H         8.7331217611        4.7887903087       -1.5866996956
  H         8.7764637155        5.0072921234        0.7933898049
  H        10.5939330647        4.8866160210        3.0200887322
  H        10.5983348973        6.7411231689        4.6424177581
  H         6.4507992918        5.9565315418        5.5451560805
  H         6.4647137774        4.0670399209        3.9470739822
  H         8.2038332393        1.5956593888        3.3316627430
  H         8.5360257083       -0.4203413225        3.4885164467
  H        10.5189069783       -3.2264305953        3.7586427723
  H        10.8552701774       -5.2493878911        5.1195800462
  H         6.6099686996       -5.4779276939        5.8233156496
  H         6.2686146026       -3.4740761883        4.4182732326
  H         7.7178787585       -4.2034086008        1.6386134560
  H         7.5597622047       -4.4025500607       -0.7096936547
  H         6.1284012073       -4.9395652903       -2.4401878628
  H         6.4359826943       -6.8435922723       -3.9825262462
  H         9.6120292512       -4.7182934133       -5.9707001883
  H         9.3555987232       -2.8398578375       -4.3819332817
  H         8.0202226856       -0.9881533308       -3.2639144699
  H         8.2426353912        0.9482286046       -3.4364560381
  H         7.0831807496        2.3002328148       -4.9323831162
  H         7.1734144694        3.4110313493       -7.1390807342
  C        -5.5062424781        8.8323240712       -5.9082703085
  C        -4.5525560535        7.8431564983       -6.2092101606
  C        -3.5143533734        7.5556732408       -5.3105433278
  C        -3.4032446905        8.2332244539       -4.0818988748
  C        -2.5512298167        7.8632689279       -2.9080632416
  C        -3.2748195769        7.6254422068       -1.7482950445
  C        -2.6527730823        7.5425435629       -0.4882597098
  C        -3.4553590085        7.4935637125        0.6700428519
  C        -2.9046167626        7.5852615461        1.9392890163
  C        -3.8370289414        7.7110628899        3.0870772223
  C        -3.6038207335        8.5897811289        4.1632418293
  C        -4.5965477705        8.8645287406        5.1058029864
  C        -5.8706213438        8.2948397229        4.9660143122
  C        -6.0919586043        7.3519568796        3.9505760358
  C        -5.0810661583        7.0510386902        3.0468271301
  C        -1.4938192116        7.6564472168        2.0431846588
  C        -0.6511083363        7.6634315479        0.9263060396
  C         0.8157729521        7.7180860185        1.0425320699
  C         1.4636851132        7.7467550576        2.2784829024
  C         2.8725550733        7.8044203738        2.4096801610
  C         3.5247325820        7.9126436720        3.7383087049
  C         4.6826586120        8.7020063446        3.8981936689
  C         5.3169293701        8.8240018233        5.1288347620
  C         4.7847882440        8.1893892745        6.2614276646
  C         3.6372681399        7.3901638389        6.1229414964
  C         3.0259360685        7.2516643870        4.8769995103
  C         3.6339992247        7.7897403507        1.2501716819
  C         3.0296466667        7.7678949480       -0.0284535087
  C         3.8378628110        7.7918467193       -1.1867770492
  C         3.2834564020        7.8622697985       -2.4550478361
  C         4.2533391993        7.9464574320       -3.5892175835
  C         5.1681503320        6.8959550528       -3.7919246871
  C         6.2375497917        7.0214323933       -4.6752772254
  C         6.4527187906        8.2361132996       -5.3418756452
  C         5.5195562072        9.2748113933       -5.1990559447
  C         4.4207152530        9.1192974111       -4.3451000815
  C         1.8725201516        7.8728309985       -2.5812476804
  C         1.0181200794        7.8014137559       -1.4716995726
  C        -0.4577092913        7.7632894362       -1.5925423226
  C        -1.1352473867        7.8918412201       -2.8183577393
  C        -1.2294110676        7.6386292857       -0.3864413384
  C         1.6007801019        7.7555585180       -0.1578059602
  C        -4.3331268885        9.2612905439       -3.8252938654
  C        -5.3686959804        9.5408996262       -4.6981159119
  H        -4.6274352706        7.2846852816       -7.1416815264
  H        -2.8180953492        6.7504246381       -5.5513000838
  H        -4.3631505154        7.5695216281       -1.7927728805
  H        -4.5374881769        7.4879508646        0.5382829012
  H        -2.6561571043        9.1260230605        4.2254809467
  H        -4.4148457729        9.5885160656        5.8995465730
  H        -7.0509970588        6.8398571999        3.8913962131
  H        -5.2687394959        6.3032661652        2.2760662394
  H        -1.0618665506        7.7051834790        3.0418558648
  H         0.8718221000        7.7646240240        3.1921672519
  H         5.0714529347        9.2614705868        3.0474094309
  H         6.1931246230        9.4611372531        5.2352207035
  H         3.2577212899        6.8397024003        6.9845403434
  H         2.1593432222        6.5959167683        4.7833787764
  H         4.7235966637        7.7918902163        1.3054434837
  H         4.9225828292        7.8030076626       -1.0689130236
  H         5.0475220256        5.9683472012       -3.2306293785
  H         6.9374938661        6.1995754947       -4.8126632276
  H         5.6628381806       10.2119798353       -5.7389144262
  H         3.7284560001        9.9519627150       -4.2121298935
  H         1.4515375255        7.9168362436       -3.5858248226
  H        -0.5683918946        8.0810931275       -3.7299122675
  H        -4.2646101394        9.8175560159       -2.8906659568
  H        -6.1203633594       10.2709371977       -4.4002798412
  C        -8.4611018643        5.9996579846       -5.0864757221
  C        -9.3267798035        5.8178976454       -3.9887376370
  C        -8.9634139846        4.9764473259       -2.9392986847
  C        -7.7392407066        4.2803568553       -2.9638279339
  C        -7.5771689467        3.0216625140       -2.1818563120
  C        -7.3378203684        1.8838497284       -2.9417446874
  C        -7.4826017606        0.5903113142       -2.3954344421
  C        -7.4789107799       -0.5390513397       -3.2495849881
  C        -7.8536833058       -1.7884225982       -2.7808136544
  C        -8.0703712886       -2.8777347438       -3.7728729459
  C        -7.0274837890       -3.3291358274       -4.6008059981
  C        -7.2725418920       -4.2009300094       -5.6603869648
  C        -8.5886455772       -4.5870204657       -5.9529568155
  C        -9.6303184877       -4.2059971841       -5.0920570876
  C        -9.3648217072       -3.3767347423       -4.0013949158
  C        -8.1165132169       -1.9426243665       -1.4019877974
  C        -8.0218117026       -0.8805530803       -0.4986177702
  C        -8.2046494436       -1.0628142828        0.9481002731
  C        -8.2995744412       -2.3283452540        1.5285983360
  C        -8.4854590288       -2.5228171927        2.9181745661
  C        -8.5556644524       -3.8784983437        3.5165152913
  C        -9.4263957723       -4.1435083814        4.5926782253
  C        -9.4309420929       -5.3781345459        5.2337361677
  C        -8.5869652120       -6.4071731672        4.7894434383
  C        -7.7496291130       -6.1790415262        3.6875088309
  C        -7.7310732652       -4.9272891566        3.0709506405
  C        -8.5645494580       -1.4002856624        3.7287681253
  C        -8.4247321793       -0.0964556357        3.1972558706
  C        -8.4188252597        1.0185951070        4.0607739704
  C        -8.2134182749        2.3066361862        3.5866347451
  C        -8.1266991948        3.3966955090        4.5942443328
  C        -7.4225452911        3.1487750737        5.7893127957
  C        -7.4093460359        4.0650123921        6.8329996004
  C        -8.0763711980        5.2928294901        6.7038689368
  C        -8.7463082836        5.5791962642        5.5043387023
  C        -8.7793719445        4.6375542870        4.4712900503
  C        -8.0617984870        2.4954406621        2.1884564039
  C        -8.0814507377        1.4299744072        1.2794272299
  C        -7.8795388517        1.6104736635       -0.1762528666
  C        -7.8346056921        2.8671226908       -0.7949782670
  C        -7.7727986717        0.4375709758       -1.0004553780
  C        -8.2428567734        0.0961026399        1.7884712668
  C        -6.8039499476        4.6479510190       -3.9527209128
  C        -7.1473030264        5.5160426370       -4.9890133573
  H       -10.3107668106        6.2883434657       -3.9824467922
  H        -9.6870747972        4.7714227292       -2.1488212918
  H        -7.1680195059        1.9776304762       -4.0150963060
  H        -7.2851418668       -0.3921536603       -4.3134942294
  H        -6.0100955691       -2.9788323584       -4.4210744443
  H        -6.4580179278       -4.5303122496       -6.3030015977
  H       -10.6485359960       -4.5459051844       -5.2870746535
  H       -10.1869390922       -3.0560760322       -3.3598752329
  H        -8.4091523695       -2.9306738212       -1.0484911438
  H        -8.2428382212       -3.2131466194        0.8963365542
  H       -10.1269551315       -3.3742480953        4.9191577983
  H       -10.1226878038       -5.5685103241        6.0530478523
  H        -7.0787323710       -6.9691821125        3.3499345699
  H        -7.0344889817       -4.7519713865        2.2499212772
  H        -8.6834322670       -1.5068414150        4.8083311910
  H        -8.5868731207        0.8504809032        5.1252845623
  H        -6.8703608971        2.2148386395        5.8979541863
  H        -6.8475982175        3.8539675618        7.7425631088
  H        -9.3001389549        6.5129259193        5.4095840235
  H        -9.3689012455        4.8503634832        3.5781623505
  H        -7.8771452076        3.5072942105        1.8269768515
  H        -8.0133698744        3.7659675596       -0.2045916813
  H        -5.8129260829        4.1915594566       -3.9499222057
  H        -6.4317899830        5.7297480683       -5.7804154837
  C         6.4025860513       -4.6733409648       -8.4670623661
  C         5.3021262663       -5.1377686268       -9.2025890205
  C         4.0897421157       -4.4589501187       -9.1409503253
  C         3.9166106185       -3.3324939629       -8.3095943151
  C         2.5969077681       -2.6613078240       -8.2159466661
  C         1.4296138383       -3.4070254591       -8.2808903191
  C         0.1586014748       -2.7945815261       -8.1873488112
  C        -1.0059465488       -3.5894327199       -8.2148095600
  C        -2.2736807302       -3.0366413726       -8.0940312709
  C        -3.4223147504       -3.9803314254       -8.0758464505
  C        -4.6230566542       -3.7786131012       -8.7836217345
  C        -5.5916073831       -4.7840472996       -8.8734996609
  C        -5.3589008966       -6.0357729064       -8.2835012194
  C        -4.2003017797       -6.2268380390       -7.5166959392
  C        -3.2660315210       -5.2067450023       -7.3998561275
  C        -2.3831215672       -1.6257226024       -7.9993749832
  C        -1.2637569208       -0.7845498560       -7.9911972530
  C        -1.3694248455        0.6866488673       -7.8950845508
  C        -2.5837827298        1.3777025133       -8.0300011194
  C        -2.6641177423        2.7913600538       -7.9333182280
  C        -3.8362753855        3.6367958520       -8.2958596748
  C        -3.5539134671        4.7395567209       -9.1279176010
  C        -4.5119043317        5.6937163158       -9.4215019662
  C        -5.8201501546        5.5724910304       -8.9188372976
  C        -6.1357449291        4.4600550549       -8.1222679502
  C        -5.1556476926        3.5034390327       -7.8241695046
  C        -1.5094082040        3.4897130199       -7.6105697317
  C        -0.2543479957        2.8559570710       -7.5433245234
  C         0.9084701554        3.6454701363       -7.4391050701
  C         2.1737245533        3.0949359848       -7.5766283863
  C         3.3179605347        4.0360275318       -7.6632195427
  C         3.2871482169        5.2317355204       -6.9186358064
  C         4.1612313515        6.2760640338       -7.1871692407
  C         5.1396614173        6.1338059269       -8.1825198758
  C         5.2751682371        4.9035883439       -8.8423895708
  C         4.3599715565        3.8770158377       -8.5975047154
  C         2.2706893637        1.6920835238       -7.7457720421
  C         1.1489860103        0.8570646062       -7.7982143092
  C         1.2527860782       -0.6021210224       -7.9694961862
  C         2.4818317515       -1.2594482415       -8.0484841567
  C         0.0459950181       -1.3726195637       -8.0485126135
  C        -0.1588661537        1.4410190308       -7.7250103685
  C         5.0252441814       -2.8987200394       -7.5589481562
  C         6.2562881270       -3.5484604479       -7.6406694621
  H         5.4193734502       -6.0011976100       -9.8568304981
  H         3.2656683364       -4.7948085719       -9.7703481569
  H         1.4727911214       -4.4933160017       -8.3725614949
  H        -0.8911986838       -4.6645439936       -8.3560922710
  H        -4.7793550735       -2.8463516439       -9.3279711485
  H        -6.4944785979       -4.6248253999       -9.4630025256
  H        -4.0536028094       -7.1678186204       -6.9899468919
  H        -2.3841179034       -5.3674091728       -6.7795529198
  H        -3.3789718070       -1.1943151509       -7.8956795354
  H        -3.4885820769        0.8273236999       -8.2884427278
  H        -2.5547924883        4.8496130216       -9.5479494876
  H        -4.2370902818        6.5639100995      -10.0180556426
  H        -7.1503246966        4.3387438270       -7.7445431674
  H        -5.4192119185        2.6593376982       -7.1848018129
  H        -1.5462907920        4.5720725601       -7.4819502180
  H         0.7857528139        4.7261757420       -7.3656998451
  H         2.5432576329        5.3577577562       -6.1317571091
  H         4.0986956414        7.2042354342       -6.6200005898
  H         6.0307201646        4.7905741636       -9.6200514826
  H         4.4066675803        2.9723197595       -9.2052713880
  H         3.2660911343        1.2607528707       -7.8440788634
  H         3.4023518618       -0.6791677436       -8.0091765175
  H         4.9162072354       -2.0581763913       -6.8725814647
  H         7.0919570284       -3.2237455294       -7.0202717353
  C         5.4591385037       -9.3270221234        5.5737856339
  C         4.7690833149      -10.4702701534        5.1210217658
  C         3.9335978762      -10.3879775248        4.0152770993
  C         3.7640435496       -9.1777167370        3.3111998927
  C         2.5365318888       -9.0149873487        2.4777257509
  C         1.3564209550       -9.1974934328        3.1828453243
  C         0.0997257285       -8.9708834392        2.5886551201
  C        -1.0675469231       -9.0584757106        3.3765773048
  C        -2.3106052020       -8.7329524444        2.8592543239
  C        -3.4487448656       -8.7693360238        3.8200124012
  C        -4.1630754711       -7.6155112625        4.1904791724
  C        -5.0231650189       -7.6233806345        5.2907315692
  C        -5.1784426448       -8.7924573873        6.0528779040
  C        -4.5579554786       -9.9791873011        5.6229339007
  C        -3.7047337327       -9.9611550089        4.5248540367
  C        -2.3991591431       -8.3763853348        1.4934680222
  C        -1.2811172008       -8.3597642516        0.6490620772
  C        -1.3829917151       -8.1034535272       -0.7979548991
  C        -2.6149012912       -7.9961379573       -1.4472917634
  C        -2.7295182585       -7.8260211585       -2.8474973629
  C        -4.0556366423       -7.8252687918       -3.5183372598
  C        -4.2783443065       -8.6472072924       -4.6408028356
  C        -5.5040272165       -8.6549877934       -5.3017927001
  C        -6.5578013538       -7.8538744726       -4.8389171305
  C        -6.3552893392       -7.0316839039       -3.7182304061
  C        -5.1193344963       -7.0211935468       -3.0715661117
  C        -1.5673704480       -7.7137782018       -3.5949973352
  C        -0.2911420735       -7.8095781731       -2.9891741633
  C         0.8762935220       -7.7390099689       -3.7837468732
  C         2.1334335448       -7.9672605744       -3.2439813427
  C         3.2846531710       -7.9890203968       -4.1936548376
  C         3.5358379477       -6.8772013211       -5.0210856570
  C         4.4568292714       -6.9382697228       -6.0652665648
  C         5.1121869613       -8.1462781879       -6.3465087162
  C         4.9274442371       -9.2440463508       -5.4904377778
  C         4.0381330407       -9.1551133221       -4.4143921710
  C         2.2381136011       -8.2319768688       -1.8566123228
  C         1.1247981695       -8.2422778466       -1.0065618165
  C         1.2300267453       -8.5090278900        0.4444829464
  C         2.4578150250       -8.6653265566        1.1070735362
  C         0.0156977981       -8.6139720791        1.2055077746
  C        -0.1790294568       -8.0392408572       -1.5764551483
  C         4.6196595355       -8.1111629645        3.6385359545
  C         5.4662802491       -8.1897636921        4.7483545925
  H         4.8707700183      -11.4232864255        5.6402144695
  H         3.3629709758      -11.2662141711        3.7112549778
  H         1.3915291079       -9.4660814735        4.2393945670
  H        -0.9696610740       -9.3366167842        4.4269144764
  H        -3.9862502875       -6.6791994441        3.6584948303
  H        -5.5119570035       -6.7039614725        5.6123520444
  H        -4.7465002006      -10.9166891824        6.1477053896
  H        -3.2100647711      -10.8823704566        4.2150305011
  H        -3.3845072085       -8.1411602328        1.0923835223
  H        -3.5363132152       -8.1164410922       -0.8790270259
  H        -3.4850040196       -9.3158017699       -4.9774436392
  H        -5.6709153728       -9.3231520289       -6.1464037187
  H        -7.1552256184       -6.3694373493       -3.3852058959
  H        -4.9670217536       -6.3544903461       -2.2213976091
  H        -1.6224818674       -7.5626574798       -4.6747563545
  H         0.7703630015       -7.5716517626       -4.8569847968
  H         2.9844857437       -5.9510844481       -4.8517616681
  H         4.6284948518       -6.0715147658       -6.7015549914
  H         5.4614456676      -10.1763017479       -5.6808609655
  H         3.8738120101      -10.0321072820       -3.7863770889
  H         3.2294924013       -8.4342621162       -1.4514189011
  H         3.3902366094       -8.5449462973        0.5560340827
  H         4.5595910349       -7.1765107773        3.0785238255
  H         6.0855329500       -7.3373893888        5.0195371176
 Zn         7.5598940207        7.9928835900        8.0549464291
  C        11.8961610585        6.4275266909        9.9888345081
  C        10.8072486247        5.5902437260        9.7341256011
  C         9.6373235493        6.1382688077        9.1963446185
  H        10.8569276995        4.5245354153        9.9598643183
  N         9.5238262058        7.4605820522        8.9065714274
  C         8.4588302896        5.3087357797        8.9636234808
  C        10.5764228485        8.2573383786        9.1539100043
  C        11.7776528429        7.7851013907        9.6947066022
  H        10.4522985543        9.3140241960        8.9166962175
  H        12.5977475685        8.4779247651        9.8831672459
  H        12.8170754785        6.0290131239       10.4152731747
  N         7.3403670200        5.8079772684        8.5407005702
  H         8.5424050546        4.2415207441        9.2070785839
  C         5.2481026549        9.5188397549       12.1852518816
  C         4.6053663468        9.3537945232       10.9554143480
  C         5.3425457933        8.8979370824        9.8572541110
  H         3.5461149082        9.5867873360       10.8421732442
  N         6.6676835303        8.6100637138        9.9497632276
  C         4.7260154863        8.7277539726        8.5421204498
  C         7.2764213950        8.7653893063       11.1359355207
  C         6.6060133355        9.2167239230       12.2784709513
  H         8.3391043587        8.5233017146       11.1695601794
  H         7.1478917080        9.3309717221       13.2171569363
  H         4.6998525408        9.8813147559       13.0551270852
  N         5.4271469051        8.3697696159        7.5148154920
  H         3.6535322359        8.9440136607        8.4504860276
  C         9.5929047725       12.3054084367        6.6994685597
  C         9.6656605284       11.1411911426        5.9307678605
  C         9.0014009785        9.9896667772        6.3706945288
  H        10.2374777590       11.1204250652        5.0023847556
  N         8.2856730869        9.9694164165        7.5268494740
  C         9.0399427957        8.7554754916        5.5923701844
  C         8.2097039282       11.0971917059        8.2522205800
  C         8.8470636826       12.2849034914        7.8777662651
  H         7.6260648084       11.0427034974        9.1714326189
  H         8.7616748048       13.1699137369        8.5080155255
  H        10.1107651395       13.2118768314        6.3848453788
  N         8.4123880301        7.6848883245        5.9720496048
  H         9.5952079340        8.7859746339        4.6463878333
 Zn        -8.0039753320       -8.0550064888        7.6331166189
  C       -12.1113597803       -6.1463336595        9.6276146588
  C       -10.9301648193       -5.4201760658        9.4493138595
  C        -9.8370222463       -6.0400064421        8.8348896745
  H       -10.8517895567       -4.3877939883        9.7919846860
  N        -9.8890853538       -7.3271100749        8.4027221938
  C        -8.5756428664       -5.3272489308        8.6274651225
  C       -11.0298477284       -8.0159001707        8.5686353718
  C       -12.1637733207       -7.4646148430        9.1758095835
  H       -11.0318321858       -9.0437858784        8.2040699886
  H       -13.0652740235       -8.0662838707        9.2913150562
  H       -12.9753216884       -5.6911716773       10.1127748832