     728
 i =      511, E =     -3436.3374026442
  C        -5.8996098285        4.9352239792        7.8278877977
  C        -4.7410830596        5.2363194381        8.5605466345
  C        -3.6275400016        4.3917667769        8.4834777124
  C        -3.6344230210        3.2559940410        7.6531307197
  C        -2.6785668094        2.1183594594        7.7725360055
  C        -3.2766496873        0.8802609626        7.9476040483
  C        -2.5227402285       -0.3053421739        8.0298747509
  C        -3.1934286556       -1.5335308403        8.1717811440
  C        -2.5075790505       -2.7361138469        8.2275438348
  C        -3.3861645483       -3.9308611413        8.3781024855
  C        -3.3301649721       -4.8128134357        9.4707498815
  C        -4.4003148455       -5.6698527816        9.7575278192
  C        -5.5376888958       -5.6714112656        8.9349184972
  C        -5.5475920044       -4.8927013453        7.7714042075
  C        -4.4882787927       -4.0360974032        7.5043914781
  C        -1.0935631087       -2.7063686003        8.1385725480
  C        -0.3758820540       -1.5094750598        7.9850804849
  C         1.0906939856       -1.4690010014        7.8047123574
  C         1.8995748059       -2.6145170440        7.8477136048
  C         3.3062836916       -2.5638200588        7.6639842656
  C         4.2433803637       -3.6966649393        7.9038274406
  C         5.4559844095       -3.3801800140        8.5496388790
  C         6.4328113627       -4.3313238633        8.7771972087
  C         6.2321998443       -5.6745619313        8.4068657680
  C         5.0329709052       -6.0154961675        7.7572715488
  C         4.0544819179       -5.0408788369        7.5207183703
  C         3.8751729421       -1.3325826730        7.3622696860
  C         3.1248676078       -0.1402233652        7.3920755239
  C         3.7971619984        1.1006148439        7.3263748448
  C         3.1392131548        2.2911022416        7.5961935790
  C         4.0047082702        3.4886347061        7.7862152928
  C         4.9982840577        3.7969662996        6.8368083485
  C         6.0264515828        4.6913097403        7.1244896547
  C         6.1055689563        5.2782543061        8.3962753088
  C         5.0652768563        5.0683920146        9.3150986382
  C         4.0193622407        4.1952479894        9.0020799158
  C         1.7357578429        2.2531623559        7.7860382601
  C         1.0050315321        1.0588121105        7.7388216535
  C        -0.4660005506        1.0185621480        7.8210412412
  C        -1.2625885548        2.1710260152        7.7286353296
  C        -1.0968508864       -0.2654894435        7.9475954461
  C         1.7143681975       -0.1855739772        7.6281787013
  C        -4.7445909891        3.0780612946        6.8019605975
  C        -5.8699434052        3.8873512150        6.8950490653
  H        -4.7505626205        6.0655555175        9.2677807534
  H        -2.7813549837        4.5704578063        9.1483638567
  H        -4.3609541627        0.8073045711        8.0360514768
  H        -4.2801878490       -1.5226724756        8.2600598302
  H        -2.4848790394       -4.7729066994       10.1592493834
  H        -4.3632321590       -6.3076647400       10.6416974054
  H        -6.4122949433       -4.9170464034        7.1123640583
  H        -4.5349158275       -3.3940589331        6.6241388356
  H        -0.5599684963       -3.6564435868        8.1571108660
  H         1.4511621829       -3.5789023613        8.0858360217
  H         5.6322488298       -2.3611946646        8.8909428833
  H         7.3801383242       -4.0253338167        9.2204181210
  H         4.8565724824       -7.0463553792        7.4506177218
  H         3.1368970387       -5.3332075682        7.0075846466
  H         4.9436608711       -1.2586464080        7.1589857669
  H         4.8795020617        1.0970649293        7.1896267590
  H         4.9905395552        3.2908055740        5.8704311569
  H         6.8156632607        4.8714033792        6.3965448946
  H         5.0931334927        5.5575651896       10.2897825128
  H         3.2544592859        3.9935823178        9.7534510186
  H         1.2177317438        3.1940318052        7.9718464440
  H        -0.7879215596        3.1398410340        7.5733070375
  H        -4.7402619466        2.2534189583        6.0887630146
  H        -6.7318026449        3.7125501928        6.2509881302
  C         8.7987301187        5.7696348250       -5.8609789909
  C         9.6901294913        4.6867316594       -5.8072301877
  C         9.5163799072        3.6844516641       -4.8457754744
  C         8.4727201894        3.7590556283       -3.9080852975
  C         8.4430795021        2.9578293400       -2.6512617187
  C         8.4946237671        3.6927657172       -1.4774555006
  C         8.4471033201        3.0695050328       -0.2134699873
  C         8.4858539285        3.8608074599        0.9511926579
  C         8.3815545171        3.3046178639        2.2175138060
  C         8.4050365584        4.2494420561        3.3655180550
  C         9.1363677590        4.0310246468        4.5484497075
  C         9.3074946073        5.0486602886        5.4937731952
  C         8.7754253214        6.3228322210        5.2510943219
  C         7.9749703005        6.5335739813        4.1207155274
  C         7.7757497368        5.5017032146        3.2125982808
  C         8.2754117106        1.8938426998        2.3168143853
  C         8.2628312336        1.0576998434        1.1923943247
  C         8.1174689376       -0.4075597033        1.2906255863
  C         8.1390194860       -1.0919815291        2.5126674887
  C         7.9121093134       -2.4859704534        2.6021176201
  C         8.1064231245       -3.3213863002        3.8208703622
  C         9.3808369104       -3.4168599823        4.4109812312
  C         9.7140954198       -4.5061057953        5.2133433855
  C         8.7639974210       -5.5142571505        5.4668462768
  C         7.4319590707       -5.3001044132        5.0814328378
  C         7.1180828719       -4.2308381744        4.2435426321
  C         7.6442403474       -3.1903224242        1.4369156067
  C         7.7230339146       -2.5701473099        0.1704019585
  C         7.6689933919       -3.3602017272       -0.9996424475
  C         7.9453737940       -2.8198484666       -2.2468475708
  C         8.0749510453       -3.7735993079       -3.3816933650
  C         7.0846045483       -4.7518480431       -3.5959292679
  C         7.2896887799       -5.8138545168       -4.4725565899
  C         8.5200900272       -5.9443973898       -5.1329679200
  C         9.4844152604       -4.9334058262       -5.0018156874
  C         9.2515671063       -3.8516914680       -4.1477839766
  C         8.1782487093       -1.4267782948       -2.3419067216
  C         8.1486118708       -0.5830682779       -1.2254794066
  C         8.3037548174        0.8797717906       -1.3281243381
  C         8.3616518438        1.5482714514       -2.5592991905
  C         8.3405744534        1.6463955138       -0.1154865059
  C         7.9786711920       -1.1635075155        0.0769918262
  C         7.5278441961        4.7932772444       -4.0553658436
  C         7.6765220860        5.7801441487       -5.0238643469
  H        10.5445394909        4.6489745194       -6.4843662134
  H        10.2563770359        2.8862582432       -4.7720522709
  H         8.5848111084        4.7790812420       -1.5201428229
  H         8.6212273948        4.9361258810        0.8341848665
  H         9.6429485095        3.0775723691        4.7036475060
  H         9.9206252126        4.8783555567        6.3789763877
  H         7.5045749005        7.5038368008        3.9651730135
  H         7.1388113949        5.6799718003        2.3463987018
  H         8.1657186546        1.4584214867        3.3099452162
  H         8.3392029501       -0.5468662269        3.4347894771
  H        10.1515086408       -2.6887160711        4.1536821066
  H        10.7292523453       -4.5992584002        5.6014522006
  H         6.6665202716       -6.0251136304        5.3500184878
  H         6.1011300933       -4.1348516617        3.8604362867
  H         7.4885428392       -4.2693016291        1.4803990102
  H         7.5111004696       -4.4347044666       -0.8954781321
  H         6.1466843307       -4.6939925013       -3.0417577486
  H         6.5253674273       -6.5788445040       -4.5979315119
  H        10.4273473508       -5.0063623840       -5.5454852390
  H        10.0328160156       -3.1016020630       -4.0162550906
  H         8.3797422007       -1.0110271089       -3.3287688360
  H         8.3015795070        0.9798090996       -3.4869229824
  H         6.6892641281        4.8528204326       -3.3603907574
  H         6.9701861079        6.6056106070       -5.0766568654
  C         5.5781825908        8.6952513851       -6.0149289287
  C         5.5487384058        9.6082656597       -4.9487576232
  C         4.6902134638        9.3934406936       -3.8660597336
  C         3.8272556236        8.2832407383       -3.8342245221
  C         2.6722025249        8.1986791405       -2.9006069817
  C         1.4352960302        7.9502016188       -3.4773952834
  C         0.2442615497        8.0159008646       -2.7246158942
  C        -1.0003750706        7.9206517147       -3.3826897825
  C        -2.1937165107        8.1473304561       -2.7124439548
  C        -3.4131692090        8.2272019897       -3.5606398735
  C        -4.2391070821        9.3658632147       -3.5754510870
  C        -5.1343198537        9.5907775272       -4.6242965802
  C        -5.2416750430        8.6624270569       -5.6750875563
  C        -4.5462603455        7.4490490292       -5.5783459961
  C        -3.6379504647        7.2450270850       -4.5447664753
  C        -2.1452059471        8.3904900534       -1.3185559411
  C        -0.9413804208        8.4085822598       -0.6023579684
  C        -0.8886614184        8.6000536885        0.8578415728
  C        -2.0376689380        8.6023902040        1.6591124623
  C        -1.9856742351        8.8448556824        3.0512719788
  C        -3.1539657321        8.8323268486        3.9773946084
  C        -3.4706886155        9.9947807863        4.7053497579
  C        -4.3531221243        9.9517992741        5.7802417394
  C        -4.9377724975        8.7308238311        6.1632355272
  C        -4.7145951148        7.5887045155        5.3782360582
  C        -3.8291767685        7.6423504523        4.3008699294
  C        -0.7528454519        9.0658602253        3.6417986282
  C         0.4414750579        8.9824511169        2.8946527035
  C         1.6836294522        9.0611146395        3.5578585811
  C         2.8777528437        8.9009352708        2.8750919768
  C         4.0917460971        8.8804284556        3.7516831027
  C         4.8262253708       10.0425028566        4.0391110741
  C         5.6749153479       10.0961014170        5.1494688822
  C         5.8137070207        8.9727963226        5.9812807745
  C         5.1999310651        7.7673847123        5.6184196530
  C         4.3369745433        7.7319880113        4.5259329266
  C         2.8398491997        8.7152582336        1.4747353712
  C         1.6332802294        8.6575642770        0.7611985556
  C         1.5809135513        8.4489677209       -0.6988873339
  C         2.7258399230        8.4472607908       -1.5065924861
  C         0.2961725513        8.2756466772       -1.3177790777
  C         0.3951577579        8.7552994403        1.4818414916
  C         3.9555625052        7.3256168090       -4.8605645346
  C         4.8206812700        7.5192572210       -5.9317267492
  H         6.1686476538       10.5052927864       -4.9814591381
  H         4.6324567162       10.1470920655       -3.0793935248
  H         1.3579510880        7.7954540052       -4.5542514883
  H        -1.0041320121        7.7653819828       -4.4623395234
  H        -4.1149150249       10.1344622005       -2.8110916421
  H        -5.7159487740       10.5133501315       -4.6516157674
  H        -4.6353697161        6.7117339243       -6.3732465178
  H        -3.0468148206        6.3282483225       -4.5293439738
  H        -3.0853755621        8.5713431630       -0.7980522209
  H        -3.0133730058        8.4267084182        1.2068619892
  H        -2.9993106947       10.9404517729        4.4353789644
  H        -4.5904351033       10.8681876054        6.3220567943
  H        -5.1730755657        6.6426179316        5.6634841228
  H        -3.6039695267        6.7287121821        3.7485188542
  H        -0.6873969681        9.2459853975        4.7158397787
  H         1.6924368213        9.2182882808        4.6374523526
  H         4.6758267329       10.9409699648        3.4391092899
  H         6.1960458833       11.0236045560        5.3914226823
  H         5.3236648829        6.8883379549        6.2474499724
  H         3.7885824505        6.8142056123        4.3091317556
  H         3.7860821246        8.5865961102        0.9501377036
  H         3.7004703852        8.6430196678       -1.0601011068
  H         3.3328468567        6.4303985265       -4.8389804717
  H         4.8601186461        6.7932123585       -6.7412493282
  C        -8.0539805526        6.1004001078        4.6059356027
  C        -7.1818670806        6.1822960034        3.5101192744
  C        -7.0554652101        5.1088205530        2.6362771897
  C        -7.8194235870        3.9337997727        2.7884012887
  C        -7.8409231236        2.9516127740        1.6701031415
  C        -7.8960771787        3.4749012315        0.3872588873
  C        -7.9321873942        2.6461995748       -0.7520210815
  C        -7.9918046618        3.2346173191       -2.0317615949
  C        -8.0654127116        2.4660275564       -3.1822789839
  C        -8.1777853430        3.2755134660       -4.4366467836
  C        -7.1028141249        4.1033493605       -4.8093189834
  C        -7.2926879390        5.1929936408       -5.6557714918
  C        -8.5777735886        5.5074204376       -6.1156851396
  C        -9.6227655289        4.5903343568       -5.8951590833
  C        -9.4166516507        3.4817128883       -5.0707708249
  C        -8.0545856264        1.0575045302       -3.0534301229
  C        -7.9651956813        0.4194443422       -1.8057725528
  C        -7.8792147591       -1.0484510447       -1.6633088751
  C        -7.9714079903       -1.9276782240       -2.7516443923
  C        -7.8552776465       -3.3360396555       -2.6119402467
  C        -8.1127603712       -4.3190151418       -3.6994306211
  C        -8.7185708495       -5.5399770086       -3.3366003585
  C        -8.9639280987       -6.5394183355       -4.2604493214
  C        -8.6561735952       -6.3542991301       -5.6217024296
  C        -8.0446656846       -5.1488106524       -6.0067311797
  C        -7.7855875119       -4.1499103580       -5.0609514739
  C        -7.5748561326       -3.8357799909       -1.3463607335
  C        -7.5547278674       -3.0070244403       -0.2063729422
  C        -7.4759230901       -3.5961314946        1.0744690835
  C        -7.6559857078       -2.8475404147        2.2285810187
  C        -7.7893517833       -3.6130934300        3.4989011271
  C        -6.9103683996       -4.6821482798        3.7667287469
  C        -7.1853378632       -5.6212620817        4.7559345854
  C        -8.3697988150       -5.5305587197        5.5022308226
  C        -9.1917292500       -4.4019426852        5.3369564567
  C        -8.8948874533       -3.4525801350        4.3545130884
  C        -7.8067595304       -1.4441333318        2.0963210314
  C        -7.7954937339       -0.7976233192        0.8528416098
  C        -7.8613861954        0.6704602977        0.7119635352
  C        -7.8291006379        1.5401855557        1.8109809819
  C        -7.9188027090        1.2219497497       -0.6144024815
  C        -7.7286113971       -1.5928902246       -0.3416033756
  C        -8.6370913751        3.8389861756        3.9306173488
  C        -8.7442339054        4.8996030274        4.8370150676
  H        -6.5978479880        7.0891923502        3.3556742775
  H        -6.3663111358        5.1909934249        1.7954728466
  H        -7.9511840506        4.5535814781        0.2379997907
  H        -8.0078968031        4.3229442764       -2.1057137146
  H        -6.1214923607        3.9400578049       -4.3618585245
  H        -6.4733261618        5.8766374475       -5.8581470227
  H       -10.6110711577        4.7680044784       -6.3214111168
  H       -10.2586033874        2.8271793515       -4.8403907223
  H        -8.0952180007        0.4608390075       -3.9641551354
  H        -8.1900816036       -1.5303815697       -3.7425347005
  H        -9.0187988204       -5.7064305618       -2.3032666702
  H        -9.3761042906       -7.4883634931       -3.9184094173
  H        -7.7861352060       -4.9843999872       -7.0517763215
  H        -7.3019507841       -3.2294441174       -5.3916317360
  H        -7.4122331089       -4.9035663089       -1.2004458992
  H        -7.3860711297       -4.6812402814        1.1386627894
  H        -6.0157011082       -4.8071282986        3.1551494661
  H        -6.5227389760       -6.4714943492        4.9005203461
  H       -10.0887638149       -4.2876126899        5.9472919439
  H        -9.5872127776       -2.6246559599        4.1937872201
  H        -7.9261294224       -0.8574319211        3.0070413729
  H        -7.7573880685        1.1291814672        2.8179247571
  H        -9.2592251911        2.9545865529        4.0762626826
  H        -9.4366118127        4.8307221810        5.6761428013
  C        -5.8556804355       -5.6495561311       -8.9965257154
  C        -4.6151329179       -6.0194303790       -8.4505767217
  C        -3.6617077120       -5.0441799131       -8.1310794306
  C        -3.9147994436       -3.6727009121       -8.3326957298
  C        -3.0009026522       -2.5438465675       -8.0081629215
  C        -3.5936601151       -1.3532508949       -7.6062724363
  C        -2.8936709911       -0.1313582816       -7.6585437513
  C        -3.6206694808        1.0739354057       -7.5999993623
  C        -3.0645804301        2.2755929376       -8.0209981784
  C        -3.9899430464        3.4027204024       -8.3153336296
  C        -3.6401403447        4.7686670391       -8.3285267236
  C        -4.5745860364        5.7629150500       -8.6425854509
  C        -5.8979618049        5.4166704098       -8.9562230965
  C        -6.2606414476        4.0600936691       -8.9427479825
  C        -5.3237040413        3.0861181272       -8.6506142197
  C        -1.6620472933        2.3000345322       -8.2522292969
  C        -0.8603276421        1.1542535519       -8.1557807456
  C         0.6088943836        1.1758587778       -8.2848910199
  C         1.3456672252        2.3662897768       -8.3459405145
  C         2.7620858509        2.3814116399       -8.3640223190
  C         3.6232951054        3.5938722729       -8.4579442240
  C         3.5466446554        4.4978810407       -9.5312557217
  C         4.5786588355        5.4101092588       -9.7772860396
  C         5.6976955053        5.4513097210       -8.9310448243
  C         5.7194567927        4.6532721426       -7.7796405454
  C         4.6996941181        3.7323750927       -7.5587650593
  C         3.4322133208        1.1684295607       -8.3212369940
  C         2.7390837644       -0.0595784060       -8.2888677666
  C         3.4657122359       -1.2687580312       -8.2800139929
  C         2.8279641645       -2.4991448800       -8.2865684913
  C         3.7340099313       -3.6844774801       -8.3114002437
  C         4.6950076919       -3.8168987621       -7.2904483119
  C         5.7658412123       -4.6967070757       -7.4105490837
  C         5.9207901944       -5.4459690512       -8.5832123663
  C         4.9218425936       -5.4046074107       -9.5679711469
  C         3.8296943201       -4.5411114235       -9.4209640486
  C         1.4131640716       -2.5256012588       -8.2763446096
  C         0.6436896284       -1.3542654967       -8.2527505903
  C        -0.8258194177       -1.3723795502       -8.1314181297
  C        -1.5957519143       -2.5421415772       -8.2153133717
  C        -1.4989230883       -0.1164962511       -7.9613677459
  C         1.3081531919       -0.0800164959       -8.2768109338
  C        -5.1603345777       -3.3289537692       -8.8993985517
  C        -6.1136256695       -4.2826220796       -9.2070528036
  H        -4.3889123605       -7.0738471618       -8.2963168583
  H        -2.7106440503       -5.3615624866       -7.7006664999
  H        -4.6544128982       -1.3246255037       -7.3568701561
  H        -4.6714683131        1.0156759419       -7.3193788778
  H        -2.6191311490        5.0702464138       -8.0906163010
  H        -4.2694014579        6.8085761438       -8.6817617136
  H        -7.2922150156        3.7742363092       -9.1486920856
  H        -5.6359062773        2.0460727923       -8.7131602286
  H        -1.2053036022        3.2407476384       -8.5588543359
  H         0.8242563526        3.3234716388       -8.3378421288
  H         2.7188650303        4.4309455376      -10.2387549274
  H         4.5342999889        6.0584963933      -10.6534004738
  H         6.5712840902        4.7016449885       -7.1034523188
  H         4.7621337608        3.0692847201       -6.6949340038
  H         4.5223208134        1.1485119590       -8.3545091546
  H         4.5554507377       -1.2226191017       -8.3007024022
  H         4.6233130639       -3.1827518204       -6.4058417663
  H         6.5224973241       -4.7519915259       -6.6308354434
  H         5.0172979125       -6.0149708194      -10.4672493312
  H         3.0943076305       -4.4722859225      -10.2238790194
  H         0.9183394758       -3.4961892856       -8.2437345074
  H        -1.1165553950       -3.4777031044       -8.5041880122
  H        -5.3782868056       -2.2864472801       -9.1251270220
  H        -7.0801522269       -3.9667325131       -9.6009596216
  C         5.6533250113       -9.0312825760        5.4972810737
  C         4.3269584910       -9.4214784715        5.7609401175
  C         3.3181782209       -9.1563446045        4.8535163547
  C         3.5572326831       -8.4466357597        3.6579888312
  C         2.3660396015       -8.1375641520        2.8208715849
  C         1.1786877531       -7.9018607935        3.5012632082
  C        -0.0628892336       -7.8661184841        2.8398870961
  C        -1.2484602838       -7.8423273878        3.6025961849
  C        -2.4933895742       -7.9906388408        3.0102029281
  C        -3.6573831911       -8.1282105489        3.9209978598
  C        -4.6271605312       -9.1362545796        3.7718625352
  C        -5.5367291543       -9.4224773645        4.7961939462
  C        -5.4978838591       -8.6858112251        5.9884934077
  C        -4.6058327930       -7.6143443524        6.1078102245
  C        -3.7048166184       -7.3417186456        5.0883748582
  C        -2.5530655580       -8.0875339806        1.5994892098
  C        -1.4092356958       -8.0539371287        0.7932388656
  C        -1.4737552387       -8.1055553714       -0.6763336977
  C        -2.6844477924       -8.2124956502       -1.3736630068
  C        -2.7479314242       -8.1776221247       -2.7838989041
  C        -3.9738063137       -8.3789782923       -3.6128842755
  C        -4.5012286347       -9.6708381326       -3.7893248342
  C        -5.3335373033       -9.9578769898       -4.8694558651
  C        -5.6735319148       -8.9448809964       -5.7858296503
  C        -5.3324231930       -7.6172970617       -5.4893455715
  C        -4.4656776863       -7.3461372590       -4.4306214494
  C        -1.5686487871       -8.0274204835       -3.4951864734
  C        -0.3173707271       -7.9751703892       -2.8420376286
  C         0.8641469889       -7.9248195396       -3.6069937439
  C         2.1198830360       -7.9251711644       -3.0170505998
  C         3.2839666147       -7.9466655555       -3.9421869598
  C         3.1983423446       -7.2258261965       -5.1505770248
  C         4.0868058037       -7.4473917888       -6.1953661746
  C         5.1338327339       -8.3649286907       -6.0369633808
  C         5.3286518301       -8.9842783303       -4.7948727302
  C         4.3991590600       -8.7877068254       -3.7669601946
  C         2.1917646461       -7.9704573588       -1.6009485438
  C         1.0505661432       -8.0188407685       -0.7901675801
  C         1.1168915720       -8.0414852183        0.6861634733
  C         2.3181640138       -8.1632942761        1.4012596774
  C        -0.1192126785       -7.9720501252        1.4154458165
  C        -0.2459337002       -8.0262887911       -1.4136294943
  C         4.8889987928       -8.0668149389        3.3962644480
  C         5.9230310420       -8.3495338955        4.2988155345
  H         4.0839628088       -9.9217549574        6.6986286309
  H         2.3155180660       -9.5197771070        5.0724538022
  H         1.1784480357       -7.7981128923        4.5860214618
  H        -1.1600285003       -7.8111948962        4.6889443874
  H        -4.6246739562       -9.7627333290        2.8788496335
  H        -6.2505875404      -10.2390594951        4.6805163550
  H        -4.5851921501       -7.0310770028        7.0233826756
  H        -2.9990730889       -6.5202792051        5.2153410510
  H        -3.5357997681       -8.1776695013        1.1380929859
  H        -3.6204328872       -8.3144053449       -0.8260458013
  H        -4.1839618336      -10.4793203730       -3.1291360485
  H        -5.6835954848      -10.9791515001       -5.0247021172
  H        -5.6574046765       -6.8138171156       -6.1469304622
  H        -4.1169803611       -6.3243328605       -4.2747508711
  H        -1.5912102431       -8.0078998244       -4.5859368934
  H         0.7705760040       -7.9465673561       -4.6928423553
  H         2.3928211469       -6.5047969779       -5.2899011044
  H         3.9735394004       -6.9129976637       -7.1377658069
  H         6.1521170279       -9.6864267646       -4.6626707161
  H         4.5025161430       -9.3649453148       -2.8471751289
  H         3.1780715288       -7.9453297195       -1.1374494348
  H         3.2482389366       -8.3354567026        0.8594580623
  H         5.1259799766       -7.5220869492        2.4809257343
  H         6.9464724689       -8.0599010653        4.0629764298
 Zn         8.2532779052        7.9543655122        8.0911458205
  C        11.2755114264        5.9992596495       11.4789968184
  C        10.0083820372        5.4874237680       11.1860990039
  C         9.2746578097        6.0479388269       10.1349888855
  H         9.5903517466        4.6632727871       11.7652169365
  N         9.7496421756        7.0832061483        9.3942621412
  C         7.9717319966        5.5069486204        9.7509492902
  C        10.9740539156        7.5591427772        9.6724924215
  C        11.7707930807        7.0455010512       10.7017352679
  H        11.3238714778        8.3858814254        9.0548123712
  H        12.7573348535        7.4698338262       10.8878082846
  H        11.8654798664        5.5869640885       12.2979397243
  N         7.3050848766        5.9776305588        8.7455297289
  H         7.6078378006        4.6356301416       10.3114076894
  C         6.6418663569       11.1773930803       11.5694142098
  C         6.1488618567       11.1166357430       10.2638781878
  C         6.5958968863       10.0988970875        9.4134451154
  H         5.4276130649       11.8512142143        9.9036650257
  N         7.4992290222        9.1646019569        9.8087729156
  C         6.0767091771        9.9812797934        8.0543093974
  C         7.9573373250        9.2255541070       11.0698971667
  C         7.5563638990       10.2091289491       11.9813475352
  H         8.6818063829        8.4664432929       11.3631207508
  H         7.9660501218       10.2120870075       12.9912937602
  H         6.3183707595       11.9648056795       12.2506844565
  N         6.4606970196        9.0392506097        7.2531851282
  H         5.3011660520       10.6968003610        7.7518517508
  C        11.2697547658       11.6925080702        6.5442133844
  C        10.9464197087       10.5659533651        5.7835239453
  C        10.0912840488        9.6019038912        6.3283783346
  H        11.3615875316       10.4271107554        4.7846798800
  N         9.5525669589        9.7215322778        7.5686258937
  C         9.7610693336        8.3879337242        5.5877932423
  C         9.8690757102       10.8086952781        8.2903754629
  C        10.7218063295       11.8144277564        7.8200452062
  H         9.4308400935       10.8770566893        9.2858974307
  H        10.9488165230       12.6727303940        8.4523856508
  H        11.9407454365       12.4564012245        6.1506489779
  N         9.0685303270        7.4278639448        6.1132235549
  H        10.1472155858        8.3013687451        4.5640911255
 Zn        -7.8991517750       -7.9519303712        8.2098166246
  C       -10.4806717735       -6.6267076535       12.2996500467
  C        -9.1748322766       -6.2169507418       12.0190789764
  C        -8.6126497115       -6.5417255935       10.7794459227
  H        -8.5956187155       -5.6515597364       12.7501576265
  N        -9.2849355471       -7.2485298537        9.8338878955
  C        -7.2812781828       -6.0701235277       10.4144078856
  C       -10.5444947133       -7.6236439357       10.1092397378
  C       -11.1801432329       -7.3329595947       11.3223611843
  H       -11.0682098846       -8.1834155657        9.3357304410
  H       -12.2052183413       -7.6633066979       11.4895387307
  H       -10.9424938376       -6.3952724527       13.2598499432