     728
 i =      487, E =     -3436.4091484242
  C         6.3122916242        4.5777926668        8.2824534283
  C         5.9919443679        3.6978672153        9.3359323962
  C         4.7728504642        3.0258368706        9.3495794983
  C         3.8187696033        3.2246695317        8.3333754523
  C         2.4918578365        2.5550426489        8.3968236750
  C         1.3283122963        3.3088080009        8.3443467872
  C         0.0552337019        2.7036160618        8.4883078063
  C        -1.1197628431        3.4981703177        8.5287672404
  C        -2.3607986744        2.9257332161        8.7643459203
  C        -3.5917102864        3.7555027794        8.8700727332
  C        -4.3841700739        3.7315928506       10.0348831290
  C        -5.5425139404        4.4980500560       10.1380578867
  C        -5.9682359840        5.2948323664        9.0553907398
  C        -5.1680857499        5.3400583408        7.9038306260
  C        -4.0000564249        4.5878051095        7.8135046473
  C        -2.4466153815        1.5209360476        8.8988780051
  C        -1.3352037582        0.6850760427        8.7910509509
  C        -1.4512848647       -0.7832104737        8.8119686897
  C        -2.6847730853       -1.4333154999        8.8772094526
  C        -2.8098098204       -2.8442852700        8.8888628034
  C        -4.1278620312       -3.5126940008        9.0149335855
  C        -4.2411211989       -4.7128354375        9.7466293902
  C        -5.4525090566       -5.3820926238        9.8633295671
  C        -6.6108391269       -4.8421573900        9.2863884399
  C        -6.5238163189       -3.6451691251        8.5577096768
  C        -5.2949082744       -2.9991849302        8.4197066276
  C        -1.6521456611       -3.6035885850        8.8019289320
  C        -0.3771553304       -2.9974879695        8.7422866862
  C         0.7850773997       -3.7992560621        8.7018042411
  C         2.0513502750       -3.2361511345        8.7353651027
  C         3.1916774180       -4.1988878254        8.7958914023
  C         3.3962056794       -5.1033782013        7.7371281694
  C         4.2517775227       -6.1952723443        7.8697469141
  C         4.8847932224       -6.4350891158        9.0974901888
  C         4.7662073479       -5.4937156997       10.1324957833
  C         3.9404879256       -4.3770564151        9.9715974158
  C         2.1704786436       -1.8262394673        8.7490204538
  C         1.0526553226       -0.9813320058        8.7231572045
  C         1.1613684785        0.4906732591        8.6387288355
  C         2.3888949413        1.1503663700        8.5496162835
  C        -0.0399858180        1.2768715742        8.6330793104
  C        -0.2547991638       -1.5693145377        8.7544083922
  C         4.1418861954        4.1202520978        7.2960108404
  C         5.3649268979        4.7876297507        7.2688093064
  H         6.6744697008        3.5791111087       10.1781854923
  H         4.5309649925        2.3771848054       10.1925482147
  H         1.3856996845        4.3949858733        8.2525374107
  H        -1.0268197836        4.5810792137        8.4276604240
  H        -4.0632017612        3.1331772520       10.8887047653
  H        -6.0914295263        4.5028815755       11.0802513754
  H        -5.4884205062        5.9438239444        7.0610135384
  H        -3.4094377184        4.6226261460        6.8969982411
  H        -3.4346733389        1.0941142594        9.0648839973
  H        -3.5979873276       -0.8451824102        8.9523742988
  H        -3.3681595814       -5.1098249662       10.2642831112
  H        -5.5233233248       -6.2931424046       10.4549507710
  H        -7.4112313482       -3.2519766996        8.0608381012
  H        -5.2390771426       -2.0929402359        7.8153347424
  H        -1.7075880765       -4.6925595081        8.7709988349
  H         0.6746067933       -4.8848060421        8.7008945600
  H         2.8455714089       -4.9677459085        6.8052676222
  H         4.3740973211       -6.9029434979        7.0513811069
  H         5.2944644941       -5.6505237372       11.0741717154
  H         3.8157352347       -3.6817311423       10.8029412439
  H         3.1737891553       -1.4014070615        8.7578305679
  H         3.3157819741        0.5782095051        8.5677442007
  H         3.4286734751        4.2790140700        6.4857132429
  H         5.6101803348        5.4480717126        6.4395825451
  C         8.5390352440        5.7608976621        4.8910940425
  C         9.5545469273        4.7973765985        4.9401624884
  C         9.3881823711        3.5802684326        4.2780864857
  C         8.2278822677        3.3112987332        3.5324326623
  C         8.0532768155        1.9921298386        2.8679144032
  C         8.0976640179        0.8349321345        3.6253464169
  C         7.9196174270       -0.4349016772        3.0276415012
  C         7.8955117231       -1.5908477377        3.8329290457
  C         7.7215440354       -2.8562882391        3.2908857458
  C         7.6869791573       -3.9775664986        4.2731965677
  C         8.5348943832       -5.0985520601        4.2158714470
  C         8.6652052569       -5.9636896712        5.3101774638
  C         7.9583547284       -5.7077537009        6.4937154003
  C         7.0389297452       -4.6523105120        6.5326826055
  C         6.9000471970       -3.8149271884        5.4305800999
  C         7.6087560641       -2.9758333666        1.8823505656
  C         7.6227255716       -1.8619598102        1.0301889133
  C         7.5049536148       -1.9697218693       -0.4431793961
  C         7.4444795160       -3.1969817668       -1.1102654392
  C         7.3622736519       -3.3016790089       -2.5239202018
  C         7.3468566456       -4.6125020008       -3.2255171358
  C         7.9952048799       -4.7511247411       -4.4714483030
  C         7.9761489604       -5.9474115240       -5.1786044555
  C         7.3448544376       -7.0761378543       -4.6355282661
  C         6.6929124199       -6.9632411115       -3.3959530050
  C         6.6894365339       -5.7460984901       -2.7110939114
  C         7.3282548499       -2.1300728758       -3.2686624544
  C         7.4063467845       -0.8586645543       -2.6559337738
  C         7.4297067995        0.3154597311       -3.4508802341
  C         7.5315328615        1.5731125952       -2.8745272107
  C         7.6333621309        2.8041713629       -3.7010075907
  C         8.4745733649        2.8435425076       -4.8304692504
  C         8.6281605130        4.0071198821       -5.5816838159
  C         7.9579474028        5.1800290741       -5.2052962532
  C         7.0951402996        5.1553532707       -4.0993900244
  C         6.9378677660        3.9798305314       -3.3638494461
  C         7.5940917096        1.6586453673       -1.4636034096
  C         7.5863068381        0.5372375483       -0.6338299833
  C         7.7231044553        0.6466175305        0.8275548548
  C         7.8464884733        1.8792211034        1.4740932334
  C         7.7524149243       -0.5534800192        1.6090487844
  C         7.4912015440       -0.7637278498       -1.2252601056
  C         7.2294081469        4.2986144321        3.4771301568
  C         7.3657667958        5.5017551365        4.1695040991
  H        10.4674893580        4.9990411363        5.5018558673
  H        10.1840725282        2.8355456201        4.3179059207
  H         8.2397793059        0.8919620076        4.7058645865
  H         8.0402390720       -1.4765797947        4.9078416705
  H         9.1698091259       -5.2528768515        3.3420750934
  H         9.3838827872       -6.7832637409        5.2755975519
  H         6.4468893913       -4.4843282535        7.4315242548
  H         6.1947944787       -2.9848082389        5.4819971207
  H         7.4833118687       -3.9747445890        1.4644346598
  H         7.5074717426       -4.1214338069       -0.5371201591
  H         8.5586988160       -3.9115113819       -4.8780575198
  H         8.5076624797       -6.0350136031       -6.1247998362
  H         6.1516507790       -7.8207911874       -2.9944028320
  H         6.1421835057       -5.6714583206       -1.7703349963
  H         7.2362231910       -2.1737517353       -4.3547638857
  H         7.3674201093        0.2103798690       -4.5357608319
  H         9.0601712883        1.9613215482       -5.0921721077
  H         9.3232347863        4.0303980725       -6.4205377371
  H         6.5309789276        6.0514214409       -3.8375022623
  H         6.2515961659        3.9734333957       -2.5158387529
  H         7.7087248632        2.6497101111       -1.0280948638
  H         7.8282262240        2.8016607051        0.8955058130
  H         6.3175699998        4.1087148802        2.9086029363
  H         6.5777262199        6.2535831154        4.1342440165
  C        -6.1567827333        8.4989511453       -5.1649689706
  C        -5.0536219894        9.3652449177       -5.1896369272
  C        -3.9835734333        9.1608821338       -4.3120602139
  C        -4.0079954090        8.1125312615       -3.3764659451
  C        -3.0807131176        8.0673007947       -2.2107902576
  C        -3.6743876183        8.0863487320       -0.9570778065
  C        -2.9029947289        8.1498225561        0.2234020481
  C        -3.5408955830        8.2523489207        1.4815976371
  C        -2.8057263719        8.3850662741        2.6501575677
  C        -3.4859445317        8.5174691873        3.9583508841
  C        -3.0393482068        9.4264832199        4.9396147042
  C        -3.6831504637        9.5446301290        6.1671028463
  C        -4.7991236475        8.7368678146        6.4713711404
  C        -5.2782318500        7.8718200899        5.4753917696
  C        -4.6301300411        7.7535171251        4.2525845912
  C        -1.3939747897        8.3861215656        2.5580274111
  C        -0.7155493480        8.2461185466        1.3478211354
  C         0.7529645979        8.1842415789        1.2757047386
  C         1.5488580548        8.2264689183        2.4172382147
  C         2.9614169000        8.1454232136        2.3795165225
  C         3.7400083500        8.1676241551        3.6425530548
  C         5.0283587449        8.7360300595        3.7131275201
  C         5.7600435478        8.7376963617        4.8983630684
  C         5.2042805626        8.2082304049        6.0737529416
  C         3.9165104911        7.6490011089        6.0253055630
  C         3.2100504405        7.6176259836        4.8268683250
  C         3.5745173715        8.0349086780        1.1381584831
  C         2.8151878829        7.9995159779       -0.0587435448
  C         3.4609035053        7.8939234207       -1.3134001237
  C         2.7396812383        7.8477811020       -2.4985315178
  C         3.4560385693        7.7747389509       -3.7990174909
  C         4.6329659343        8.5241444606       -3.9999765390
  C         5.3313401221        8.4754809594       -5.2032703701
  C         4.8505351038        7.6929273656       -6.2625836132
  C         3.6878612567        6.9301129967       -6.0819129906
  C         3.0066922827        6.9721215384       -4.8630975328
  C         1.3236203385        7.8954021213       -2.4307306922
  C         0.6280764409        8.0097244552       -1.2247413309
  C        -0.8493187981        8.0734821906       -1.1555712339
  C        -1.6664825279        8.0668818091       -2.2934136501
  C        -1.4713944629        8.1481722994        0.1354897506
  C         1.3812404788        8.0635659274       -0.0042909183
  C        -5.0765781169        7.1968391903       -3.4412437044
  C        -6.1324842052        7.3731159805       -4.3311714316
  H        -5.0494508708       10.2226484185       -5.8639164859
  H        -3.1642122578        9.8811205938       -4.2980137841
  H        -4.7617259875        8.1161963473       -0.8731523586
  H        -4.6312275036        8.2810155189        1.5101471326
  H        -2.2015848848       10.0883200766        4.7165889007
  H        -3.3378728798       10.3049235208        6.8675853280
  H        -6.1538632272        7.2626240521        5.6781476215
  H        -5.0013639354        7.0340843350        3.5218754435
  H        -0.8320847230        8.4753779339        3.4861608139
  H         1.0778092905        8.3504925292        3.3898915578
  H         5.4548670202        9.2145523644        2.8313000482
  H         6.7462645251        9.1980859575        4.9340764102
  H         3.4954180420        7.1913933860        6.9209330804
  H         2.2343673728        7.1315242581        4.8059700103
  H         4.6599175063        7.9503779157        1.0628449580
  H         4.5503818620        7.8341378097       -1.3326751295
  H         4.9819077248        9.1949721413       -3.2143204459
  H         6.2138909307        9.0970688882       -5.3501427047
  H         3.3386151655        6.2839213928       -6.8878262685
  H         2.1176831652        6.3531500087       -4.7333296712
  H         0.7728194015        7.8729837804       -3.3703532835
  H        -1.2161974992        8.0485771818       -3.2855796188
  H        -5.0991160249        6.3527759898       -2.7506402674
  H        -6.9713233269        6.6792439148       -4.3343873559
  C        -9.0731275747        5.2874595586       -5.4373246574
  C        -9.9574186117        5.2802857638       -4.3478883616
  C        -9.7628225906        4.3815839542       -3.2946638517
  C        -8.7067502023        3.4540861352       -3.3213519015
  C        -8.6608435700        2.2894087530       -2.3947502292
  C        -8.6035450061        1.0277713049       -2.9710846472
  C        -8.6855608664       -0.1443021759       -2.1871690576
  C        -8.7470244337       -1.4171227951       -2.8078237375
  C        -8.9587500595       -2.5634262273       -2.0594578700
  C        -9.1390699785       -3.8803183155       -2.7238194483
  C        -8.1397660131       -4.4227000271       -3.5499066050
  C        -8.3310547445       -5.6361977960       -4.2048718502
  C        -9.5323664634       -6.3454889774       -4.0492622510
  C       -10.5456315186       -5.8038268174       -3.2350687026
  C       -10.3419296606       -4.5963465499       -2.5739467930
  C        -9.0323679202       -2.4532618598       -0.6528197543
  C        -8.8885853037       -1.2359493213        0.0121913311
  C        -8.8476799477       -1.1456513346        1.4794446509
  C        -8.8380869907       -2.2793556293        2.2888421872
  C        -8.7901106768       -2.2173798486        3.7020757698
  C        -8.7949658575       -3.4694363490        4.4989699556
  C        -9.4724084988       -3.5555643701        5.7317004318
  C        -9.4944017968       -4.7372467346        6.4687236278
  C        -8.8658203038       -5.8916128962        5.9765473661
  C        -8.1854947038       -5.8230676170        4.7497548497
  C        -8.1432474034       -4.6286437755        4.0351506309
  C        -8.7447952937       -0.9649591693        4.3002644863
  C        -8.7466429439        0.2228431684        3.5251362137
  C        -8.6948603392        1.4886478453        4.1532185626
  C        -8.7242899698        2.6699394694        3.4209627403
  C        -8.6905045940        3.9839727923        4.1138425606
  C        -9.1195744173        4.1109934285        5.4528920142
  C        -9.0395072793        5.3166382352        6.1394534503
  C        -8.5835158920        6.4729216052        5.4887160443
  C        -8.1781217273        6.3756857195        4.1457014772
  C        -8.2151349255        5.1507073712        3.4831341965
  C        -8.7707793382        2.5742709058        2.0049243226
  C        -8.7846852018        1.3561095054        1.3246419419
  C        -8.7667564399        1.2647910352       -0.1525225749
  C        -8.7451162870        2.3898377207       -0.9844605802
  C        -8.7688136448       -0.0358840816       -0.7589143805
  C        -8.7927928055        0.1446789608        2.0926331124
  C        -7.7759865738        3.5477855117       -4.3743965302
  C        -7.9419007210        4.4606326784       -5.4128563419
  H       -10.8200524823        5.9480141497       -4.3426179571
  H       -10.4945880043        4.3458171332       -2.4862918346
  H        -8.5707776654        0.9294869388       -4.0572569206
  H        -8.6987558728       -1.4737454617       -3.8968866500
  H        -7.1937302066       -3.8926785867       -3.6674794930
  H        -7.5365405537       -6.0574563869       -4.8180393833
  H       -11.5146337507       -6.2977520234       -3.1563946990
  H       -11.1462479323       -4.1735837480       -1.9705346497
  H        -9.1901916647       -3.3695783116       -0.0860164671
  H        -8.8919360786       -3.2640607026        1.8288643660
  H       -10.0334163258       -2.6947873829        6.0971912856
  H       -10.0642499309       -4.7925244721        7.3946998611
  H        -7.6559670324       -6.7015783047        4.3808182883
  H        -7.5762458653       -4.5915824910        3.1042110712
  H        -8.6870601725       -0.8739611145        5.3863595904
  H        -8.6150601792        1.5137365319        5.2401860998
  H        -9.5519065724        3.2526865586        5.9655845416
  H        -9.3873828386        5.3851319150        7.1683803955
  H        -7.7891130635        7.2578321497        3.6352729574
  H        -7.8418434799        5.1020730977        2.4602543149
  H        -8.8121282544        3.4987756634        1.4320111158
  H        -8.7791924654        3.3886897075       -0.5501605613
  H        -6.9249186100        2.8658138396       -4.3983244611
  H        -7.2354659302        4.4858504465       -6.2406808786
  C         5.1987446104       -5.8859160680       -8.1094517797
  C         4.7257256606       -5.1471652524       -9.2110071247
  C         3.5668937134       -4.3829372365       -9.0987427143
  C         2.8319577555       -4.3482689771       -7.8986084950
  C         1.5858126509       -3.5352632885       -7.8028192401
  C         0.3460380563       -4.1305973798       -7.6315452592
  C        -0.8426556501       -3.3540740099       -7.6233858556
  C        -2.1090263759       -3.9807185380       -7.5441979187
  C        -3.2874082525       -3.2456638318       -7.5810866874
  C        -4.6057586628       -3.9293727754       -7.5503960591
  C        -5.7298575055       -3.3539901668       -6.9274196408
  C        -6.9674159142       -3.9956189015       -6.9208174817
  C        -7.1187037703       -5.2574306473       -7.5204068866
  C        -6.0029439700       -5.8545451233       -8.1269819416
  C        -4.7801270628       -5.1904421794       -8.1579652688
  C        -3.1941656258       -1.8329377063       -7.6673487560
  C        -1.9762085963       -1.1554761674       -7.7330500299
  C        -1.8899099282        0.3184383245       -7.8199153440
  C        -3.0200119479        1.1447785330       -7.8558812412
  C        -2.9256919467        2.5574677062       -7.8668559135
  C        -4.0877469366        3.4866142420       -7.9328624872
  C        -5.0286733315        3.4440130174       -8.9759405964
  C        -5.9181134812        4.5035186230       -9.1858201529
  C        -5.8983838956        5.6150654776       -8.3305404034
  C        -5.0535051998        5.6121628659       -7.2132352567
  C        -4.1538685615        4.5662347214       -7.0306471564
  C        -1.6664244261        3.1398257752       -7.8595235419
  C        -0.4918482138        2.3569851078       -7.8781223624
  C         0.7749344178        2.9816996696       -7.9489594518
  C         1.9440401981        2.2374916761       -7.9893771537
  C         3.2599508869        2.9098405178       -8.1144043231
  C         3.4035535848        4.0414555223       -8.9426935159
  C         4.6257442431        4.6920381008       -9.0769254929
  C         5.7576682637        4.2015565935       -8.4103098273
  C         5.6352902274        3.0799629083       -7.5762557254
  C         4.3992632373        2.4515386232       -7.4289792235
  C         1.8410924301        0.8263378839       -7.9362312593
  C         0.6174528146        0.1585461799       -7.8761768400
  C         0.5258427460       -1.3108740348       -7.8422203644
  C         1.6546478306       -2.1280796255       -7.9144500742
  C        -0.7630327086       -1.9232829029       -7.7260308038
  C        -0.5913627317        0.9266598949       -7.8522791697
  C         3.3009871083       -5.1074216922       -6.8122764091
  C         4.4653124635       -5.8681336252       -6.9128204395
  H         5.2387007251       -5.2030525466      -10.1718954030
  H         3.2024001759       -3.8327015550       -9.9671717191
  H         0.2650355325       -5.2169023936       -7.5592961185
  H        -2.1415041524       -5.0672571475       -7.4494334317
  H        -5.6320380556       -2.3941574730       -6.4186452246
  H        -7.8172226996       -3.5394512472       -6.4124550569
  H        -6.1200878475       -6.8091051564       -8.6377544288
  H        -3.9514831031       -5.6414991825       -8.7043806354
  H        -4.1231162958       -1.2672636345       -7.7190793961
  H        -4.0167254038        0.7043533267       -7.8544597547
  H        -5.0127752750        2.6165664256       -9.6868388800
  H        -6.5987838434        4.4835724642      -10.0378571383
  H        -5.0561877883        6.4598606490       -6.5310116427
  H        -3.4585399429        4.6046145104       -6.1910777409
  H        -1.5713618159        4.2260396065       -7.8979730131
  H         0.8141714425        4.0721403457       -7.9623013454
  H         2.5511665516        4.3898905536       -9.5265623890
  H         4.7258207782        5.5401945114       -9.7530732625
  H         6.5010714309        2.7318369097       -7.0127740305
  H         4.3147592899        1.6019157902       -6.7501268953
  H         2.7655083111        0.2531105231       -7.9820118494
  H         2.6410274457       -1.6851681342       -8.0431492528
  H         2.7546726004       -5.0878804728       -5.8682539031
  H         4.8306645946       -6.4277437480       -6.0527848981
  C        -5.4670565026       -8.3360885374        7.1926897219
  C        -4.7259881508       -9.4442247486        6.7365415681
  C        -4.0258662286       -9.3787302530        5.5341756422
  C        -4.0605880322       -8.2208912718        4.7343150504
  C        -3.3961219339       -8.2003572611        3.3995227072
  C        -4.1670717589       -8.0636928985        2.2549453886
  C        -3.5865501560       -8.1476658030        0.9644127009
  C        -4.4029663583       -8.1160171894       -0.1948972933
  C        -3.8577295454       -8.2469995914       -1.4658278235
  C        -4.6970197531       -8.2922914762       -2.6904009242
  C        -4.2412141067       -7.7495497012       -3.9075521081
  C        -4.9738731169       -7.8835308901       -5.0849251022
  C        -6.2089380999       -8.5520001887       -5.0739637541
  C        -6.7122809339       -9.0380464364       -3.8579036295
  C        -5.9562352995       -8.9255445330       -2.6939103178
  C        -2.4533868121       -8.3855479208       -1.5756211609
  C        -1.6017361024       -8.4121184295       -0.4741395761
  C        -0.1444160724       -8.5672490722       -0.6183915623
  C         0.4723200717       -8.7053763238       -1.8633896442
  C         1.8741254930       -8.8343860800       -2.0171982893
  C         2.5137591711       -8.9845754758       -3.3457152500
  C         3.6817045123       -9.7622544244       -3.4871872881
  C         4.3560515742       -9.8467578927       -4.6988165493
  C         3.8564711570       -9.1899308441       -5.8330453437
  C         2.6666866991       -8.4520386433       -5.7245331334
  C         2.0172192700       -8.3434673329       -4.4956806367
  C         2.6590948914       -8.8051729508       -0.8745702901
  C         2.0860685850       -8.6735954418        0.4096438584
  C         2.9156843253       -8.6460759967        1.5484794331
  C         2.3959625573       -8.5285550548        2.8298144048
  C         3.3890806921       -8.5199718539        3.9388333337
  C         4.5754011646       -7.7802203773        3.7626331703
  C         5.6756414137       -7.9585572285        4.5932569601
  C         5.6034385044       -8.8656190609        5.6591663318
  C         4.3879354444       -9.5043620416        5.9418157609
  C         3.2985042395       -9.3413981157        5.0777460566
  C         0.9875105728       -8.4576156541        2.9797386404
  C         0.1137983129       -8.4748019835        1.8835458125
  C        -1.3560252718       -8.3790894987        2.0241125878
  C        -1.9955475460       -8.3643131737        3.2665453515
  C        -2.1634128290       -8.3044486560        0.8391763205
  C         0.6658057892       -8.5687231666        0.5624159125
  C        -4.8077820518       -7.1218427159        5.1962647194
  C        -5.5025378908       -7.1749732516        6.4040237705
  H        -4.7382318965      -10.3813954597        7.2942410581
  H        -3.4870412728      -10.2590461090        5.1811641505
  H        -5.2501239279       -7.9544456037        2.3377697997
  H        -5.4790849437       -7.9859354661       -0.0675603520
  H        -3.2988310819       -7.2014220705       -3.9336904621
  H        -4.6124625256       -7.4377242661       -6.0121582640
  H        -7.6633996045       -9.5678954752       -3.8450714788
  H        -6.3282359685       -9.3854727856       -1.7780836679
  H        -2.0401832048       -8.5216322993       -2.5729368180
  H        -0.1390373120       -8.7501032200       -2.7629794834
  H         4.0509230655      -10.3354628458       -2.6366328189
  H         5.2412394902      -10.4732024476       -4.7911483110
  H         2.2874218165       -7.9147454730       -6.5938043976
  H         1.1270004011       -7.7173648521       -4.4221483577
  H         3.7459678681       -8.8614260561       -0.9487976851
  H         3.9910648244       -8.7588627003        1.4067699220
  H         4.6484083187       -7.0771647570        2.9325031661
  H         6.5938083407       -7.3979275684        4.4210785336
  H         4.3220005180      -10.1951246945        6.7826207405
  H         2.3959821860       -9.9292740390        5.2509536645
  H         0.5869649623       -8.3574483187        3.9883123932
  H        -1.4110316875       -8.4655083277        4.1804850094
  H        -4.8373314821       -6.2072385067        4.6023335370
  H        -6.0565079156       -6.3058227127        6.7567496792
 Zn         8.0171047198        7.4463046824        7.6813904970
  C        12.2325083953        5.3554492889        9.4088320375
  C        11.0248283527        4.6686162286        9.2730080759
  C         9.8992883175        5.3492719184        8.7912689090
  H        10.9468527155        3.6165886463        9.5491023157
  N         9.9451512643        6.6621326199        8.4427746188
  C         8.6129864232        4.6725338270        8.6784102802
  C        11.1138485857        7.3129723541        8.5739433960
  C        12.2772362321        6.7033969441        9.0542524816
  H        11.1164354764        8.3668730112        8.2972321179
  H        13.1934991458        7.2849043075        9.1543190468
  H        13.1199519290        4.8515413857        9.7923715155
  N         7.5516179718        5.2693781809        8.2312214810
  H         8.5813685117        3.6229999969        8.9968798686
  C         6.3167383491        9.3082448952       11.9524384524
  C         5.5624365527        9.2626536497       10.7771433949
  C         6.1242883279        8.6945595973        9.6288948727
  H         4.5539281444        9.6759646623       10.7438954870
  N         7.3824455418        8.1803129006        9.6201902005
  C         5.3983318981        8.6682161824        8.3614275153
  C         8.0981220243        8.2224088305       10.7554948444
  C         7.6059699745        8.7777630083       11.9417288894
  H         9.1027811811        7.8022688774       10.7096763041
  H         8.2321114502        8.7955723561       12.8336110090
  H         5.9078898139        9.7565199980       12.8582531596
  N         5.9558093311        8.2280808832        7.2785927265
  H         4.3800553687        9.0779362164        8.3512568299
  C        10.6718988816       11.3438705579        6.0673388147
  C        10.5449094026       10.1419314845        5.3636732548
  C         9.7104275974        9.1426613417        5.8736345076
  H        11.0891630105        9.9790528086        4.4326651616
  N         9.0259947665        9.2948170539        7.0382955561
  C         9.5196735892        7.8726613333        5.1686893522
  C         9.1467188277       10.4546322223        7.7025316967
  C         9.9555233123       11.5053561248        7.2522690719
  H         8.5866158640       10.5401581579        8.6345013852
  H        10.0247008879       12.4252275196        7.8329009640
  H        11.3212035243       12.1379695694        5.6976894686
  N         8.6756851723        6.9950598910        5.5999746888
  H        10.0999493192        7.7036526950        4.2519712092
 Zn         7.4756762281       -8.4792011938        8.3954106867
  C         5.8662537230      -11.8652874443       11.6362804421
  C         5.2961447378      -10.5976691298       11.4872233570
  C         5.7668687084       -9.7550229841       10.4747895896
  H         4.4968173849      -10.2629039988       12.1493947078
  N         6.7695920123      -10.1245512638        9.6346727301
  C         5.1755859105       -8.4364624078       10.2505973628
  C         7.3024560332      -11.3489015234        9.7762927171
  C         6.8800483820      -12.2506644895       10.7600396236
  H         8.1027194281      -11.6124118199        9.0843969128
  H         7.3496709341      -13.2313468420       10.8357079598
  H         5.5245341935      -12.5392168775       12.4223312012