     728
 i =      207, E =     -3436.4351706652
  C        -6.4534543129        4.7047823145        8.6575105012
  C        -6.0951020495        3.9800828427        9.8091212490
  C        -5.0231931809        3.0927596931        9.7715280216
  C        -4.2698092411        2.9087271338        8.5966278160
  C        -3.2795963481        1.7949255440        8.5279198216
  C        -3.7735844587        0.5051494213        8.6290955701
  C        -2.9203593268       -0.6181053047        8.5333342894
  C        -3.4668387660       -1.9175011142        8.5805887918
  C        -2.6690321268       -3.0470724753        8.4736805146
  C        -3.3336315135       -4.3754764571        8.5341429374
  C        -2.9994209818       -5.4475087078        7.6879935300
  C        -3.7313724420       -6.6399822249        7.7030196062
  C        -4.8305949000       -6.7776262706        8.5642352479
  C        -5.1658264753       -5.7251012569        9.4271675291
  C        -4.4121598605       -4.5591591746        9.4250797190
  C        -1.2717090726       -2.8667565447        8.3099107823
  C        -0.6715333682       -1.6026099234        8.2724033034
  C         0.7882029008       -1.4128917082        8.1275928626
  C         1.6897602082       -2.4822125030        8.0567400302
  C         3.0879025214       -2.2954566154        7.9082147778
  C         4.0954210810       -3.3894302280        7.9084197846
  C         5.2436289926       -3.2665339809        7.0995344917
  C         6.3444485287       -4.0989596610        7.2661390197
  C         6.3133352060       -5.1194474995        8.2298689726
  C         5.1271540808       -5.3517968829        8.9423685708
  C         4.0422368167       -4.4833401947        8.7942561379
  C         3.5695604411       -0.9957861323        7.8327938618
  C         2.7134784267        0.1200816280        7.9308749018
  C         3.2604727109        1.4247019074        7.9348196818
  C         2.4621479678        2.5355424401        8.1444631610
  C         3.1400324981        3.8640849200        8.2314800685
  C         3.7167131896        4.4386813373        7.0845102082
  C         4.5217591389        5.5708700632        7.1743197278
  C         4.7702454565        6.1656283955        8.4200735562
  C         4.1635991229        5.6281338959        9.5686122876
  C         3.3546351031        4.4939551193        9.4694803259
  C         1.0684731723        2.3506129321        8.2937046927
  C         0.4674005922        1.0873705987        8.2266974186
  C        -0.9908641697        0.8992707826        8.3250308665
  C        -1.8866976894        1.9751031787        8.3632202167
  C        -1.5069794475       -0.4379569060        8.3776462934
  C         1.3014855138       -0.0708573758        8.0842407704
  C        -4.5820617262        3.7032475862        7.4797454470
  C        -5.6570717932        4.5934614163        7.5067946657
  H        -6.6472451362        4.1196313060       10.7394012899
  H        -4.7649468886        2.5261001846       10.6669060801
  H        -4.8449134064        0.3406590871        8.7561304099
  H        -4.5490270188       -2.0177678770        8.6714755994
  H        -2.1815666662       -5.3377144177        6.9742265064
  H        -3.4883101294       -7.4445210211        7.0074586119
  H        -5.9922830334       -5.8461777198       10.1261193108
  H        -4.6542527698       -3.7736530362       10.1408450994
  H        -0.6511112925       -3.7596665033        8.2400093370
  H         1.3171009983       -3.5046812391        8.1115483963
  H         5.2834921899       -2.4837647386        6.3415907868
  H         7.2287345630       -3.9759068000        6.6408343750
  H         5.0901547657       -6.1536866789        9.6794166397
  H         3.1708200735       -4.6152949210        9.4370346592
  H         4.6427546610       -0.8136198337        7.7688457202
  H         4.3397201242        1.5423487471        7.8223197732
  H         3.5448387020        3.9771357740        6.1112196802
  H         4.9418295669        6.0221349093        6.2777365542
  H         4.3718596956        6.0609330913       10.5482892609
  H         2.9294955671        4.0594241744       10.3752331187
  H         0.4557911163        3.2344364142        8.4671175579
  H        -1.5115923589        2.9954416599        8.2902051173
  H        -4.0114485995        3.5839597011        6.5573970642
  H        -5.9225850087        5.1569829051        6.6134564658
  C         8.8803322863        6.0190704431       -4.8279026332
  C         7.9616934229        4.9718848160       -5.0186615615
  C         7.9600210212        3.8596665052       -4.1744152420
  C         8.8854514814        3.7502636607       -3.1217812863
  C         8.7637619391        2.7466339297       -2.0307165321
  C         8.7622435082        3.2397457614       -0.7346789820
  C         8.6146973330        2.3865892901        0.3795229427
  C         8.5491364652        2.9369466503        1.6776201964
  C         8.4193623217        2.1317790230        2.7985571195
  C         8.3168426918        2.7885538356        4.1249837842
  C         9.0930868844        2.4035210439        5.2350690378
  C         9.0539846302        3.1235638445        6.4285439551
  C         8.2184711662        4.2527070783        6.5577338144
  C         7.4453208664        4.6384014715        5.4539082293
  C         7.4824657916        3.9141143447        4.2707391815
  C         8.3857812973        0.7275894914        2.6171469061
  C         8.4296823170        0.1294136673        1.3534746285
  C         8.3766527044       -1.3335336953        1.1655200500
  C         8.3405991317       -2.2315535063        2.2385640110
  C         8.2741215991       -3.6362677243        2.0605459899
  C         8.2543029728       -4.6182435275        3.1752918260
  C         7.5021481435       -5.8017871580        3.0354310731
  C         7.5922485129       -6.8375993628        3.9574274345
  C         8.4125993706       -6.7066037132        5.0879832177
  C         9.1085598775       -5.5046365999        5.2886847878
  C         9.0405418147       -4.4845243460        4.3358935516
  C         8.2596165909       -4.1269929429        0.7633113866
  C         8.3080943660       -3.2686840604       -0.3549299340
  C         8.3212008066       -3.8188037240       -1.6537891760
  C         8.3829711722       -3.0152060911       -2.7812237726
  C         8.4288864301       -3.6892888060       -4.1045380489
  C         9.2435032765       -4.8310636478       -4.2523749191
  C         9.2187830044       -5.5960476094       -5.4101163664
  C         8.4023670463       -5.2150300000       -6.4839645065
  C         7.6205885777       -4.0539439260       -6.3794160780
  C         7.6347142781       -3.3050426540       -5.1982749082
  C         8.4206933735       -1.6097201717       -2.6029822444
  C         8.4248838297       -1.0099296169       -1.3379149903
  C         8.5206381069        0.4523024453       -1.1486951561
  C         8.6227263686        1.3497589744       -2.2197388533
  C         8.5205330410        0.9685250232        0.1914271336
  C         8.3655192021       -1.8486799349       -0.1738556826
  C         9.8945421904        4.7325168800       -3.0363432367
  C         9.9022522023        5.8407737742       -3.8731408593
  H         7.2083526729        5.0536276868       -5.7984645174
  H         7.1868751299        3.0995775979       -4.2973221456
  H         8.8421997932        4.3140001694       -0.5615555415
  H         8.6318052401        4.0192089726        1.7879091956
  H         9.7905678201        1.5701902662        5.1398393610
  H         9.7295441324        2.8436231252        7.2374675089
  H         6.7985601953        5.5051826186        5.5396920005
  H         6.8496057376        4.2216655825        3.4375028396
  H         8.2864960953        0.1060111784        3.5063548158
  H         8.3492099657       -1.8495626496        3.2588974133
  H         6.8397626326       -5.9166118568        2.1771491750
  H         7.0069809538       -7.7466914401        3.8220311077
  H         9.7692493825       -5.4043803057        6.1495739629
  H         9.6625505325       -3.5978066158        4.4664677928
  H         8.2619528828       -5.2024137074        0.5833836205
  H         8.2637164119       -4.9030585220       -1.7580943473
  H         9.9172136808       -5.1138354598       -3.4435424613
  H         9.8599551734       -6.4704618450       -5.5074024102
  H         6.9577902813       -3.7760992215       -7.1997950605
  H         6.9811541886       -2.4355632898       -5.1120136681
  H         8.4945171793       -0.9889604129       -3.4953002941
  H         8.6379657887        0.9732638483       -3.2419563408
  H        10.6875570885        4.6187905627       -2.2965145103
  H        10.7162052048        6.5614210350       -3.7927111244
  C         5.1266444886        8.5723466213       -6.1745577487
  C         4.1500726411        9.5823788561       -6.0560205278
  C         3.2783707530        9.5919677559       -4.9758067795
  C         3.3474300231        8.6115798992       -3.9638984367
  C         2.2391058767        8.5093362569       -2.9795378237
  C         0.9463454015        8.5259588929       -3.4815858560
  C        -0.1757290885        8.3867577177       -2.6364517069
  C        -1.4713694465        8.3510412714       -3.1951882133
  C        -2.5996821712        8.1936171341       -2.4047801390
  C        -3.9268162345        8.1398218721       -3.0682428676
  C        -4.9415319303        7.2476917187       -2.6756957507
  C        -6.1405809737        7.1560488900       -3.3852548371
  C        -6.3529189827        7.9473792732       -4.5268494095
  C        -5.3569354045        8.8552530369       -4.9169520174
  C        -4.1799644632        8.9614434328       -4.1867652126
  C        -2.4225391591        8.0854876356       -1.0018446054
  C        -1.1650723762        8.1373749834       -0.3913633151
  C        -0.9867990574        8.0735316382        1.0738749417
  C        -2.0641956705        8.0206876695        1.9678095780
  C        -1.8892928574        7.9363775142        3.3722307012
  C        -2.9952950253        7.9011361548        4.3653568273
  C        -2.8589015706        7.0835981743        5.5049110654
  C        -3.7436536800        7.1673571328        6.5734213553
  C        -4.8318685105        8.0507193445        6.5192256000
  C        -5.0344031835        8.8134177610        5.3586318342
  C        -4.1185035463        8.7475514260        4.3042608622
  C        -0.5945107025        7.9241245059        3.8685411262
  C         0.5262050419        8.0058593241        3.0170828925
  C         1.8205469379        8.0391341785        3.5761140304
  C         2.9513331552        8.1559731531        2.7827394962
  C         4.2734947263        8.2034980776        3.4537638906
  C         4.3953033193        8.8566798755        4.6988212858
  C         5.5600626213        8.7802370755        5.4495210372
  C         6.6748206785        8.0869832196        4.9545152139
  C         6.5995122081        7.4978152591        3.6795767385
  C         5.4119924949        7.5490762262        2.9484288266
  C         2.7773044713        8.2156057211        1.3767895263
  C         1.5179015282        8.1777632793        0.7687851139
  C         1.3376943113        8.2705552146       -0.6934953590
  C         2.4154063368        8.3674202159       -1.5817611741
  C         0.0019491649        8.2655302039       -1.2192041349
  C         0.3496555731        8.0794428454        1.5976509843
  C         4.4176920276        7.7007829229       -4.0134086786
  C         5.2990677034        7.6868355773       -5.0959346024
  H         4.0811173956       10.3759071552       -6.8000678909
  H         2.5266764521       10.3787648223       -4.9059456189
  H         0.7809715421        8.6130624507       -4.5564988956
  H        -1.5648889366        8.4171312327       -4.2799826517
  H        -4.7748643275        6.5830842620       -1.8263676756
  H        -6.8967853074        6.4281418080       -3.0905181928
  H        -5.5395884635        9.5177098259       -5.7608898618
  H        -3.4463453631        9.7150719216       -4.4736272084
  H        -3.3156041029        7.9886484862       -0.3853488351
  H        -3.0837280415        8.0336740048        1.5830670345
  H        -2.0281943901        6.3796195360        5.5609176771
  H        -3.6093578191        6.5343051598        7.4499999484
  H        -5.8622703298        9.5211254478        5.3186892289
  H        -4.2429700432        9.4182778395        3.4527085366
  H        -0.4215240066        7.9103264086        4.9450429831
  H         1.9146800780        7.9538641428        4.6592128785
  H         3.5580573900        9.4394834324        5.0818268145
  H         5.6299965107        9.2850945018        6.4108422539
  H         7.4534546169        6.9398431156        3.2934399568
  H         5.3542533541        7.0275752655        1.9919664365
  H         3.6674815955        8.3391867158        0.7613217319
  H         3.4350636290        8.3727211712       -1.1981735857
  H         4.5278406917        6.9515909751       -3.2278011474
  H         6.0975472632        6.9488530529       -5.1301620900
  C        -8.0171256877        6.1276107424        5.0005274378
  C        -8.6989628067        4.9253088727        5.2423269699
  C        -8.5519202934        3.8506181289        4.3622447767
  C        -7.6982307761        3.9323903902        3.2454249993
  C        -7.6780391789        2.9165046168        2.1616162000
  C        -7.6426742002        3.3802128625        0.8544362007
  C        -7.6686677818        2.4992180703       -0.2462160527
  C        -7.6639941787        3.0187445150       -1.5597194765
  C        -7.7656959470        2.1890637306       -2.6640897384
  C        -7.8302829091        2.8377800047       -4.0026628229
  C        -8.9541719242        2.7031435220       -4.8381292657
  C        -9.0915205388        3.4824360404       -5.9863558695
  C        -8.0941726411        4.4115522177       -6.3419252651
  C        -6.9519303407        4.5247712105       -5.5336403834
  C        -6.8231585969        3.7429688471       -4.3898256051
  C        -7.8304192106        0.7903467084       -2.4538498136
  C        -7.7781291820        0.2184154227       -1.1766467583
  C        -7.7440867592       -1.2412825320       -0.9572775697
  C        -7.7235870436       -2.1617006363       -2.0108968210
  C        -7.6376455577       -3.5602363745       -1.8023296899
  C        -7.6430952376       -4.5642441577       -2.8982950357
  C        -6.7894933300       -5.6815008668       -2.8164685207
  C        -6.9006065684       -6.7486894048       -3.7011623644
  C        -7.8607112611       -6.7150551151       -4.7235415759
  C        -8.6589225360       -5.5721000235       -4.8793534662
  C        -8.5573915111       -4.5178767861       -3.9679658271
  C        -7.5782935085       -4.0262836644       -0.4969600432
  C        -7.6218214552       -3.1458589375        0.6057552214
  C        -7.6160036553       -3.6638805960        1.9208708322
  C        -7.7436279629       -2.8343908869        3.0232355370
  C        -7.8188575066       -3.4718749378        4.3666142523
  C        -8.9536938690       -3.3340598790        5.1869285014
  C        -9.0937700952       -4.0888910110        6.3511362207
  C        -8.0884348813       -4.9967724065        6.7370526485
  C        -6.9374633986       -5.1143345351        5.9424112020
  C        -6.8056932708       -4.3563403973        4.7830319860
  C        -7.8255539429       -1.4368990198        2.8120223496
  C        -7.7702554184       -0.8650351592        1.5357806643
  C        -7.7535577872        0.5952021740        1.3176268034
  C        -7.7344342135        1.5160011619        2.3718271464
  C        -7.7300869939        1.0835865062       -0.0325511384
  C        -7.7075126318       -1.7305169201        0.3922162468
  C        -6.9279735969        5.1032389922        3.0992337938
  C        -7.0926924265        6.1922675571        3.9461479130
  H        -9.4069111696        4.8652572785        6.0684197098
  H        -9.1661179595        2.9610170555        4.5078178528
  H        -7.6456682027        4.4524602174        0.6554425282
  H        -7.6305497916        4.1015059235       -1.6925463455
  H        -9.7655300255        2.0350741114       -4.5458736685
  H       -10.0120256571        3.4171039837       -6.5677673361
  H        -6.1630301174        5.2212973534       -5.8149617945
  H        -5.9306687130        3.8443195195       -3.7710014393
  H        -7.8949973991        0.1501304727       -3.3329639992
  H        -7.7472708846       -1.8041141250       -3.0398417323
  H        -6.0300988643       -5.7182714630       -2.0346840751
  H        -6.2332081595       -7.6064528623       -3.6163989390
  H        -9.4165724905       -5.5484658888       -5.6630191594
  H        -9.2496726923       -3.6785084774       -4.0487635268
  H        -7.5514338501       -5.0993470234       -0.3022372831
  H        -7.5663405519       -4.7458491200        2.0555946715
  H        -9.7690092614       -2.6808588464        4.8729090181
  H       -10.0200293501       -4.0209033246        6.9231412527
  H        -6.1423750672       -5.7929994169        6.2479959462
  H        -5.9042481709       -4.4586520644        4.1775974027
  H        -7.9079123860       -0.7979138906        3.6904898710
  H        -7.7359420870        1.1574952453        3.4006210734
  H        -6.1962089381        5.1660839513        2.2934744458
  H        -6.4904260260        7.0903521560        3.8121599233
  C        -6.1912858177       -5.1844508356       -8.0771489016
  C        -5.0046716551       -5.3715881795       -8.8015298860
  C        -3.9635551750       -4.4461229926       -8.6845386586
  C        -4.0645274943       -3.3375148987       -7.8217408246
  C        -3.0895152658       -2.2164493394       -7.8212346274
  C        -3.5973235925       -0.9266761888       -7.7702242797
  C        -2.7567457994        0.2039915328       -7.8388293856
  C        -3.3262689319        1.4947116158       -7.8539073139
  C        -2.5424902313        2.6323614196       -7.9653931338
  C        -3.2411879857        3.9424588914       -8.0440613493
  C        -2.8737069344        5.0690193097       -7.2882065557
  C        -3.6421749827        6.2374413373       -7.3120145712
  C        -4.8063385966        6.2984081074       -8.0950219704
  C        -5.1724752706        5.1895123544       -8.8706153858
  C        -4.3893784345        4.0436066151       -8.8571836896
  C        -1.1354106701        2.4738370602       -8.0354761454
  C        -0.5165559774        1.2174739424       -8.0292348893
  C         0.9453117733        1.0464455489       -8.1631249832
  C         1.8267721079        2.1281512470       -8.2832360743
  C         3.2211281687        1.9560143371       -8.4661141992
  C         4.2057827416        3.0611164099       -8.5958463932
  C         5.2010510362        2.9773539302       -9.5927352441
  C         6.2960886443        3.8302288798       -9.5992618721
  C         6.4449532909        4.8038524526       -8.5907078391
  C         5.3790804740        4.9979260233       -7.6945790801
  C         4.2824120938        4.1344080329       -7.6909220205
  C         3.7282849753        0.6653983260       -8.4957597247
  C         2.8923610347       -0.4604822743       -8.3410101836
  C         3.4572222154       -1.7544760165       -8.3323202820
  C         2.6738151248       -2.8871168321       -8.1717713076
  C         3.3308078623       -4.2174998538       -8.1523588093
  C         4.4388404412       -4.4648086371       -8.9895389928
  C         5.1502087922       -5.6562441129       -8.9223073010
  C         4.7507925736       -6.6711110945       -8.0396214759
  C         3.6210736350       -6.4611088694       -7.2304684114
  C         2.9308927360       -5.2495470008       -7.2830436601
  C         1.2739383846       -2.7145868490       -8.0306801445
  C         0.6594622308       -1.4589854699       -8.0531041569
  C        -0.8036392717       -1.2901844339       -7.9631754423
  C        -1.6857085817       -2.3760090818       -7.9240139944
  C        -1.3365850423        0.0422078362       -7.9354644027
  C         1.4782226530       -0.2871833256       -8.1838097906
  C        -5.2186345849       -3.2398570159       -7.0195697694
  C        -6.2754200392       -4.1321013814       -7.1540243963
  H        -4.9300814654       -6.1955463630       -9.5112780063
  H        -3.0887351624       -4.5525468656       -9.3273880341
  H        -4.6751620653       -0.7633922013       -7.7415645077
  H        -4.4103471324        1.5842054857       -7.7709888522
  H        -2.0009038491        5.0196805184       -6.6352578380
  H        -3.3759546092        7.0839311072       -6.6776796668
  H        -6.0492245996        5.2507106047       -9.5128868256
  H        -4.6616021748        3.2069810413       -9.5006236792
  H        -0.5308472146        3.3730073967       -8.1500256092
  H         1.4388412386        3.1462681045       -8.2763074010
  H         5.1083680514        2.2254895743      -10.3770019723
  H         7.0295631281        3.7470123753      -10.4013656675
  H         5.4354510955        5.7964156239       -6.9586944161
  H         3.5096018778        4.2590594351       -6.9308604652
  H         4.8013947170        0.5049897095       -8.6094848357
  H         4.5404876564       -1.8424022499       -8.4258424343
  H         4.7308456243       -3.7161266577       -9.7261860384
  H         5.9850519501       -5.8346597889       -9.5972432048
  H         3.3218292306       -7.2308288799       -6.5187874111
  H         2.0899020978       -5.0874946366       -6.6069267840
  H         0.6617281895       -3.6103185495       -7.9337715592
  H        -1.2925662966       -3.3912484612       -7.9672649519
  H        -5.2958494993       -2.4355892791       -6.2875547776
  H        -7.1609390840       -4.0347582158       -6.5273393914
  C         5.0965807704       -8.8408947270        6.6777731237
  C         4.4059953763      -10.0118549477        6.3154950628
  C         3.5497462731      -10.0055511236        5.2184032405
  C         3.3649548535       -8.8436274867        4.4448453248
  C         2.2557313000       -8.7935164982        3.4501108788
  C         0.9723826636       -8.9563355860        3.9466345083
  C        -0.1590051472       -8.8408416097        3.1088775691
  C        -1.4547673722       -8.8927212692        3.6667779931
  C        -2.5890379237       -8.7174829075        2.8876463779
  C        -3.9168044085       -8.6963032292        3.5505015372
  C        -4.9451395246       -7.8210684935        3.1540452604
  C        -6.1478171001       -7.7483407632        3.8582719094
  C        -6.3497659728       -8.5390732160        5.0016314366
  C        -5.3412377280       -9.4315279473        5.3954775127
  C        -4.1610633660       -9.5218454229        4.6679317653
  C        -2.4171476829       -8.5288765923        1.4926601678
  C        -1.1598736201       -8.5079009185        0.8825307360
  C        -0.9879189423       -8.3367690904       -0.5719967325
  C        -2.0638664539       -8.3688565637       -1.4660458675
  C        -1.9039937262       -8.1330368692       -2.8512090058
  C        -3.0079142825       -8.2465790748       -3.8469826891
  C        -3.6416452587       -9.4779665860       -4.0882682279
  C        -4.4750668675       -9.6516524115       -5.1973076979
  C        -4.7223160037       -8.5762825574       -6.0643195363
  C        -4.1921396640       -7.3127406804       -5.7671157253
  C        -3.3230066654       -7.1640603383       -4.6882807399
  C        -0.6346791853       -7.8580219459       -3.3368665911
  C         0.5001431689       -7.9125962346       -2.4946016033
  C         1.7975890900       -7.8144299618       -3.0484138107
  C         2.9276966057       -8.0486604433       -2.2796755676
  C         4.2427895932       -8.1262970324       -2.9707485878
  C         4.6525426989       -7.1116232367       -3.8572910113
  C         5.7822177404       -7.2605307174       -4.6569911238
  C         6.5540516520       -8.4312392471       -4.5813264532
  C         6.1750268325       -9.4388708906       -3.6730675334
  C         5.0419808253       -9.2815483816       -2.8769369011
  C         2.7647092230       -8.2936726802       -0.8937558106
  C         1.5104986764       -8.3077503527       -0.2751699465
  C         1.3410441242       -8.5065359255        1.1776704839
  C         2.4234826212       -8.5544449531        2.0656893437
  C         0.0116175563       -8.6248775679        1.7026932152
  C         0.3381200732       -8.1682299061       -1.0924999262
  C         4.1356363706       -7.7104693016        4.7574765931
  C         4.9942430694       -7.7062517725        5.8576045307
  H         4.5455877950      -10.9306426025        6.8864382002
  H         3.0051953771      -10.9141730939        4.9587147006
  H         0.8210142790       -9.1290682401        5.0133586559
  H        -1.5425591434       -9.0194257701        4.7465185883
  H        -4.7870227132       -7.1534857498        2.3055415403
  H        -6.9146477887       -7.0334387624        3.5597092674
  H        -5.5153006581      -10.0945705602        6.2408347330
  H        -3.4181394251      -10.2646818051        4.9588444606
  H        -3.3108718098       -8.4089955219        0.8811535911
  H        -3.0666550393       -8.5864155796       -1.0990876447
  H        -3.4232862031      -10.3326667912       -3.4461924316
  H        -4.9158741223      -10.6281967813       -5.4031985194
  H        -4.4169853672       -6.4675718037       -6.4150059142
  H        -2.8657870388       -6.1911608473       -4.5022062277
  H        -0.4880571965       -7.6890055847       -4.4051446133
  H         1.8944037881       -7.6480493100       -4.1227594739
  H         4.0665249176       -6.1943105876       -3.9280606698
  H         6.0829225456       -6.4638888127       -5.3364622244
  H         6.7266002341      -10.3792264912       -3.6368467555
  H         4.7310808240      -10.0989938807       -2.2248786907
  H         3.6619107853       -8.4759365166       -0.3028265177
  H         3.4382796863       -8.4215320338        1.6915235769
  H         4.0167379394       -6.7982845396        4.1706201979
  H         5.5343412983       -6.7992951872        6.1250568587
 Zn         7.8943853399        7.3222854027        7.9494669807
  C         6.7661322149       11.6977673052       10.0113252635
  C         5.8727023817       10.6243562184        9.9545427802
  C         6.2547957068        9.4535349260        9.2901411509
  H         4.8898554361       10.6911893694       10.4223788522
  N         7.4760291666        9.3232078878        8.7048998544
  C         5.3461353402        8.3133502252        9.1790084096
  C         8.3243673947       10.3629874953        8.7558943217
  C         8.0104344583       11.5674580459        9.3956444595
  H         9.2940961764       10.2201403711        8.2779896462
  H         8.7380746756       12.3787318380        9.4145893540
  H         6.4957693455       12.6185358946       10.5290097505
  N         5.6629907444        7.2700120793        8.4811392651
  H         4.3722448455        8.3933916813        9.6796523606
  C         8.7995467802        5.4297565435       12.4964870474
  C         8.6688178750        4.6480044945       11.3475190281
  C         8.4377890127        5.2727292195       10.1151879728
  H         8.7586063202        3.5625366994       11.3977458018
  N         8.3256657294        6.6225666822       10.0014618547
  C         8.3555929308        4.4905921792        8.8882210037
  C         8.4518585820        7.3657462270       11.1140573221
  C         8.6928525026        6.8149990006       12.3768080897
  H         8.3711998035        8.4452007233       10.9885587159
  H         8.8029604954        7.4683733528       13.2421653910
  H         8.9916591568        4.9683041692       13.4653194391
  N         8.1480734385        5.0420803902        7.7326470933
  H         8.4905464201        3.4062746742        8.9874093155
  C        12.5608180808        8.2451927930        6.5166376415
  C        11.4632545026        8.3360891499        5.6568284881
  C        10.1873679326        8.0373663384        6.1466008550
  H        11.5899614929        8.6489293137        4.6199468609
  N         9.9799609058        7.6574681861        7.4357760578
  C         9.0014784166        8.1676395026        5.3038423988
  C        11.0411578383        7.5675199141        8.2534651374
  C        12.3461122546        7.8530676524        7.8372078136
  H        10.8357860401        7.2635356577        9.2799723506
  H        13.1712336647        7.7747287250        8.5450117885
  H        13.5642552055        8.4840932429        6.1635750929
  N         7.8177185867        7.9635561122        5.7858334537
  H         9.1480602402        8.4912215040        4.2653122905
 Zn         7.9495244101       -8.0329801951        8.1942203277
  C        12.1258548396       -5.8922205859        9.8189776191
  C        10.9356774948       -5.1981996956        9.5842156569
  C         9.8230010619       -5.8982763897        9.1060284460
  H        10.8646461920       -4.1278194130        9.7800424848
  N         9.8632796867       -7.2332718972        8.8592441314
  C         8.5485195189       -5.2251859817        8.8596110313
  C        11.0117491070       -7.8918527694        9.0803917185
  C        12.1657238995       -7.2616505827        9.5602247493
  H        11.0058885672       -8.9612969356        8.8679492024
  H        13.0725514339       -7.8426197786        9.7279358412
  H        13.0057941287       -5.3739302238       10.2007109668