     728
 i =      312, E =     -3436.3502656056
  C        -5.3685203866        6.4219232003        7.8090999595
  C        -4.1544688450        6.7203565717        7.1662777802
  C        -3.2499434864        5.7005852087        6.8433904409
  C        -3.5289449200        4.3500811170        7.1354190428
  C        -2.6825559154        3.1667208202        6.8134598218
  C        -3.3565264065        2.0027372603        6.4635062807
  C        -2.7273651122        0.7432110278        6.5203728903
  C        -3.5242519507       -0.4209418462        6.5144821002
  C        -3.0131633490       -1.6512859310        6.9097011230
  C        -3.9702090973       -2.7350872461        7.2560144151
  C        -3.7098922037       -4.1181523413        7.1641217678
  C        -4.6631126906       -5.0683516534        7.5435041930
  C        -5.9156107159       -4.6660396833        8.0383395225
  C        -6.1957455849       -3.2890027900        8.1039187676
  C        -5.2393859836       -2.3572739518        7.7435546927
  C        -1.6070279137       -1.7487796227        7.0814907069
  C        -0.7526800435       -0.6459617194        6.9557217836
  C         0.7127950447       -0.7496642047        7.0584637341
  C         1.3723325151       -1.9802978962        7.0962984047
  C         2.7825163027       -2.0923672480        7.1835665433
  C         3.4790702924       -3.4006022928        7.2517337813
  C         4.6497145061       -3.5365549982        8.0269710455
  C         5.3781817582       -4.7199614833        8.0458485015
  C         4.9345723102       -5.8358657517        7.3206737276
  C         3.7478879908       -5.7324346510        6.5747825301
  C         3.0414664132       -4.5305073640        6.5355070407
  C         3.5280821157       -0.9228633603        7.1960336710
  C         2.9135310206        0.3482362794        7.1428935370
  C         3.7104111144        1.5134008314        7.1562426037
  C         3.1468162789        2.7804107176        7.1507616142
  C         4.1059271603        3.9208360918        7.2281808499
  C         5.1729483040        3.9806214523        6.3097964540
  C         6.2516094132        4.8416074561        6.4992143426
  C         6.3037112219        5.6486918671        7.6447790776
  C         5.2075452641        5.6737452135        8.5200439204
  C         4.1146214184        4.8276289495        8.3013855224
  C         1.7347853899        2.8913807402        7.1033938362
  C         0.8949163339        1.7699800187        7.0535777552
  C        -0.5741169387        1.8729281039        6.9191470005
  C        -1.2743578579        3.0875623086        6.9887829899
  C        -1.3241819588        0.6565055326        6.7745112407
  C         1.4859754348        0.4600502048        7.0845672189
  C        -4.7519660815        4.0771537325        7.7835520624
  C        -5.6581794289        5.0741844922        8.0915132088
  H        -3.9083672081        7.7537949622        6.9286450299
  H        -2.3214565688        5.9658466763        6.3351524846
  H        -4.4248698810        2.0334693198        6.2490384446
  H        -4.5854563873       -0.3077836187        6.2935727272
  H        -2.7505180940       -4.4661726500        6.7787687561
  H        -4.4305848037       -6.1294005732        7.4715172537
  H        -7.1814663486       -2.9450041307        8.4157058304
  H        -5.4792850484       -1.3024877105        7.8644290585
  H        -1.1924388680       -2.7108701343        7.3811176030
  H         0.7873273181       -2.8991534550        7.0781249025
  H         4.9777736830       -2.7047880201        8.6506350414
  H         6.2633853226       -4.8091540951        8.6729810671
  H         3.4146493641       -6.5829114384        5.9794123831
  H         2.1531523430       -4.4576840915        5.9060404401
  H         4.6178525945       -0.9648425912        7.2227797730
  H         4.7942959518        1.4037627230        7.2165414243
  H         5.1735730479        3.3088823549        5.4502305405
  H         7.0887263262        4.8391390079        5.8010255341
  H         5.2250164280        6.3261641989        9.3940440633
  H         3.2997136397        4.8161208550        9.0267490787
  H         1.3022446323        3.8913076658        7.0681139513
  H        -0.7379416382        4.0009119855        7.2466582612
  H        -4.9933428419        3.0531103138        8.0637563547
  H        -6.6182152832        4.8026413064        8.5297616422
  C         9.0465018650        6.0860745878       -6.5438304804
  C        10.2169302447        5.7967462624       -5.8140900829
  C        10.2538683339        4.7033071764       -4.9587639557
  C         9.1358300614        3.8579423638       -4.7983009687
  C         9.0566636930        3.0124795509       -3.5734260574
  C         9.2335167647        3.7152996147       -2.3914748137
  C         9.0440072638        3.1058655618       -1.1362926727
  C         9.0851284348        3.8968229607        0.0285023228
  C         8.8043269556        3.3678611052        1.2796909523
  C         8.7780578217        4.3228926468        2.4179667164
  C         9.3609877182        4.0780255380        3.6758212409
  C         9.5043024805        5.1017341057        4.6203784517
  C         9.0960307864        6.4048196344        4.3024633253
  C         8.4279218574        6.6428543827        3.0933575703
  C         8.2523876307        5.6096493664        2.1841512789
  C         8.5686959938        1.9740980033        1.3702476443
  C         8.5683010172        1.1356447166        0.2477938653
  C         8.3546944877       -0.3180900278        0.3436454946
  C         8.3201448594       -0.9834396646        1.5708636005
  C         8.1551053626       -2.3852321272        1.6761774731
  C         8.2424730379       -3.0866453184        2.9806951237
  C         8.9700425558       -4.2906815669        3.0730193350
  C         9.0560529729       -4.9970766557        4.2656438728
  C         8.4382032011       -4.5014960534        5.4230697441
  C         7.7212862432       -3.2951255113        5.3569916143
  C         7.6253909725       -2.6031772126        4.1484974987
  C         7.9721179565       -3.1147491554        0.5107208257
  C         8.0219467027       -2.4956169606       -0.7600263907
  C         7.9262699324       -3.2823256593       -1.9301799163
  C         8.1333509363       -2.7364008127       -3.1885824943
  C         8.1753344644       -3.6926120981       -4.3324677377
  C         7.1211101583       -4.6066278516       -4.5269689404
  C         7.2440398734       -5.6867274874       -5.4000282861
  C         8.4557214195       -5.9026379609       -6.0726623065
  C         9.4812834203       -4.9504107694       -5.9648310136
  C         9.3312209483       -3.8494637397       -5.1168347168
  C         8.3837045588       -1.3455582062       -3.2901455029
  C         8.4092849265       -0.5027089769       -2.1713509325
  C         8.6467199158        0.9534693466       -2.2713131780
  C         8.7539993802        1.6294988650       -3.4968177820
  C         8.7565889362        1.7078411354       -1.0534365026
  C         8.2477772964       -1.0828353595       -0.8662625635
  C         8.0494681357        4.0444880487       -5.6717931546
  C         8.0090282667        5.1373605357       -6.5415093463
  H        11.0970375440        6.4332935509       -5.9102451504
  H        11.1524866956        4.5167297505       -4.3696827705
  H         9.4501025226        4.7837352179       -2.4218561066
  H         9.3429488032        4.9508072422       -0.0763461327
  H         9.7843926874        3.0967781780        3.8946613757
  H        10.0198515872        4.9109027577        5.5619962821
  H         8.0455633786        7.6395342088        2.8751006208
  H         7.7207828867        5.8107380978        1.2544081953
  H         8.3511900630        1.5558236886        2.3527723533
  H         8.4930974833       -0.4241919384        2.4895015734
  H         9.5032431314       -4.6599067159        2.1969359472
  H         9.6436419052       -5.9110901229        4.3229641112
  H         7.1954069083       -2.9329556818        6.2409727574
  H         7.0323510991       -1.6885355107        4.1047591327
  H         7.8082238597       -4.1925930383        0.5582090773
  H         7.7723683835       -4.3574266693       -1.8242878567
  H         6.2017197486       -4.4887711771       -3.9515180912
  H         6.4391639661       -6.4163940194       -5.4921446077
  H        10.4118113962       -5.0906286841       -6.5166574705
  H        10.1618247399       -3.1515776812       -5.0011143755
  H         8.5612593445       -0.9321542116       -4.2827749402
  H         8.6261389586        1.0814003170       -4.4300277280
  H         7.1854662776        3.3810521179       -5.6098179577
  H         7.1325081972        5.2954824010       -7.1661640002
  C         5.3396364353        8.9895413588       -7.3843897925
  C         4.6011155529       10.1667710730       -7.1453999076
  C         3.8194948744       10.2865898674       -6.0041735212
  C         3.7441389606        9.2488179456       -5.0518122054
  C         2.6522683500        9.2775432273       -4.0401745486
  C         1.3775477103        9.5220164310       -4.5326236865
  C         0.2369531519        9.4356865615       -3.7059464520
  C        -1.0520002724        9.5300350011       -4.2758721085
  C        -2.1982204370        9.3283177279       -3.5178137917
  C        -3.5213873654        9.2912784328       -4.1805382548
  C        -4.7147521276        9.6737976205       -3.5311788638
  C        -5.9434318781        9.6410738203       -4.1824333151
  C        -6.0285963494        9.2340198654       -5.5309725912
  C        -4.8496486511        8.8252049987       -6.1717261623
  C        -3.6293385769        8.8492335350       -5.5139740173
  C        -2.0413087984        9.1250846591       -2.1237378891
  C        -0.7926991292        9.0891844522       -1.5019670475
  C        -0.6481170989        8.8887725676       -0.0530013150
  C        -1.7217561062        9.0170733976        0.8348192584
  C        -1.5876036256        8.7943855124        2.2287652348
  C        -2.6441171358        9.1230975893        3.2187110824
  C        -2.2365053072        9.5995076524        4.4815315091
  C        -3.1515127582        9.9344959853        5.4647589155
  C        -4.5332887160        9.8337772103        5.2210615283
  C        -4.9637979553        9.3640254708        3.9705605518
  C        -4.0305100494        9.0212929150        2.9872138242
  C        -0.3540539353        8.3593466326        2.6955252002
  C         0.7821319374        8.3296339057        1.8602117509
  C         2.0579239509        8.1543711763        2.4341676903
  C         3.2141589793        8.4073725216        1.7097768416
  C         4.4487224956        8.4980142675        2.5402295160
  C         4.7436100759        7.4678759981        3.4545379098
  C         5.6068921167        7.6759228141        4.5244257251
  C         6.1758004506        8.9401073102        4.7292538838
  C         6.0108186966        9.9320895428        3.7467572225
  C         5.1666997730        9.7028540402        2.6563563051
  C         3.0974098519        8.7005870799        0.3276729377
  C         1.8555067086        8.7554153069       -0.3219807726
  C         1.7123452685        8.9978272256       -1.7731918492
  C         2.8010105984        9.0068191515       -2.6560424911
  C         0.3913884557        9.1841846476       -2.3047075247
  C         0.6621443453        8.6342339428        0.4683898816
  C         4.6090471086        8.1512530668       -5.2184463450
  C         5.4036025808        8.0270157317       -6.3612465965
  H         4.6460486130       10.9967669887       -7.8509934269
  H         3.2423175187       11.1986086440       -5.8478595134
  H         1.2337629196        9.7086777296       -5.5976062803
  H        -1.1251814464        9.7550613256       -5.3400573658
  H        -4.6787544952       10.0285265460       -2.5007871922
  H        -6.8353570792        9.9300401254       -3.6270463445
  H        -4.9050979412        8.4955465440       -7.2043030972
  H        -2.7436767959        8.4944743783       -6.0402395545
  H        -2.9333571250        8.9412765592       -1.5262663861
  H        -2.6815679329        9.3705534363        0.4590116926
  H        -1.1768560510        9.7390856086        4.6895250262
  H        -2.7950219415       10.2662312475        6.4405388710
  H        -6.0307564373        9.2940052865        3.7620940354
  H        -4.3928010128        8.6565192297        2.0251479782
  H        -0.2174555682        8.1109246634        3.7481312209
  H         2.1230897976        7.9588359896        3.5051939859
  H         4.2381157738        6.5059267647        3.3586103064
  H         5.7679186927        6.8888420197        5.2572820252
  H         6.5037128769       10.8992870574        3.8561625837
  H         4.9872557159       10.5109462798        1.9455767180
  H         4.0098779610        8.8986387178       -0.2348169661
  H         3.8046159492        8.8134863373       -2.2769078434
  H         4.6088498708        7.3469681272       -4.4810967473
  H         6.0317881326        7.1471899563       -6.4887728718
  C        -7.9187663690        6.6713820541        4.8766661853
  C        -8.9707422489        5.7647112314        4.6481845613
  C        -8.7698916967        4.6487960413        3.8378325522
  C        -7.5298838655        4.4262823312        3.2105312145
  C        -7.4422621744        3.4891864710        2.0539692102
  C        -7.1840672005        4.0472658902        0.8095841302
  C        -7.3411703709        3.2954150815       -0.3799782101
  C        -7.2755439614        3.9390262690       -1.6385048103
  C        -7.5719503622        3.2621717206       -2.8145089427
  C        -7.6402143396        3.9885797932       -4.1079901584
  C        -7.2736706956        3.3848817890       -5.3275759014
  C        -7.3899282853        4.0632166648       -6.5379291711
  C        -7.8732028608        5.3856358129       -6.5742504538
  C        -8.1950079596        6.0162516688       -5.3626681935
  C        -8.0975328088        5.3219753655       -4.1608333157
  C        -7.8706701877        1.8780698359       -2.7303674615
  C        -7.9065319919        1.1807634259       -1.5211221441
  C        -8.2625678769       -0.2495385540       -1.4437889261
  C        -8.4669485975       -1.0436298088       -2.5795231318
  C        -8.8750529589       -2.3975395046       -2.4944329070
  C        -9.0580495934       -3.3245861410       -3.6409578065
  C       -10.1841038896       -4.1746981359       -3.6566386008
  C       -10.2478145628       -5.2754211085       -4.4991304663
  C        -9.1740388011       -5.5714738118       -5.3629725756
  C        -8.1388941701       -4.6282000569       -5.4850761329
  C        -8.0766785566       -3.5277326019       -4.6279718667
  C        -9.0569459448       -2.9528892477       -1.2364588880
  C        -8.7848157183       -2.2213551845       -0.0633692844
  C        -8.8503789131       -2.8643188922        1.1901736356
  C        -8.4671927193       -2.2190521423        2.3551185659
  C        -8.4642696192       -3.0983996657        3.5643956938
  C        -7.2752067186       -3.6345036876        4.0896431648
  C        -7.2971482878       -4.7685989456        4.9059353189
  C        -8.5179034560       -5.3976144112        5.1978835074
  C        -9.7178965735       -4.7647956107        4.8231713558
  C        -9.6857728579       -3.6337463519        4.0140263468
  C        -8.0943279907       -0.8565738292        2.2816941071
  C        -8.1015115322       -0.1470519361        1.0711872658
  C        -7.8151161663        1.2966397779        0.9918894809
  C        -7.7523829054        2.1110085345        2.1279225737
  C        -7.6686833375        1.9005280321       -0.3018040249
  C        -8.3865666696       -0.8500586783       -0.1459052130
  C        -6.4508703518        5.2527086808        3.5746083985
  C        -6.6314158012        6.3440278574        4.4246254481
  H        -9.9570291220        5.9518407800        5.0749510660
  H        -9.6118971604        3.9907671682        3.6180586879
  H        -6.9655944931        5.1135777052        0.7297936779
  H        -7.0134183341        4.9978142216       -1.6635445817
  H        -6.8660763669        2.3731772165       -5.3261664950
  H        -7.0635016279        3.5821258078       -7.4606029995
  H        -8.5814519845        7.0332130617       -5.3784142620
  H        -8.4257220312        5.8119214048       -3.2442954100
  H        -8.1464870934        1.3630249402       -3.6494167252
  H        -8.3358897255       -0.6132883054       -3.5720384718
  H       -11.0157121120       -3.9722602208       -2.9810460692
  H       -11.1386749824       -5.9038063330       -4.4910785962
  H        -7.3455890374       -4.7913270577       -6.2115106194
  H        -7.2127655979       -2.8629759418       -4.6765707137
  H        -9.3477594794       -3.9995256470       -1.1392740569
  H        -9.1544618450       -3.9114164392        1.2248499581
  H        -6.3140502649       -3.2186255031        3.7837683726
  H        -6.3620474346       -5.2214764865        5.2320343444
  H       -10.6769331990       -5.1737536861        5.1433534668
  H       -10.6230740240       -3.1883402570        3.6785463391
  H        -7.8064726641       -0.3509922227        3.2032260323
  H        -7.9656427711        1.6866306048        3.1088674507
  H        -5.4626011491        5.0626889085        3.1531576259
  H        -5.7925538078        6.9951177613        4.6617152748
  C        -6.4643202055       -4.6229383090       -9.0862743468
  C        -6.2369543500       -3.7320351314      -10.1545819359
  C        -5.0860433034       -2.9565048949      -10.1870493217
  C        -4.1077694372       -3.0447009344       -9.1751304747
  C        -3.0841522382       -1.9590964802       -9.1133726152
  C        -3.5951143593       -0.6758538997       -8.9883070712
  C        -2.7618748482        0.4612864310       -9.0374900968
  C        -3.3337948097        1.7521962864       -8.9657421943
  C        -2.5659916689        2.8865923691       -9.1686745210
  C        -3.2413186436        4.2099592228       -9.1867705846
  C        -3.1958584534        5.0398637190      -10.3232880920
  C        -3.9371740466        6.2168567500      -10.3838992030
  C        -4.7292542394        6.6198212980       -9.2893226461
  C        -4.7710824411        5.7991654630       -8.1500708267
  C        -4.0389458056        4.6169541356       -8.1018136320
  C        -1.1798038124        2.7321532365       -9.4030534245
  C        -0.5506906073        1.4835955906       -9.4022557413
  C         0.8995711892        1.3328689763       -9.6125682634
  C         1.7599733675        2.4295698293       -9.7472188080
  C         3.1423614363        2.2821233671      -10.0160613351
  C         4.1191729621        3.3941419749      -10.1395158192
  C         5.0767047548        3.3455277397      -11.1747448061
  C         6.1835523143        4.1814425292      -11.1771440689
  C         6.3803095417        5.1038426586      -10.1294815054
  C         5.3452398489        5.2786912156       -9.1939993951
  C         4.2376002046        4.4282887986       -9.1928399631
  C         3.6544002394        0.9980968095      -10.1257555306
  C         2.8431025253       -0.1381078747       -9.9307394758
  C         3.4298741949       -1.4194800826       -9.9495309785
  C         2.6890180619       -2.5589893024       -9.6841385879
  C         3.5171814734       -3.8089161333       -9.6548980174
  C         4.1099292445       -4.2445726134       -8.4566343509
  C         5.2199377194       -5.0919169455       -8.4670081307
  C         5.7761506790       -5.4998897025       -9.6880166027
  C         5.0999330609       -5.1970955854      -10.8833179004
  C         3.9829097426       -4.3620879583      -10.8610772521
  C         1.3000524050       -2.4257591050       -9.4512790686
  C         0.6540877439       -1.1782658295       -9.4731074537
  C        -0.8054015129       -1.0259923559       -9.2908313564
  C        -1.6823382839       -2.1201052388       -9.2349947469
  C        -1.3500896446        0.3031403176       -9.2306245741
  C         1.4425506585        0.0054705343       -9.6743922396
  C        -4.2640249768       -4.0511661309       -8.2066310859
  C        -5.4208963943       -4.8368235401       -8.1680196640
  H        -6.9572759868       -3.6489904165      -10.9684929273
  H        -4.9396245738       -2.2525663890      -11.0068070781
  H        -4.6708875741       -0.5303434070       -8.8779365679
  H        -4.4122259219        1.8401678097       -8.8231587418
  H        -2.6202987948        4.7256994341      -11.1950145526
  H        -3.9377322688        6.7928206515      -11.3096767306
  H        -5.3655093576        6.1048911083       -7.2913234813
  H        -4.0797652656        3.9979019418       -7.2046230353
  H        -0.5949068434        3.6341238790       -9.5788588037
  H         1.3626589703        3.4412782198       -9.6735670389
  H         4.9474447102        2.6316511659      -11.9886991892
  H         6.8901641693        4.1272732143      -12.0054212181
  H         5.4371026579        6.0502059276       -8.4316056474
  H         3.4906427632        4.5272280196       -8.4037031702
  H         4.7191309282        0.8482179300      -10.3084200532
  H         4.5001453744       -1.5018060380      -10.1442151488
  H         3.7565977367       -3.8421460808       -7.5061080507
  H         5.7248010325       -5.3440494405       -7.5362020566
  H         5.4713873110       -5.5815884026      -11.8343423825
  H         3.5108060953       -4.0766367805      -11.8020685611
  H         0.7240231980       -3.3298473312       -9.2560132326
  H        -1.2926128079       -3.1310743053       -9.3508146219
  H        -3.5053627569       -4.1814689150       -7.4333564891
  H        -5.5390574972       -5.5850626798       -7.3863927197
  C         6.5554138073       -7.8243924215        3.9346579100
  C         6.1182167917       -8.8458328957        3.0693133090
  C         4.9670671718       -8.6742331864        2.3052455089
  C         4.2065517805       -7.4912227054        2.3890544381
  C         2.8865593636       -7.3975435310        1.7162565737
  C         1.7719904793       -7.0695867354        2.4728230821
  C         0.4656082039       -7.2202562340        1.9487724223
  C        -0.6448439221       -7.1467556800        2.8139307816
  C        -1.9150246747       -7.5452350699        2.4125347807
  C        -2.9416024369       -7.7494918176        3.4710521599
  C        -4.3319006177       -7.5698509366        3.3186744975
  C        -5.2210884043       -7.7913519055        4.3772142434
  C        -4.7478194661       -8.2189478105        5.6297893871
  C        -3.3585673513       -8.3751805076        5.7974156607
  C        -2.4898088583       -8.1650437419        4.7415081760
  C        -2.1088444850       -7.8514076361        1.0382234017
  C        -1.0606715156       -7.8351013974        0.1074780211
  C        -1.2494050951       -8.1480593653       -1.3257685274
  C        -2.5137567623       -8.2537818401       -1.9253961255
  C        -2.6749753392       -8.6125543659       -3.2880034667
  C        -3.9400544274       -8.6580456325       -4.0750214040
  C        -4.7589445718       -7.5295143702       -4.2580604936
  C        -5.6481895166       -7.4578126764       -5.3333250852
  C        -5.7222368653       -8.5051653039       -6.2682385812
  C        -5.0618211457       -9.7137905744       -5.9680386998
  C        -4.1877908872       -9.7821344218       -4.8909616438
  C        -1.5387166034       -8.8543370134       -4.0461334571
  C        -0.2467834627       -8.6545747302       -3.5225431945
  C         0.8671589657       -8.7192501196       -4.3845072699
  C         2.1436357331       -8.3932243373       -3.9499012153
  C         3.2208004815       -8.3456152859       -4.9716571094
  C         2.9018808586       -7.8395843391       -6.2486616304
  C         3.7829799270       -7.9478331047       -7.3153512310
  C         5.0414245006       -8.5395588820       -7.1279075864
  C         5.4282829242       -8.9382566942       -5.8391571438
  C         4.5187588993       -8.8562318129       -4.7798838495
  C         2.3194987735       -8.1017271871       -2.5746640204
  C         1.2529602193       -8.0844287081       -1.6676940753
  C         1.4368565382       -7.7857511030       -0.2399217696
  C         2.6989732183       -7.7457282302        0.3575371115
  C         0.2755123543       -7.5929391771        0.5790417180
  C        -0.0799485307       -8.3041362585       -2.1466957134
  C         4.6675034091       -6.4686436055        3.2386950758
  C         5.8160261503       -6.6325825843        4.0065165787
  H         6.6397672208       -9.8032537437        3.0402436877
  H         4.6108805857       -9.4982189517        1.6855978527
  H         1.8837041348       -6.8192153103        3.5293181888
  H        -0.4659820765       -6.8393277692        3.8442612638
  H        -4.7324839267       -7.2392028188        2.3593353728
  H        -6.2917617516       -7.6594072873        4.2261548725
  H        -2.9548696597       -8.6538328751        6.7710554674
  H        -1.4295387115       -8.3550147422        4.9002952367
  H        -3.0985520295       -8.1775674102        0.7183762794
  H        -3.4090385383       -8.0667808601       -1.3321363595
  H        -4.6326389527       -6.6587497045       -3.6127931573
  H        -6.2257788595       -6.5500956966       -5.4937856242
  H        -5.2200129605      -10.5970527723       -6.5876384150
  H        -3.6465788716      -10.7097704410       -4.7010412993
  H        -1.6357440983       -9.1135046923       -5.1008684059
  H         0.6989283393       -9.0145557411       -5.4205076269
  H         1.9353120029       -7.3622579904       -6.4085962241
  H         3.5111229945       -7.5571332153       -8.2959801469
  H         6.4084774671       -9.3905531189       -5.6880348951
  H         4.8028222097       -9.2604069681       -3.8073647994
  H         3.3190187423       -7.8364063607       -2.2303803486
  H         3.5814406585       -7.9962762883       -0.2304808465
  H         4.1117645393       -5.5324355055        3.3041936085
  H         6.1589237022       -5.8278637771        4.6543030578
 Zn         8.5419057973        8.1957334389        7.0516370369
  C        11.4335024315        6.5829022158       10.7349806309
  C        10.1554288904        6.0794213926       10.4762945367
  C         9.4632743694        6.5292655614        9.3470489909
  H         9.6978267391        5.3462611776       11.1415515730
  N         9.9856689252        7.4511390666        8.4963240688
  C         8.1506782059        5.9862522930        9.0014548031
  C        11.2201896961        7.9177157857        8.7441307418
  C        11.9787327957        7.5089195166        9.8470960537
  H        11.6121892655        8.6500687795        8.0394303978
  H        12.9759196820        7.9208254295       10.0020260423
  H        11.9928753644        6.2559162272       11.6119153718
  N         7.5245161520        6.3445726528        7.9268079970
  H         7.7396914323        5.2116486070        9.6624237255
  C         6.8846599817       11.8660504603        9.9955202048
  C         6.4538612575       11.6590484463        8.6831284691
  C         6.8869692560       10.5198908303        7.9944277647
  H         5.7910184623       12.3731558276        8.1930671838
  N         7.7204327598        9.6057052753        8.5563595039
  C         6.4177508544       10.2426224348        6.6400859806
  C         8.1170610789        9.8073266916        9.8238130299
  C         7.7232646574       10.9173887578       10.5794542414
  H         8.7855256197        9.0597219576       10.2501521875
  H         8.0803200410       11.0319038675       11.6028371672
  H         6.5712531295       12.7501891684       10.5512820235
  N         6.7952342429        9.1881099606        5.9892974439
  H         5.6749807999       10.9322880640        6.2184348989
  C        11.8068489290       11.6986786185        5.4171986894
  C        11.4769489617       10.5306341424        4.7255000452
  C        10.5330285209        9.6577574570        5.2789391228
  H        11.9536849797       10.2895853118        3.7747599336
  N         9.9151004483        9.9035568294        6.4620195594
  C        10.1819213318        8.4131421195        4.6054066964
  C        10.2387973628       11.0304109082        7.1169211665
  C        11.1754451582       11.9520241774        6.6339128094
  H         9.7374979310       11.2028867745        8.0689296208
  H        11.4016597009       12.8484687556        7.2113073854
  H        12.5454960513       12.3935546013        5.0169547533
  N         9.4122752598        7.5194371933        5.1450762012
  H        10.6134778749        8.2434491279        3.6108798949
 Zn         7.9353669807       -7.3814427890        6.9333337089
  C         5.9258988231      -11.7620577804        8.2428812561
  C         5.1798186245      -10.5917367641        8.0872689450
  C         5.8325042853       -9.4070782430        7.7286748630
  H         4.1025327699      -10.5894229145        8.2557712639
  N         7.1744376696       -9.3572409580        7.5197513077
  C         5.0974340395       -8.1490283426        7.6228537519
  C         7.8835052993      -10.4883685594        7.6718866811
  C         7.3030232133      -11.7086171614        8.0335252214
  H         8.9579286729      -10.4130808107        7.5058475435
  H         7.9285818413      -12.5930206301        8.1530811636
  H         5.4430677586      -12.6960340301        8.5311498812