     728
 i =      491, E =     -3436.4208560809
  C        -4.6732666062        6.6505736495        8.7094029096
  C        -3.8205774064        6.2444837968        9.7549721439
  C        -3.0656351353        5.0800222347        9.6365935533
  C        -3.1566147844        4.2725655722        8.4881650023
  C        -2.4839067883        2.9475489997        8.4137667370
  C        -3.2707949779        1.8144690439        8.3031395928
  C        -2.6934857268        0.5245429466        8.2521804777
  C        -3.5260897356       -0.6089088006        8.1824126561
  C        -3.0146849653       -1.8973298314        8.0950487488
  C        -4.0028388955       -3.0080474588        8.0171782729
  C        -3.8439844796       -4.2659177330        8.6330059761
  C        -4.8970518452       -5.1867368950        8.6993501994
  C        -6.1611851205       -4.8459688660        8.1937860716
  C        -6.3072075695       -3.6350772825        7.4965138838
  C        -5.2398857884       -2.7578080776        7.3853644226
  C        -1.6026848298       -2.0501627354        8.1150449515
  C        -0.7245668025       -0.9616070943        8.2123670581
  C         0.7481075717       -1.1123635233        8.2270732206
  C         1.3837661648       -2.3588294293        8.2454274871
  C         2.7966422085       -2.5006403543        8.2419595906
  C         3.4892502390       -3.8119997750        8.3250425104
  C         4.7080916829       -3.9077075270        9.0309450463
  C         5.4478480027       -5.0832233880        9.0581106334
  C         4.9690876623       -6.2360363317        8.4181188904
  C         3.7348816759       -6.1734888152        7.7471551675
  C         3.0158639763       -4.9781233388        7.6953691376
  C         3.5680152593       -1.3491979212        8.1767031362
  C         2.9852979459       -0.0643105785        8.1900703475
  C         3.8126898500        1.0818773607        8.1996021997
  C         3.2809789718        2.3569557818        8.3223584632
  C         4.2268202470        3.4999216262        8.4305530425
  C         4.1614815366        4.4240773882        9.4880385995
  C         5.2014947369        5.3299497154        9.7196081685
  C         6.3196535250        5.3434453254        8.8737014836
  C         6.3463170257        4.5072244433        7.7501421220
  C         5.3171234050        3.5926087633        7.5441010738
  C         1.8750141376        2.4912449075        8.3990321343
  C         1.0084709355        1.3944166829        8.3402921739
  C        -0.4564560299        1.5437285851        8.3705167620
  C        -1.0792443256        2.7928998912        8.4617022779
  C        -1.2700528343        0.3665475750        8.2769112260
  C         1.5594247508        0.0744639790        8.2441853816
  C        -4.0021826436        4.6932916917        7.4450550062
  C        -4.7517534433        5.8609398736        7.5512263550
  H        -3.7896527813        6.8026531694       10.6911013858
  H        -2.4458367822        4.7567569002       10.4738469873
  H        -4.3584608973        1.9035804703        8.2878304878
  H        -4.6027477393       -0.4491372299        8.2347647851
  H        -2.9057924656       -4.5081256349        9.1341046784
  H        -4.7657470719       -6.1303683007        9.2290472458
  H        -7.2591434396       -3.4003436571        7.0211652467
  H        -5.3743217446       -1.8422835854        6.8102251342
  H        -1.1977344915       -3.0583719188        8.0308782462
  H         0.7822171694       -3.2652299131        8.3075957160
  H         5.0679529057       -3.0472080211        9.5947787559
  H         6.3730782614       -5.1361080780        9.6292583305
  H         3.3690340594       -7.0533237149        7.2170110539
  H         2.0877565692       -4.9424834529        7.1227251487
  H         4.6551258667       -1.4185993673        8.1219307666
  H         4.8948100867        0.9429788461        8.1791566060
  H         3.3277616312        4.3846804849       10.1905313028
  H         5.1625777134        5.9981758256       10.5808671577
  H         7.2005366211        4.5335495668        7.0768054214
  H         5.3737567927        2.9142844840        6.6916261105
  H         1.4690856575        3.4983563746        8.4861738669
  H        -0.4764778484        3.6964262167        8.5422590354
  H        -4.0705515692        4.0929213412        6.5369605094
  H        -5.3890708631        6.1800451407        6.7281436287
  C         8.4301585300        6.1723624101       -5.2560268596
  C         8.9264991261        4.8929303750       -5.5459624579
  C         8.8133820551        3.8692579234       -4.5967047794
  C         8.1609943147        4.0807707840       -3.3662434018
  C         8.2317086435        3.1630718273       -2.1969148165
  C         8.3685532196        3.7730716501       -0.9579597116
  C         8.4312910932        3.0325274457        0.2357960526
  C         8.5293482403        3.7122511516        1.4669456942
  C         8.6148240757        3.0253401040        2.6668029162
  C         8.7301757262        3.8684095056        3.8879033820
  C         9.8379153415        3.8216411597        4.7508106015
  C        10.0659721930        4.8434194639        5.6793506018
  C         9.1657705611        5.9153385750        5.7757070491
  C         7.9913862045        5.9041190711        5.0135709633
  C         7.7885742359        4.8991379816        4.0751995136
  C         8.6022894680        1.6116248625        2.6334818719
  C         8.4730454699        0.8906130981        1.4388178510
  C         8.3997202292       -0.5804648456        1.4044695637
  C         8.4096818916       -1.3502239377        2.5666754326
  C         8.3716075656       -2.7655695111        2.5559409468
  C         8.4051026411       -3.5259743223        3.8317481876
  C         9.1236566754       -4.7336748647        3.9413753398
  C         9.1741524404       -5.4451496885        5.1362545819
  C         8.5326098625       -4.9487159738        6.2812951951
  C         7.8019496120       -3.7526332175        6.1906171703
  C         7.7362141933       -3.0621865000        4.9809400355
  C         8.3234436092       -3.4093338201        1.3263746218
  C         8.3047555347       -2.6793473170        0.1106820720
  C         8.2672481510       -3.3590056087       -1.1313303734
  C         8.2540848210       -2.6686872093       -2.3364524828
  C         8.2500244333       -3.4043105328       -3.6273693416
  C         8.9855589201       -4.5978078324       -3.7826798348
  C         8.9790395645       -5.3101917236       -4.9790490314
  C         8.2612335699       -4.8321114109       -6.0867899603
  C         7.5281387640       -3.6397407447       -5.9513555940
  C         7.5185973684       -2.9479852928       -4.7410076927
  C         8.2567684538       -1.2508924929       -2.2991338713
  C         8.2871878797       -0.5235648308       -1.1081225745
  C         8.2973995097        0.9552473153       -1.0789311324
  C         8.2082076723        1.7439636690       -2.2355886587
  C         8.3968617066        1.6038395220        0.1982377718
  C         8.3266855391       -1.2425930653        0.1348013282
  C         7.5289253698        5.3280682518       -3.1789348792
  C         7.6889876893        6.3676381517       -4.0812259869
  H         9.4939062976        4.7288292726       -6.4622146203
  H         9.3149364217        2.9194068098       -4.7870352633
  H         8.4626830205        4.8562263876       -0.8874330042
  H         8.5691250221        4.8022382179        1.4592978329
  H        10.5787628626        3.0285149855        4.6408574385
  H        10.9629579482        4.8262320462        6.2998527694
  H         7.2767108531        6.7186053818        5.1083733218
  H         6.9017963227        4.9340738151        3.4411652580
  H         8.6773994005        1.0820237967        3.5824318626
  H         8.4853450317       -0.8567354586        3.5340464802
  H         9.6888131084       -5.1010152328        3.0844297001
  H         9.7636145026       -6.3575761883        5.2064323902
  H         7.2500110154       -3.3930079115        7.0599977139
  H         7.1339051018       -2.1546961162        4.9235581468
  H         8.2794928013       -4.4987584362        1.2774480426
  H         8.2358934999       -4.4498961821       -1.1229425985
  H         9.6087876289       -4.9522939765       -2.9610608514
  H         9.5894032037       -6.2057579119       -5.0854075414
  H         6.9301364814       -3.2828090840       -6.7905029428
  H         6.9096033961       -2.0472679263       -4.6506518464
  H         8.2769228060       -0.7204041253       -3.2502022293
  H         8.1018248453        1.2625407343       -3.2075401295
  H         6.9289588238        5.4982028904       -2.2856252244
  H         7.2315103983        7.3369943610       -3.8875013105
  C         5.4590587752        8.6395142505       -5.8955594748
  C         5.2553853403        9.7511372157       -5.0588543826
  C         4.4613041493        9.6331318927       -3.9152845049
  C         3.8315885241        8.4169449963       -3.5996960474
  C         2.6558804479        8.3689907367       -2.6749760161
  C         1.4286841643        8.3247382426       -3.3169986641
  C         0.2178877259        8.3460924948       -2.5934587734
  C        -1.0153111320        8.3762167723       -3.2841742124
  C        -2.2220103090        8.4248873991       -2.6025257181
  C        -3.5031375186        8.4971334825       -3.3432036001
  C        -4.6655835013        7.8470488360       -2.8874330661
  C        -5.8588894492        7.9068774711       -3.6039222879
  C        -5.9204673656        8.6081592081       -4.8197169055
  C        -4.7708108567        9.2641534362       -5.2846982228
  C        -3.5927897798        9.2231967663       -4.5481264536
  C        -2.1865322776        8.4114210472       -1.1883012585
  C        -0.9979233157        8.3738487895       -0.4594991697
  C        -0.9834450821        8.3498307441        1.0100473582
  C        -2.1582331104        8.3736545777        1.7584508270
  C        -2.1735931989        8.3378206820        3.1721818763
  C        -3.4564298738        8.4093881795        3.9102750417
  C        -3.5536928024        9.1107419338        5.1289230654
  C        -4.7560517785        9.1974070060        5.8220051988
  C        -5.9163464942        8.6146836358        5.2912642138
  C        -5.8392670146        7.9054644400        4.0819747170
  C        -4.6228290611        7.7990997632        3.4126227043
  C        -0.9580078917        8.2559604785        3.8353306477
  C         0.2660450002        8.2419398966        3.1240227670
  C         1.4902235468        8.1945435697        3.8258888702
  C         2.7094165298        8.2655684274        3.1668776714
  C         3.9208419536        8.3081941089        4.0363358442
  C         4.0779522716        7.3387158016        5.0471973487
  C         5.0135800878        7.4934257265        6.0672552629
  C         5.8026489289        8.6512903784        6.1171377731
  C         5.7359053897        9.5756007931        5.0630198463
  C         4.8134031499        9.3938390411        4.0269947286
  C         2.7132828464        8.3493924312        1.7515684848
  C         1.5323082519        8.3448002799        0.9963995872
  C         1.5193572722        8.3706202675       -0.4853825285
  C         2.6889442170        8.3978545292       -1.2603273834
  C         0.2510208806        8.3586704497       -1.1601332129
  C         0.2752448784        8.3057938850        1.6907961392
  C         4.1473323844        7.2879321941       -4.3771193146
  C         4.9730500245        7.3861719740       -5.4956516693
  H         5.6906769342       10.7169568256       -5.3199455803
  H         4.2625059305       10.5186227587       -3.3098749627
  H         1.3894759430        8.3163175562       -4.4074373844
  H        -0.9960051779        8.3513201484       -4.3747872977
  H        -4.6270247544        7.2552821893       -1.9719789757
  H        -6.7353842776        7.3613224716       -3.2539902463
  H        -4.8274242380        9.8588964679       -6.1939816765
  H        -2.7315574375        9.7953195893       -4.8939260910
  H        -3.1370223843        8.4707610074       -0.6614543615
  H        -3.1155678904        8.4647098028        1.2492341208
  H        -2.6796803262        9.6318502015        5.5197599745
  H        -4.8177105029        9.7700864245        6.7456501199
  H        -6.7233193433        7.3960442616        3.6989289405
  H        -4.5739598326        7.2093049599        2.4966539479
  H        -0.9249842720        8.1937201016        4.9241228485
  H         1.4657696543        8.1615009354        4.9160846600
  H         3.4225307109        6.4665932366        5.0565095831
  H         5.0850966220        6.7549408038        6.8645010886
  H         6.3753937013       10.4592859736        5.0730010060
  H         4.7309349454       10.1568162068        3.2515255654
  H         3.6788312412        8.3978357771        1.2483772369
  H         3.6631957844        8.4282640014       -0.7732629697
  H         3.6998800340        6.3250614794       -4.1269503889
  H         5.1826549678        6.5063439367       -6.1011530274
  C        -7.9949352183        5.1103351233        6.0775623814
  C        -7.3077375106        3.8866858596        5.9828665609
  C        -7.2412211674        3.2039488813        4.7688706438
  C        -7.8615353173        3.7051345540        3.6085915511
  C        -7.8447604020        2.9537327635        2.3254510192
  C        -7.6831562489        3.6047763324        1.1088895992
  C        -7.7647134000        2.9041588604       -0.1212792921
  C        -7.6605359890        3.5979400205       -1.3552384144
  C        -7.8762204053        2.9505239867       -2.5635672014
  C        -7.8885324451        3.7099978134       -3.8449653443
  C        -9.0285594728        3.6881354687       -4.6718706637
  C        -9.0825350405        4.4335939325       -5.8466969255
  C        -7.9800198836        5.2132415245       -6.2483439614
  C        -6.8390976247        5.2437559866       -5.4303796356
  C        -6.7976106679        4.5015123023       -4.2502150847
  C        -8.1512909117        1.5619437492       -2.5503516674
  C        -8.1864628352        0.8118336307       -1.3736016428
  C        -8.4570028465       -0.6378767257       -1.3735013702
  C        -8.5306418658       -1.3981471990       -2.5494174713
  C        -8.8830892046       -2.7676516882       -2.5379722150
  C        -8.8978139388       -3.6924924008       -3.7109101721
  C       -10.1043839387       -4.2881299170       -4.1217500265
  C       -10.1058995356       -5.4192367876       -4.9349434016
  C        -8.8884070633       -5.9887728261       -5.3498604879
  C        -7.6892540840       -5.3227488016       -5.0599977928
  C        -7.6968838992       -4.1905854812       -4.2449887314
  C        -9.1718560145       -3.3707618042       -1.3250192120
  C        -9.0102255150       -2.6769580970       -0.1080585378
  C        -9.1365534306       -3.3717676178        1.1122666691
  C        -8.8083498430       -2.7714760796        2.3169138941
  C        -8.8103790140       -3.6877318686        3.4937134767
  C        -7.6140844411       -4.1122348412        4.0978126274
  C        -7.5881345430       -5.2287638427        4.9358760997
  C        -8.7649846471       -5.9545034433        5.1772802600
  C        -9.9872416031       -5.4524311939        4.6926774701
  C       -10.0037977671       -4.3378717777        3.8600328005
  C        -8.4441276011       -1.4048155238        2.3181671773
  C        -8.4065420630       -0.6422785496        1.1426744496
  C        -8.1290140959        0.8066805750        1.1375708596
  C        -8.0513755212        1.5519592455        2.3146542676
  C        -8.0128060632        1.4882384624       -0.1199861968
  C        -8.6333907472       -1.2968803791       -0.1127059893
  C        -8.5363942170        4.9381525611        3.7167063918
  C        -8.5923219606        5.6366702145        4.9209176287
  H        -6.7976265209        3.4903528288        6.8616028826
  H        -6.6805599810        2.2694362009        4.7159187923
  H        -7.5022147048        4.6810865541        1.0834987109
  H        -7.4813909420        4.6747937452       -1.3376327814
  H        -9.9046376292        3.1167245600       -4.3621463520
  H       -10.0056670959        4.4489423640       -6.4273296679
  H        -5.9744010500        5.8293291079       -5.7408063927
  H        -5.8949335541        4.5236544705       -3.6380397122
  H        -8.3411285065        1.0764192836       -3.5070169996
  H        -8.3209637947       -0.9318216156       -3.5116713897
  H       -11.0522222618       -3.8853904806       -3.7625023880
  H       -11.0529710672       -5.8712867999       -5.2326087548
  H        -6.7461787944       -5.7498026652       -5.3935764402
  H        -6.7487315344       -3.7379510564       -3.9509285327
  H        -9.4515975582       -4.4247202093       -1.2947729679
  H        -9.4220023145       -4.4243617137        1.0883733956
  H        -6.6770641071       -3.6124455399        3.8470858437
  H        -6.6414193447       -5.5825902679        5.3412551034
  H       -10.9242049221       -5.9426910421        4.9599036747
  H       -10.9529274107       -3.9846452938        3.4551380811
  H        -8.2058685838       -0.9405786095        3.2747726446
  H        -8.2238609563        1.0603006410        3.2711226949
  H        -9.0702877299        5.3315953952        2.8507678981
  H        -9.1637693296        6.5611394377        4.9905736732
  C        -6.2747656905       -4.9684693921       -8.3406397992
  C        -4.9750377266       -5.3017087632       -8.7512866884
  C        -3.9460553241       -4.3599021626       -8.6494089859
  C        -4.1698829466       -3.0827891236       -8.0971266900
  C        -3.1666115908       -1.9862939349       -8.1181629622
  C        -3.6255890335       -0.6846915316       -8.2684520833
  C        -2.7494530588        0.4210065738       -8.2635919529
  C        -3.2748678552        1.7274261872       -8.3517246587
  C        -2.4573657020        2.8460595860       -8.2988752128
  C        -3.0998034138        4.1848820260       -8.3528721829
  C        -2.6809587687        5.2692975309       -7.5621417050
  C        -3.3734479571        6.4840407341       -7.5705126914
  C        -4.5205766564        6.6333375535       -8.3644945622
  C        -4.9519062788        5.5624932235       -9.1593521094
  C        -4.2347033074        4.3733172075       -9.1697980415
  C        -1.0582840639        2.6447782698       -8.1730385235
  C        -0.4793990996        1.3718829752       -8.1170078138
  C         0.9780384665        1.1613623519       -7.9933699836
  C         1.9122249259        2.1991896845       -8.0984932835
  C         3.3094110739        2.0022778910       -7.9201655533
  C         4.3318726459        3.0602585053       -8.1512980929
  C         5.6703650131        2.6788431748       -8.3893108740
  C         6.6724762294        3.6042601350       -8.6209796674
  C         6.3830883869        4.9795962135       -8.6711594240
  C         5.0607531797        5.3885155787       -8.4334230450
  C         4.0604602636        4.4448883223       -8.1788536122
  C         3.7318986045        0.7218455592       -7.5805147356
  C         2.8532946655       -0.3802459233       -7.5818625042
  C         3.3758195226       -1.6904509791       -7.4768601385
  C         2.5764584590       -2.7992667619       -7.7067551739
  C         3.2368802651       -4.1240896311       -7.8321442187
  C         3.0814697588       -4.8969173123       -8.9993043414
  C         3.8496313244       -6.0385709473       -9.2133513141
  C         4.7892672506       -6.4562631060       -8.2502542480
  C         4.9271745131       -5.7079950130       -7.0698182237
  C         4.1578908554       -4.5673005617       -6.8644564670
  C         1.1898969121       -2.6006441704       -7.9146423328
  C         0.6035358519       -1.3310719238       -7.9074968301
  C        -0.8501637877       -1.1247296724       -8.0368341675
  C        -1.7661972059       -2.1826003693       -8.0075208257
  C        -1.3371178721        0.2201672818       -8.1439574042
  C         1.4541333195       -0.1804521365       -7.8090378947
  C        -5.4554363493       -2.8225047287       -7.5780590179
  C        -6.4961132899       -3.7300530496       -7.7172110225
  H        -4.7925188517       -6.2645096263       -9.2290270236
  H        -2.9691285288       -4.6041944840       -9.0680265040
  H        -4.6880458091       -0.4895914339       -8.4145580257
  H        -4.3575768289        1.8421520392       -8.4117835227
  H        -1.8223645121        5.1542946228       -6.8988371821
  H        -3.0573364447        7.3028173206       -6.9233254457
  H        -5.8187463798        5.6885997648       -9.8065176219
  H        -4.5490249095        3.5757588478       -9.8428892053
  H        -0.4186542385        3.5263379169       -8.1346088575
  H         1.5619775066        3.1937108874       -8.3714384276
  H         5.9415914043        1.6259737194       -8.4195237507
  H         7.6982331301        3.2599697143       -8.7540559026
  H         4.8117418553        6.4479789789       -8.4850885014
  H         3.0464118251        4.8038514355       -8.0010891948
  H         4.7787173876        0.5196708326       -7.3602066494
  H         4.4508241530       -1.8140141350       -7.3343725617
  H         2.4039062598       -4.5555290448       -9.7830555738
  H         3.7644799629       -6.5646171817      -10.1647930220
  H         5.6291672932       -6.0375925051       -6.3061150611
  H         4.2785578854       -4.0019971009       -5.9395516418
  H         0.5708224339       -3.4817275729       -8.0808032705
  H        -1.4024275592       -3.1990368183       -7.8599314041
  H        -5.6476384481       -1.8815743735       -7.0634463648
  H        -7.4837412252       -3.4970308746       -7.3197831098
  C         6.6022291076       -8.2941964601        5.0698813946
  C         6.1676622379       -9.3056012527        4.1925815269
  C         4.9978009192       -9.1372015306        3.4583966525
  C         4.2176902512       -7.9718301661        3.5904340490
  C         2.9190114658       -7.8582136312        2.8841711110
  C         1.7537033661       -7.6157697593        3.5925908080
  C         0.4904371825       -7.6990017889        2.9564663623
  C        -0.6821674870       -7.6930388090        3.7329035387
  C        -1.9249516150       -8.0049028279        3.1919995617
  C        -3.0220594827       -8.2481444752        4.1685359179
  C        -4.3861185694       -7.9455318907        3.9877838005
  C        -5.3139790251       -8.1197986676        5.0213905534
  C        -4.9141393481       -8.6010802160        6.2817485664
  C        -3.5560280004       -8.9276874396        6.4594723993
  C        -2.6536387704       -8.7850780289        5.4232174394
  C        -2.0202681616       -8.1393950283        1.7774588630
  C        -0.9000542790       -8.0499625067        0.9363661647
  C        -0.9706803649       -8.1331069126       -0.5453649516
  C        -2.1794279673       -8.1528668931       -1.2589519322
  C        -2.2183177708       -8.1629564878       -2.6763668174
  C        -3.4397271735       -8.1894204516       -3.5428374949
  C        -4.1975476864       -9.3588524708       -3.7190578198
  C        -5.0549258150       -9.5001385937       -4.8152766324
  C        -5.1907613799       -8.4554173267       -5.7429843962
  C        -4.5554159330       -7.2301137150       -5.4962531512
  C        -3.6773739368       -7.1129891456       -4.4191490035
  C        -1.0230736426       -8.1701146757       -3.3798722474
  C         0.2242755548       -8.1821235802       -2.7212892336
  C         1.4231752554       -8.2235692926       -3.4746650193
  C         2.6628302247       -8.2182000537       -2.8528720284
  C         3.9257837447       -8.2734718369       -3.6259367482
  C         4.0271496436       -9.0535111110       -4.7946961880
  C         5.2094937612       -9.1142529357       -5.5238156628
  C         6.3447702627       -8.4209264441       -5.0795979302
  C         6.2665696365       -7.6401543514       -3.9164512673
  C         5.0677669025       -7.5637408224       -3.2103529749
  C         2.6942347802       -8.1580689168       -1.4415730644
  C         1.5446074686       -8.1271512248       -0.6570793086
  C         1.6140943784       -8.0328003571        0.8035726035
  C         2.8275794364       -8.0644390108        1.4908902758
  C         0.3972520055       -7.9113463775        1.5436670381
  C         0.2608846881       -8.1487185337       -1.2881932722
  C         4.6654601475       -6.9658359612        4.4636235093
  C         5.8369107664       -7.1241071369        5.1962329045
  H         6.7093492149      -10.2497805320        4.1262189794
  H         4.6483184105       -9.9464171026        2.8159345711
  H         1.7873746506       -7.4713150705        4.6740611691
  H        -0.5833586492       -7.4949677526        4.7995603983
  H        -4.7311467994       -7.5382386003        3.0361905361
  H        -6.3633971022       -7.8865706258        4.8516691370
  H        -3.1883595470       -9.2712791966        7.4254327779
  H        -1.6245074324       -9.0973295843        5.5912660557
  H        -2.9955866173       -8.3670655869        1.3466117316
  H        -3.1272767642       -8.1285154263       -0.7210200796
  H        -4.0495574627      -10.2061120713       -3.0479246178
  H        -5.5828941037      -10.4410579027       -4.9760507511
  H        -4.6639176374       -6.4127530300       -6.2098116002
  H        -3.1132747934       -6.1882164359       -4.2898621881
  H        -1.0399201481       -8.1954950505       -4.4705402526
  H         1.3499645730       -8.2331183437       -4.5633490837
  H         3.1745957428       -9.6518824124       -5.1165886931
  H         5.2778860828       -9.7433610744       -6.4097123524
  H         7.1299462553       -7.0537904715       -3.6014259680
  H         5.0128377358       -6.9186871996       -2.3327383778
  H         3.6700340204       -8.1561901589       -0.9603775023
  H         3.7557679802       -8.2369566953        0.9488670144
  H         4.0896143039       -6.0454378668        4.5658676242
  H         6.1794048587       -6.3291966028        5.8554087269
 Zn         8.4135114909        7.9661558550        8.2972548450
  C        11.3241592154        6.4112760455       12.1041241638
  C        10.0757094339        5.8693140929       11.7881036128
  C         9.4107129408        6.3168342561       10.6409718464
  H         9.6191055206        5.1087025903       12.4224369641
  N         9.9267691124        7.2678817715        9.8202747633
  C         8.1292925685        5.7360504345       10.2510047348
  C        11.1316753089        7.7743103716       10.1294570992
  C        11.8642069204        7.3741191321       11.2536005140
  H        11.5267986463        8.5378508682        9.4611751861
  H        12.8377633499        7.8215756844       11.4534001968
  H        11.8635652017        6.0873223488       12.9946015324
  N         7.4980228252        6.1048025181        9.1828649978
  H         7.7411700455        4.9208843661       10.8757683126
  C         6.8702055900       11.6922103281       11.2364570970
  C         6.3636890647       11.4433085044        9.9584987548
  C         6.7787669243       10.2966178338        9.2719602204
  H         5.6550248424       12.1298097617        9.4939643313
  N         7.6682295912        9.4148293409        9.7977997739
  C         6.2193484425        9.9717794397        7.9629980273
  C         8.1385667983        9.6573766934       11.0327712733
  C         7.7650819267       10.7758887072       11.7863437156
  H         8.8489587012        8.9368839051       11.4343802414
  H         8.1811150821       10.9206007370       12.7833032131
  H         6.5710389295       12.5821029523       11.7907496396
  N         6.5560327490        8.9048358143        7.3118790454
  H         5.4385980566       10.6412118268        7.5784238787
  C        12.2501500641       10.9724006652        7.0489342158
  C        12.0110893050        9.7127398471        6.4934818902
  C        10.8402287799        9.0289457933        6.8396712724
  H        12.7228720852        9.2620972772        5.8006838705
  N         9.9219753553        9.5392124159        7.7012313058
  C        10.5257526689        7.7350800607        6.2428774544
  C        10.1574982433       10.7553914125        8.2192199389
  C        11.3017444078       11.5052745762        7.9203992175
  H         9.4089609842       11.1474116609        8.9064948425
  H        11.4397298111       12.4871277431        8.3730831568
  H        13.1573398492       11.5255590101        6.8045563530
  N         9.4417417063        7.0926344940        6.5406206106
  H        11.2113240145        7.3533326026        5.4754515164
 Zn         8.0133540838       -7.7968773319        7.9708205323
  C         6.0498120604      -12.1147307483        9.5251967077
  C         5.2936907745      -10.9523221379        9.3592094668
  C         5.9251286906       -9.7792650290        8.9307371218
  H         4.2242861641      -10.9469624624        9.5722928311
  N         7.2577058571       -9.7333666288        8.6647260421
  C         5.1749248892       -8.5315660734        8.8076004006
  C         7.9761817038      -10.8576524873        8.8267295706
  C         7.4164114604      -12.0654586278        9.2555072825
  H         9.0420377504      -10.7863649784        8.6124272719
  H         8.0501674513      -12.9434381921        9.3793289563
  H         5.5827367947      -13.0386534331        9.8668345583