     728
 i =      330, E =     -3436.4304504206
  C        -3.4896409434        6.0914351030        8.1655531604
  C        -2.6417842403        5.6014184192        9.1779017114
  C        -1.9832674713        4.3845938464        9.0149131794
  C        -2.1598619985        3.6117103582        7.8508226229
  C        -1.5288303550        2.2707207011        7.7213437305
  C        -2.3166036066        1.1490563946        7.5118644755
  C        -1.7518761852       -0.1505220404        7.4994219183
  C        -2.5859678529       -1.2920000142        7.4228897682
  C        -2.0658387906       -2.5724495013        7.5387346632
  C        -3.0195897436       -3.7208088315        7.5750401852
  C        -3.8492372367       -3.9954285385        6.4728086791
  C        -4.8561629150       -4.9571202938        6.5432294904
  C        -5.0981466647       -5.6270753033        7.7510270905
  C        -4.2493028568       -5.4030037337        8.8457372041
  C        -3.2086118944       -4.4736335918        8.7468102063
  C        -0.6656486382       -2.7288239514        7.6643379027
  C         0.2143956370       -1.6415038287        7.6703651809
  C         1.6812631457       -1.8045829587        7.7302539092
  C         2.3036576216       -3.0579716197        7.7283668461
  C         3.7112835732       -3.2105763091        7.7934637961
  C         4.4000789417       -4.5253863897        7.8186109040
  C         5.5008679469       -4.7070296846        8.6811057296
  C         6.2831560545       -5.8533287268        8.6274024857
  C         5.9681127024       -6.8832318557        7.7288631999
  C         4.8352527395       -6.7474992198        6.9082220045
  C         4.0682083627       -5.5819427723        6.9516779143
  C         4.4969492716       -2.0686135550        7.8228410262
  C         3.9254086557       -0.7789176068        7.7984141303
  C         4.7595927846        0.3594346314        7.7997334772
  C         4.2344905323        1.6431965204        7.7899190808
  C         5.1864005376        2.7817954198        7.8080322259
  C         6.3563713794        2.7149109254        7.0261309989
  C         7.3805652481        3.6426329719        7.1717246338
  C         7.2512416437        4.6882308179        8.0992540225
  C         6.0478816866        4.8362904736        8.8054555401
  C         5.0352898118        3.8853076774        8.6685650012
  C         2.8266015251        1.7912544866        7.7933824732
  C         1.9541959828        0.6978197809        7.7859561033
  C         0.4891727023        0.8551087832        7.7521146474
  C        -0.1296485963        2.1028406765        7.8437776069
  C        -0.3313345753       -0.3149982501        7.6286340508
  C         2.5007061367       -0.6272051961        7.7732201090
  C        -3.0077319225        4.1128409696        6.8474605604
  C        -3.6685273470        5.3290441077        7.0010924004
  H        -2.5416002156        6.1432477593       10.1193383923
  H        -1.3657215725        3.9983380795        9.8270088965
  H        -3.4000805451        1.2506077438        7.4271498754
  H        -3.6649728900       -1.1504327988        7.3397998730
  H        -3.7090917312       -3.4384399797        5.5451050445
  H        -5.4907396214       -5.1531379970        5.6812114220
  H        -4.4146434072       -5.9411822118        9.7803164811
  H        -2.5780419878       -4.2853139973        9.6169926992
  H        -0.2765190738       -3.7428954648        7.7509674600
  H         1.6969787717       -3.9627471810        7.7060807976
  H         5.7357513627       -3.9356382871        9.4150801431
  H         7.1175141751       -5.9816490522        9.3139927194
  H         4.5992021315       -7.5315117162        6.1883534303
  H         3.2299262940       -5.4683682727        6.2620093227
  H         5.5846927053       -2.1525308077        7.8352594546
  H         5.8393117198        0.2112165512        7.8468130013
  H         6.4668717880        1.9113997086        6.2974520481
  H         8.2789577672        3.5739048796        6.5575935265
  H         5.9490654973        5.6416839144        9.5326787226
  H         4.1477846960        3.9590418834        9.2986909961
  H         2.4236336275        2.8030736397        7.7649063561
  H         0.4720922505        2.9978548011        7.9971550444
  H        -3.1528987761        3.5392326086        5.9314285151
  H        -4.3101914565        5.7057022035        6.2066725732
  C         9.4296289466        4.5118771441       -6.5401994993
  C        10.4743785745        3.7145960464       -6.0337336187
  C        10.3206812187        3.0391554477       -4.8250634252
  C         9.1328473281        3.1475488623       -4.0760347802
  C         9.0226510699        2.5111267678       -2.7348581142
  C         8.7827249818        3.2911067782       -1.6136450185
  C         8.8141422992        2.7315498868       -0.3115511333
  C         8.7192245239        3.5675248982        0.8274060731
  C         8.8910443795        3.0625999692        2.1078894065
  C         8.9278107525        4.0343200615        3.2432032302
  C        10.1275191851        4.3017561698        3.9257116319
  C        10.2251288782        5.3731627514        4.8190190018
  C         9.1038958751        6.1766487808        5.0807477379
  C         7.8724861594        5.8496268999        4.4937783467
  C         7.7999771845        4.8122421044        3.5639533772
  C         9.0868326158        1.6704557186        2.2688279636
  C         9.1127093340        0.7844606850        1.1857532116
  C         9.2559232963       -0.6770389448        1.3530873608
  C         9.3031252271       -1.2968634483        2.6084464668
  C         9.4528831306       -2.6984729498        2.7619775757
  C         9.5312919110       -3.4001338011        4.0698299071
  C        10.4593762477       -4.4525191847        4.2159042472
  C        10.4622635675       -5.2693970137        5.3380453563
  C         9.5587863888       -5.0273595820        6.3817253320
  C         8.6674786646       -3.9475760844        6.2873674131
  C         8.6541718594       -3.1491745661        5.1385521377
  C         9.5224327526       -3.4809268046        1.6199356086
  C         9.4525861221       -2.9137978175        0.3311031699
  C         9.4957754863       -3.7513053799       -0.8026841703
  C         9.4135712113       -3.2398393398       -2.0893783151
  C         9.4560173189       -4.2000676711       -3.2204593010
  C         8.8300803738       -5.4545677531       -3.0773137946
  C         9.0061608576       -6.4658899545       -4.0130672509
  C         9.7916914503       -6.2399488934       -5.1540880100
  C        10.3323987355       -4.9631436507       -5.3705628724
  C        10.1791464660       -3.9659775036       -4.4058480585
  C         9.3161125592       -1.8346137744       -2.2422620364
  C         9.2848665784       -0.9578996855       -1.1518476277
  C         9.1666763881        0.5023069841       -1.3128754333
  C         9.2140021926        1.1201735873       -2.5638179502
  C         9.0180365149        1.3201430242       -0.1430481425
  C         9.3322885534       -1.4953169189        0.1762819384
  C         8.0941340415        3.9389742612       -4.5972072432
  C         8.2384669724        4.6174816439       -5.8055487580
  H        11.4315085595        3.6695618102       -6.5549738842
  H        11.1561849049        2.4632779482       -4.4247997727
  H         8.6463761741        4.3692484498       -1.7170144976
  H         8.5826647455        4.6406622266        0.6820324077
  H        11.0167054294        3.7089680912        3.7056334486
  H        11.1784951137        5.5984774542        5.2993590626
  H         6.9912348373        6.4465711080        4.7227226470
  H         6.8507547085        4.6101562362        3.0654401291
  H         9.2185713584        1.2919296201        3.2821510506
  H         9.2508922062       -0.6904908086        3.5123624035
  H        11.1959449504       -4.6266929305        3.4313802409
  H        11.1852732752       -6.0784710834        5.4303675422
  H         7.9434607278       -3.7780502791        7.0849662786
  H         7.9134854343       -2.3522728396        5.0533918135
  H         9.5968790160       -4.5657770098        1.7045987276
  H         9.6270813710       -4.8222984332       -0.6451742868
  H         8.1990388462       -5.6418808729       -2.2084944392
  H         8.5130655638       -7.4281621112       -3.8803287264
  H        10.9401008562       -4.7812536790       -6.2559101975
  H        10.6856948952       -3.0106475545       -4.5482506241
  H         9.2279933971       -1.4385845080       -3.2533275057
  H         9.3915259233        0.5231030015       -3.4574611036
  H         7.1590014686        4.0295731915       -4.0435089475
  H         7.4194859557        5.2194970791       -6.1959914197
  C        -3.5935983700        7.9663267112       -6.6004506520
  C        -2.4802354823        7.1123496964       -6.5482119218
  C        -1.6802128902        7.0709397319       -5.4003080082
  C        -1.9658223522        7.8808848785       -4.2883134254
  C        -1.2748497094        7.7704870853       -2.9747838467
  C        -2.0859479621        7.6843573193       -1.8544136934
  C        -1.5472952893        7.6546222221       -0.5520080063
  C        -2.4172135672        7.6136515143        0.5573872422
  C        -1.9391544442        7.6428378678        1.8588315023
  C        -2.9289947574        7.6669157990        2.9646060788
  C        -2.7714634407        8.4647301478        4.1146174794
  C        -3.8012667767        8.6071179717        5.0459582200
  C        -5.0373471937        7.9808182789        4.8268026203
  C        -5.1853028900        7.1234961311        3.7257602614
  C        -4.1386751944        6.9575778167        2.8268477468
  C        -0.5369607210        7.7114761435        2.0486346958
  C         0.3705062009        7.7434814024        0.9845413119
  C         1.8279342025        7.8284675926        1.1891655844
  C         2.4027707080        7.8952924149        2.4612766608
  C         3.7991756354        8.0109509158        2.6675535628
  C         4.4043746724        8.1013213661        4.0192336756
  C         5.5080546448        8.9518413312        4.2383620867
  C         6.1652864159        8.9868911606        5.4621481712
  C         5.7038675097        8.2011700490        6.5286510015
  C         4.5877308900        7.3707188901        6.3425101015
  C         3.9548000352        7.3200919338        5.0991822697
  C         4.6242533466        8.0379010381        1.5541654179
  C         4.0979243802        7.9553768199        0.2457115118
  C         4.9740209512        7.9623404185       -0.8587636405
  C         4.5081487149        7.8681571371       -2.1624090090
  C         5.5222156247        7.8471232267       -3.2493430126
  C         6.7405325303        7.1751240644       -3.0218312133
  C         7.7968449447        7.2530129207       -3.9187124272
  C         7.6603619919        7.9774373866       -5.1137011949
  C         6.4314611542        8.5946429426       -5.3942306102
  C         5.3863874165        8.5419340052       -4.4667673760
  C         3.1053231972        7.8065716654       -2.3669620136
  C         2.1862443146        7.8095394120       -1.3096796959
  C         0.7221282891        7.7560402251       -1.5167888958
  C         0.1309231887        7.7849135284       -2.7876224550
  C        -0.1289572702        7.7103664546       -0.3601258153
  C         2.6829044345        7.8611733791        0.0376157294
  C        -3.0547609973        8.7725940115       -4.3882314011
  C        -3.8698461255        8.8038689654       -5.5110214439
  H        -2.2841990429        6.4347446634       -7.3800852255
  H        -0.8556469794        6.3577084701       -5.3518166651
  H        -3.1697131652        7.6361583269       -1.9691763186
  H        -3.4905797351        7.6210594422        0.3656435788
  H        -1.8543987649        9.0389989623        4.2513321549
  H        -3.6798121122        9.2710460093        5.9010301424
  H        -6.1137347386        6.5684793138        3.5965190503
  H        -4.2658940179        6.2713546152        1.9893761627
  H        -0.1651604361        7.7304232581        3.0722468231
  H         1.7617870846        7.8979722378        3.3417923788
  H         5.8458691218        9.6089861468        3.4370630036
  H         7.0149278703        9.6512204048        5.6145075775
  H         4.2585754973        6.7206901920        7.1537299715
  H         3.1223753583        6.6298713029        4.9548254943
  H         5.7073013986        8.0945644558        1.6730385574
  H         6.0409976279        8.0772555362       -0.6658814918
  H         6.8592622844        6.5764513506       -2.1184834138
  H         8.7249438192        6.7174520342       -3.7207069679
  H         6.3244010409        9.1849666150       -6.3039678139
  H         4.4727403719        9.1035484723       -4.6673306951
  H         2.7433389672        7.7324501502       -3.3923378005
  H         0.7597648488        7.8722357154       -3.6734234500
  H        -3.2596217681        9.4551880233       -3.5633411449
  H        -4.7060372027        9.4989567801       -5.5673195835
  C        -6.8291042017        6.3206225523       -4.5494017382
  C        -7.8230212166        5.9562432913       -3.6205520748
  C        -7.6789640685        4.8039765323       -2.8479937911
  C        -6.5486872475        3.9761952075       -2.9841774102
  C        -6.4802264314        2.6359153308       -2.3420047074
  C        -6.2623936150        1.5424900446       -3.1659648224
  C        -6.3095306905        0.2220078125       -2.6660033404
  C        -6.2228836907       -0.8714465222       -3.5562863401
  C        -6.3659637551       -2.1792941192       -3.1146967964
  C        -6.4005960607       -3.2706574054       -4.1202519776
  C        -7.3286396115       -4.3275478891       -4.0409827709
  C        -7.4831688276       -5.2350660177       -5.0896081596
  C        -6.7299627968       -5.0863185883       -6.2637764456
  C        -5.7424259445       -4.0903624805       -6.3250730321
  C        -5.5765841961       -3.2099800194       -5.2614807680
  C        -6.5531068597       -2.3982556984       -1.7283848922
  C        -6.6080005496       -1.3567973562       -0.7984114523
  C        -6.7780160955       -1.5951515766        0.6464062608
  C        -6.8297816864       -2.8801578735        1.1911410718
  C        -7.0086526625       -3.1209626027        2.5752227226
  C        -7.0551787977       -4.4926050721        3.1398641137
  C        -7.9361974187       -4.7954204200        4.1985068342
  C        -7.9273675537       -6.0416355365        4.8153242705
  C        -7.0619900577       -7.0451102092        4.3553789497
  C        -6.1988615958       -6.7761979936        3.2825527248
  C        -6.1949820204       -5.5115318562        2.6918190177
  C        -7.1197822300       -2.0279610804        3.4212684653
  C        -7.0410738230       -0.7051152455        2.9283076116
  C        -7.0930054501        0.3827969761        3.8254951589
  C        -6.9675121534        1.6947183031        3.3897505775
  C        -6.9508572518        2.7720957529        4.4132450404
  C        -6.3087354777        2.5298648480        5.6442500666
  C        -6.3566649002        3.4463081680        6.6860954759
  C        -7.0263759078        4.6700551384        6.5242732748
  C        -7.6263484325        4.9542683661        5.2877238901
  C        -7.5994363261        4.0121165240        4.2558858350
  C        -6.8425572892        1.9273927613        1.9959752329
  C        -6.8100024880        0.8896757860        1.0572178583
  C        -6.6656672866        1.1284746467       -0.3946027349
  C        -6.6862658848        2.4095570574       -0.9581302187
  C        -6.5165866011       -0.0038177130       -1.2650615296
  C        -6.8789713611       -0.4659665719        1.5238761157
  C        -5.5422351945        4.3780815530       -3.8844755915
  C        -5.6807430487        5.5212954694       -4.6647091263
  H        -8.7456304752        6.5343205709       -3.5522947197
  H        -8.4907414853        4.5022953501       -2.1845160963
  H        -6.1253197325        1.6881029234       -4.2387512738
  H        -6.1201305999       -0.6619235330       -4.6219458165
  H        -7.9954345150       -4.3958018636       -3.1803423926
  H        -8.2563357445       -6.0017509251       -5.0417009013
  H        -5.0979112904       -4.0233644739       -7.2020775560
  H        -4.7974987472       -2.4493417654       -5.3209675302
  H        -6.6545492374       -3.4281433914       -1.3886456898
  H        -6.7561502949       -3.7463149876        0.5350255349
  H        -8.6505371551       -4.0436439540        4.5345504485
  H        -8.6141305868       -6.2581466082        5.6328577181
  H        -5.4887260546       -7.5376276919        2.9587991492
  H        -5.4790992788       -5.3005918199        1.8961675736
  H        -7.2270208658       -2.1740084029        4.4972290136
  H        -7.2506851329        0.1704081552        4.8834330357
  H        -5.7498767413        1.6039657728        5.7818021266
  H        -5.8349035952        3.2408883606        7.6206788690
  H        -8.1777625338        5.8856682824        5.1628289231
  H        -8.1404186513        4.2235183583        3.3323508230
  H        -6.7307424334        2.9583504602        1.6605736699
  H        -6.8549810702        3.2780564731       -0.3218141913
  H        -4.6428414304        3.7696227658       -3.9870032970
  H        -4.8946185232        5.8092343262       -5.3615400971
  C         7.8405432327       -4.6183408648       -8.4842376381
  C         7.3323132632       -3.7702700913       -9.4873854577
  C         6.1006320292       -3.1418830182       -9.3190405498
  C         5.3295202192       -3.3502750368       -8.1588928084
  C         3.9684174349       -2.7627700361       -8.0356999748
  C         2.8739457063       -3.5889427561       -7.8286790669
  C         1.5540127500       -3.0735008507       -7.8416307256
  C         0.4436422764       -3.9500553926       -7.7803006632
  C        -0.8525264788       -3.4810409874       -7.9341385567
  C        -1.9625452616       -4.4761618989       -8.0010617390
  C        -2.6989020567       -4.6653840168       -9.1834497039
  C        -3.5916155304       -5.7342693888       -9.3131549770
  C        -3.7962274109       -6.6132274329       -8.2387375994
  C        -3.1436487968       -6.3761288420       -7.0204414810
  C        -2.2171886870       -5.3392432494       -6.9196975817
  C        -1.0591579576       -2.0888576765       -8.0762752481
  C        -0.0068298136       -1.1678431819       -8.0625632293
  C        -0.2252647755        0.2905704626       -8.1412164883
  C        -1.5012074795        0.8662888940       -8.1358377527
  C        -1.7066825841        2.2656917619       -8.2316954391
  C        -3.0419306427        2.9137792456       -8.2299770706
  C        -3.2738581620        4.0089273449       -9.0878488656
  C        -4.4324339154        4.7686773291       -8.9974126580
  C        -5.4272306422        4.4328510645       -8.0672773275
  C        -5.2463648680        3.3000952064       -7.2559113388
  C        -4.0661212663        2.5580033942       -7.3343596064
  C        -0.5942459920        3.0895235768       -8.3062989006
  C         0.7151362728        2.5668738151       -8.2744354749
  C         1.8191665732        3.4438793105       -8.2966335059
  C         3.1226712865        2.9739789695       -8.2332485887
  C         4.2193786859        3.9737313304       -8.2375427113
  C         4.0360230357        5.1910292809       -7.5525108234
  C         4.9338634515        6.2422723167       -7.6860335156
  C         6.0749090902        6.0931288496       -8.4887425049
  C         6.3331679920        4.8521838834       -9.0907025311
  C         5.4059400330        3.8148936590       -8.9782198925
  C         3.3254301810        1.5728832178       -8.1844401958
  C         2.2667821696        0.6579198679       -8.1800029756
  C         2.4791732156       -0.7992797432       -8.1105274882
  C         3.7503792396       -1.3721551979       -8.1779811012
  C         1.3387702411       -1.6616382845       -7.9908779333
  C         0.9210737891        1.1514214706       -8.2025304262
  C         5.8509085894       -4.1943134937       -7.1623112025
  C         7.0826787107       -4.8247997580       -7.3210459357
  H         7.8716848567       -3.6480099158      -10.4274977535
  H         5.7009873510       -2.5254132109      -10.1253834412
  H         3.0144871430       -4.6670834626       -7.7320725124
  H         0.6247404152       -5.0222878016       -7.6856854863
  H        -2.5243638987       -4.0101090022      -10.0382690842
  H        -4.1161798913       -5.8972120202      -10.2558534482
  H        -3.3259685634       -7.0355165353       -6.1740174037
  H        -1.6735080469       -5.2002852676       -5.9839128836
  H        -2.0844031540       -1.7396724582       -8.1963070922
  H        -2.3820746170        0.2272214703       -8.0817378773
  H        -2.5313669068        4.2591710327       -9.8460614613
  H        -4.5982563698        5.6003965149       -9.6791874040
  H        -6.0055774012        3.0452130248       -6.5163337281
  H        -3.9153241224        1.7216925518       -6.6496272858
  H        -0.7162625739        4.1727556537       -8.3476251967
  H         1.6263173989        4.5130618582       -8.3912023126
  H         3.1658250970        5.3172428000       -6.9082528668
  H         4.7723029665        7.1748263787       -7.1469487820
  H         7.2201134972        4.7308972522       -9.7112284865
  H         5.5778942980        2.8895972269       -9.5293799685
  H         4.3502638284        1.2105794672       -8.1114706388
  H         4.6234189491       -0.7392123940       -8.3321560619
  H         5.2799812162       -4.3622430983       -6.2485255964
  H         7.4742486558       -5.4659106273       -6.5329750983
  C         7.9678673560       -8.2402341526        4.2697736875
  C         7.6455339665       -9.2285666574        3.3195343063
  C         6.5086861157       -9.0973506192        2.5220614016
  C         5.6542519967       -7.9869069713        2.6549096440
  C         4.3248058665       -7.9398631436        1.9878706049
  C         3.2115663399       -7.7728102665        2.7968875462
  C         1.9017905906       -7.8446532181        2.2724596863
  C         0.7912661645       -7.8077167849        3.1448283675
  C        -0.5044288401       -7.9762088543        2.6772618841
  C        -1.6121594021       -8.0615917848        3.6619028998
  C        -2.6428361100       -9.0143783016        3.5423105095
  C        -3.5660810062       -9.2147809931        4.5691823352
  C        -3.4589750658       -8.4845140260        5.7620768653
  C        -2.4895593726       -7.4741968204        5.8646019950
  C        -1.5940333187       -7.2621891185        4.8220336627
  C        -0.6940055375       -8.1396562797        1.2836528321
  C         0.3645258104       -8.1464126234        0.3714382991
  C         0.1563007697       -8.2943948069       -1.0803912441
  C        -1.1169361017       -8.3787396966       -1.6481775684
  C        -1.3285225632       -8.5347968832       -3.0396706427
  C        -2.6878275317       -8.6122075508       -3.6298000127
  C        -2.9442839662       -9.4793247586       -4.7118359950
  C        -4.1785685706       -9.4941073562       -5.3520604559
  C        -5.2156058283       -8.6681063467       -4.8939693444
  C        -4.9926871312       -7.8208024453       -3.7981054505
  C        -3.7400743228       -7.7922923138       -3.1832222108
  C        -0.2186521592       -8.5891868758       -3.8689101962
  C         1.0920702222       -8.4743449617       -3.3516256943
  C         2.1949661421       -8.4639600056       -4.2314461336
  C         3.4942897544       -8.2985963870       -3.7719385439
  C         4.5817379328       -8.2174884120       -4.7822027901
  C         4.3269122791       -7.5526971599       -5.9987545710
  C         5.2463971311       -7.5542945161       -7.0386966196
  C         6.4857836384       -8.1978049557       -6.8889308244
  C         6.7853515937       -8.8112995813       -5.6627097703
  C         5.8402829739       -8.8312349797       -4.6329846408
  C         3.7006949392       -8.2009199271       -2.3716951642
  C         2.6475884853       -8.2318291811       -1.4496248847
  C         2.8572695635       -8.1189429719        0.0096409675
  C         4.1285974707       -8.1176190270        0.5954300897
  C         1.7062299206       -8.0254019750        0.8633906073
  C         1.3026998137       -8.3368521967       -1.9402661449
  C         6.0151218155       -6.9841195217        3.5762532109
  C         7.1434765727       -7.1093157514        4.3801052969
  H         8.2432271966      -10.1386634388        3.2528304859
  H         6.2394385299       -9.9059053248        1.8408358393
  H         3.3349321376       -7.6575591596        3.8749666632
  H         0.9796208146       -7.7229117303        4.2160490443
  H        -2.6770294943       -9.6638848092        2.6666753083
  H        -4.3117586267      -10.0057450329        4.4897058553
  H        -2.4552074577       -6.8485121953        6.7570924488
  H        -0.8549098016       -6.4655900157        4.9132552749
  H        -1.7147629718       -8.2613778333        0.9235254815
  H        -1.9958639365       -8.3501116024       -1.0057034344
  H        -2.1648592066      -10.1632294076       -5.0482096040
  H        -4.3594708909      -10.1694121499       -6.1876738886
  H        -5.7809196479       -7.1405244012       -3.4743215743
  H        -3.5649463117       -7.0875173480       -2.3691466075
  H        -0.3427412267       -8.6773877570       -4.9493290868
  H         2.0050197158       -8.6038394660       -5.2961132513
  H         3.3865291297       -7.0163192946       -6.1269955796
  H         5.0292988396       -7.0186244471       -7.9626854359
  H         7.7310398612       -9.3398803476       -5.5466640649
  H         6.0642927294       -9.3849875713       -3.7200087038
  H         4.7211299982       -8.0581877115       -2.0164345078
  H         5.0123372755       -8.2458368109       -0.0292241463
  H         5.3853218177       -6.0994215871        3.6770549527
  H         7.4002199141       -6.3259863428        5.0921372202
 Zn         8.5283571611        7.7476305515        8.0916087554
  C        12.9785265608        5.9945845554        9.6192944385
  C        11.8722441410        5.1921192411        9.3295313174
  C        10.6799962155        5.7989362034        8.9184469677
  H        11.9257543112        4.1078567452        9.4324265402
  N        10.5617518404        7.1444547974        8.7798106863
  C         9.4845556407        5.0058434197        8.6504083060
  C        11.6309512428        7.9073172604        9.0605060986
  C        12.8544433984        7.3768475116        9.4853020779
  H        11.5045090258        8.9841790514        8.9459216000
  H        13.6876110053        8.0435686412        9.7074671870
  H        13.9176150383        5.5500951647        9.9499429479
  N         8.3468709608        5.5568753346        8.3652331655
  H         9.5735815629        3.9154570719        8.7374148996
  C         6.6218870856        9.0806921587       12.4877103455
  C         5.8732600208        8.9932819517       11.3103038765
  C         6.5093763523        8.6058778328       10.1269951840
  H         4.8102086811        9.2362609513       11.3046376217
  N         7.8356270338        8.3069494406       10.0838953076
  C         5.7877786922        8.5385710586        8.8562184246
  C         8.5450974586        8.3863260888       11.2206105870
  C         7.9799744242        8.7706574505       12.4422735334
  H         9.6036429156        8.1361537705       11.1493498283
  H         8.6031084004        8.8275636786       13.3346476442
  H         6.1541311251        9.3910334364       13.4222747424
  N         6.4101960934        8.2506762291        7.7600897767
  H         4.7168428481        8.7799499223        8.8580894312
  C        10.9362859860       11.7797734231        6.5723171156
  C        10.8951733668       10.5909678734        5.8374893758
  C        10.1049150304        9.5323756103        6.2966032093
  H        11.4697749907       10.4840680515        4.9166114050
  N         9.3823117043        9.6203008830        7.4454661829
  C         9.9925590633        8.2858515577        5.5346501654
  C         9.4188831447       10.7690791403        8.1409609066
  C        10.1788217926       11.8734830478        7.7392234899
  H         8.8274287492       10.7993499120        9.0570347312
  H        10.1783918169       12.7819761678        8.3413593249
  H        11.5489720803       12.6179241229        6.2384975876
  N         9.1901986896        7.3418587676        5.9032941087
  H        10.5829111056        8.2078070990        4.6113115324
 Zn         9.0938955415       -8.1061361071        7.4236647003
  C         7.4231579029      -12.7870909072        7.9070355497
  C         6.5813867913      -11.6742764820        7.8400793358
  C         7.1431851881      -10.3993270894        7.7125216230
  H         5.4986987469      -11.7886983538        7.9012191497
  N         8.4868577557      -10.2057275786        7.6432056403
  C         6.3027519766       -9.2042480271        7.7130875048
  C         9.2879315573      -11.2822982148        7.7068799153
  C         8.8010702763      -12.5869505088        7.8416435513
  H        10.3599466552      -11.0927886171        7.6566651685
  H         9.4980330080      -13.4227518258        7.9007983124
  H         7.0114958977      -13.7905348007        8.0177830588