     728
 i =      259, E =     -3436.4452739271
  C        -4.3447809039        6.6164346959        8.4628769986
  C        -3.4273623823        6.1806484256        9.4392848457
  C        -2.7454810849        4.9757410953        9.2776172469
  C        -2.9681972884        4.1623214848        8.1506746917
  C        -2.3768681634        2.8018351696        8.0388364282
  C        -3.2315792350        1.7181462354        7.9131567581
  C        -2.7371620702        0.3936760501        7.8685911468
  C        -3.6356634244       -0.6954864861        7.8187761976
  C        -3.1869305193       -2.0090378904        7.8099455671
  C        -4.1890388311       -3.1061155482        7.8004905089
  C        -4.0461576923       -4.2671125515        8.5855384168
  C        -5.0622935255       -5.2196259558        8.6667984073
  C        -6.2721098089       -5.0180569264        7.9848610030
  C        -6.4073238370       -3.8972389213        7.1490601577
  C        -5.3752681675       -2.9694420103        7.0524876065
  C        -1.7884984470       -2.2376230684        7.8468749608
  C        -0.8532436894       -1.1990828219        7.8894822720
  C         0.6030674643       -1.4411165498        7.8994729410
  C         1.1532139122       -2.7272178914        7.9399793375
  C         2.5460315380       -2.9592761697        7.8492704100
  C         3.1645012757       -4.3130952266        7.8910568966
  C         3.0697917775       -5.1386368068        9.0263412375
  C         3.8231648375       -6.3079366488        9.1266350638
  C         4.6873744048       -6.6896928604        8.0817389844
  C         4.7603052592       -5.8888233679        6.9319190966
  C         3.9998930782       -4.7279367888        6.8377406729
  C         3.3943811144       -1.8704009201        7.7317026154
  C         2.8988969902       -0.5469886996        7.7495938140
  C         3.7958400488        0.5417000454        7.6991304535
  C         3.3500272574        1.8552876952        7.7435215141
  C         4.3619975762        2.9425375004        7.7139220559
  C         5.5154437327        2.7969687572        6.9166706315
  C         6.5674828733        3.7016088271        6.9856705467
  C         6.4923578165        4.8162640248        7.8378130273
  C         5.3173539218        5.0218213938        8.5778879913
  C         4.2776065835        4.0907313284        8.5252172868
  C         1.9543265764        2.0831516782        7.8438181615
  C         1.0198239812        1.0430712239        7.8918154065
  C        -0.4351274826        1.2824656840        7.9651256022
  C        -0.9820187933        2.5648954183        8.0716825410
  C        -1.3227449758        0.1566747597        7.9036042415
  C         1.4876887085       -0.3126628375        7.8441820087
  C        -3.8712910540        4.6191420438        7.1733950942
  C        -4.5566550395        5.8200314830        7.3270931489
  H        -3.2939572744        6.7490773779       10.3605086192
  H        -2.0815529876        4.6273280458       10.0700147961
  H        -4.3117052376        1.8743990442        7.8998377791
  H        -4.7055890291       -0.4832640014        7.8376955589
  H        -3.1488066919       -4.4003741986        9.1909129346
  H        -4.9503671296       -6.0862738049        9.3167104618
  H        -7.3102970854       -3.7801476050        6.5499566119
  H        -5.4901997999       -2.1199089666        6.3784013240
  H        -1.4441333921       -3.2706226606        7.8137691337
  H         0.5003816792       -3.5959062440        8.0170537177
  H         2.4552462564       -4.8249055758        9.8712397835
  H         3.7927546971       -6.8845549014       10.0520279526
  H         5.4111734288       -6.1854946033        6.1112783884
  H         4.0717026687       -4.1140468821        5.9393708849
  H         4.4732715677       -2.0236325651        7.6735904231
  H         4.8650287693        0.3271540161        7.6721069043
  H         5.5854980885        1.9559182758        6.2259691590
  H         7.4444630653        3.5724649230        6.3518205169
  H         5.2569973625        5.8680550239        9.2608044831
  H         3.4136126238        4.2257700534        9.1774517877
  H         1.6090344886        3.1164323163        7.8552048003
  H        -0.3257004234        3.4303298508        8.1565939648
  H        -4.0456891738        4.0156822444        6.2819752754
  H        -5.2491187016        6.1563683137        6.5576391993
  C         8.1856423124        6.7448897921        4.5442709254
  C         9.2375050150        6.3500686563        3.6945176497
  C         9.1129351148        5.2119413620        2.8970997926
  C         7.9451949141        4.4275734935        2.9314403960
  C         7.8818606473        3.0910890307        2.2698814260
  C         7.7694195156        1.9803153399        3.0894678179
  C         7.7923920616        0.6687814720        2.5618530337
  C         7.7723435550       -0.4377643469        3.4371372889
  C         7.8433079448       -1.7426804916        2.9691992625
  C         7.8576392232       -2.8383016716        3.9773625377
  C         8.7109662867       -3.9570083746        3.9001545296
  C         8.7969242260       -4.8836086374        4.9445786168
  C         8.0507123821       -4.7021855762        6.1206562193
  C         7.1687980949       -3.6107339095        6.1929930746
  C         7.0627277943       -2.7155917414        5.1353014838
  C         7.9269542792       -1.9413359150        1.5665684671
  C         7.9304844442       -0.8826458339        0.6487782974
  C         7.9908059408       -1.0895556776       -0.8149235929
  C         8.0506834593       -2.3608732722       -1.3984666133
  C         8.1160869365       -2.5607184695       -2.8016706818
  C         8.1846629111       -3.9018218978       -3.4412055140
  C         9.0166856949       -4.1013278127       -4.5634193355
  C         8.9960338475       -5.2896671465       -5.2863659648
  C         8.1661916903       -6.3491865746       -4.8866710315
  C         7.3782949580       -6.1893615542       -3.7329036518
  C         7.3838976438       -4.9825813840       -3.0299123041
  C         8.0915897692       -1.4425856376       -3.6216202681
  C         8.0087618488       -0.1361572443       -3.0911800220
  C         7.9480253045        0.9712602725       -3.9651433429
  C         7.8602674224        2.2729659558       -3.4915874549
  C         7.7885888720        3.3717156431       -4.4932082161
  C         7.0314289168        3.1830334655       -5.6674919676
  C         7.0951654340        4.0800567951       -6.7283259692
  C         7.9035359028        5.2254873172       -6.6377053574
  C         8.5721355758        5.4915240003       -5.4323285789
  C         8.5258469228        4.5672049234       -4.3852515963
  C         7.8673419721        2.4700399975       -2.0871135342
  C         7.9315572358        1.4097985103       -1.1738048075
  C         7.9238118349        1.6168498907        0.2886868304
  C         7.9664733339        2.8902854473        0.8708141265
  C         7.8749632204        0.4649751695        1.1449219226
  C         7.9784307763        0.0639681570       -1.6717107316
  C         6.8863959918        4.8562573760        3.7537876884
  C         7.0028389474        5.9892264750        4.5554434709
  H        10.1838730742        6.8925018330        3.7061245321
  H         9.9612276371        4.8891017219        2.2919087085
  H         7.7181979807        2.1057819133        4.1723433576
  H         7.7574497705       -0.2426049424        4.5102185248
  H         9.3675707828       -4.0738714790        3.0365724773
  H         9.5075763159       -5.7081800015        4.8840479708
  H         6.5428066471       -3.4920874529        7.0767671685
  H         6.3467871491       -1.8959496013        5.2081716658
  H         7.9747337247       -2.9672826318        1.2022957713
  H         8.0798679367       -3.2443155240       -0.7612818280
  H         9.7041242578       -3.3099779070       -4.8644235573
  H         9.6591595979       -5.4244642456       -6.1400575819
  H         6.7155965399       -6.9981348216       -3.4238662231
  H         6.7179421560       -4.8630304961       -2.1735904176
  H         8.1034255178       -1.5590397421       -4.7064258740
  H         8.0035250278        0.7838813452       -5.0383191767
  H         6.3848021954        2.3090521542       -5.7529592432
  H         6.4994077268        3.9151660311       -7.6260816698
  H         9.1947631758        6.3815072105       -5.3485435668
  H         9.1291652717        4.7494279573       -3.4949718995
  H         7.7862344935        3.4920736112       -1.7181670076
  H         8.0521446597        3.7726588392        0.2375198449
  H         5.9645808420        4.2742012384        3.7841154008
  H         6.1746887701        6.2990413167        5.1915692288
  C        -4.6527565278        8.5170690759       -6.4369924145
  C        -3.4953582925        7.7248083341       -6.3675975955
  C        -2.7725020466        7.6490449043       -5.1756892572
  C        -3.1784712017        8.3621870504       -4.0343973122
  C        -2.5020863931        8.2386115290       -2.7216076147
  C        -3.2854259354        8.1354245702       -1.5832901286
  C        -2.7078689602        8.0871725361       -0.2966700242
  C        -3.5403045586        8.0302785695        0.8397042452
  C        -3.0187462200        8.0502618003        2.1248651110
  C        -3.9796579324        8.0656590792        3.2552365938
  C        -3.8165830596        8.8866756428        4.3876034219
  C        -4.8327914172        9.0243251868        5.3341633250
  C        -6.0581935214        8.3675381627        5.1468781793
  C        -6.2079337339        7.4861045185        4.0655445999
  C        -5.1746558885        7.3269736151        3.1511802873
  C        -1.6117865605        8.1204772246        2.2750328863
  C        -0.7379860380        8.1598174173        1.1831885709
  C         0.7272089203        8.2477127049        1.3383421314
  C         1.3499155561        8.2763308478        2.5887170864
  C         2.7515024415        8.4123089653        2.7411614647
  C         3.4202031286        8.4628167016        4.0629133636
  C         4.5200004152        9.3259941376        4.2475416765
  C         5.2599302912        9.3147110071        5.4206820957
  C         4.8892206578        8.4675254664        6.4746265097
  C         3.7674534843        7.6361582950        6.3331469626
  C         3.0494824071        7.6327419391        5.1353044674
  C         3.5323841101        8.5065450364        1.5995717036
  C         2.9590144973        8.4718904293        0.3111194115
  C         3.7861965721        8.5830723798       -0.8285588911
  C         3.2590367599        8.5188538670       -2.1076826687
  C         4.2116782728        8.6483814041       -3.2436265450
  C         4.9930901966        9.8149389934       -3.3471092908
  C         6.0277864131        9.9085670662       -4.2711172518
  C         6.3198470435        8.8206486800       -5.1133712363
  C         5.4930879539        7.6861897328       -5.0790028059
  C         4.4537480844        7.6035665318       -4.1520386129
  C         1.8635855361        8.3543584123       -2.2602447617
  C         0.9934022434        8.2917041905       -1.1661925232
  C        -0.4703511754        8.2132814465       -1.3220325179
  C        -1.0945642246        8.2572542515       -2.5720460726
  C        -1.2844761875        8.1433102777       -0.1431546402
  C         1.5405401707        8.3327435921        0.1583466074
  C        -4.3189455512        9.1843741820       -4.1393327322
  C        -5.0581290255        9.2483152294       -5.3111874927
  H        -3.2028356786        7.1203736347       -7.2265446639
  H        -1.9064214894        6.9881657144       -5.1174383025
  H        -4.3719932982        8.0864904881       -1.6677614791
  H        -4.6197527383        8.0361771842        0.6860150450
  H        -2.9090424507        9.4816446281        4.4964378182
  H        -4.7105732719        9.7052619093        6.1755877844
  H        -7.1244219681        6.9061340834        3.9651196286
  H        -5.3009707727        6.6237209592        2.3279003188
  H        -1.2103704297        8.1374466578        3.2876400459
  H         0.7454831786        8.2302446046        3.4937619647
  H         4.7886663337       10.0278188826        3.4582257419
  H         6.1046380540        9.9895328439        5.5483903897
  H         3.5015064156        6.9473327245        7.1353770640
  H         2.2155202857        6.9394685874        5.0173211472
  H         4.6172348476        8.5836943207        1.6806471011
  H         4.8613171075        8.7049335658       -0.6876455539
  H         4.7807704273       10.6598575242       -2.6911410633
  H         6.5986943465       10.8343771258       -4.3504220469
  H         5.7102099296        6.8436643835       -5.7340107844
  H         3.8609279292        6.6893721681       -4.0933359121
  H         1.4661071635        8.3203933097       -3.2739280643
  H        -0.4926773692        8.3675367394       -3.4732354838
  H        -4.6179935270        9.7939796139       -3.2868197896
  H        -5.9314254759        9.8940236652       -5.3796299902
  C        -8.0496490426        6.7946513767       -4.5656550273
  C        -9.1322249003        6.3835909647       -3.7632199146
  C        -9.0408958482        5.2250029130       -2.9909577476
  C        -7.8759919233        4.4357686039       -3.0037216372
  C        -7.8402518986        3.0826094180       -2.3740790816
  C        -7.7046629213        1.9926190968       -3.2178943791
  C        -7.7426789011        0.6681354893       -2.7244568241
  C        -7.7001947094       -0.4160409569       -3.6269119437
  C        -7.7812705053       -1.7324623100       -3.1941249837
  C        -7.7787508913       -2.8062417430       -4.2249705250
  C        -8.6153682792       -3.9388479535       -4.1687586098
  C        -8.6843197193       -4.8494854513       -5.2280811940
  C        -7.9385045708       -4.6364193467       -6.3989030815
  C        -7.0739909494       -3.5302137074       -6.4519107883
  C        -6.9837309510       -2.6517452905       -5.3788547305
  C        -7.8932247405       -1.9658264298       -1.7990920579
  C        -7.9188374282       -0.9310886837       -0.8555496660
  C        -8.0057843839       -1.1768867998        0.6000740996
  C        -8.0300052901       -2.4641749923        1.1503045618
  C        -8.1305981456       -2.7020720883        2.5452600994
  C        -8.1465840778       -4.0578652954        3.1556865424
  C        -8.9944841306       -4.3199597606        4.2528149198
  C        -8.9233234717       -5.5146488412        4.9610288215
  C        -8.0241058525       -6.5187319956        4.5688698404
  C        -7.2206415505       -6.3010438747        3.4363284250
  C        -7.2771904540       -5.0860003830        2.7493582592
  C        -8.1872968139       -1.6050149511        3.3911072013
  C        -8.1321438409       -0.2840500413        2.8957167362
  C        -8.1265437751        0.7994412770        3.7999901662
  C        -8.0343503172        2.1137201090        3.3651226869
  C        -7.9642328480        3.1792025727        4.4024402040
  C        -7.1941571513        2.9446360433        5.5594933919
  C        -7.2057292368        3.8229774582        6.6362958297
  C        -7.9669580913        5.0021919753        6.5849494884
  C        -8.6909135499        5.2856182260        5.4152921735
  C        -8.6976768169        4.3802404866        4.3488667796
  C        -7.9968221843        2.3496469789        1.9670463100
  C        -8.0126099654        1.3137351489        1.0232252252
  C        -7.9483481132        1.5586714215       -0.4325657531
  C        -7.9729757400        2.8463323758       -0.9840948890
  C        -7.8628642218        0.4291278429       -1.3156909049
  C        -8.0536849419       -0.0455336615        1.4844561103
  C        -6.7875699610        4.8792163312       -3.7784508165
  C        -6.8709733779        6.0323327820       -4.5556421809
  H       -10.0749484543        6.9316787311       -3.7933744344
  H        -9.9116149078        4.8914553154       -2.4246704920
  H        -7.6218946691        2.1454561661       -4.2953386618
  H        -7.6616617253       -0.1927227487       -4.6938046862
  H        -9.2725457325       -4.0802785928       -3.3093457638
  H        -9.3818631493       -5.6860623047       -5.1827314124
  H        -6.4493546764       -3.3862670788       -7.3330177695
  H        -6.2802309451       -1.8203014886       -5.4366992143
  H        -7.9495589164       -3.0003229345       -1.4614480518
  H        -7.9985188745       -3.3314694666        0.4914941929
  H        -9.7326920740       -3.5731598428        4.5469862115
  H        -9.5981494008       -5.6984838229        5.7958900109
  H        -6.5084417991       -7.0684176617        3.1324493450
  H        -6.5986022628       -4.9170252433        1.9114625347
  H        -8.2335040269       -1.7479866493        4.4717670211
  H        -8.2149250916        0.5820360240        4.8652179433
  H        -6.5728904450        2.0499374393        5.6137766401
  H        -6.5983406162        3.6192788520        7.5179127951
  H        -9.3118843654        6.1805314217        5.3739027624
  H        -9.3333321973        4.5849311592        3.4859606815
  H        -7.9157599381        3.3825164566        1.6290387122
  H        -8.0836721994        3.7123581457       -0.3322725282
  H        -5.8682138031        4.2925248336       -3.7922705073
  H        -6.0209925456        6.3524427541       -5.1571167768
  C        -4.5367507252       -6.5328759075       -8.3729798264
  C        -3.6629204253       -6.1292072738       -9.4014919012
  C        -2.9153759779       -4.9593959709       -9.2720955296
  C        -3.0256524220       -4.1536317301       -8.1235619822
  C        -2.3990366045       -2.8065551054       -8.0470029670
  C        -3.2312870214       -1.7138860828       -7.8648623236
  C        -2.7230776684       -0.3948327621       -7.8629469952
  C        -3.6090791948        0.6999586751       -7.7727839972
  C        -3.1548767991        2.0107432083       -7.8180562309
  C        -4.1604573662        3.1038697232       -7.7777547081
  C        -4.0683707391        4.2584476435       -8.5794816243
  C        -5.1031918147        5.1952134260       -8.6277452562
  C        -6.2822201464        4.9879533858       -7.8948350939
  C        -6.3671594543        3.8652156388       -7.0547335170
  C        -5.3183654178        2.9566400702       -6.9871916721
  C        -1.7595490987        2.2289775078       -7.9461634353
  C        -0.8335361688        1.1831829504       -8.0253203060
  C         0.6214025704        1.4115290827       -8.1465124733
  C         1.1816991949        2.6913624098       -8.2094797888
  C         2.5762760371        2.9117751077       -8.3336931742
  C         3.1809566638        4.2649545779       -8.4240541352
  C         4.2518582875        4.4908084569       -9.3133290341
  C         4.9395979197        5.6985057684       -9.3300579205
  C         4.5505800998        6.7447554171       -8.4801512109
  C         3.4470841084        6.5597568526       -7.6312524567
  C         2.7804123289        5.3328312445       -7.6017139584
  C         3.4152971104        1.8080315767       -8.3603722267
  C         2.9081846369        0.4924418692       -8.2808857194
  C         3.7966069140       -0.6051959305       -8.2802391274
  C         3.3376618820       -1.9126541132       -8.2070574869
  C         4.3379079401       -3.0106164006       -8.1950117404
  C         5.5379232809       -2.8442250777       -7.4755939061
  C         6.5737423461       -3.7666166279       -7.5660771125
  C         6.4299776393       -4.9122871294       -8.3657421720
  C         5.2076343158       -5.1424858829       -9.0159954149
  C         4.1854528496       -4.1952187786       -8.9412758742
  C         1.9376405803       -2.1275634049       -8.1651302758
  C         1.0126588121       -1.0781783748       -8.1682892609
  C        -0.4439812004       -1.3049140594       -8.1146646777
  C        -1.0081847814       -2.5832078345       -8.1799760520
  C        -1.3130486881       -0.1696877921       -7.9938713827
  C         1.4937938929        0.2726743509       -8.1982330052
  C        -3.8740276811       -4.5882885923       -7.0886963995
  C        -4.6280828734       -5.7504072292       -7.2117781845
  H        -3.6189375900       -6.6900105190      -10.3360264877
  H        -2.2917133260       -4.6293597258      -10.1040024024
  H        -4.3096789701       -1.8579817813       -7.7797821594
  H        -4.6789146398        0.4925156666       -7.7264922221
  H        -3.2026125991        4.3944600178       -9.2292295834
  H        -5.0359465145        6.0471517450       -9.3030079137
  H        -7.2491837860        3.7323672623       -6.4287694498
  H        -5.3967815635        2.1098436097       -6.3044513483
  H        -1.4083015762        3.2600580993       -7.9697523521
  H         0.5321331644        3.5659444697       -8.1983910951
  H         4.5379435582        3.7067515247      -10.0151350555
  H         5.7542683496        5.8574154370      -10.0347292316
  H         3.1515683172        7.3610549503       -6.9533824302
  H         1.9627439285        5.1886765803       -6.8936945990
  H         4.4965489966        1.9424708323       -8.4182313720
  H         4.8650523687       -0.4053069886       -8.3723652767
  H         5.6586511238       -1.9742140082       -6.8293751897
  H         7.4867281320       -3.6257455510       -6.9883339793
  H         5.0889980649       -6.0283134289       -9.6381481982
  H         3.2758434872       -4.3525139293       -9.5221775778
  H         1.5848113314       -3.1558646549       -8.0938992756
  H        -0.3673334686       -3.4531960385       -8.3186734631
  H        -3.9575069335       -3.9916712197       -6.1797733091
  H        -5.2859003631       -6.0641723505       -6.4032577628
  C        -4.4477981129       -8.4048265395        6.4632148911
  C        -3.4947197333       -9.3831835960        6.1201680275
  C        -2.7572316718       -9.2638818419        4.9434702543
  C        -2.9592168975       -8.1777017578        4.0726630680
  C        -2.3491520145       -8.1267891885        2.7200030799
  C        -3.2033239817       -8.0225595666        1.6346009284
  C        -2.7111758157       -8.0169103353        0.3114208340
  C        -3.6121406657       -7.9724359103       -0.7726769852
  C        -3.1681552989       -7.9855417400       -2.0866565841
  C        -4.1852755269       -7.9682332275       -3.1657831870
  C        -4.0901639066       -8.7717116859       -4.3180874005
  C        -5.1404461707       -8.8507867271       -5.2326453295
  C        -6.3317592064       -8.1483654618       -4.9953054401
  C        -6.4166440974       -7.2919643218       -3.8868279756
  C        -5.3512663768       -7.1955548922       -3.0009313977
  C        -1.7728902199       -8.0456846688       -2.3221607635
  C        -0.8354139711       -8.0860700505       -1.2856087914
  C         0.6185032650       -8.1119041388       -1.5313041822
  C         1.1629172171       -8.1516958791       -2.8187233380
  C         2.5557346005       -8.0809405084       -3.0539260353
  C         3.1643749441       -8.1184590306       -4.4076054438
  C         2.9708663787       -9.2048637742       -5.2797274724
  C         3.7069570587       -9.3151428535       -6.4577111128
  C         4.6484799796       -8.3261265994       -6.8018723093
  C         4.8191313568       -7.2203973979       -5.9544014419
  C         4.0793738104       -7.1172832132       -4.7830158818
  C         3.4101114183       -7.9908057323       -1.9676365879
  C         2.9178997028       -8.0068168912       -0.6444631008
  C         3.8187754121       -7.9813795390        0.4401208927
  C         3.3748967171       -8.0186299173        1.7537089684
  C         4.3911595555       -8.0198712454        2.8333658496
  C         5.5589487096       -7.2474303350        2.6805014378
  C         6.6208552342       -7.3546087297        3.5688085215
  C         6.5311302290       -8.2217618055        4.6686079902
  C         5.3391528578       -8.9274574931        4.8926990023
  C         4.2922699131       -8.8375641769        3.9753259227
  C         1.9796985811       -8.0828910901        1.9883344383
  C         1.0421051441       -8.1044423726        0.9514402394
  C        -0.4118782237       -8.1347264634        1.1969236164
  C        -0.9562076656       -8.1933420348        2.4837654351
  C        -1.2996875142       -8.0769037337        0.0716655423
  C         1.5063289993       -8.0716674381       -0.4055040973
  C        -3.8850328630       -7.1864339240        4.4486322474
  C        -4.6276687497       -7.2997253145        5.6169577150
  H        -3.3803525241      -10.2777521751        6.7334751134
  H        -2.0705972897      -10.0622980814        4.6590514359
  H        -4.2828488610       -7.9914677375        1.7909447617
  H        -4.6810132977       -7.9739492373       -0.5557321378
  H        -3.2068983055       -9.3929197714       -4.4709754369
  H        -5.0703287940       -9.5137729703       -6.0938731913
  H        -7.3048367996       -6.6771802018       -3.7463718326
  H        -5.4237558493       -6.5072335223       -2.1587503441
  H        -1.4330166456       -8.0316656340       -3.3570109015
  H         0.5066591960       -8.2093197557       -3.6862414003
  H         2.2929861388      -10.0105030941       -4.9947445682
  H         3.6007539603      -10.2105460612       -7.0711108275
  H         5.5274421674       -6.4398645952       -6.2266118273
  H         4.2198087248       -6.2516681309       -4.1350751285
  H         4.4895645152       -7.9564394792       -2.1238592983
  H         4.8875873602       -7.9794529407        0.2229029896
  H         5.6346576278       -6.5489813605        1.8470500100
  H         7.5094798822       -6.7387181898        3.4378241431
  H         5.2655041874       -9.5999310508        5.7461769908
  H         3.4080092625       -9.4596381224        4.1182124614
  H         1.6400357671       -8.0878074229        3.0233294470
  H        -0.2996691995       -8.2613856481        3.3502782955
  H        -4.0311692699       -6.3199217398        3.8030023021
  H        -5.3443809525       -6.5266502106        5.8883372918
 Zn         7.8427261167        7.9832241026        7.6829606000
  C        12.3351326838        6.1485474502        8.7814339091
  C        11.1964715506        5.3536266506        8.6325752041
  C         9.9777646006        5.9589561639        8.3051740764
  H        11.2457791418        4.2742530939        8.7795429306
  N         9.8651180245        7.2999084620        8.1198456795
  C         8.7592817936        5.1643389044        8.1845515745
  C        10.9662458582        8.0568035668        8.2634588128
  C        12.2170877926        7.5249884500        8.5941053274
  H        10.8412396045        9.1290628236        8.1146752149
  H        13.0757336209        8.1869905756        8.7059178849
  H        13.2946463431        5.7032102691        9.0453181027
  N         7.5999981861        5.7012357673        7.9693658326
  H         8.8612492633        4.0800268902        8.3242648294
  C         6.3952324863        8.9888997546       12.3586942923
  C         5.5293561103        8.9678619800       11.2613418475
  C         6.0426693052        8.6623934969        9.9969074441
  H         4.4704112171        9.1999463319       11.3802313385
  N         7.3581027469        8.3807460868        9.7978281707
  C         5.1949150641        8.6683478540        8.8050948614
  C         8.1802925490        8.3971010459       10.8582199814
  C         7.7428042983        8.6975112045       12.1539190437
  H         9.2281113753        8.1669917762       10.6628260281
  H         8.4547304775        8.7063196846       12.9792288676
  H         6.0250911197        9.2350330287       13.3542231765
  N         5.7039841307        8.4520893259        7.6366483801
  H         4.1292084005        8.9004625456        8.9291265810
  C         9.7585346923       12.3528795074        6.3408387073
  C         9.6621646566       11.2623128357        5.4726642005
  C         9.0469983249       10.0860171727        5.9171827028
  H        10.0641763613       11.3184917727        4.4604363707
  N         8.5443348001        9.9708339376        7.1766619479
  C         8.9024170295        8.9300339223        5.0348794064
  C         8.6299127579       11.0288186512        8.0005688157
  C         9.2266179457       12.2369563576        7.6248471371
  H         8.2142831941       10.8974799926        9.0000954391
  H         9.2769250240       13.0626133050        8.3345202454
  H        10.2413294425       13.2766438313        6.0207259033
  N         8.2841550933        7.8585758771        5.4199024323
  H         9.3084613159        9.0261319056        4.0194816059
 Zn         7.7341529219       -7.9773710462        7.6766293632
  C         6.3751166874      -12.3519136388        9.5856049721
  C         5.5152255114      -11.2552890163        9.4843526636
  C         5.9799232698      -10.0744553214        8.8935589255
  H         4.4946763082      -11.3098949282        9.8647074852
  N         7.2505810254       -9.9589339050        8.4191257941
  C         5.1155258022       -8.9057895725        8.7559411341
  C         8.0659820002      -11.0229456843        8.5094797082
  C         7.6708932922      -12.2358928720        9.0838135616
  H         9.0749512220      -10.8939742405        8.1174200925
  H         8.3757387675      -13.0652359808        9.1405345455
  H         6.0400251350      -13.2797502257       10.0500660290