     728
 i =      277, E =     -3436.4128175653
  C         6.6698502831        4.3579601394        8.4577724107
  C         6.2879475318        3.3901207628        9.4072197750
  C         5.0983733793        2.6841254313        9.2508717766
  C         4.2462633022        2.9312473379        8.1576387455
  C         2.9087434395        2.2985560086        8.0657039080
  C         1.7998834297        3.1054788454        7.8668258551
  C         0.4923940148        2.5687406379        7.8782489020
  C        -0.6223064309        3.4300975565        7.8026459477
  C        -1.9213059623        2.9488250201        7.8870423503
  C        -3.0315241771        3.9317765137        7.9294017109
  C        -4.1523815454        3.7666759514        8.7661858688
  C        -5.0767079207        4.7953737624        8.9511862508
  C        -4.8720737346        6.0362840858        8.3315755108
  C        -3.8121836551        6.1897826836        7.4261266105
  C        -2.9236307976        5.1417326922        7.2165489623
  C        -2.1092743936        1.5505708128        8.0164089383
  C        -1.0438749689        0.6484144254        8.0803206874
  C        -1.2419039944       -0.8078433410        8.2213586340
  C        -2.5089226360       -1.3960346264        8.2440108952
  C        -2.7042829267       -2.7905913091        8.4042770924
  C        -4.0495600268       -3.4131835495        8.4437821445
  C        -4.2736885149       -4.5351326962        9.2681845339
  C        -5.4883895937       -5.2065773767        9.2657185424
  C        -6.5475513209       -4.7457626486        8.4700406527
  C        -6.3605358359       -3.6053724841        7.6734369835
  C        -5.1229266547       -2.9590941140        7.6559433543
  C        -1.5838686848       -3.5981347160        8.5324412196
  C        -0.2792343096       -3.0603706021        8.5115504211
  C         0.8376723033       -3.9144181738        8.6451113787
  C         2.1327335618       -3.4229638851        8.5819857495
  C         3.2514000171       -4.3896207707        8.6856937603
  C         3.2239862430       -5.3775637561        9.6907019719
  C         4.1528599537       -6.4083802125        9.7165868801
  C         5.1403440145       -6.4999363945        8.7153186691
  C         5.2465642336       -5.4542576448        7.7840673413
  C         4.3142089592       -4.4187181273        7.7657499567
  C         2.3204255682       -2.0330171026        8.3990036253
  C         1.2511901023       -1.1378897018        8.3114593170
  C         1.4479115034        0.3165820375        8.1850107869
  C         2.7127479852        0.9072206186        8.2311387639
  C         0.2966998414        1.1573007480        8.0359241513
  C        -0.0872015882       -1.6493862633        8.3469731685
  C         4.6488929575        3.8867872413        7.2056620500
  C         5.8341160612        4.5967553846        7.3549785001
  H         6.8846372124        3.2350869246       10.3067256157
  H         4.7893234460        1.9806046058       10.0250920794
  H         1.9201370660        4.1859091740        7.7711745829
  H        -0.4374794786        4.5035385301        7.7528198816
  H        -4.2667853111        2.8471639548        9.3413401297
  H        -5.9067569785        4.6708115409        9.6461439120
  H        -3.7016729182        7.1248544330        6.8780736622
  H        -2.1141833948        5.2734026632        6.4983191053
  H        -3.1318230482        1.1792591335        8.0695798558
  H        -3.3947213741       -0.7673399385        8.1648830327
  H        -3.4884513963       -4.8694134064        9.9461703275
  H        -5.6477822115       -6.0561691794        9.9270099723
  H        -7.1707852331       -3.2579805314        7.0317869171
  H        -4.9809911853       -2.1062205013        6.9907557384
  H        -1.6916965366       -4.6791245261        8.6291430253
  H         0.6659393127       -4.9850442761        8.7666508176
  H         2.4683625981       -5.3214670650       10.4747868159
  H         4.1244524356       -7.1276798932       10.5348952748
  H         6.0362052782       -5.4847436623        7.0381623719
  H         4.3781527103       -3.6553329897        6.9886133294
  H         3.3438156940       -1.6619854095        8.3594640340
  H         3.5953881967        0.2890080865        8.3898016750
  H         4.0208706370        4.0729663449        6.3337301633
  H         6.1324967378        5.3268881229        6.6050357505
  C         8.5276254863        6.0848709070       -5.6935043975
  C         9.6780692354        5.3091464175       -5.4701980098
  C         9.6101249263        4.1747143020       -4.6563543871
  C         8.4056878351        3.8098776032       -4.0307670482
  C         8.3842789113        2.9071802961       -2.8365193359
  C         8.3373024726        3.5783326556       -1.6272362304
  C         8.3120018951        2.8839824394       -0.4012104482
  C         8.2709619022        3.6119555353        0.8025041167
  C         8.2313627008        2.9802023067        2.0357703917
  C         8.1860018348        3.8734550705        3.2234878014
  C         9.0265802046        3.7374002812        4.3440483003
  C         9.1223411534        4.7500914792        5.3036043725
  C         8.4001992543        5.9410999281        5.1380953150
  C         7.4860461099        6.0505995453        4.0802423198
  C         7.3704769494        5.0207216134        3.1558669205
  C         8.2547332151        1.5632969081        2.0595953984
  C         8.2938407611        0.7904951253        0.8908503899
  C         8.2710820848       -0.6860129424        0.9073340151
  C         8.2767271448       -1.4189817449        2.0942214697
  C         8.2149148572       -2.8356214514        2.1334140709
  C         8.2480243795       -3.5649752938        3.4285722005
  C         8.7813303396       -4.8683280599        3.5243999024
  C         8.8433730236       -5.5499326716        4.7365998026
  C         8.4212627076       -4.9272711433        5.9222519827
  C         7.8590382964       -3.6399207943        5.8439088901
  C         7.7639575647       -2.9839217831        4.6186536315
  C         8.1416716613       -3.5149247502        0.9229083668
  C         8.1679360385       -2.8287033832       -0.3164350995
  C         8.1358796483       -3.5537574745       -1.5342410801
  C         8.2319969472       -2.9092347860       -2.7604723955
  C         8.2394875371       -3.6881035010       -4.0264188945
  C         7.3400215520       -4.7507617111       -4.2369260019
  C         7.3542085643       -5.4841611722       -5.4203217978
  C         8.2601909514       -5.1868049323       -6.4512803044
  C         9.1964181503       -4.1529290260       -6.2293167287
  C         9.1729131100       -3.4163555894       -5.0492519354
  C         8.3330613673       -1.4952219940       -2.7726339231
  C         8.3176201298       -0.7239975304       -1.6084033156
  C         8.3568216551        0.7525658206       -1.6330546409
  C         8.4011070759        1.4930371754       -2.8253322629
  C         8.3218617495        1.4536344125       -0.3819935652
  C         8.2471780951       -1.3939427843       -0.3407800873
  C         7.2437759225        4.5338620928       -4.3548699805
  C         7.2928777395        5.6435086317       -5.1956209443
  H        10.6322377992        5.6086949444       -5.9062497153
  H        10.5225958752        3.6167159934       -4.4417391202
  H         8.3318178919        4.6691205697       -1.6117434753
  H         8.3046849958        4.7001856469        0.7464815971
  H         9.6763869597        2.8652395765        4.4289049230
  H         9.8267035799        4.6562871294        6.1297277577
  H         6.8602745734        6.9383105758        3.9967506409
  H         6.6521698072        5.1183957406        2.3415105522
  H         8.2106333262        1.0720185091        3.0311760396
  H         8.3662820466       -0.8886602624        3.0404383556
  H         9.1981023728       -5.3457965877        2.6378601775
  H         9.2883157250       -6.5426090409        4.7851140868
  H         7.4690784422       -3.1660813953        6.7462057315
  H         7.2900558287       -2.0025779896        4.5871152424
  H         8.0564236309       -4.6021837377        0.9029867244
  H         8.0887496675       -4.6432762914       -1.4917851965
  H         6.6023202456       -4.9909956533       -3.4700631356
  H         6.6439395448       -6.2920382910       -5.5685566558
  H         9.9796060401       -3.9410539570       -6.9570612301
  H         9.9276981430       -2.6444108434       -4.8933624313
  H         8.3943897045       -1.0043803916       -3.7431367303
  H         8.4329612219        0.9766028110       -3.7840039297
  H         6.2945932142        4.2522003717       -3.8973895578
  H         6.3917374632        6.2189360953       -5.4009158688
  C        -6.0156778387        8.9018299200       -5.3828436541
  C        -5.5754777693       10.1082617211       -4.8092669742
  C        -4.4789383074       10.1107114484       -3.9523370470
  C        -3.7902033032        8.9205160945       -3.6515625531
  C        -2.9066532327        8.8723864360       -2.4501625952
  C        -3.5660962405        9.0385065908       -1.2446869963
  C        -2.8951775157        8.8682170050       -0.0170197929
  C        -3.6390100126        8.8567829954        1.1762831726
  C        -3.0517174812        8.5643672074        2.3973856308
  C        -4.0133468828        8.3985989581        3.5246161527
  C        -3.9729634267        9.0989445192        4.7435680670
  C        -5.0537415037        9.0610423439        5.6345829536
  C        -6.2129966700        8.3397829630        5.3092949056
  C        -6.2436194078        7.5949981858        4.1229834802
  C        -5.1524414096        7.6094022512        3.2650856923
  C        -1.6436462216        8.3971544445        2.4399390173
  C        -0.8470453978        8.4467464389        1.2849455422
  C         0.6243785704        8.2966501048        1.3089978276
  C         1.3532612678        8.2351687031        2.4988174496
  C         2.7679742208        8.1381951044        2.5301342006
  C         3.5094004787        8.1028872021        3.8197990728
  C         4.6999456414        8.8388852270        3.9921917108
  C         5.4256281698        8.7872447825        5.1809360209
  C         4.9674922886        8.0158786551        6.2617983891
  C         3.7712850976        7.2918348414        6.1115289320
  C         3.0633091606        7.3323770856        4.9099369406
  C         3.4531622885        8.0917043863        1.3227231196
  C         2.7719397518        8.1506082776        0.0809549880
  C         3.4970609737        8.1136820597       -1.1388277835
  C         2.8531513237        8.2003501348       -2.3669157935
  C         3.5946305763        8.2048040827       -3.6561081975
  C         4.8528592729        8.8278020416       -3.7896863753
  C         5.5073185885        8.8988130734       -5.0189522497
  C         4.8980234841        8.3802763784       -6.1724809524
  C         3.6709811102        7.7063800758       -6.0497063608
  C         3.0413912445        7.6153803454       -4.8106409423
  C         1.4416204127        8.3274205172       -2.3691896916
  C         0.6753661344        8.3561096238       -1.2053023214
  C        -0.7871606237        8.5363312200       -1.2359409983
  C        -1.5166449431        8.6167935477       -2.4311385729
  C        -1.4868204701        8.6241833337        0.0116385508
  C         1.3384539377        8.2599519364        0.0628596160
  C        -4.1573908509        7.7488049631       -4.3364650638
  C        -5.2547613161        7.7362494796       -5.1983009332
  H        -6.0967104356       11.0418816884       -5.0245984104
  H        -4.1724847132       11.0424321247       -3.4753176168
  H        -4.6394704901        9.2325680166       -1.2324756948
  H        -4.7094864177        9.0558596467        1.1204716583
  H        -3.1229168541        9.7444778541        4.9695635145
  H        -5.0311971105        9.6645338405        6.5420071714
  H        -7.1231250347        6.9976749872        3.8866300667
  H        -5.1916337899        7.0223942521        2.3471759051
  H        -1.1815470083        8.1888494354        3.4050227781
  H         0.8318140203        8.3175658262        3.4519381904
  H         5.0453522508        9.4909028283        3.1891053308
  H         6.3242729374        9.3919278370        5.3000818652
  H         3.4217549425        6.6643817876        6.9321796812
  H         2.1584917467        6.7312583215        4.8061665334
  H         4.5409371871        8.0002203253        1.3148152170
  H         4.5823211165        8.0075696669       -1.0920873396
  H         5.3060682096        9.3143111827       -2.9256064600
  H         6.4596271287        9.4212867867       -5.1051346124
  H         3.2304071797        7.2288792553       -6.9257890537
  H         2.1020880869        7.0663733962       -4.7360661889
  H         0.9506556487        8.4600279075       -3.3315438404
  H        -1.0073535003        8.5059928323       -3.3876181675
  H        -3.6313733455        6.8159161675       -4.1277319737
  H        -5.5786693920        6.8043879153       -5.6604113255
  C        -8.2775820400        4.6428503505        6.2040512316
  C        -9.3715020523        3.9373641528        5.6652679947
  C        -9.2584735534        3.2908820941        4.4369874402
  C        -8.0639630816        3.3385701332        3.6914329350
  C        -7.9789426995        2.6317001004        2.3801662744
  C        -7.7170879801        3.3058022402        1.1956401290
  C        -7.7709300636        2.6362033928       -0.0577616740
  C        -7.6477363434        3.3639557777       -1.2680101406
  C        -7.7898436385        2.7486843763       -2.5072455081
  C        -7.7807405609        3.5458738207       -3.7656243511
  C        -7.2717809772        3.0309418656       -4.9751436625
  C        -7.3477839988        3.7526315912       -6.1660166948
  C        -7.9278119800        5.0349886889       -6.1896108471
  C        -8.3690684996        5.5938627831       -4.9793122837
  C        -8.3150892248        4.8519037040       -3.8013522314
  C        -8.0065911198        1.3451213046       -2.5345501144
  C        -8.1044467938        0.5666946848       -1.3789426463
  C        -8.3727917029       -0.8882501008       -1.4192666800
  C        -8.3954386024       -1.6318943079       -2.6100627767
  C        -8.7263759126       -3.0085339933       -2.6338139464
  C        -8.7167217812       -3.9237910854       -3.8186120666
  C        -9.9231600463       -4.4922737031       -4.2691423989
  C        -9.9263435473       -5.6233454394       -5.0835890622
  C        -8.7111084156       -6.2178161086       -5.4684913279
  C        -7.5045901858       -5.5805277181       -5.1374718873
  C        -7.5120902070       -4.4526813374       -4.3145085925
  C        -9.0416641460       -3.6378599911       -1.4407984268
  C        -8.9470169909       -2.9612404367       -0.2079012050
  C        -9.1252457836       -3.6768349746        0.9953829535
  C        -8.8806277824       -3.0858922568        2.2241977474
  C        -8.9442107090       -3.9902599194        3.4065622171
  C       -10.1366648017       -4.6879361131        3.6786877489
  C       -10.1602810251       -5.7479975829        4.5788543774
  C        -8.9774313447       -6.1496908454        5.2263523641
  C        -7.8101704781       -5.3882206360        5.0520032628
  C        -7.7972145106       -4.3236491863        4.1494270231
  C        -8.5433542972       -1.7128424562        2.2589531156
  C        -8.4586639752       -0.9350369589        1.0972004847
  C        -8.2166797241        0.5170053112        1.1307376758
  C        -8.2348115193        1.2413201271        2.3231239366
  C        -8.0156724143        1.2202336792       -0.1021699571
  C        -8.6000273953       -1.5730154828       -0.1783999125
  C        -6.9874039308        4.0697854885        4.2259883793
  C        -7.0888258019        4.7147147502        5.4604681762
  H       -10.3287369151        3.9296886797        6.1882859218
  H       -10.1247505896        2.7696453438        4.0272802192
  H        -7.5434635595        4.3836311280        1.2060782833
  H        -7.4538762077        4.4361201682       -1.2071278325
  H        -6.7933806123        2.0507204098       -4.9840434341
  H        -6.9275899223        3.3380864988       -7.0833758654
  H        -8.8234613771        6.5836122966       -4.9824170129
  H        -8.7456205584        5.2793625399       -2.8957087507
  H        -8.1644317730        0.8758778133       -3.5048316003
  H        -8.1635231891       -1.1451870401       -3.5571503157
  H       -10.8723993492       -4.0702164114       -3.9366461540
  H       -10.8745948528       -6.0552707636       -5.4066525678
  H        -6.5600754761       -6.0201849457       -5.4552780873
  H        -6.5625918241       -4.0235553545       -3.9910956699
  H        -9.3049168158       -4.6964955479       -1.4385934524
  H        -9.3885030274       -4.7341797959        0.9414022959
  H       -11.0529381790       -4.4046745810        3.1594122157
  H       -11.0994834398       -6.2647547710        4.7800810642
  H        -6.8950262850       -5.6851099901        5.5634270959
  H        -6.8622474126       -3.7931777420        3.9621291474
  H        -8.3663336759       -1.2552100251        3.2317824904
  H        -8.4569037082        0.7325586246        3.2604021224
  H        -6.0458348591        4.1174406017        3.6767184143
  H        -6.2323248171        5.2482565309        5.8712332192
  C        -6.3256892499       -5.1293978810       -8.4803540147
  C        -6.5586858547       -3.9361914242       -7.7802443189
  C        -5.5338053454       -3.0158826175       -7.6142792572
  C        -4.2596536913       -3.2158361114       -8.1831758297
  C        -3.2794968350       -2.1020536426       -8.1714981125
  C        -3.7671205842       -0.8042810448       -8.2263106048
  C        -2.9073761459        0.3123836706       -8.2394620603
  C        -3.4521594831        1.6117029624       -8.3028297199
  C        -2.6436410383        2.7368629196       -8.3418473909
  C        -3.2877109351        4.0670526630       -8.4515243776
  C        -2.8165697063        5.2068870301       -7.7760635902
  C        -3.5038171181        6.4207682027       -7.8375163435
  C        -4.7002672057        6.5154738149       -8.5656765346
  C        -5.1716494916        5.3917113440       -9.2595665808
  C        -4.4618281870        4.2006203187       -9.2212823876
  C        -1.2398201075        2.5532590739       -8.2850834760
  C        -0.6458974508        1.2896265470       -8.2164455608
  C         0.8166242078        1.0997899687       -8.1770936992
  C         1.7151286157        2.1705692785       -8.1475129587
  C         3.1214709088        1.9936127886       -8.1429209378
  C         4.0920971495        3.1162010713       -8.1801551611
  C         5.3707820254        2.9481015150       -7.6115209448
  C         6.3836944479        3.8760826595       -7.8109399870
  C         6.1340841240        5.0428714402       -8.5494049271
  C         4.8367965065        5.2892102595       -9.0219970406
  C         3.8393117145        4.3255808619       -8.8576105243
  C         3.6114512873        0.6951376196       -8.1661643141
  C         2.7516909905       -0.4233184789       -8.1851627667
  C         3.2970828545       -1.7239676942       -8.2360943135
  C         2.4885623717       -2.8489459613       -8.3073806118
  C         3.1219901854       -4.1850543699       -8.4103040324
  C         4.3583077471       -4.3219929884       -9.0753433257
  C         5.0371152627       -5.5310035201       -9.1064978189
  C         4.4749866383       -6.6743644477       -8.5198297834
  C         3.2210607946       -6.5711304275       -7.8916004023
  C         2.5660361458       -5.3411413192       -7.8301102239
  C         1.0834025651       -2.6620339638       -8.2850689331
  C         0.4892821227       -1.3996719152       -8.2113964258
  C        -0.9738450344       -1.2108101612       -8.1912765928
  C        -1.8733585234       -2.2814289935       -8.1578333761
  C        -1.4876410622        0.1280632107       -8.2100864982
  C         1.3312291564       -0.2385822634       -8.1838630947
  C        -4.0254734490       -4.4453212146       -8.8296337459
  C        -5.0350319184       -5.4016677050       -8.9579365168
  H        -7.5391363846       -3.7516518690       -7.3423300675
  H        -5.7301778191       -2.1128372884       -7.0371173606
  H        -4.8385755486       -0.6224188349       -8.3095819786
  H        -4.5380128301        1.7142409285       -8.3061197926
  H        -1.9201154670        5.1350514659       -7.1584622109
  H        -3.1466511720        7.2831982201       -7.2740806857
  H        -6.0658076816        5.4800636772       -9.8736275127
  H        -4.8089905883        3.3587237988       -9.8201776071
  H        -0.6109681253        3.4408705812       -8.3406271773
  H         1.3311211691        3.1895070167       -8.1197191041
  H         5.5822755194        2.0643857812       -7.0100774934
  H         7.3698142568        3.7149890233       -7.3759473625
  H         4.6389253604        6.1897716704       -9.6033510179
  H         2.8698150784        4.4882396258       -9.3300695813
  H         4.6844049066        0.5127953449       -8.2265065656
  H         4.3821880169       -1.8258842244       -8.2061476654
  H         4.7860306594       -3.4663584784       -9.5966899355
  H         5.9848340613       -5.6147920288       -9.6334264162
  H         2.7877391681       -7.4441903004       -7.4019085922
  H         1.6232800979       -5.2710077999       -7.2859837583
  H         0.4524573324       -3.5456560343       -8.3712916322
  H        -1.4906733573       -3.3001079036       -8.1078009590
  H        -3.0607509604       -4.6320328371       -9.3031333998
  H        -4.8512592585       -6.3216472523       -9.5123017789
  C        -5.2096463887       -8.0822369818        6.3068963284
  C        -3.9225674326       -7.5145923741        6.2724945789
  C        -3.1946686108       -7.4850238148        5.0829039505
  C        -3.7118963249       -8.0274459227        3.8897640049
  C        -2.9312409061       -8.0549031206        2.6230406838
  C        -3.5725292067       -7.9063735014        1.3990840564
  C        -2.8729575170       -8.0300868372        0.1736698698
  C        -3.5701020172       -7.9512997011       -1.0594143797
  C        -2.9195141083       -8.1424937841       -2.2717621274
  C        -3.6517383185       -8.1528364486       -3.5647538207
  C        -3.0618066560       -7.6551237604       -4.7440015592
  C        -3.6987932580       -7.7609414472       -5.9779226365
  C        -4.9664871132       -8.3621709159       -6.0725921746
  C        -5.6040535058       -8.7883998701       -4.8966368424
  C        -4.9467308699       -8.7006403016       -3.6715585505
  C        -1.5247043677       -8.3922899636       -2.2473864988
  C        -0.7831352080       -8.4557193571       -1.0684491409
  C         0.6558289433       -8.7749867659       -1.0670970637
  C         1.4052396702       -8.8995516904       -2.2428457340
  C         2.7640988619       -9.2979898924       -2.2375674388
  C         3.6492328051       -9.3384261937       -3.4285988656
  C         4.5483495749      -10.4122613797       -3.5958354458
  C         5.6066105428      -10.3357108780       -4.4922216501
  C         5.8070547853       -9.1695898009       -5.2583035507
  C         4.8188405183       -8.1709403075       -5.2221264772
  C         3.7627883407       -8.2509488656       -4.3140650876
  C         3.3633557191       -9.5762915756       -1.0183060532
  C         2.6806974140       -9.3670378540        0.1975763648
  C         3.3848969132       -9.4708085803        1.4143424734
  C         2.8104804151       -9.0819795106        2.6139541370
  C         3.7703357553       -9.0196237452        3.7569306992
  C         4.2052012567       -7.7843666393        4.2698968404
  C         5.3730138792       -7.6935316184        5.0277623470
  C         6.1399333872       -8.8402464046        5.2880508792
  C         5.6384961349      -10.0963605932        4.9003712479
  C         4.4721715821      -10.1780867577        4.1432216586
  C         1.4472090627       -8.6954109095        2.6191902644
  C         0.6698800711       -8.6819080416        1.4506969217
  C        -0.7797674625       -8.3883534545        1.4459529881
  C        -1.5300738349       -8.2871027319        2.6205669131
  C        -1.4578981345       -8.2793623325        0.1845549111
  C         1.3117666239       -8.9509534893        0.1956427225
  C        -5.0164807337       -8.5635165042        3.9389417074
  C        -5.7627037341       -8.5730855869        5.1137466424
  H        -3.5108561312       -7.0632225912        7.1762175953
  H        -2.2111948560       -7.0132269338        5.0784347557
  H        -4.6434584474       -7.7006236048        1.3627474629
  H        -4.6413532231       -7.7439289953       -1.0359327392
  H        -2.0887927448       -7.1652590447       -4.6915683440
  H        -3.2300554004       -7.3504842574       -6.8731747147
  H        -6.5851653019       -9.2565607880       -4.9607592960
  H        -5.4277277834       -9.1163437049       -2.7859490494
  H        -1.0346254418       -8.6061814089       -3.1957774229
  H         0.9356730093       -8.7074935446       -3.2071265985
  H         4.4215835865      -11.3148985137       -2.9970872293
  H         6.2790849297      -11.1871664877       -4.6018197103
  H         4.9151952852       -7.2906287539       -5.8541098650
  H         3.0652772842       -7.4154017904       -4.2349198081
  H         4.4128534781       -9.8704609004       -0.9793715270
  H         4.4317041469       -9.7760847593        1.3873967448
  H         3.6758839690       -6.8713018786        3.9936276658
  H         5.7512812751       -6.7193968103        5.3289422207
  H         6.1694818614      -11.0080103149        5.1778779125
  H         4.1207121698      -11.1544664922        3.8072624706
  H         0.9979786666       -8.4146025348        3.5717731449
  H        -1.0411308614       -8.4536241651        3.5799086143
  H        -5.4394894644       -9.0255283729        3.0469375530
  H        -6.7524847165       -9.0262321653        5.1303067645
 Zn         8.0754552368        7.3004301611        8.1189973305
  C        12.3595468062        5.7697900986       10.1339482335
  C        11.2447797687        4.9466011958        9.9574379541
  C        10.0891376766        5.4768750323        9.3716500769
  H        11.2651813031        3.9040500823       10.2764012093
  N        10.0153357587        6.7759554937        8.9712251427
  C         8.9000057566        4.6576648632        9.1671994004
  C        11.0965881918        7.5561946199        9.1352145721
  C        12.2857093200        7.0966442537        9.7116989401
  H        11.0037982844        8.5896560947        8.8014738900
  H        13.1297476684        7.7758444654        9.8304875513
  H        13.2686250130        5.3832352681       10.5953094799
  N         7.8442520006        5.1364318997        8.5837368574
  H         8.9442191156        3.6168075515        9.5108841646
  C         5.7521382500        8.6987906733       12.2453498747
  C         5.0881745616        8.6647206447       11.0177785775
  C         5.7743171826        8.2458672994        9.8719041446
  H         4.0457652309        8.9750460008       10.9398132324
  N         7.0778664628        7.8615470435        9.9213237741
  C         5.1010615290        8.2545076750        8.5716987699
  C         7.7082973854        7.8911393833       11.1101144910
  C         7.0880414743        8.3034478642       12.2920421965
  H         8.7523022460        7.5785906392       11.1097563389
  H         7.6516009058        8.3166938567       13.2247039301
  H         5.2387596129        9.0338076181       13.1469316236
  N         5.7167550392        7.9828666500        7.4700574616
  H         4.0427915168        8.5532930655        8.5763085125
  C         9.7373828208       11.6981757918        6.5543824480
  C         9.6348867735       10.5654447433        5.7413634676
  C         9.1119752954        9.3869494385        6.2832257964
  H         9.9670920918       10.5903266911        4.7029152039
  N         8.6968487379        9.3077171634        7.5741891503
  C         8.9857718674        8.1679469575        5.4858446060
  C         8.7896860260       10.4015325953        8.3462900362
  C         9.3041447754       11.6160567647        7.8772554481
  H         8.4424301427       10.3005052468        9.3753800443
  H         9.3635654200       12.4751297175        8.5454755859
  H        10.1511086284       12.6276650947        6.1623379247
  N         8.5913986399        7.0528373198        6.0135808991
  H         9.2475199905        8.2254776252        4.4217702964
 Zn         8.0949070644       -7.7515012100        7.8249645995
  C         6.8997928645      -12.2050483359        9.8141036805
  C         6.0142328756      -11.1337544897        9.6820116620
  C         6.4819726078       -9.9216560633        9.1572834496
  H         4.9743439393      -11.2271349376        9.9968086545
  N         7.7698053345       -9.7554825932        8.7568910471
  C         5.6076556596       -8.7616835590        9.0703542598
  C         8.6122632542      -10.7935669093        8.8856845579
  C         8.2240827005      -12.0300775014        9.4132361790
  H         9.6414919505      -10.6271725317        8.5673370341
  H         8.9552156896      -12.8323618593        9.5119189627
  H         6.5654935488      -13.1551198786       10.2315774394