     728
 i =      217, E =     -3436.3538465577
  C         7.3415975815        4.2745886628        7.7521667057
  C         6.7480754048        3.5755441700        8.8223900610
  C         5.4865588637        3.0015848394        8.6773297369
  C         4.7655092567        3.1196771404        7.4727899745
  C         3.3721425225        2.6013308876        7.3638702973
  C         2.3305986803        3.4806733939        7.1094022268
  C         0.9811616327        3.0473223269        7.1375724009
  C        -0.0712862572        3.9884893606        7.0327453516
  C        -1.3965561378        3.6140412923        7.2065426090
  C        -2.4292344403        4.6926134789        7.2451526080
  C        -3.2184472634        4.9074106007        8.3892669215
  C        -4.0063854093        6.0561649006        8.5196778940
  C        -4.0558622693        7.0022929210        7.4830380452
  C        -3.3625571762        6.7439970602        6.2901257911
  C        -2.5415312692        5.6208258537        6.1909981510
  C        -1.6888665119        2.2431123116        7.4135249024
  C        -0.6963199177        1.2561298796        7.4469127662
  C        -1.0023839078       -0.1824955888        7.6041141837
  C        -2.3109272879       -0.6790000615        7.6419541636
  C        -2.6050223440       -2.0559404444        7.8173863867
  C        -3.9932901799       -2.5909373405        7.8833179903
  C        -4.3235753324       -3.5613038323        8.8514715202
  C        -5.5847012629       -4.1525798984        8.8934610414
  C        -6.5712936602       -3.7669566061        7.9750542787
  C        -6.2693098301       -2.7940966421        7.0112107530
  C        -4.9959846147       -2.2170675173        6.9713779207
  C        -1.5455112500       -2.9437435313        7.9269585728
  C        -0.2033664924       -2.5059079507        7.8514905805
  C         0.8488180742       -3.4465055084        7.9075653042
  C         2.1800741175       -3.0647691464        7.8004954752
  C         3.2210552974       -4.1277711062        7.8348949047
  C         2.9429820328       -5.3790124778        7.2489380004
  C         3.7806221544       -6.4729483885        7.4325791490
  C         4.9614342861       -6.3420499241        8.1790964893
  C         5.3240134307       -5.0764313963        8.6635235233
  C         4.4519633299       -3.9931202626        8.5078671059
  C         2.4642098342       -1.6810945692        7.6797898358
  C         1.4632182023       -0.7030897313        7.6462492426
  C         1.7645564774        0.7353034444        7.5143183820
  C         3.0689536982        1.2338116430        7.5666781992
  C         0.6786753257        1.6599413779        7.3521163221
  C         0.0889676686       -1.1102886250        7.7025742112
  C         5.3680745844        3.8185094148        6.4116392838
  C         6.6314259703        4.3917524789        6.5466783094
  H         7.2478647972        3.5251590859        9.7905596974
  H         5.0271953806        2.5006170371        9.5306137843
  H         2.5366921967        4.5427708138        6.9641137059
  H         0.1802757091        5.0415518094        6.8948891014
  H        -3.1601764578        4.2067337676        9.2236509355
  H        -4.5652111064        6.2313171129        9.4402575864
  H        -3.4280193761        7.4531025668        5.4663175169
  H        -1.9636083338        5.4659737461        5.2784810494
  H        -2.7338468320        1.9634756776        7.5462372763
  H        -3.1511195304        0.0102319558        7.5613148076
  H        -3.5843863629       -3.8390954704        9.6035701397
  H        -5.8218909732       -4.8841456195        9.6658640293
  H        -7.0219178947       -2.5201887528        6.2714667489
  H        -4.7703995354       -1.4860674071        6.1931966160
  H        -1.7366370927       -4.0126178584        8.0370836990
  H         0.5910034812       -4.4949919064        8.0612363059
  H         2.0415814160       -5.5027245889        6.6482703902
  H         3.5346770316       -7.4335760353        6.9830710165
  H         6.2447702438       -4.9607793748        9.2356232295
  H         4.7068054651       -3.0439914684        8.9811724901
  H         3.5072262938       -1.3834694032        7.5765013994
  H         3.9002234617        0.5568859190        7.7610354370
  H         4.8361443054        3.9185545992        5.4646858219
  H         7.0841708970        4.9181811318        5.7082172603
  C         9.4517423149        5.4144799376        4.3284045975
  C         8.7093695030        5.4788281789        3.1376793979
  C         8.3855037029        4.3085942542        2.4520681424
  C         8.7985907678        3.0489310981        2.9232741487
  C         8.5154496611        1.7933566763        2.1886188463
  C         8.2231684964        0.6230363034        2.8726939578
  C         8.1277303550       -0.6155650271        2.1964436536
  C         7.9693554669       -1.8075056649        2.9354823478
  C         8.0787649623       -3.0515233735        2.3320382284
  C         8.1217588352       -4.2031911045        3.2835140441
  C         9.3205862999       -4.9006616551        3.5151934970
  C         9.4874513226       -5.6746720045        4.6664904823
  C         8.4371362677       -5.7966700484        5.5917717728
  C         7.1850624195       -5.2416050611        5.2880328830
  C         7.0445931598       -4.4332873581        4.1610285406
  C         8.2578298084       -3.1160195741        0.9276909245
  C         8.3216215433       -1.9648917158        0.1283218382
  C         8.4788132819       -2.0108242353       -1.3440889813
  C         8.4299923357       -3.2020422931       -2.0817451516
  C         8.6551976610       -3.2334944894       -3.4796545125
  C         8.6229219575       -4.4611495023       -4.3320524086
  C         9.8004033400       -4.8782821599       -4.9811644393
  C         9.7652842774       -5.8307922622       -5.9958506456
  C         8.5378012759       -6.3871651166       -6.4008380802
  C         7.3739108141       -6.0631040096       -5.6846550254
  C         7.4198339298       -5.1075599878       -4.6667456286
  C         8.9154611971       -2.0449563559       -4.1450458703
  C         8.9003645076       -0.8042272780       -3.4689955862
  C         9.0935304143        0.3996117081       -4.1886651900
  C         9.0291607462        1.6367975559       -3.5600844923
  C         9.2450242481        2.8984331817       -4.3073552238
  C         8.9898843344        3.0046272341       -5.6905420229
  C         9.2561705962        4.1763833047       -6.3918077091
  C         9.7865517003        5.2985700532       -5.7359079656
  C         9.9873644291        5.2272989144       -4.3441571290
  C         9.7355218954        4.0492064308       -3.6558399189
  C         8.7923246392        1.6511739059       -2.1631722727
  C         8.6626724302        0.4951340486       -1.3983910181
  C         8.4991211288        0.5433132646        0.0613776730
  C         8.6235865487        1.7328672462        0.7795919284
  C         8.2947815605       -0.6816676526        0.7740503163
  C         8.6826499822       -0.7782823197       -2.0514605445
  C         9.5373768957        3.0062138700        4.1228492289
  C         9.8460198104        4.1636323224        4.8255830998
  H         8.3472559339        6.4425059163        2.7790362862
  H         7.7799562928        4.3731584052        1.5470439842
  H         8.0994460699        0.6340091916        3.9567789055
  H         7.8610301090       -1.7405065012        4.0190573345
  H        10.1655801797       -4.7625617939        2.8389987477
  H        10.4466821407       -6.1547990818        4.8658639330
  H         6.3531834120       -5.3753871160        5.9785266105
  H         6.0932342622       -3.9302955038        3.9820214092
  H         8.3572834051       -4.0997687601        0.4688774748
  H         8.2348878334       -4.1469668653       -1.5746599422
  H        10.7543061072       -4.4299901460       -4.7005884249
  H        10.6939872316       -6.1404577475       -6.4769007341
  H         6.4217285467       -6.5016720767       -5.9809610148
  H         6.4932104628       -4.8103004744       -4.1732561191
  H         9.0975262881       -2.0554967129       -5.2208372563
  H         9.3194920900        0.3282604404       -5.2531271754
  H         8.5659169242        2.1590475396       -6.2320646661
  H         9.0739493165        4.2261623061       -7.4626582943
  H        10.3288390336        6.1010830514       -3.7897537030
  H         9.9505463633        4.0186118387       -2.5883737903
  H         8.6939073286        2.6174176941       -1.6735862079
  H         8.8872225330        2.6504257704        0.2562201444
  H         9.9099543579        2.0489794436        4.4873389240
  H        10.4423246237        4.1147694180        5.7345706995
  C         6.8496321345        7.9629568262       -6.0793487901
  C         6.5658107963        9.0695608171       -5.2578075240
  C         5.7199954792        8.9262300474       -4.1591696578
  C         5.1186126005        7.6878784098       -3.8717512009
  C         3.8697039367        7.6513995482       -3.0480106640
  C         2.6978276402        7.5734539393       -3.7860928830
  C         1.4333762221        7.7437772590       -3.1809556938
  C         0.2681285134        7.8205677435       -3.9816371270
  C        -0.9724989424        8.0793950774       -3.4190629224
  C        -2.1803264299        8.2730225592       -4.2550524209
  C        -3.4425897980        7.8042625831       -3.8458970700
  C        -4.5866347256        8.0525443891       -4.5998577154
  C        -4.4941902417        8.7709945826       -5.8026525647
  C        -3.2383666084        9.2131905647       -6.2433526393
  C        -2.1052512215        8.9800179987       -5.4710809914
  C        -1.0521504544        8.2194314629       -2.0142370937
  C         0.0607401147        8.1416516472       -1.1801220156
  C        -0.0433671433        8.3306698625        0.2732162678
  C        -1.2632880904        8.5739225808        0.9034049617
  C        -1.3847168078        8.7566391459        2.3006458544
  C        -2.7006303553        9.0101161401        2.9313628147
  C        -2.8095028070        9.8584612316        4.0518035615
  C        -4.0284665196       10.0615808515        4.6887638100
  C        -5.1889553073        9.4578601159        4.1838415213
  C        -5.1072229624        8.6218373394        3.0612775353
  C        -3.8731289206        8.3957503123        2.4549150553
  C        -0.2348112091        8.6790379836        3.0706599052
  C         1.0247645439        8.4214072837        2.4819084156
  C         2.1680367069        8.3059856427        3.2962380293
  C         3.4167349434        8.0115616065        2.7665023856
  C         4.5308320931        7.8538939584        3.7360699399
  C         4.2533753338        7.2440401300        4.9766376396
  C         5.1759234012        7.2450803747        6.0123207413
  C         6.4428448266        7.8190462758        5.8271538376
  C         6.7746084780        8.3472528941        4.5700951466
  C         5.8233625897        8.3779184983        3.5463277308
  C         3.5393999476        7.8886863001        1.3576513237
  C         2.4436510841        8.0197697916        0.4947063041
  C         2.5555309335        7.9012082556       -0.9771159127
  C         3.7855753342        7.8125012479       -1.6445554537
  C         1.3506951640        7.9143116748       -1.7589605139
  C         1.1461392123        8.2555908851        1.0638945810
  C         5.5455317328        6.5621064083       -4.5993766895
  C         6.4275393871        6.6874778463       -5.6749354505
  H         6.9717075418       10.0515490590       -5.5044448378
  H         5.4483967258        9.8070427527       -3.5754536208
  H         2.7505856802        7.4659054980       -4.8707613421
  H         0.3692402499        7.6879940548       -5.0602776735
  H        -3.5276893595        7.2191354870       -2.9293638728
  H        -5.5510529660        7.6557331520       -4.2820455094
  H        -3.1706408627        9.8040517587       -7.1554126544
  H        -1.1497702700        9.3993026876       -5.7880034447
  H        -2.0261716011        8.4548314572       -1.5898394716
  H        -2.1683598921        8.6619150917        0.3055792398
  H        -1.9281852874       10.3860484404        4.4162848716
  H        -4.0988552894       10.7240917511        5.5508763033
  H        -5.9998218288        8.1072379050        2.7052759670
  H        -3.8164524079        7.7023121531        1.6153228757
  H        -0.2866599737        8.7821966266        4.1555050605
  H         2.0554400655        8.4761208844        4.3671588845
  H         3.2863015774        6.7658601295        5.1320105083
  H         4.9358278163        6.7698029894        6.9629798224
  H         7.7475587700        8.8152880408        4.4251618314
  H         6.0691562763        8.8808855103        2.6098598104
  H         4.5214612319        7.6524112077        0.9475696166
  H         4.7154437337        7.8787503584       -1.0800864408
  H         5.1315786381        5.5810636340       -4.3619429606
  H         6.7045594990        5.8123171057       -6.2609448245
  C        -7.1257349985        5.9431784263       -6.8958294596
  C        -8.3412564453        5.6578637101       -6.2492384056
  C        -8.3634504038        4.8049603046       -5.1450631845
  C        -7.1833222625        4.2073075244       -4.6685719288
  C        -7.2602080619        3.0335612377       -3.7390759292
  C        -7.3814669838        1.7979172589       -4.3547818722
  C        -7.5179866591        0.6098472940       -3.6022640325
  C        -7.6838652870       -0.6336124018       -4.2614339254
  C        -7.8397140761       -1.8100170297       -3.5436613955
  C        -8.0542906784       -3.1186162424       -4.2065384542
  C        -7.4933998381       -4.2960028039       -3.6767814867
  C        -7.7435143856       -5.5406281685       -4.2491308986
  C        -8.5510990492       -5.6330304056       -5.3920854187
  C        -9.0792147751       -4.4673226000       -5.9658707516
  C        -8.8489324948       -3.2325030960       -5.3646185792
  C        -7.8179286221       -1.7353742742       -2.1320540240
  C        -7.6611205853       -0.5404612276       -1.4356696609
  C        -7.6735222492       -0.4942318506        0.0319519286
  C        -7.8536473464       -1.6404357548        0.8070212375
  C        -7.9029351518       -1.6108342960        2.2191827510
  C        -8.1582450891       -2.8372777204        3.0084946371
  C        -9.0286340001       -2.7939454897        4.1155079959
  C        -9.2685375250       -3.9237472596        4.8881926117
  C        -8.6676677561       -5.1448177752        4.5499439524
  C        -7.7985189091       -5.2093410818        3.4501991442
  C        -7.5479006331       -4.0647269759        2.6952568952
  C        -7.7318632807       -0.3919325811        2.8540510973
  C        -7.5284018855        0.7949504928        2.1142240623
  C        -7.3522797813        2.0163369731        2.7905438698
  C        -7.1905351871        3.2142972049        2.1093871745
  C        -7.0533621354        4.4089900639        2.9908870963
  C        -6.1796848856        4.3094402327        4.0926482021
  C        -6.2668407362        5.1801322099        5.1723696111
  C        -7.2136639846        6.2133864742        5.1579427259
  C        -7.9827543805        6.4278438938        4.0042961262
  C        -7.9114746998        5.5225900739        2.9386182973
  C        -7.2133131164        3.1938571683        0.6908841863
  C        -7.3614494454        2.0044300705       -0.0397938733
  C        -7.3670608153        1.9556799135       -1.5222795841
  C        -7.2539108589        3.0998427311       -2.3254508593
  C        -7.5077442962        0.6798782260       -2.1684373449
  C        -7.5153282503        0.7706898525        0.6819390358
  C        -5.9647359224        4.5842450181       -5.2598031652
  C        -5.9279241600        5.4584607366       -6.3477375355
  H        -9.2722318824        6.0870745050       -6.6224350652
  H        -9.3191553739        4.5529934553       -4.6833345182
  H        -7.3993661437        1.7360176982       -5.4441451223
  H        -7.6779864554       -0.6473760726       -5.3527524991
  H        -6.8332715801       -4.2359100373       -2.8108652444
  H        -7.2760235260       -6.4386310005       -3.8446523275
  H        -9.7099914454       -4.5420247463       -6.8513050817
  H        -9.3247793888       -2.3441159777       -5.7804017984
  H        -7.9777879345       -2.6595272248       -1.5807386896
  H        -8.0128032114       -2.6017600336        0.3219905521
  H        -9.5535222720       -1.8668743433        4.3476822172
  H        -9.9702957987       -3.8845749564        5.7200576266
  H        -7.2837611813       -6.1435916244        3.2239210875
  H        -6.8412570510       -4.1175733084        1.8660488779
  H        -7.7371857459       -0.3301454296        3.9435973397
  H        -7.3904952257        2.0143376738        3.8802809925
  H        -5.4560242364        3.4944149929        4.1259186900
  H        -5.6132697948        5.0571383185        6.0352847453
  H        -8.7165202965        7.2341700877        3.9874026832
  H        -8.6060597173        5.6319460967        2.1043098344
  H        -7.0900594570        4.1400571220        0.1639280731
  H        -7.1663127578        4.0823456614       -1.8622891065
  H        -5.0339051281        4.1456058053       -4.8973554906
  H        -4.9798447031        5.7011835950       -6.8258982370
  C        -6.0232370545       -4.9364142971       -8.6816731655
  C        -5.0524039733       -4.9084822069       -9.6960686921
  C        -3.9058151311       -4.1202282272       -9.5503182493
  C        -3.7220999927       -3.3137722714       -8.4136793215
  C        -2.6695978903       -2.2552334877       -8.3649510009
  C        -3.1001965023       -0.9378580988       -8.3340709665
  C        -2.1837975097        0.1380058303       -8.3926281461
  C        -2.6619134486        1.4654007202       -8.4707772669
  C        -1.7966915760        2.5431099546       -8.5954408185
  C        -2.3438228959        3.9148971616       -8.7521977796
  C        -3.5645772022        4.1192552817       -9.4307155440
  C        -4.1218044357        5.3851987693       -9.5705630012
  C        -3.4426837893        6.5099948460       -9.0790830703
  C        -2.2244359948        6.3306801510       -8.4019738056
  C        -1.6946622627        5.0514442700       -8.2339672199
  C        -0.4022482821        2.2809166245       -8.5902889492
  C         0.1288252284        0.9922768100       -8.4959649382
  C         1.5831164026        0.7305941322       -8.4833642311
  C         2.5389441939        1.7448009700       -8.6207844835
  C         3.9360991085        1.4983497671       -8.5675750522
  C         4.9705275741        2.5389924251       -8.8141766164
  C         6.1982866133        2.1420642822       -9.3835646261
  C         7.2319975369        3.0387764978       -9.5956751877
  C         7.0815214358        4.4054529370       -9.2857414618
  C         5.8608571310        4.8246975949       -8.7283050731
  C         4.8284883587        3.9077932383       -8.5033704510
  C         4.3498129665        0.1937773048       -8.3241496611
  C         3.4348860369       -0.8781023912       -8.2498638244
  C         3.9160759515       -2.2033062613       -8.1498265206
  C         3.0572211983       -3.2923506465       -8.1889076834
  C         3.6231606548       -4.6668728499       -8.2110172834
  C         4.8371134075       -4.9104218225       -8.8888403364
  C         5.4210250438       -6.1711436583       -8.9174592046
  C         4.7790255791       -7.2579311302       -8.3057053481
  C         3.5693514602       -7.0393342483       -7.6234773031
  C         3.0095546700       -5.7612111391       -7.5727131245
  C         1.6626636920       -3.0366449193       -8.2524482007
  C         1.1285577299       -1.7453070306       -8.3165995367
  C        -0.3240853321       -1.4848584324       -8.3773392805
  C        -1.2779117751       -2.5107715954       -8.3898971792
  C        -0.7732887544       -0.1227143558       -8.4141769628
  C         2.0273425208       -0.6266230496       -8.3408347547
  C        -4.6701391308       -3.4114067208       -7.3775462307
  C        -5.7908920102       -4.2318591014       -7.4911549208
  H        -5.2059303018       -5.4824972785      -10.6111383213
  H        -3.1835673112       -4.0755315816      -10.3668611037
  H        -4.1687215086       -0.7162700658       -8.3285530733
  H        -3.7401057070        1.6253254930       -8.4313804264
  H        -4.0724586256        3.2710678082       -9.8890728534
  H        -5.0562057059        5.5187634435      -10.1141299207
  H        -1.7213484418        7.1932761273       -7.9648700069
  H        -0.7708350441        4.9336599690       -7.6663122761
  H         0.2724735306        3.1288114920       -8.6998115977
  H         2.2099996805        2.7645896749       -8.8169429502
  H         6.3451289311        1.1055425153       -9.6835744647
  H         8.1802933005        2.6696945907       -9.9870019064
  H         5.7170818929        5.8778147111       -8.4891533807
  H         3.8998542717        4.2663816601       -8.0570871957
  H         5.4089633250       -0.0375147139       -8.2122704477
  H         4.9926650441       -2.3546971377       -8.0606380104
  H         5.3158603162       -4.0994909907       -9.4371788052
  H         6.3457125101       -6.3364570860       -9.4679852824
  H         3.0960540843       -7.8665867960       -7.0935104955
  H         2.0914059484       -5.6088826303       -7.0034790041
  H         0.9924727480       -3.8945479104       -8.2893005211
  H        -0.9550787510       -3.5514136267       -8.4006329944
  H        -4.5372396705       -2.8153953022       -6.4734296058
  H        -6.5202916030       -4.2800215746       -6.6853809695
  C         5.9767427959       -8.8567120127        5.1104710678
  C         5.9467920191       -8.1051440847        3.9274506872
  C         4.7408982742       -7.9104748052        3.2592231567
  C         3.5425642786       -8.4727185506        3.7342739168
  C         2.2707722613       -8.2776359429        2.9994855816
  C         1.0741139201       -8.0415951472        3.6574186069
  C        -0.1333738657       -7.8632600983        2.9382513479
  C        -1.3361886755       -7.6149269626        3.6310365220
  C        -2.5467897166       -7.4773173135        2.9666562940
  C        -3.7378082595       -7.2635080251        3.8385771124
  C        -4.8501963767       -8.1240585759        3.8416241007
  C        -5.7912251016       -8.0844173338        4.8770159102
  C        -5.6242877380       -7.1870318211        5.9414857299
  C        -4.5844150053       -6.2490130232        5.8964405731
  C        -3.6636569618       -6.2885816585        4.8525902870
  C        -2.5617817230       -7.5869187856        1.5524597476
  C        -1.3954404878       -7.7988881971        0.8035114046
  C        -1.3840362202       -7.8771092171       -0.6789576658
  C        -2.5387898894       -7.7470860981       -1.4663570727
  C        -2.4997384499       -7.7923552594       -2.8843690798
  C        -3.6570234057       -7.6839607272       -3.8188128252
  C        -3.4972379074       -6.8828290134       -4.9676309530
  C        -4.3315467760       -7.0159207069       -6.0715882171
  C        -5.3890571745       -7.9342231786       -6.0378857970
  C        -5.6633041390       -8.6257170556       -4.8487813816
  C        -4.7941305971       -8.5098543900       -3.7563577406
  C        -1.2758286555       -7.9989158173       -3.5051437219
  C        -0.0862628864       -8.1597357515       -2.7701714293
  C         1.1304349286       -8.4000535414       -3.4491988695
  C         2.3196010757       -8.5634400003       -2.7569767583
  C         3.5825564104       -8.8370571502       -3.4804466107
  C         3.5861617460       -9.6725531432       -4.6148022191
  C         4.7510925954       -9.9085276691       -5.3343875622
  C         5.9646518848       -9.3410500503       -4.9189250679
  C         5.9861431912       -8.5268457272       -3.7756675712
  C         4.8074084731       -8.2757460903       -3.0754827347
  C         2.2838772111       -8.4729194617       -1.3468853778
  C         1.1085022156       -8.2459060748       -0.6310745730
  C         1.0938157255       -8.1728076197        0.8346631798
  C         2.2544168490       -8.3312828716        1.5876752975
  C        -0.1485763639       -7.9411068263        1.5057433857
  C        -0.1243909711       -8.0885117143       -1.3398555637
  C         3.5951157678       -9.2357570572        4.9167568880
  C         4.7906019565       -9.4123605261        5.6096724086
  H         6.8621526392       -7.6406480233        3.5607171791
  H         4.7258991742       -7.2893250016        2.3629120529
  H         1.0457867917       -7.9710481832        4.7463314050
  H        -1.3108770102       -7.5761672357        4.7209055248
  H        -4.9349593812       -8.8994584891        3.0786250781
  H        -6.5991996005       -8.8158149888        4.9081324556
  H        -4.4908045600       -5.5068473212        6.6890575274
  H        -2.8398496367       -5.5735434657        4.8455635729
  H        -3.5194551932       -7.4777151255        1.0432025624
  H        -3.5039175059       -7.5838366426       -0.9865416072
  H        -2.6629467916       -6.1822986748       -5.0161430947
  H        -4.1587000666       -6.4232704268       -6.9690615482
  H        -6.4892213599       -9.3369252184       -4.8156898851
  H        -4.9515357816       -9.1491650569       -2.8863217801
  H        -1.2282031194       -8.0866963740       -4.5909477571
  H         1.1153859305       -8.4357463571       -4.5396951391
  H         2.6654241688      -10.1746151752       -4.9132821727
  H         4.7431372979      -10.5851314017       -6.1868161031
  H         6.9185717208       -8.0516058644       -3.4701793366
  H         4.8337203637       -7.6052149705       -2.2155912764
  H         3.2180725113       -8.6309776387       -0.8115737948
  H         3.1956771084       -8.5472306493        1.0864379148
  H         2.6918519772       -9.7289615550        5.2779668709
  H         4.8220930408      -10.0292821390        6.5076723972
 Zn         9.3947861967        6.9803584392        7.1910348053
  C        13.1835137633        4.7244218591        9.4213242333
  C        11.8988278793        4.1785419730        9.3691894814
  C        10.9018484408        4.8406069199        8.6422331774
  H        11.6654084907        3.2504727081        9.8922154462
  N        11.1486817743        6.0070705172        7.9875572453
  C         9.5542868673        4.2855561657        8.5363228307
  C        12.3910568026        6.5171811709        8.0298090941
  C        13.4369266369        5.9102454706        8.7321641727
  H        12.5477609384        7.4515673520        7.4902615935
  H        14.4250136832        6.3699705825        8.7408299518
  H        13.9731298966        4.2331109341        9.9904331271
  N         8.6294924917        4.8681502702        7.8397297575
  H         9.3787116611        3.3237843722        9.0356545511
  C         8.1257524331        9.1809164910       11.4929495605
  C         7.2975590421        9.1273374078       10.3692494154
  C         7.7391406285        8.4458196552        9.2297079338
  H         6.3240563498        9.6187294447       10.3683889515
  N         8.9462700506        7.8253794462        9.1772672070
  C         6.9224915306        8.3977360169        8.0215044931
  C         9.7333193793        7.8784788372       10.2645357234
  C         9.3647859406        8.5440476433       11.4390996365
  H        10.6976880281        7.3760483237       10.1923108826
  H        10.0462303281        8.5611061983       12.2896209822
  H         7.8121231892        9.7140381864       12.3907220849
  N         7.3563635252        7.8723323162        6.9189901782
  H         5.9259905074        8.8549968790        8.0716847455
  C        11.7182259591       10.9829495780        5.3028362079
  C        11.3754975754        9.8537087424        4.5538503583
  C        10.7185187575        8.7921515957        5.1852488414
  H        11.6242122723        9.7896821648        3.4939812060
  N        10.4013622957        8.8211368633        6.5073034516
  C        10.3619029303        7.5763444224        4.4573149570
  C        10.7298050731        9.9121114341        7.2167900377
  C        11.3875592280       11.0137063537        6.6565770942
  H        10.4614036418        9.9022016511        8.2734472786
  H        11.6365298261       11.8724703192        7.2799396841
  H        12.2383479533       11.8214026569        4.8389545612
  N         9.8023599035        6.5772922559        5.0615613813
  H        10.6148486073        7.5255191879        3.3902970874
 Zn         7.7620826133       -8.2689060793        7.7896261656
  C         5.7840688156      -11.8449156070       10.5915988175
  C         5.1359412556      -10.6397559758       10.3062919917
  C         5.7694112180       -9.7050450292        9.4807534127
  H         4.1541167058      -10.4200228462       10.7269392316
  N         6.9967010452       -9.9306649724        8.9426217136
  C         5.1356374175       -8.4266323982        9.1636977954
  C         7.6090759615      -11.0946978341        9.2150177234
  C         7.0402486178      -12.0769451139       10.0334568930
  H         8.5891172002      -11.2435707584        8.7624097852
  H         7.5813320119      -13.0034837511       10.2252747169
  H         5.3172050220      -12.5874948122       11.2392205324