     728
 i =      256, E =     -3436.4166922153
  C         7.6771680815        5.3962958564        8.5261432432
  C         6.6200022511        5.9241980415        9.2816659898
  C         5.3972622910        5.2631922481        9.3249717786
  C         5.1676377956        4.0861636225        8.5831462844
  C         3.8508236408        3.4034807696        8.6261239880
  C         2.6762987465        4.1301219761        8.7623940924
  C         1.4138659717        3.4913969570        8.7889715354
  C         0.2321447654        4.2562029774        8.9244618127
  C        -1.0192196342        3.6592100990        8.8883122718
  C        -2.2155589902        4.5348442272        9.0046851058
  C        -3.2062822444        4.5867072035        8.0090869770
  C        -4.2222605482        5.5392290893        8.0633956037
  C        -4.2858308221        6.4669263522        9.1150094901
  C        -3.3572571174        6.3524917198       10.1691140512
  C        -2.3359344631        5.4121987064       10.1017877002
  C        -1.1016182085        2.2548852645        8.7317441405
  C         0.0335904505        1.4425899139        8.6497187651
  C        -0.0450089242       -0.0307911847        8.5617895249
  C        -1.2593920655       -0.7195464698        8.5740042933
  C        -1.3394487098       -2.1345363954        8.5456621783
  C        -2.6462503544       -2.8358475545        8.6259125407
  C        -2.7729080903       -4.0123026189        9.3925675249
  C        -3.9790700123       -4.6969263413        9.4816247187
  C        -5.1210211999       -4.2045821124        8.8316184505
  C        -5.0154993563       -3.0362738163        8.0579665301
  C        -3.7937112170       -2.3695195666        7.9565667574
  C        -0.1582201566       -2.8622308373        8.4847177905
  C         1.1038620048       -2.2214909106        8.4742739259
  C         2.2965729022       -2.9867185599        8.4523950531
  C         3.5452914397       -2.3804192092        8.4906650172
  C         4.7967601133       -3.1781825679        8.5214600268
  C         4.8626085921       -4.4153395674        9.1945216301
  C         6.0385670686       -5.1604823500        9.2384022682
  C         7.2099719692       -4.6711183687        8.6402900860
  C         7.1631287230       -3.4390892514        7.9669973298
  C         5.9739052641       -2.7176625024        7.9004900879
  C         3.5987496546       -0.9652500439        8.5253914158
  C         2.4604561922       -0.1610205612        8.5235026348
  C         2.5393135682        1.3102718027        8.5717082292
  C         3.7549751626        1.9926231646        8.5384921561
  C         1.3254478843        2.0641431144        8.6684359823
  C         1.1725109491       -0.7871631254        8.5102422489
  C         6.2290868756        3.5934718602        7.8008626383
  C         7.4709570515        4.2268071532        7.7776898318
  H         6.7832348824        6.8173729115        9.8828227099
  H         4.6147130915        5.6492922290        9.9780662689
  H         2.7037780844        5.2190147652        8.8211258779
  H         0.3158018752        5.3390333942        9.0309633220
  H        -3.1484682550        3.9119086974        7.1537547968
  H        -4.9509914737        5.6053348249        7.2608285943
  H        -3.4371430938        6.9816462515       11.0556329304
  H        -1.6213742410        5.3409703619       10.9225628668
  H        -2.0947670950        1.8071841450        8.7190720771
  H        -2.1920180056       -0.1638335107        8.6605427832
  H        -1.9167245325       -4.3746776465        9.9616611581
  H        -4.0624229290       -5.5838136904       10.1065241432
  H        -5.8831586145       -2.6774739372        7.5024057749
  H        -3.7239516088       -1.4840361774        7.3233766698
  H        -0.1878472607       -3.9521320282        8.4406924276
  H         2.2118510977       -4.0736969866        8.4036256621
  H         3.9880524262       -4.7792576061        9.7346015384
  H         6.0751979042       -6.0920581164        9.8012119991
  H         8.0549973864       -3.0727979743        7.4582707133
  H         5.9555199207       -1.7839450431        7.3372084245
  H         4.5797587951       -0.5007251223        8.6053413998
  H         4.6838904394        1.4285906083        8.4751777689
  H         6.0763772114        2.7111456034        7.1782510704
  H         8.2713720335        3.8471939522        7.1421482220
  C         9.4113336033        6.3645180491        4.9060388758
  C         8.5531503962        6.2494321478        3.7987973090
  C         8.4255776311        5.0317455141        3.1295460931
  C         9.1514364280        3.8942785209        3.5308509141
  C         9.0441789451        2.5922834445        2.8233223976
  C         9.0378871179        1.4045214798        3.5427800974
  C         9.0127248351        0.1476285836        2.8932274910
  C         9.0488547234       -1.0534152363        3.6492392706
  C         9.1314879343       -2.2866313366        3.0234138117
  C         9.2572419083       -3.5496339892        3.8066312223
  C        10.4585560616       -4.2822163710        3.7810902372
  C        10.5988423482       -5.4590925436        4.5122887264
  C         9.5240115982       -5.9516235379        5.2768632806
  C         8.3278845852       -5.2188569361        5.3211248392
  C         8.1992040691       -4.0366324053        4.5930180565
  C         9.1310955063       -2.3344921568        1.6112867409
  C         9.0301140466       -1.1906755790        0.8186382160
  C         8.9756285382       -1.2594242419       -0.6514836487
  C         8.9612715534       -2.4731572690       -1.3403060991
  C         8.9455683103       -2.5545175226       -2.7540979453
  C         8.9630009055       -3.8636105168       -3.4525211671
  C         9.7005966535       -4.0285785446       -4.6426408317
  C         9.7133198244       -5.2380792618       -5.3278454237
  C         9.0147104186       -6.3426792152       -4.8183886144
  C         8.2734053622       -6.2000003230       -3.6335497690
  C         8.2464232767       -4.9743103829       -2.9690052656
  C         8.9274669059       -1.3709885722       -3.4775035721
  C         8.9195441104       -0.1128416996       -2.8298802944
  C         8.8993803360        1.0750454190       -3.5922960040
  C         8.9014712884        2.3275404335       -2.9924095859
  C         8.9241408513        3.5254020957       -3.8713105752
  C         8.2348961296        3.4984013901       -5.0999393546
  C         8.4037882872        4.4984600818       -6.0504320356
  C         9.2439325828        5.5901234714       -5.7821224991
  C         9.8421369537        5.6993779578       -4.5181917406
  C         9.6975494249        4.6682714398       -3.5872992879
  C         8.9272321724        2.3922009173       -1.5761223407
  C         8.9471740430        1.2506179151       -0.7681771390
  C         8.9637598234        1.3159486280        0.7096825703
  C         8.9888132195        2.5244547628        1.4082712454
  C         8.9916621300        0.0904600775        1.4575341852
  C         8.9448322852       -0.0381568656       -1.3979514449
  C        10.0078123543        4.0291261506        4.6429075512
  C        10.1262915987        5.2334144502        5.3294623649
  H         7.9569253948        7.1088394584        3.4898070134
  H         7.7299232853        4.9572200244        2.2924071246
  H         9.0549482930        1.4247381790        4.6339322883
  H         9.0694089476       -0.9889040530        4.7388029427
  H        11.3057672678       -3.9040173311        3.2074908451
  H        11.5613373284       -5.9718817845        4.5204494494
  H         7.4882289823       -5.5980790985        5.9015577608
  H         7.2554591874       -3.4904420881        4.6220763488
  H         9.2033913737       -3.3160171845        1.1454787986
  H         8.9990494251       -3.4078147221       -0.7833432797
  H        10.3040550642       -3.2022574974       -5.0185541054
  H        10.3126212765       -5.3521803526       -6.2291966858
  H         7.6791801486       -7.0377320385       -3.2671887055
  H         7.6328239238       -4.8716106185       -2.0730029128
  H         8.8920058000       -1.3923784216       -4.5678197617
  H         8.9293151644        0.9884639543       -4.6788609849
  H         7.5631254200        2.6690914050       -5.3230142070
  H         7.8711201178        4.4507194634       -6.9994505684
  H        10.4916400530        6.5469020173       -4.3011734055
  H        10.2548235790        4.7230782453       -2.6513123035
  H         8.9140185549        3.3789143490       -1.1143931343
  H         9.0166411439        3.4639443348        0.8578837423
  H        10.6258982106        3.1836171598        4.9467926713
  H        10.8285617351        5.3254861315        6.1562338758
  C         7.3269219720        8.9507582915       -4.0406219777
  C         6.9047627256        9.9396991941       -3.1305012940
  C         5.6966628303        9.8037746426       -2.4522926128
  C         4.8578825288        8.6945191407       -2.6729940349
  C         3.5368150986        8.6044179564       -1.9945165488
  C         2.3731201185        8.4892848492       -2.7410073644
  C         1.0990212489        8.5194132563       -2.1199238000
  C        -0.0850530136        8.5173799212       -2.9006718294
  C        -1.3333134971        8.6522274285       -2.3083912609
  C        -2.5793580017        8.7132564132       -3.1123980453
  C        -3.5553029120        9.6996282060       -2.8619383342
  C        -4.7457828878        9.7427019931       -3.5805958489
  C        -5.0220832462        8.7751802678       -4.5697371926
  C        -4.0262985026        7.8291342410       -4.8629092533
  C        -2.8331324263        7.7946740721       -4.1462430597
  C        -1.4077650082        8.7349299252       -0.8981644426
  C        -0.2830725162        8.6743142304       -0.0779013018
  C        -0.3826032067        8.6790593828        1.3920568156
  C        -1.6090012940        8.6444990276        2.0519086408
  C        -1.7285702014        8.6304229016        3.4640249490
  C        -3.0592552275        8.5433756561        4.1151352598
  C        -3.2856903406        9.0707220279        5.4036077821
  C        -4.5161755861        8.9442583452        6.0390773294
  C        -5.5933268785        8.3260913306        5.3849895437
  C        -5.3934992825        7.8160006287        4.0896534789
  C        -4.1463124127        7.9107636896        3.4793001103
  C        -0.5607185262        8.6786418996        4.2149751401
  C         0.7127166125        8.7205998690        3.5983951727
  C         1.8882472937        8.7720332640        4.3859114820
  C         3.1451746048        8.7588690175        3.8016079019
  C         4.3364476491        8.8288885753        4.7009921964
  C         4.6144947848       10.0251308545        5.3866670695
  C         5.6129270377       10.0835930664        6.3551741746
  C         6.3540580881        8.9319608686        6.6786914637
  C         6.1396653610        7.7543143189        5.9443160841
  C         5.1391228591        7.7067018205        4.9715606945
  C         3.2450134488        8.6990998782        2.3924947445
  C         2.1188140051        8.6890650576        1.5620698224
  C         2.2161694119        8.6561230204        0.0882016736
  C         3.4388047103        8.6912970545       -0.5845718459
  C         1.0109086000        8.6054188275       -0.6877180013
  C         0.8208078115        8.6976007825        2.1677116070
  C         5.2843950164        7.7188902423       -3.5935781673
  C         6.4965328048        7.8424396177       -4.2709211669
  H         7.4952187036       10.8463565673       -2.9932238451
  H         5.3686710372       10.5981930470       -1.7805413988
  H         2.4256452636        8.4466020910       -3.8305347135
  H         0.0040531479        8.4743185124       -3.9877520058
  H        -3.3577500307       10.4716423257       -2.1170790801
  H        -5.4425890216       10.5600624385       -3.3943408420
  H        -4.2020704109        7.0892047922       -5.6388629122
  H        -2.1002515798        7.0178696872       -4.3693891085
  H        -2.3978163309        8.8286268355       -0.4549053313
  H        -2.5259765761        8.6427215970        1.4663583455
  H        -2.4902680981        9.6158822149        5.9111549680
  H        -4.6673084408        9.3760014711        7.0259681519
  H        -6.2082395633        7.2975140915        3.5828294617
  H        -4.0090252798        7.4544359947        2.4988687186
  H        -0.6004646298        8.6500929236        5.3044128183
  H         1.7941033275        8.8114837938        5.4724757015
  H         4.0353228536       10.9209125202        5.1592269191
  H         5.8232269877       11.0309552659        6.8528377032
  H         6.7131957794        6.8597082944        6.1846486155
  H         4.9449765440        6.7679742227        4.4503970468
  H         4.2436175600        8.6835736029        1.9572028934
  H         4.3672752523        8.7761355341       -0.0211017285
  H         4.6624067212        6.8394414427       -3.7672505523
  H         6.8232238745        7.0632469181       -4.9587078909
  C        -7.6431296438        4.4766344802        6.3478158900
  C        -8.5275885966        3.4177668616        6.0511649177
  C        -8.4482288017        2.7437288017        4.8353283542
  C        -7.5029774345        3.1069171078        3.8554630798
  C        -7.4502314323        2.4272883047        2.5366336946
  C        -7.3831130422        3.1782469692        1.3711654378
  C        -7.3959457015        2.5607427163        0.0973490020
  C        -7.4067633385        3.3476015973       -1.0820140004
  C        -7.5120800864        2.7583384773       -2.3332829018
  C        -7.5725688120        3.5796356658       -3.5687240359
  C        -8.5986888667        3.3901958430       -4.5168463129
  C        -8.6618841976        4.1538654320       -5.6778220505
  C        -7.6711043623        5.1204937179       -5.9503818205
  C        -6.6663274476        5.3320073639       -4.9941563772
  C        -6.6172837948        4.5787931231       -3.8252033534
  C        -7.5626628957        1.3472610837       -2.4165306823
  C        -7.4845221124        0.5230358663       -1.2946875887
  C        -7.4431393904       -0.9459011880       -1.4003012975
  C        -7.3970772850       -1.6030868912       -2.6294703247
  C        -7.3312373397       -3.0137517909       -2.7499639317
  C        -7.2233811996       -3.6711942600       -4.0753614785
  C        -7.7297751468       -4.9696270091       -4.2911828627
  C        -7.5710707985       -5.6204923286       -5.5095365678
  C        -6.9390679514       -4.9715211032       -6.5809782958
  C        -6.4485717133       -3.6678565816       -6.3927793320
  C        -6.5788944385       -3.0398551290       -5.1573840911
  C        -7.3362281588       -3.7662219838       -1.5836193616
  C        -7.3760002709       -3.1520548518       -0.3095960942
  C        -7.3493732153       -3.9436513547        0.8590264543
  C        -7.3209284456       -3.3761733768        2.1268125396
  C        -7.2667795983       -4.2675211528        3.3131199499
  C        -6.6568593236       -5.5343580309        3.2076330386
  C        -6.7035048481       -6.4565665514        4.2434079190
  C        -7.3298100103       -6.1292222339        5.4572899528
  C        -7.8648035860       -4.8421223116        5.6168317911
  C        -7.8509360933       -3.9379737445        4.5526854883
  C        -7.3553972581       -1.9612711255        2.2239564255
  C        -7.4175470522       -1.1269080271        1.1043687519
  C        -7.4448257434        0.3475682101        1.2075695951
  C        -7.4864837537        1.0145685918        2.4330186673
  C        -7.4334831315        1.1274222066        0.0029987947
  C        -7.4174954195       -1.7232489158       -0.1990297541
  C        -6.6447290266        4.1838779790        4.1485104009
  C        -6.7190763144        4.8601925646        5.3620396836
  H        -9.3228698790        3.1544577833        6.7490660257
  H        -9.1725270558        1.9581095287        4.6156691032
  H        -7.3823840919        4.2683744801        1.4225260986
  H        -7.3886397813        4.4349368272       -0.9890174589
  H        -9.3864681204        2.6630093553       -4.3154813044
  H        -9.5111258508        4.0181236023       -6.3474550121
  H        -5.9062740041        6.0813559438       -5.1896468220
  H        -5.8089535362        4.7469531661       -3.1122634675
  H        -7.6404567729        0.9076092756       -3.4098002312
  H        -7.4259290211       -1.0182567277       -3.5467813463
  H        -8.2842186929       -5.4708336970       -3.4981070946
  H        -7.9867987945       -6.6152060615       -5.6591751722
  H        -5.9144704114       -3.1713479827       -7.2034575723
  H        -6.1400981619       -2.0508461174       -5.0223615231
  H        -7.2617240581       -4.8535367388       -1.6269043616
  H        -7.3785332204       -5.0269844551        0.7408427369
  H        -6.1281418546       -5.8018416641        2.2930854419
  H        -6.2172401128       -7.4261568026        4.1353766287
  H        -8.3679750500       -4.5830626781        6.5478265184
  H        -8.3584077138       -2.9801169551        4.6721369016
  H        -7.3042962586       -1.5184799855        3.2178116513
  H        -7.5271801367        0.4431468684        3.3596376164
  H        -5.8927403270        4.4838439231        3.4172528371
  H        -6.0372874317        5.6840237226        5.5575999438
  C        -3.1917862593       -5.9077262674       -8.4973593715
  C        -2.2701109203       -5.4558575146       -9.4631481760
  C        -1.6211069028       -4.2360090592       -9.3018550149
  C        -1.8842419301       -3.4104529807       -8.1911630057
  C        -1.2178102098       -2.0884859334       -8.0655190064
  C        -1.9681470882       -0.9345666155       -7.8905498824
  C        -1.3555348267        0.3439048038       -7.9015405591
  C        -2.1431995572        1.5207977296       -7.8527135461
  C        -1.5697586965        2.7823347930       -7.9644566518
  C        -2.3910503059        4.0186319584       -7.9925656811
  C        -1.8589926069        5.2574555397       -7.5813031664
  C        -2.6018546848        6.4306181470       -7.6519898323
  C        -3.9320800662        6.4063712963       -8.1087490586
  C        -4.4932212803        5.1748837276       -8.4802507528
  C        -3.7266512397        4.0136189747       -8.4458239970
  C        -0.1594538484        2.8611174048       -8.0783089107
  C         0.6697347026        1.7424809784       -8.0715347892
  C         2.1365666851        1.8536794559       -8.1605345051
  C         2.7900186901        3.0842777025       -8.1401688434
  C         4.1966594350        3.2111879554       -8.2384833931
  C         4.8437734410        4.5448456594       -8.1599813634
  C         5.9744885758        4.8624216714       -8.9388274638
  C         6.6294625221        6.0846844819       -8.8038393394
  C         6.1471285206        7.0498134894       -7.9064709685
  C         4.9908358888        6.7708612386       -7.1624580723
  C         4.3621620778        5.5324327455       -7.2810677273
  C         4.9527979589        2.0545787946       -8.3722148175
  C         4.3454928904        0.7745276735       -8.3663909919
  C         5.1361086516       -0.3973277048       -8.4477810757
  C         4.5660609929       -1.6581790422       -8.3465081787
  C         5.4618370046       -2.8482602165       -8.3984043062
  C         6.2576953495       -3.0671508159       -9.5385588541
  C         7.2047103890       -4.0853839624       -9.5709888207
  C         7.4037687373       -4.9067058716       -8.4448450592
  C         6.5623110229       -4.7473267839       -7.3309783469
  C         5.6058582892       -3.7305389272       -7.3119541061
  C         3.1628155246       -1.7643804819       -8.2029460234
  C         2.3257421661       -0.6448837610       -8.1916443299
  C         0.8550272280       -0.7535004570       -8.1179828527
  C         0.1893372293       -1.9781078118       -8.1820717334
  C         0.0731473356        0.4429458363       -8.0151149496
  C         2.9198488311        0.6579386470       -8.2442343015
  C        -2.8294479646       -3.8564205520       -7.2488024168
  C        -3.4761465210       -5.0818854216       -7.3975647875
  H        -2.0974785103       -6.0345889878      -10.3711600475
  H        -0.9369951268       -3.8886688142      -10.0772315318
  H        -3.0559381886       -0.9953199737       -7.8234776986
  H        -3.2222766717        1.4112702272       -7.7365125283
  H        -0.8481670616        5.3055506724       -7.1767723356
  H        -2.1682132698        7.3689621476       -7.3044427985
  H        -5.5145305950        5.1445437648       -8.8540380128
  H        -4.1677260103        3.0878388287       -8.8144867142
  H         0.2834102514        3.8439496051       -8.2230738569
  H         2.2075664140        4.0009573053       -8.0657461952
  H         6.3338027710        4.1485058629       -9.6808833695
  H         7.4906149496        6.3161632538       -9.4294064717
  H         4.6176801591        7.5120791928       -6.4559300035
  H         3.4967916136        5.3170428822       -6.6528673094
  H         6.0407021387        2.1115241207       -8.4389631858
  H         6.2174414565       -0.2969615880       -8.5569337711
  H         6.1220617674       -2.4337557052      -10.4159452600
  H         7.7786290087       -4.2518317309      -10.4831215035
  H         6.7067902012       -5.3800205676       -6.4557296426
  H         5.0000624665       -3.5838113647       -6.4162293776
  H         2.7362629036       -2.7642162787       -8.1282296765
  H         0.7567537206       -2.8977877023       -8.3202769569
  H        -3.0462567529       -3.2421756455       -6.3736552276
  H        -4.1823756921       -5.4201779808       -6.6411088230
  C        -3.9597106137       -7.7378439417        7.0263263784
  C        -3.1765863316       -8.8190263153        6.5782715064
  C        -2.5017537285       -8.7386684909        5.3624262377
  C        -2.6001437051       -7.5925704126        4.5492596133
  C        -1.9398746100       -7.5509438809        3.2162689083
  C        -2.6926995515       -7.3905778548        2.0634439537
  C        -2.0916950137       -7.4796115822        0.7819593841
  C        -2.8926047383       -7.4872357659       -0.3807090354
  C        -2.3558102554       -7.7248342079       -1.6422199509
  C        -3.2596935042       -7.9031508244       -2.8094151492
  C        -2.8455168309       -7.7505452654       -4.1486926583
  C        -3.7209559627       -7.9520557629       -5.2162594413
  C        -5.0594833536       -8.3159571081       -4.9926270988
  C        -5.4942501882       -8.4369695582       -3.6576097457
  C        -4.6119116270       -8.2558831333       -2.6050069519
  C        -0.9423949561       -7.8370174139       -1.7449440240
  C        -0.0905732245       -7.7549708850       -0.6405050565
  C         1.3831542811       -7.8238784089       -0.7557269549
  C         2.0434962206       -7.8456858929       -1.9864399177
  C         3.4546298646       -7.9335233365       -2.0963477365
  C         4.1352490246       -7.9947498437       -3.4159633890
  C         5.2214831781       -8.8719063120       -3.6113579971
  C         5.9075892581       -8.9226455961       -4.8202241824
  C         5.5090659733       -8.1151130913       -5.8969569660
  C         4.4202708018       -7.2435676116       -5.7252870652
  C         3.7509362403       -7.1852816678       -4.5012468607
  C         4.2088714016       -7.9725194333       -0.9311735815
  C         3.6003937579       -7.9257542431        0.3456188316
  C         4.3937504112       -7.9420073590        1.5204465859
  C         3.8172267843       -7.8953471942        2.7830361322
  C         4.6345267417       -7.9250984408        4.0224918078
  C         5.8419054543       -8.6497520272        4.0895970965
  C         6.5900953033       -8.7134665643        5.2619417216
  C         6.1241417087       -8.0869968447        6.4272708071
  C         4.9388250606       -7.3373345977        6.3760016321
  C         4.2184239955       -7.2505866442        5.1864537858
  C         2.4051545342       -7.8286824954        2.8655496761
  C         1.5767652931       -7.8075201384        1.7459980843
  C         0.1120338070       -7.7174576324        1.8610072838
  C        -0.5418343241       -7.7198983240        3.0945295382
  C        -0.6708987504       -7.6366752163        0.6665158227
  C         2.1694881340       -7.8525612310        0.4440160981
  C        -3.3866004572       -6.5213688286        5.0058778635
  C        -4.0607905730       -6.5917053401        6.2224158963
  H        -3.1356908018       -9.7453246895        7.1526196803
  H        -1.9301492616       -9.5986157731        5.0108401806
  H        -3.7762410150       -7.2768280151        2.1293586310
  H        -3.9636016659       -7.3329160760       -0.2534099760
  H        -1.8189677029       -7.4584960826       -4.3706528496
  H        -3.3631255139       -7.8487111857       -6.2378386687
  H        -6.5376830935       -8.6612239328       -3.4366876189
  H        -4.9863528881       -8.4138778067       -1.5950633605
  H        -0.5147788983       -8.0380932151       -2.7258194311
  H         1.4649477219       -7.8237091444       -2.9094555553
  H         5.5078606123       -9.5542241978       -2.8103365382
  H         6.7153845302       -9.6384001201       -4.9610817596
  H         4.1251006117       -6.5849077255       -6.5432436528
  H         2.9313399886       -6.4758066800       -4.3778238001
  H         5.2980434187       -8.0158455808       -0.9857213318
  H         5.4789657248       -7.9695356943        1.4099534087
  H         6.1797575793       -9.2144064956        3.2204362897
  H         7.5014208882       -9.3087211987        5.3003377611
  H         4.6079322654       -6.7930060939        7.2607506885
  H         3.3197793011       -6.6335165440        5.1616899649
  H         1.9587770395       -7.8157430531        3.8576946520
  H         0.0289749537       -7.8393108829        4.0142117232
  H        -3.4730295541       -5.6204622588        4.3976713761
  H        -4.6546292909       -5.7471615802        6.5671004447
 Zn         9.3931918127        8.1167931498        7.8416434496
  C        13.6826390419        6.0675919760        9.2757462647
  C        12.4541197712        5.4015121683        9.3152060515
  C        11.3124786047        6.0531923307        8.8375524846
  H        12.3774219137        4.3937663123        9.7248909097
  N        11.3601766128        7.3143772524        8.3319681349
  C         9.9955321857        5.4161555793        8.8738484536
  C        12.5450537912        7.9435671273        8.2891535238
  C        13.7298468726        7.3584208161        8.7506637760
  H        12.5423102248        8.9525450891        7.8750742659
  H        14.6660505046        7.9141934846        8.7005191104
  H        14.5864745440        5.5885380343        9.6530396678
  N         8.9328464631        6.0643127049        8.5216475160
  H         9.9366156859        4.3804934703        9.2326890960
  C         8.5155609203       10.4354923331       12.1613138435
  C         7.6035043101       10.3877107534       11.1040279433
  C         7.9408094201        9.6820448204        9.9426219186
  H         6.6418621664       10.8974460307       11.1735093968
  N         9.1327963010        9.0404623684        9.8077671229
  C         7.0154012478        9.6028956146        8.8179585178
  C         9.9980403006        9.0830384521       10.8342679702
  C         9.7321932450        9.7679277364       12.0253397011
  H        10.9429452831        8.5578841384       10.6943837651
  H        10.4746582327        9.7786867338       12.8232169842
  H         8.2811787230       10.9855666561       13.0731589932
  N         7.2902353945        8.9223353972        7.7474477236
  H         6.0569797279       10.1254079373        8.9287675367
  C        10.8328287340       12.2485005448        5.4760443475
  C        10.5200730032       11.0585566759        4.8147843629
  C        10.1478953437        9.9368333855        5.5635614962
  H        10.5763335327       10.9917785453        3.7279806276
  N        10.0757447339        9.9699602781        6.9198339889
  C         9.8787901149        8.6546339809        4.9141505519
  C        10.3762970209       11.1187937037        7.5480039375
  C        10.7616256162       12.2787707719        6.8679093328
  H        10.3122614542       11.1067914050        8.6361219147
  H        11.0056064665       13.1812308516        7.4281690560
  H        11.1353578887       13.1339029328        4.9166302755
  N         9.6019955720        7.5924016952        5.5980049141
  H         9.9823862051        8.6163659725        3.8212994595
 Zn        -6.7777835948       -7.1015157863        8.6700798036
  C       -11.0094118621       -4.9676177623       10.1759660001
  C        -9.8246204204       -4.2585544244        9.9607481849
  C        -8.6852309935       -4.9477310669        9.5319945551
  H        -9.7771783499       -3.1832657029       10.1357124682
  N        -8.6936727153       -6.2901939948        9.3180036546
  C        -7.4106102525       -4.2595764514        9.3338374050
  C        -9.8370880742       -6.9631920303        9.5233304011
  C       -11.0162691905       -6.3433941232        9.9519961208
  H        -9.8052004248       -8.0378667200        9.3438531866
  H       -11.9156929803       -6.9381360159       10.1108103319
  H       -11.9093610243       -4.4568042542       10.5191076374