     728
 i =      211, E =     -3436.5271488674
  C         6.8471781614        5.0336633685        8.8493126719
  C         6.6399364761        3.9882919414        9.7747862789
  C         5.4320375788        3.3004337000        9.8056640797
  C         4.3711682041        3.6368633049        8.9397791748
  C         3.0871869400        2.8953212819        8.9659832297
  C         1.8750534521        3.5708005925        8.9413281785
  C         0.6450774185        2.8689736431        8.9601466975
  C        -0.5829454858        3.5743522197        8.9561196698
  C        -1.7970329822        2.9027211623        8.9933920817
  C        -3.0783717664        3.6494362523        8.9839084200
  C        -4.1347726273        3.3075560746        9.8532169444
  C        -5.3389577874        4.0025324329        9.8409273473
  C        -5.5474977684        5.0618078152        8.9316610951
  C        -4.4807977098        5.4354780733        8.0967839990
  C        -3.2753215605        4.7408086661        8.1179128414
  C        -1.7881508316        1.4866542127        9.0225498991
  C        -0.6105597048        0.7391498014        8.9975911645
  C        -0.6123474501       -0.7354003203        8.9362376651
  C        -1.7908244072       -1.4819993563        8.9415185206
  C        -1.8040528836       -2.8875650424        8.7759145609
  C        -3.0908409290       -3.6310925472        8.7694922737
  C        -3.4217294981       -4.5024630467        7.7161537767
  C        -4.6282043840       -5.1968268197        7.7110134981
  C        -5.5491959340       -5.0505214287        8.7599915056
  C        -5.2067530015       -4.2109873321        9.8407622830
  C        -4.0079499633       -3.5044752492        9.8319882827
  C        -0.5970467645       -3.5537896961        8.6212712711
  C         0.6354080021       -2.8557912398        8.6775929236
  C         1.8650456832       -3.5568974412        8.6008876981
  C         3.0764379244       -2.8937847686        8.7346634614
  C         4.3618720695       -3.6389058847        8.7044338816
  C         4.6660284138       -4.5230860211        7.6536226224
  C         5.8728456614       -5.2164277187        7.6248026248
  C         6.8221547910       -5.0555703496        8.6461117783
  C         6.5066133852       -4.2043124131        9.7259424727
  C         5.3066616758       -3.4999091406        9.7410427248
  C         3.0687658963       -1.4882150707        8.9016837431
  C         1.8921533110       -0.7389055781        8.9176725531
  C         1.8949094546        0.7354426022        8.9824124686
  C         3.0747651535        1.4795079581        8.9958200204
  C         0.6431444455        1.4323640668        8.9823872704
  C         0.6383372288       -1.4280048342        8.8402698632
  C         4.5666656000        4.7160628081        8.0585124346
  C         5.7758772672        5.4031753292        8.0184497545
  H         7.4044368273        3.7311422992       10.5075666620
  H         5.2880377757        2.5154360525       10.5491441978
  H         1.8551972282        4.6618892468        8.9429198750
  H        -0.5594568565        4.6653638657        8.9590506447
  H        -3.9895655437        2.5124791225       10.5856592430
  H        -6.0986978875        3.7397955980       10.5765694688
  H        -4.6106718195        6.2682195037        7.4104254123
  H        -2.4801132927        5.0324916566        7.4309233770
  H        -2.7517380161        0.9792336491        9.0207178938
  H        -2.7526882105       -0.9808258853        9.0412050588
  H        -2.7337509564       -4.6163703302        6.8773773084
  H        -4.8797122568       -5.8419592153        6.8745796057
  H        -5.8527753842       -4.1390636428       10.7158669248
  H        -3.7517822531       -2.8796858529       10.6887615652
  H        -0.5822066309       -4.6391582491        8.5075964662
  H         1.8451793406       -4.6422576988        8.4877091785
  H         3.9567882736       -4.6475196861        6.8342954115
  H         6.1021460463       -5.8717331091        6.7899819486
  H         7.1754630862       -4.1214111455       10.5827782007
  H         5.0721948909       -2.8662938599       10.5975220007
  H         4.0332960716       -0.9890681746        8.9841394778
  H         4.0370044459        0.9697249804        8.9846773967
  H         3.7673931677        5.0029253028        7.3741371046
  H         5.9050365422        6.2252046889        7.3191903122
  C         9.2814080168        6.1872587003        4.9867679038
  C        10.1149251770        5.9632197615        3.8700231849
  C        10.0304794070        4.7757684303        3.1514892257
  C         9.1337498862        3.7517780863        3.5217991689
  C         9.0496948418        2.4863899099        2.7537314314
  C         8.9839031824        1.2642638772        3.4083499650
  C         8.9538245594        0.0469720022        2.6853464302
  C         8.9566553408       -1.1906435308        3.3712635489
  C         8.9870174928       -2.4012793440        2.6896112561
  C         9.0330606598       -3.6914571617        3.4238450965
  C         8.5748837160       -4.8921723239        2.8453542995
  C         8.6353910514       -6.1028013554        3.5299565556
  C         9.1260068418       -6.1540625897        4.8469915957
  C         9.5558766394       -4.9626536862        5.4510298784
  C         9.5360420927       -3.7677454210        4.7403926092
  C         8.9775720466       -2.3619589956        1.2715905495
  C         8.9332535831       -1.1751539175        0.5411396708
  C         8.8856807070       -1.1549137508       -0.9346161350
  C         8.8705618941       -2.3217720716       -1.6988643750
  C         8.8147055925       -2.3155179967       -3.1150734423
  C         8.8448442353       -3.5839802112       -3.8867108937
  C         9.5089130239       -3.6527468570       -5.1287814564
  C         9.5649015550       -4.8333809692       -5.8614754342
  C         8.9921392224       -6.0069149894       -5.3494620154
  C         8.3101044294       -5.9582871676       -4.1230172886
  C         8.2328295461       -4.7601684589       -3.4129809117
  C         8.7577254972       -1.0887888383       -3.7633381871
  C         8.7846911214        0.1294258198       -3.0424126594
  C         8.7586871112        1.3677747049       -3.7284922486
  C         8.8165500689        2.5758590126       -3.0461421723
  C         8.8438474549        3.8658801673       -3.7814579186
  C         9.5044137303        3.9702340710       -5.0229256743
  C         9.5582949209        5.1713059479       -5.7218659845
  C         8.9865400452        6.3295382663       -5.1751234756
  C         8.3082891842        6.2458685698       -3.9485054652
  C         8.2332050919        5.0279766479       -3.2723671341
  C         8.8782316521        2.5419608958       -1.6304974298
  C         8.8959869935        1.3535502051       -0.9003719778
  C         8.9641625119        1.3323786958        0.5738431450
  C         9.0437242665        2.4972531087        1.3371851758
  C         8.9428404796        0.0696778926        1.2498002738
  C         8.8518590333        0.1090051311       -1.6083066980
  C         8.3455852114        3.9614493028        4.6682858297
  C         8.4243461476        5.1488632812        5.3889153861
  H        10.8670373319        6.6955027803        3.5775930639
  H        10.7084273213        4.6162423458        2.3121001436
  H         9.0143375553        1.2239303718        4.4984188916
  H         8.9287290022       -1.1676811916        4.4609525427
  H         8.1396663491       -4.8816843782        1.8462252066
  H         8.2562887178       -7.0116002610        3.0609483163
  H         9.9647180710       -4.9922805067        6.4589919113
  H         9.9510034503       -2.8780902043        5.2126680054
  H         9.0377765742       -3.3075474849        0.7368338492
  H         8.9393609831       -3.2884310793       -1.2026794816
  H        10.0310617868       -2.7741558917       -5.5076348487
  H        10.1147913531       -4.8709458323       -6.8003068979
  H         7.8091785420       -6.8528204044       -3.7508023417
  H         7.6687280571       -4.7362730676       -2.4798847657
  H         8.6823079037       -1.0439565794       -4.8508435788
  H         8.6822431186        1.3535420573       -4.8167838429
  H        10.0257057973        3.1029553369       -5.4281049139
  H        10.1057189836        5.2357117836       -6.6607541406
  H         7.8088119563        7.1294627611       -3.5492023421
  H         7.6727556496        4.9781324087       -2.3380394629
  H         8.9474655475        3.4937626594       -1.1063784346
  H         9.0776740889        3.4671122115        0.8428979524
  H         7.6403685119        3.1924797658        4.9858924216
  H         7.7961525340        5.2880620566        6.2646007355
  C        -4.4832023657        8.7317697087       -6.1212613508
  C        -3.1758509334        8.2214477694       -6.0475266380
  C        -2.4904120790        8.2170450511       -4.8367467176
  C        -3.0607979411        8.7481947806       -3.6622366350
  C        -2.3121030787        8.7708809977       -2.3809135412
  C        -2.9721182929        8.7392880235       -1.1586113353
  C        -2.2629880720        8.7868940083        0.0657869098
  C        -2.9591991241        8.7804099877        1.2995292199
  C        -2.2804056614        8.8798249550        2.5056914298
  C        -3.0158182971        8.8803562607        3.7937659606
  C        -2.7355933927        9.8256646658        4.8013364948
  C        -3.4202074462        9.8186602208        6.0123022051
  C        -4.4017299810        8.8392514558        6.2745025201
  C        -4.7139304791        7.9242082883        5.2554443315
  C        -4.0327041488        7.9412639195        4.0427857072
  C        -0.8672454888        8.9636875289        2.4864034407
  C        -0.1268414622        8.9213967810        1.3051661860
  C         1.3486420900        8.9244305977        1.2964225347
  C         2.1022993070        8.9638479123        2.4694307718
  C         3.5157589244        8.8832041425        2.4719464696
  C         4.2681874818        8.8727377756        3.7503543026
  C         5.2843266092        7.9272653718        3.9778141885
  C         5.9845586611        7.8988952732        5.1793482764
  C         5.6927496330        8.8086950207        6.2089369089
  C         4.7107233348        9.7933074489        5.9690645443
  C         4.0068719611        9.8114252096        4.7690591485
  C         4.1802893188        8.7923585953        1.2572855057
  C         3.4699142632        8.7970012706        0.0319264310
  C         4.1642389308        8.7477079972       -1.2008556111
  C         3.4874820451        8.7519589981       -2.4134883958
  C         4.2237143978        8.7230140289       -3.7014992870
  C         5.4706097405        9.3661714055       -3.8400030074
  C         6.1721137714        9.3445152902       -5.0416929457
  C         5.6269529008        8.7102736781       -6.1684753258
  C         4.3839500311        8.0672616456       -6.0511004964
  C         3.7058068844        8.0655384723       -4.8339711280
  C         2.0713959034        8.7899300073       -2.3892913851
  C         1.3334222498        8.8311364786       -1.2074349799
  C        -0.1425251225        8.8369680685       -1.1982669770
  C        -0.8952599008        8.8224755866       -2.3707234511
  C        -0.8279384760        8.8455923939        0.0589351113
  C         2.0345890140        8.8504030424        0.0412817935
  C        -4.3733191613        9.2571676578       -3.7577236060
  C        -5.0846708500        9.2265592752       -4.9536990610
  H        -2.7197667183        7.7816323560       -6.9349746447
  H        -1.4970710362        7.7696116856       -4.8009352645
  H        -4.0595650781        8.6651979691       -1.1177315432
  H        -4.0497678913        8.7417897552        1.2868708196
  H        -2.0004848814       10.6089401320        4.6118220034
  H        -3.2145963184       10.6085851074        6.7346456579
  H        -5.4824353054        7.1762675128        5.4279748558
  H        -4.2734301829        7.1947854868        3.2848928390
  H        -0.3561975699        9.0242361074        3.4461918341
  H         1.6020269695        9.0165368606        3.4353975117
  H         5.5095894477        7.1846130745        3.2114309691
  H         6.7515303869        7.1456873291        5.3348990983
  H         4.5196660047       10.5790301611        6.6999153541
  H         3.2718242656       10.5988483122        4.5968658912
  H         5.2707712274        8.7566470021        1.2318264274
  H         5.2534755416        8.6881221903       -1.1772900649
  H         5.8774940556        9.9345440691       -3.0032851160
  H         7.1115824687        9.8863179904       -5.1355255585
  H         3.9726016265        7.5352412321       -6.9092461036
  H         2.7619053082        7.5244421028       -4.7580077891
  H         1.5524318162        8.8185304108       -3.3456257989
  H        -0.3838792988        8.8818512033       -3.3292347307
  H        -4.8371279452        9.7202054915       -2.8871251662
  H        -6.0888857399        9.6445055397       -5.0062202978
  C        -8.0940672887        6.3021171492       -5.0454206769
  C        -9.1837250925        5.4257060222       -5.1437463039
  C        -9.1661286377        4.2109491386       -4.4560373493
  C        -8.0841867611        3.8586693061       -3.6314986671
  C        -8.0935551615        2.5695539072       -2.8840984794
  C        -8.1949083867        1.3653262437       -3.5627261454
  C        -8.1947503632        0.1302918979       -2.8672031279
  C        -8.2248904410       -1.0945959243       -3.5774915263
  C        -8.2496850812       -2.3104417905       -2.9095453052
  C        -8.2464894840       -3.5907305671       -3.6599787128
  C        -9.1703238666       -4.6171857963       -3.3800717336
  C        -9.1546116275       -5.8177258133       -4.0842244229
  C        -8.1863468319       -6.0518247905       -5.0840017643
  C        -7.2902203599       -5.0154260288       -5.3908503319
  C        -7.3161514130       -3.8133166901       -4.6912550954
  C        -8.2468593721       -2.3092149512       -1.4945426165
  C        -8.1776221802       -1.1362414254       -0.7433389463
  C        -8.0899967698       -1.1478003559        0.7296903157
  C        -8.0858226489       -2.3308482833        1.4669116661
  C        -7.9801428719       -2.3633492954        2.8804614023
  C        -7.9671624575       -3.6545631113        3.6134041936
  C        -8.4137719735       -3.7474887581        4.9485119996
  C        -8.3846980886       -4.9488982623        5.6488088235
  C        -7.9574757495       -6.1276137683        5.0180932693
  C        -7.5142967092       -6.0570640151        3.6851567998
  C        -7.5054244933       -4.8408172855        3.0082473407
  C        -7.8940160292       -1.1507499135        3.5538559929
  C        -7.9273660095        0.0840826928        2.8620640128
  C        -7.8923065235        1.3068208640        3.5759430552
  C        -7.9864535263        2.5256929339        2.9180698006
  C        -8.0117659617        3.7962868279        3.6823069518
  C        -7.1568216094        4.0035057290        4.7806951824
  C        -7.1833395381        5.1938721259        5.5005299226
  C        -8.0528191056        6.2381171700        5.1423831416
  C        -8.9507129243        6.0177475425        4.0762511391
  C        -8.9186192528        4.8269084301        3.3590127634
  C        -8.0696732006        2.5286533717        1.5034913775
  C        -8.0521630613        1.3577179832        0.7454245005
  C        -8.0725497389        1.3682175102       -0.7303422800
  C        -8.0148650179        2.5504911545       -1.4711424145
  C        -8.1506916473        0.1209444760       -1.4311596215
  C        -8.0166072655        0.0992743067        1.4289842356
  C        -7.0008144047        4.7514667859       -3.5425286339
  C        -6.9872494698        5.9475335394       -4.2612794215
  H       -10.0425074017        5.6958549742       -5.7596185117
  H       -10.0240213391        3.5413933287       -4.5307084816
  H        -8.2475231339        1.3555763725       -4.6528893779
  H        -8.2582612861       -1.0683215576       -4.6680991637
  H        -9.9450621793       -4.4512915990       -2.6302183661
  H        -9.9325158673       -6.5538044396       -3.8810014674
  H        -6.5462733488       -5.1665145095       -6.1681073256
  H        -6.5814389791       -3.0417632184       -4.9257193787
  H        -8.2582711588       -3.2764722047       -0.9942480739
  H        -8.1973733456       -3.2792191516        0.9456478598
  H        -8.8246855953       -2.8674963549        5.4425444453
  H        -8.7549744370       -4.9947223711        6.6709152860
  H        -7.1338601967       -6.9543162104        3.1951557866
  H        -7.1079380935       -4.8118558536        1.9936925841
  H        -7.7871193818       -1.1256974878        4.6389159266
  H        -7.8513967803        1.2741898268        4.6659032243
  H        -6.4416211636        3.2291607495        5.0606417253
  H        -6.5044719358        5.3295842794        6.3384269609
  H        -9.7122239571        6.7563898181        3.8267695466
  H        -9.6454356714        4.6705858224        2.5609669973
  H        -8.1289255179        3.4949194259        1.0043964798
  H        -7.9381453978        3.5097242869       -0.9605182911
  H        -6.1460298705        4.4954907824       -2.9143268848
  H        -6.1396892437        6.6296424605       -4.1876131776
  C         6.8020651427       -4.8717084327       -8.7750539855
  C         6.3316931760       -4.0854699801       -9.8446926050
  C         5.1393695880       -3.3767396828       -9.7250329816
  C         4.3653711473       -3.4482443445       -8.5517825210
  C         3.0750635754       -2.7076344132       -8.4575228701
  C         1.8706828925       -3.3878351900       -8.3672854534
  C         0.6359347857       -2.6887192077       -8.3584160446
  C        -0.5913496801       -3.3946739585       -8.3538592292
  C        -1.8126743779       -2.7317330534       -8.4013643888
  C        -3.0968318008       -3.4773844329       -8.4486524974
  C        -4.2988040067       -2.9084669283       -7.9816751409
  C        -5.5088364675       -3.5921698376       -8.0587929228
  C        -5.5594361235       -4.8990114768       -8.5765155991
  C        -4.3655096920       -5.4963551463       -9.0095103097
  C        -3.1696313438       -4.7863909219       -8.9707472250
  C        -1.7965477441       -1.3137078090       -8.4076055221
  C        -0.6221723606       -0.5645864405       -8.3733042038
  C        -0.6279052914        0.9101747884       -8.3181058330
  C        -1.8081382099        1.6524091005       -8.3034593050
  C        -1.8247937669        3.0603475131       -8.1627251851
  C        -3.1193700920        3.7911828170       -8.1894908518
  C        -3.4878042133        4.6921581922       -7.1733281296
  C        -4.7028460700        5.3737044498       -7.2180262208
  C        -5.5919544026        5.1735586468       -8.2850077915
  C        -5.2191162530        4.2973665387       -9.3233472281
  C        -4.0102725898        3.6108197459       -9.2651038287
  C        -0.6178771307        3.7330680810       -8.0372596742
  C         0.6167558598        3.0388352908       -8.1111058862
  C         1.8467755370        3.7457989711       -8.0926168709
  C         3.0528227304        3.0860000775       -8.2746391119
  C         4.3347825843        3.8394911316       -8.3662822690
  C         4.8100036723        4.6296627459       -7.3043925995
  C         6.0049189618        5.3405555648       -7.4124336035
  C         6.7633406859        5.2797234573       -8.5925708521
  C         6.2816481192        4.5134494360       -9.6717501580
  C         5.0946193761        3.7966372136       -9.5508204449
  C         3.0471117001        1.6779337728       -8.4135341195
  C         1.8743694949        0.9231252851       -8.3705865037
  C         1.8808288339       -0.5515008671       -8.4225757295
  C         3.0617013766       -1.2932997860       -8.4896506070
  C         0.6337223541       -1.2528632170       -8.3787529116
  C         0.6215048229        1.6090874785       -8.2585740063
  C         4.8302645732       -4.2568099165       -7.4993719694
  C         6.0294379685       -4.9604025533       -7.6061902357
  H         6.8736456848       -4.0612330852      -10.7907349851
  H         4.7778552151       -2.7907240091      -10.5710038661
  H         1.8582187499       -4.4793328125       -8.3573184245
  H        -0.5542079482       -4.4837481849       -8.3080840885
  H        -4.2903289826       -1.9176034795       -7.5277665654
  H        -6.4190784587       -3.1284877818       -7.6763488589
  H        -4.3935638001       -6.4965469852       -9.4370632182
  H        -2.2769535198       -5.2508669293       -9.3885498555
  H        -2.7513226433       -0.7954617824       -8.4644222838
  H        -2.7704412674        1.1478500466       -8.3772044229
  H        -2.8232865496        4.8402989665       -6.3207303188
  H        -4.9877439957        6.0375855603       -6.4047620944
  H        -5.8522157446        4.1899889664      -10.2047815206
  H        -3.7266453917        2.9585498775      -10.0921183226
  H        -0.6049479111        4.8208430588       -7.9467735727
  H         1.8274927082        4.8331339648       -7.9969586479
  H         4.2462680436        4.6698291086       -6.3712343583
  H         6.3758830541        5.9195484901       -6.5677143501
  H         6.8105813367        4.5113684256      -10.6254475621
  H         4.7245488785        3.2271779004      -10.4043895955
  H         4.0099032593        1.1835562029       -8.5352573955
  H         4.0236423761       -0.7850639873       -8.5408947704
  H         4.2529698079       -4.3195191587       -6.5758661639
  H         6.3917589330       -5.5563947884       -6.7695437154
  C        -4.3948210990       -8.6203655080        6.0190576275
  C        -3.4271950004       -9.6049592358        5.7283337944
  C        -2.7518532816       -9.5964385549        4.5121444890
  C        -3.0280435402       -8.6285400416        3.5259001837
  C        -2.2970673343       -8.6186739759        2.2347069822
  C        -2.9738296559       -8.5127992147        1.0277898584
  C        -2.2772577160       -8.5325085828       -0.2059914962
  C        -2.9839848229       -8.4923678759       -1.4337693171
  C        -2.3166759433       -8.5865797353       -2.6461770769
  C        -3.0684530746       -8.5994239008       -3.9274131728
  C        -2.8888443964       -9.6363082491       -4.8647448648
  C        -3.6062123505       -9.6650865448       -6.0566000845
  C        -4.5107207885       -8.6290847173       -6.3695376499
  C        -4.7075735090       -7.6064642396       -5.4291892619
  C        -4.0019103615       -7.5921956743       -4.2298499102
  C        -0.9039763393       -8.6701129458       -2.6433219536
  C        -0.1525188267       -8.6434226619       -1.4684179838
  C         1.3229506633       -8.6141283552       -1.4732459885
  C         2.0632556515       -8.5438658900       -2.6526120417
  C         3.4795372399       -8.4951582684       -2.6716925744
  C         4.2203609436       -8.4332309096       -3.9566052267
  C         5.4704220907       -9.0680507513       -4.1057920826
  C         6.1768911189       -9.0143267018       -5.3037110276
  C         5.6346425367       -8.3539613418       -6.4169715613
  C         4.3887093971       -7.7183462015       -6.2883609139
  C         3.7045840310       -7.7499547938       -5.0747543860
  C         4.1532900441       -8.5104721345       -1.4572558135
  C         3.4562164573       -8.5793791180       -0.2267187257
  C         4.1621999199       -8.5881163919        1.0017694989
  C         3.4929153553       -8.6945150289        2.2126107935
  C         4.2352668203       -8.7018188588        3.4973617475
  C         5.2330971481       -7.7451909417        3.7574514654
  C         5.9221135690       -7.7331542377        4.9658839692
  C         5.6341135973       -8.6694876456        5.9716806168
  C         4.6699284081       -9.6628384631        5.6998830270
  C         3.9785026248       -9.6662979415        4.4919409328
  C         2.0797869876       -8.7707692486        2.2043311925
  C         1.3305768495       -8.7156864922        1.0293259071
  C        -0.1442378856       -8.6918732419        1.0349434118
  C        -0.8850684522       -8.7164720040        2.2157896174
  C        -0.8429060832       -8.6183812507       -0.2133786855
  C         2.0210198816       -8.6371016536       -0.2227630319
  C        -4.0327651879       -7.6835404210        3.8025206728
  C        -4.7066167560       -7.6832552391        5.0204203454
  H        -3.2307016180      -10.4127838081        6.4334059512
  H        -2.0285917090      -10.3851782193        4.3007726603
  H        -4.0640852025       -8.4642266457        1.0135348991
  H        -4.0739408244       -8.4406141480       -1.4125892907
  H        -2.2125362441      -10.4594581408       -4.6301366214
  H        -3.4897735226      -10.5230179013       -6.7189292997
  H        -5.4035505420       -6.8056064430       -5.6594650344
  H        -4.1574455602       -6.7740070656       -3.5255170104
  H        -0.4039308905       -8.7276093861       -3.6092486819
  H         1.5454546621       -8.5503563159       -3.6100380625
  H         5.8763978950       -9.6550897855       -3.2815202355
  H         7.1185146489       -9.5506617315       -5.4069592277
  H         3.9784080163       -7.1664994883       -7.1344433290
  H         2.7577230812       -7.2152881842       -4.9902946891
  H         5.2423523800       -8.4477430703       -1.4305258403
  H         5.2529187889       -8.5513691089        0.9807872506
  H         5.4497695556       -6.9790043126        3.0117812037
  H         6.6740440845       -6.9693600368        5.1449579034
  H         4.4882388052      -10.4677983122        6.4122753747
  H         3.2578205857      -10.4610355694        4.2946527321
  H         1.5765459555       -8.8311931370        3.1681735666
  H        -0.3751289091       -8.7774614064        3.1760585187
  H        -4.2677630569       -6.9170360272        3.0626404719
  H        -5.4641249104       -6.9275905805        5.2122532455
 Zn         8.5444728721        7.8688493521        7.8911768478
  C        12.8078521713        6.0281922178        9.6208460155
  C        11.6102065587        5.3112650990        9.6314480589
  C        10.4493745782        5.9068788492        9.1204143852
  H        11.5673183036        4.3030080114       10.0444003934
  N        10.4562291334        7.1659406855        8.6082844090
  C         9.1751698100        5.2021436808        9.1544630183
  C        11.6152999084        7.8452422348        8.5936040058
  C        12.8109556655        7.3185479267        9.0914791574
  H        11.5803280178        8.8523613767        8.1785669305
  H        13.7200855710        7.9189125723        9.0691808368
  H        13.7211267507        5.5910282200       10.0249902779
  N         8.0748806927        5.7321967151        8.7109299828
  H         9.1971683781        4.1927440192        9.5819693780
  C         6.7740928710        9.7116900262       12.1354112819
  C         6.0421292500        9.7064067378       10.9469033794
  C         6.6165185839        9.1635715099        9.7899837802
  H         5.0382919624       10.1305955985       10.9082597255
  N         7.8689980835        8.6358313597        9.7924258537
  C         5.8957982078        9.1759262949        8.5235573345
  C         8.5631563317        8.6367339196       10.9426065332
  C         8.0578737151        9.1662714024       12.1338472999
  H         9.5649845299        8.2086575417       10.9028800478
  H         8.6695997471        9.1557577024       13.0356839301
  H         6.3534269302       10.1399512616       13.0454342715
  N         6.4038396007        8.6895861130        7.4314978405
  H         4.8938980349        9.6215283362        8.5430403542
  C        10.3836069336       12.0855284040        6.0484599189
  C        10.3111271543       10.9006569568        5.3141808273
  C         9.7718982756        9.7543303932        5.9131535381
  H        10.6812744608       10.8559666032        4.2895114388
  N         9.3104340983        9.7646165160        7.1912775641
  C         9.7155263231        8.4923219165        5.1880016241
  C         9.3752512630       10.9114358828        7.8877201836
  C         9.9060769337       12.0919067636        7.3590003570
  H         8.9983467616       10.8781881143        8.9100155126
  H         9.9486049733       12.9914463453        7.9726982883
  H        10.8111477983       12.9867947008        5.6084605413
  N         9.2516531489        7.4017707670        5.7211092777
  H        10.0881763602        8.5160875927        4.1572136499
 Zn        -7.2245404533       -7.8576057430        7.8161475175
  C       -11.3764197402       -6.2840914459       10.0399273248
  C       -10.1897708640       -5.5482029914       10.0267448693
  C        -9.0742376856       -6.0588746319        9.3500706096
  H       -10.1215680381       -4.5907561756       10.5443799341
  N        -9.1125625237       -7.2554393917        8.7044096164
  C        -7.8144275401       -5.3254492855        9.3239633244
  C       -10.2614949272       -7.9515033150        8.7140668856
  C       -11.4144222859       -7.5059630979        9.3684073665
  H       -10.2531924851       -8.9062087498        8.1880181224
  H       -12.3174416530       -8.1158998648        9.3544631420
  H       -12.2546471861       -5.9128704616       10.5688387719