218
 energy: -350.654926653453 gnorm: 0.000359220289 xtb: 6.4.0 (d4b70c2)
Fe       12.10550121447788   15.17619345425153   10.79067938023502
Fe        7.12350086267663    3.93959015745858   12.72030165462815
O        13.26166252026129   10.60431091311700   12.99848205588087
O        10.97772128987575    8.61085839800899   15.49424369647529
N        10.82543616736688   15.95252552059288    9.55694812070485
N        12.08974645587088   13.72603997025644    9.51590078071698
N         8.55203448172318    3.51825972184238   11.47568629531034
N         7.72182122314913    2.31009033602038   13.57068098072055
C         9.88911923950636   16.96240881406695    9.80344023144971
C         8.53840684811976   16.72252336747008    9.52870819903161
C         7.58984842876462   17.69318001142335    9.78463312296506
C         7.96861767924872   18.91928510282105   10.30904476641472
C         9.30407071895638   19.16153432541914   10.59196575491862
C        10.25699533782040   18.18937049955233   10.35425624851573
C        10.74357134611355   15.29252294139770    8.45014862838408
C        11.45514027867224   14.05355528674404    8.37088713940661
C        11.38892158615567   13.16872713335026    7.29175946927828
C        11.90840220302177   11.90028229195981    7.43127584903158
C        12.49446387754617   11.53044360007900    8.64827278069397
C        12.58998865804416   12.50688451100481    9.64078331590362
C        14.12394845336744   11.99625375844824   14.74589614688985
C        14.52576461949533   12.14833915538751   16.05240792677288
C        14.45068622629740   11.09394852496691   16.97818724880123
C        14.85122601686426   11.25531080652299   18.32206426745120
C        14.81772297374706   10.19942194330666   19.18932638389908
C        14.38565741869833    8.93875938374699   18.74900081919488
C        13.98399752472470    8.75085101607483   17.45407958160835
C        13.99849551411359    9.82083350606837   16.53668726252621
C        13.59979304892475    9.66438279838719   15.18100144905020
C        13.63750478693567   10.73477336374402   14.31339430913588
C        13.20828349283646    8.31427653552420   14.68088797288323
C        14.18340351606798    7.49071252273024   14.05717246812676
C        15.52910599294313    7.89003904959961   13.92513770731289
C        16.45694545830433    7.04044136607738   13.38898892297089
C        16.08119285948202    5.76855373754479   12.92974679929109
C        14.77928238750451    5.36406526979808   13.01547668125874
C        13.80250401412213    6.20210836865880   13.59521509669679
C        12.47888264276958    5.77079628754607   13.79018273102180
C        11.55555301249661    6.54245100622023   14.45773579653603
C        11.92993719805191    7.84265867549545   14.89602836697683
C         9.06574952983352    4.25551055868137   10.50452148334943
C         9.98898279748549    3.76816803189013    9.58028719506673
C        10.32287993894319    2.40995898045293    9.64995596348989
C         9.82530989304726    1.64595904714959   10.68316152256779
C         8.96951460177250    2.24172416751100   11.61165170655721
C         8.54095324328861    1.63610698989548   12.83634598931129
C         7.53380710119947    1.90793264109877   14.89908147191300
C         8.65564685763959    1.64920691234072   15.69255271085577
C         8.50508814983564    1.27153390292860   17.01264051042834
C         7.23853999570165    1.13252699706411   17.55854807811670
C         6.12199606645820    1.38783351873233   16.77743881922102
C         6.26425350507664    1.78444746185852   15.46103720464289
O        11.03157034038796    9.25908177988156    7.92388415200486
O        11.19186042918257    6.16567295997551   10.35157851993692
N        13.67508217403916   15.83131586006337    9.87217786588684
N        13.43197808988432   14.36126113405139   11.94924936610695
N         8.26458838363498    4.88611717157576   13.95916953002180
N         5.76036777418827    4.35227521567442   14.03654056252594
C        13.78190047712896   16.26512214037171    8.54466304209840
C        13.00837616179012   17.31095892111050    8.04421811187864
C        13.14303559493884   17.70657938263961    6.72668038410670
C        14.02868083195473   17.05266899535550    5.88406277690111
C        14.78700697898710   15.99849208974705    6.36893115193859
C        14.67274829292445   15.60950479834863    7.68937179224301
C        14.75972119266328   15.65141917222075   10.54719564515919
C        14.65474810912282   14.90234947562922   11.76294144564990
C        15.71464156651390   14.63957001206392   12.63294000840317
C        15.52780777144375   13.73620179751865   13.65649625876961
C        14.29667305185272   13.07905243018384   13.77359156913033
C        13.27285907094610   13.46473498183403   12.90923424369513
C        13.00919970647258   10.17981868801959    8.88685724871240
C        14.23028808988147    9.98867261215748    9.49193723374311
C        14.79646469152958    8.70954988176175    9.63005835778680
C        16.09888351277901    8.52503513588286   10.14208993354822
C        16.66611960102254    7.28270711496661   10.16998797738303
C        15.94409988161985    6.16677793932300    9.71921204856156
C        14.66733485465429    6.30595369161828    9.24941603240595
C        14.06497843368216    7.57867874128329    9.17719697243773
C        12.77241037758070    7.77292142266331    8.62071636825358
C        12.26580326871778    9.04566770684962    8.45828962573259
C        11.99905480281165    6.59439404058126    8.13205104697144
C        12.07329178174717    6.22711045817370    6.76058553251880
C        12.81028263110493    6.97453655434095    5.81987627336556
C        12.86738485220349    6.58210479920059    4.50984690079239
C        12.19310645084042    5.42971572515594    4.07723772433129
C        11.47594646174437    4.67919194488733    4.96640390769125
C        11.40171024806366    5.05235264808121    6.32570819409770
C        10.71499219154878    4.27134462723528    7.27076993655218
C        10.63134493249306    4.64030513141487    8.59299521622849
C        11.27297941491144    5.83178471584748    9.02147314793603
C         9.50041877666502    5.32557291040548   13.78006197065845
C        10.21769024499610    6.02326866652237   14.75292503113063
C         9.61591588100689    6.18733580270510   16.00684325571968
C         8.33157025791575    5.72881681412215   16.20286787254524
C         7.65871424513287    5.11596324832696   15.14284495810980
C         6.25754760800750    4.82596823280508   15.13013504369038
C         4.37247133908625    4.38648732948850   13.86381074986235
C         3.67195973513602    3.31143750843146   13.31804336628014
C         2.30169521599075    3.38210039039126   13.15384350912015
C         1.61094597174814    4.53119344064409   13.50686173746672
C         2.30203030441863    5.61447158544729   14.02716689623782
C         3.66933623022347    5.54570751346394   14.20932357052133
N        12.02647994331941   16.57056053132996   12.12987269146895
N        10.55577800654600   14.52243473395104   11.74677684069557
N         6.53428661092312    5.55169672600486   11.83020984848084
N         5.96280660038543    3.10073129014962   11.41791604028015
C        13.06232307657449   17.41926153072193   12.53616083088951
C        13.74757996188433   18.23411602298592   11.63486832492638
C        14.77657893497296   19.04602878519027   12.07324855839520
C        15.15639180732533   19.04049132947302   13.40669139297659
C        14.49482637877613   18.21809063412794   14.30572456861890
C        13.45279604764855   17.41816473284592   13.87980760731800
C        10.95466680662991   16.52288301413470   12.85069888821221
C        10.06175391373673   15.43062286230326   12.61580970637580
C         8.84131403735065   15.23275537487305   13.26707304875206
C         8.14995823873265   14.05786844708910   13.06076001244064
C         8.69517625753113   13.08343050043139   12.21470874560117
C         9.89157190837869   13.39240100780862   11.56825774026342
C         6.94372615453680    6.79527889493552   12.02015933650604
C         6.35009128719665    7.90826559279906   11.42593342045411
C         5.22340049982435    7.68660289696121   10.62350965059927
C         4.79714982227135    6.39367953993403   10.40552474143884
C         5.48920585701830    5.33640659482976   11.00230456681040
C         5.25508015773212    3.94889613255879   10.74682308662924
C         5.99579973614873    1.77165364275600   10.98089459854796
C         6.19138374427501    1.50951544396648    9.62037010641004
C         6.26373986062051    0.20880902386733    9.16214320769955
C         6.13043715254701   -0.85124866822042   10.04577450430406
C         5.93833612371659   -0.59989860259840   11.39568110965537
C         5.88405961766863    0.69879943354994   11.86545584135453
C         6.92708701089777    9.23959795288454   11.63344569803471
C         6.12467604985423   10.37312747346303   11.76067627446417
C         6.68941757672257   11.61814861488133   11.95635163135594
C         8.07462632162418   11.77111983261520   12.01201173373733
C         8.87761331312459   10.63643427355589   11.87758124265024
C         8.31370961586952    9.39201520079440   11.69835753141599
H        13.16557136972811    9.66070155207009   12.80845907350474
H        11.38922432240490    9.41488799551006   15.84201722627225
H         8.24189611588919   15.75838224909319    9.14022549127174
H         6.55207026244123   17.49519838102203    9.56691144292370
H         7.22878112438418   19.68112671182612   10.49444954546653
H         9.60623608964164   20.11636235510827   10.99241476532498
H        11.29297535032210   18.39286407280493   10.56475847198038
H        10.09000266862898   15.59615350433868    7.63855608745197
H        10.91807397495404   13.47979676893585    6.37345834453478
H        11.85667675836895   11.19572204192539    6.61777555978352
H        13.05445256792223   12.27183305467094   10.58719388451972
H        14.90015925289447   13.10440286668510   16.38624699429178
H        15.19150832090625   12.22591010788502   18.64867283542267
H        15.12944851781754   10.32496826757254   20.21375012949383
H        14.37659419684988    8.11201724662810   19.44187098690996
H        13.66429182080802    7.77444477881011   17.12047107139195
H        15.82673678272734    8.86212178751280   14.28873911983415
H        17.49111856032428    7.34071014485259   13.33118266289574
H        16.83165434785380    5.10755838932324   12.52714539972576
H        14.48188312392922    4.38493760415358   12.67147860430359
H        12.20944401811266    4.77563821184653   13.46915274156880
H         8.73302686183950    5.28120198863847   10.45304693239744
H        11.00085050808203    1.98466979749812    8.92659470765640
H        10.10028411203336    0.60980206781950   10.79550498884468
H         8.96633652324931    0.68974242538592   13.15524944903519
H         9.64159639556485    1.77394912933580   15.26793797245591
H         9.37874916549375    1.07631916878789   17.61434282172416
H         7.12211422232565    0.82263324434066   18.58449780193034
H         5.13379122354376    1.26826981708810   17.19285793362922
H         5.38961893694252    1.96362065499898   14.85880946980441
H        10.68768504809226    8.42523048661018    7.57292187812434
H        11.84272662335048    6.86003632170716   10.52460701016352
H        12.32928748117160   17.83660475735092    8.69413292611874
H        12.56023554525337   18.53609312660934    6.35838449871015
H        14.13067028524241   17.36586883574576    4.85757729027538
H        15.47689768387400   15.48346690371459    5.71911603810003
H        15.25103928917728   14.77843680923808    8.06739271705237
H        15.73206279438551   15.96841666759682   10.18342171097597
H        16.66434582284187   15.12693623098986   12.48328192950543
H        16.33211319614728   13.49718995475751   14.33451702752955
H        12.28948302808596   13.02893830290517   13.00090390044410
H        14.80985053925620   10.84426900726216    9.80504642171384
H        16.64870742756752    9.39048038104858   10.47999953901023
H        17.67769012221341    7.15343814383091   10.51952785901700
H        16.40993743644440    5.19421669952831    9.73056117851838
H        14.12184210047802    5.44549099975268    8.89194917943478
H        13.34243699185971    7.85592078024618    6.14678672644023
H        13.43887929316459    7.15782149136689    3.79879738874611
H        12.25220998490401    5.13862421346928    3.04081656978104
H        10.96231980231644    3.78618592734968    4.64507706799233
H        10.23280998958754    3.36378869005102    6.93982968513234
H         9.93496576127592    5.15669792489373   12.80572290296339
H        10.14994428008367    6.67578679157234   16.80504207735730
H         7.83474734999776    5.85256070254919   17.15133843794683
H         5.64037527210022    5.09326126247723   15.98199450664815
H         4.19655112627462    2.40926350211558   13.05385851716222
H         1.76882157648587    2.53286164981397   12.75610410561867
H         0.54176060601935    4.58147166782078   13.37864381679373
H         1.77242797442892    6.51400752322728   14.29907249041116
H         4.21206063985379    6.39761737863301   14.59410286303260
H        13.45213481623486   18.25858927909682   10.59917404419515
H        15.27974183848981   19.69256265329670   11.37169103234215
H        15.95977357274011   19.67551799324650   13.74360818312113
H        14.78616789673265   18.20662114932131   15.34423128655171
H        12.94891221689948   16.76090615553884   14.57434852363938
H        10.75947147996876   17.22771870175217   13.65221438588148
H         8.46112334956432   15.99275790756864   13.93015886645033
H         7.21825767486198   13.87662740777401   13.57267404272236
H        10.32236717378575   12.69187030373270   10.86944249279311
H         7.78397795329066    6.92430493207633   12.68495155749502
H         4.71719877721884    8.51461494381244   10.15322965812066
H         3.94843591372015    6.18666297582213    9.77411033578433
H         4.56207219278509    3.64387233112622    9.96963384671018
H         6.31579873492302    2.33756009641800    8.93688688146795
H         6.41591163838672    0.02123986591745    8.11087597374818
H         6.17219755191282   -1.86606504201926    9.68439248303612
H         5.82221099125108   -1.42047397147113   12.08599741004764
H         5.71946834633222    0.88054434552455   12.91447118399361
H         5.05044106917374   10.27798993654979   11.73056585952585
H         6.04876698329578   12.48190820344971   12.04220296427490
H         9.95189339287506   10.72667473315830   11.93939477570966
H         8.95559789252681    8.53152679800428   11.58155717611504
