 Entering Gaussian System, Link 0=g16
 Initial command:
 /apps/gaussian/g16-c01-avx/g16/l1.exe "/rds/general/ephemeral/user/atarzia/ephemeral/unsymm/single_point_dft/s_5a1_a/Gau-384650.inp" -scrdir="/rds/general/ephemeral/user/atarzia/ephemeral/unsymm/single_point_dft/s_5a1_a/"
 Entering Link 1 = /apps/gaussian/g16-c01-avx/g16/l1.exe PID=    384651.
  
 Copyright (c) 1988-2019, Gaussian, Inc.  All Rights Reserved.
  
 This is part of the Gaussian(R) 16 program.  It is based on
 the Gaussian(R) 09 system (copyright 2009, Gaussian, Inc.),
 the Gaussian(R) 03 system (copyright 2003, Gaussian, Inc.),
 the Gaussian(R) 98 system (copyright 1998, Gaussian, Inc.),
 the Gaussian(R) 94 system (copyright 1995, Gaussian, Inc.),
 the Gaussian 92(TM) system (copyright 1992, Gaussian, Inc.),
 the Gaussian 90(TM) system (copyright 1990, Gaussian, Inc.),
 the Gaussian 88(TM) system (copyright 1988, Gaussian, Inc.),
 the Gaussian 86(TM) system (copyright 1986, Carnegie Mellon
 University), and the Gaussian 82(TM) system (copyright 1983,
 Carnegie Mellon University). Gaussian is a federally registered
 trademark of Gaussian, Inc.
  
 This software contains proprietary and confidential information,
 including trade secrets, belonging to Gaussian, Inc.
  
 This software is provided under written license and may be
 used, copied, transmitted, or stored only in accord with that
 written license.
  
 The following legend is applicable only to US Government
 contracts under FAR:
  
                    RESTRICTED RIGHTS LEGEND
  
 Use, reproduction and disclosure by the US Government is
 subject to restrictions as set forth in subparagraphs (a)
 and (c) of the Commercial Computer Software - Restricted
 Rights clause in FAR 52.227-19.
  
 Gaussian, Inc.
 340 Quinnipiac St., Bldg. 40, Wallingford CT 06492
  
  
 ---------------------------------------------------------------
 Warning -- This program may not be used in any manner that
 competes with the business of Gaussian, Inc. or will provide
 assistance to any competitor of Gaussian, Inc.  The licensee
 of this program is prohibited from giving any competitor of
 Gaussian, Inc. access to this program.  By using this program,
 the user acknowledges that Gaussian, Inc. is engaged in the
 business of creating and licensing software in the field of
 computational chemistry and represents and warrants to the
 licensee that it is not a competitor of Gaussian, Inc. and that
 it will not use this program in any manner prohibited above.
 ---------------------------------------------------------------
  

 Cite this work as:
 Gaussian 16, Revision C.01,
 M. J. Frisch, G. W. Trucks, H. B. Schlegel, G. E. Scuseria, 
 M. A. Robb, J. R. Cheeseman, G. Scalmani, V. Barone, 
 G. A. Petersson, H. Nakatsuji, X. Li, M. Caricato, A. V. Marenich, 
 J. Bloino, B. G. Janesko, R. Gomperts, B. Mennucci, H. P. Hratchian, 
 J. V. Ortiz, A. F. Izmaylov, J. L. Sonnenberg, D. Williams-Young, 
 F. Ding, F. Lipparini, F. Egidi, J. Goings, B. Peng, A. Petrone, 
 T. Henderson, D. Ranasinghe, V. G. Zakrzewski, J. Gao, N. Rega, 
 G. Zheng, W. Liang, M. Hada, M. Ehara, K. Toyota, R. Fukuda, 
 J. Hasegawa, M. Ishida, T. Nakajima, Y. Honda, O. Kitao, H. Nakai, 
 T. Vreven, K. Throssell, J. A. Montgomery, Jr., J. E. Peralta, 
 F. Ogliaro, M. J. Bearpark, J. J. Heyd, E. N. Brothers, K. N. Kudin, 
 V. N. Staroverov, T. A. Keith, R. Kobayashi, J. Normand, 
 K. Raghavachari, A. P. Rendell, J. C. Burant, S. S. Iyengar, 
 J. Tomasi, M. Cossi, J. M. Millam, M. Klene, C. Adamo, R. Cammi, 
 J. W. Ochterski, R. L. Martin, K. Morokuma, O. Farkas, 
 J. B. Foresman, and D. J. Fox, Gaussian, Inc., Wallingford CT, 2019.
 
 ******************************************
 Gaussian 16:  ES64L-G16RevC.01  3-Jul-2019
                26-Feb-2021 
 ******************************************
 %chk=_s_5a1_a.chk
 %mem=60000mb
 %nprocshared=32
 Will use up to   32 processors via shared memory.
 ----------------------------------------------------------------------
 #P PBE1PBE/Def2SVP SP SCF=(YQC,MaxCycle=900) int=(Grid=Superfinegrid) 
 EmpiricalDispersion=GD3BJ SCRF=(PCM,Solvent=DiMethylSulfoxide)
 ----------------------------------------------------------------------
 1/38=1,172=1/1;
 2/12=2,17=6,18=5,40=1/2;
 3/5=43,7=101,11=2,25=1,30=1,70=2201,72=21,74=-13,75=-7,124=41/1,2,3;
 4//1;
 5/5=2,7=900,8=4,13=1,38=1,53=21/8,2,8;
 6/7=2,8=2,9=2,10=2,28=1/1;
 99/5=1,9=1/99;
 Leave Link    1 at Fri Feb 26 11:34:48 2021, MaxMem=  7864320000 cpu:               2.9 elap:               0.1
 (Enter /apps/gaussian/g16-c01-avx/g16/l101.exe)
 --------
 _s_5a1_a
 --------
 Symbolic Z-matrix:
 Charge =  4 Multiplicity = 1
 Pd                    0.1935    6.8856    0.1689 
 Pd                   -0.1795   -3.9293   -0.1644 
 C                     6.8491    3.3348   -0.4632 
 C                     6.674     4.5256   -0.3404 
 C                     6.2777    5.8685   -0.1853 
 C                     7.1732    6.9107   -0.0384 
 C                     6.7198    8.2243    0.1394 
 C                     5.3802    8.5165    0.1811 
 C                     4.4322    7.4818    0.0292 
 C                     3.0405    7.7059    0.0753 
 N                     2.162     6.7377   -0.0703 
 C                     2.5851    5.4666   -0.2925 
 C                     3.9082    5.1423   -0.3449 
 C                     4.8806    6.1462   -0.1681 
 H                     8.2338    6.7101   -0.0554 
 H                     7.447     9.014     0.2512 
 H                     5.0435    9.5303    0.3286 
 H                     2.6523    8.7065    0.2407 
 H                     1.8122    4.7125   -0.4356 
 H                     4.2279    4.1285   -0.5229 
 C                     6.9924    1.9416   -0.629 
 C                     8.1683    1.4014   -1.2013 
 C                     8.2731    0.0562   -1.4045 
 C                     7.2235   -0.8181   -1.0461 
 C                     7.3026   -2.2098   -1.2576 
 C                     6.2827   -3.0346   -0.8814 
 C                     5.115    -2.5136   -0.2744 
 C                     5.0038   -1.1567   -0.0781 
 C                     6.0477   -0.2835   -0.4525 
 C                     5.957     1.107    -0.2569 
 H                     8.9723    2.0669   -1.4782 
 H                     9.1672   -0.3599   -1.8459 
 H                     8.1898   -2.6149   -1.7217 
 H                     6.3567   -4.0947   -1.069 
 H                     4.1338   -0.7393    0.405 
 H                     5.0688    1.5195    0.197 
 C                     4.0689   -3.4572    0.1482 
 C                     4.4256   -4.6776    0.7312 
 C                     3.4423   -5.5894    1.0728 
 C                     2.1199   -5.2707    0.8234 
 N                     1.7698   -4.0932    0.2916 
 C                     2.709    -3.2028   -0.034 
 H                     5.4635   -4.901     0.9219 
 H                     3.6979   -6.5368    1.519 
 H                     1.3202   -5.9717    1.0549 
 H                     2.3582   -2.274    -0.4732 
 C                     0.686     3.3155    6.8291 
 C                     0.6391    4.5113    6.6512 
 C                     0.5658    5.8604    6.2527 
 C                     0.507     6.9124    7.1469 
 C                     0.4081    8.2338    6.6921 
 C                     0.3593    8.5248    5.3524 
 C                     0.4225    7.4799    4.4057 
 C                     0.3658    7.7033    3.0143 
 N                     0.4296    6.7255    2.1368 
 C                     0.572     5.443     2.5602 
 C                     0.6275    5.1192    3.8833 
 C                     0.5385    6.1351    4.8551 
 H                     0.532     6.7138    8.2077 
 H                     0.364     9.0311    7.4183 
 H                     0.2732    9.5454    5.0149 
 H                     0.2613    8.7118    2.6254 
 H                     0.6481    4.679     1.7874 
 H                     0.7421    4.0963    4.2033 
 C                     0.7594    1.9147    6.9751 
 C                     1.3078    1.3395    8.1458 
 C                     1.4186   -0.0163    8.2531 
 C                     0.9871   -0.8667    7.2115 
 C                     1.1011   -2.2696    7.2938 
 C                     0.655    -3.0693    6.282 
 C                     0.0722   -2.5106    5.1195 
 C                    -0.0293   -1.1436    5.0049 
 C                     0.418    -0.2956    6.0408 
 C                     0.3182    1.1048    5.9471 
 H                     1.6399    1.9865    8.9439 
 H                     1.8411   -0.4594    9.1434 
 H                     1.5464   -2.7035    8.177 
 H                     0.768    -4.1397    6.3583 
 H                    -0.4925   -0.6962    4.1391 
 H                    -0.117     1.5452    5.0629 
 C                    -0.4282   -3.4251    4.0819 
 C                    -1.0929   -4.5997    4.449 
 C                    -1.51     -5.487     3.4725 
 C                    -1.2523   -5.1909    2.1464 
 N                    -0.6405   -4.0561    1.7866 
 C                    -0.2426   -3.1883    2.7193 
 H                    -1.2873   -4.8061    5.4898 
 H                    -2.0207   -6.399     3.7361 
 H                    -1.5424   -5.8752    1.3517 
 H                     0.2578   -2.2941    2.3608 
 C                    -6.6896    3.7637    0.637 
 C                    -6.4329    4.9449    0.587 
 C                    -5.9456    6.2646    0.5122 
 C                    -6.7679    7.3731    0.4423 
 C                    -6.2261    8.6612    0.3426 
 C                    -4.8697    8.8628    0.3038 
 C                    -3.9946    7.7579    0.3784 
 C                    -2.5911    7.8886    0.3313 
 N                    -1.7806    6.8552    0.4051 
 C                    -2.289     5.6042    0.5497 
 C                    -3.631     5.3688    0.5963 
 C                    -4.5328    6.4463    0.4955 
 H                    -7.8397    7.245     0.4594 
 H                    -6.8976    9.5045    0.2899 
 H                    -4.4648    9.8585    0.217 
 H                    -2.1357    8.8689    0.2261 
 H                    -1.569     4.7913    0.6351 
 H                    -4.0187    4.3698    0.7126 
 C                    -6.9279    2.3759    0.7158 
 C                    -8.1363    1.8819    1.2615 
 C                    -8.3328    0.5367    1.3792 
 C                    -7.3472   -0.3826    0.9577 
 C                    -7.5214   -1.7764    1.0798 
 C                    -6.5619   -2.6432    0.6439 
 C                    -5.3627   -2.1653    0.0634 
 C                    -5.1588   -0.8094   -0.0461 
 C                    -6.139     0.1072    0.391 
 C                    -5.9534    1.4979    0.2838 
 H                    -8.8917    2.5818    1.5863 
 H                    -9.2521    0.1554    1.7998 
 H                    -8.4331   -2.1488    1.5234 
 H                    -6.7083   -3.7056    0.7633 
 H                    -4.2635   -0.4224   -0.5077 
 H                    -5.0403    1.8769   -0.1495 
 C                    -4.3848   -3.1489   -0.426 
 C                    -4.825    -4.3015   -1.0847 
 C                    -3.9068   -5.2538   -1.4912 
 C                    -2.5653   -5.0428   -1.2297 
 N                    -2.1348   -3.9293   -0.6242 
 C                    -3.0104   -3.0001   -0.2359 
 H                    -5.8761   -4.4409   -1.2828 
 H                    -4.2273   -6.1503   -1.9967 
 H                    -1.8155   -5.7797   -1.5114 
 H                    -2.5962   -2.128     0.2605 
 C                    -0.5924    3.7821   -6.6933 
 C                    -0.461     4.9587   -6.4438 
 C                    -0.2912    6.2721   -5.9636 
 C                    -0.1721    7.3724   -6.7913 
 C                     0.0208    8.6528   -6.2564 
 C                     0.1041    8.8545   -4.9021 
 C                    -0.0184    7.7583   -4.0215 
 C                     0.0672    7.8892   -2.6197 
 N                    -0.0523    6.8642   -1.8041 
 C                    -0.2826    5.623    -2.3048 
 C                    -0.3736    5.3878   -3.6445 
 C                    -0.2288    6.4553   -4.5522 
 H                    -0.2229    7.2435   -7.8618 
 H                     0.1101    9.4898   -6.932 
 H                     0.262     9.8438   -4.5029 
 H                     0.2421    8.8622   -2.1704 
 H                    -0.3999    4.8179   -1.5804 
 H                    -0.5587    4.3969   -4.0261 
 C                    -0.7637    2.4011   -6.9219 
 C                    -1.3621    1.9363   -8.1169 
 C                    -1.5667    0.6001   -8.3033 
 C                    -1.1839   -0.3391   -7.3206 
 C                    -1.3938   -1.7236   -7.4853 
 C                    -0.9927   -2.6114   -6.5297 
 C                    -0.362    -2.1647   -5.344 
 C                    -0.167    -0.8172   -5.1489 
 C                    -0.5655    0.1203   -6.1259 
 C                    -0.369     1.5024   -5.9503 
 H                    -1.6572    2.6515   -8.8701 
 H                    -2.0275    0.2414   -9.2124 
 H                    -1.8763   -2.072    -8.3865 
 H                    -1.1783   -3.6653   -6.6685 
 H                     0.3339   -0.4555   -4.2642 
 H                     0.1043    1.8579   -5.0477 
 C                     0.0859   -3.1723   -4.3705 
 C                     0.6695   -4.3623   -4.8172 
 C                     1.0359   -5.3335   -3.9022 
 C                     0.8077   -5.1048   -2.5574 
 N                     0.2734   -3.9577   -2.1212 
 C                    -0.0736   -3.0093   -2.9939 
 H                     0.8415   -4.5158   -5.871 
 H                     1.4843   -6.2583   -4.2273 
 H                     1.0588   -5.8546   -1.8099 
 H                    -0.5115   -2.1084   -2.5753 
 
 ITRead=  0  0  0  0  0  0  0  0  0  0  0  0  0  0  0  0  0  0  0  0
 ITRead=  0  0  0  0  0  0  0  0  0  0  0  0  0  0  0  0  0  0  0  0
 ITRead=  0  0  0  0  0  0  0  0  0  0  0  0  0  0  0  0  0  0  0  0
 ITRead=  0  0  0  0  0  0  0  0  0  0  0  0  0  0  0  0  0  0  0  0
 ITRead=  0  0  0  0  0  0  0  0  0  0  0  0  0  0  0  0  0  0  0  0
 ITRead=  0  0  0  0  0  0  0  0  0  0  0  0  0  0  0  0  0  0  0  0
 ITRead=  0  0  0  0  0  0  0  0  0  0  0  0  0  0  0  0  0  0  0  0
 ITRead=  0  0  0  0  0  0  0  0  0  0  0  0  0  0  0  0  0  0  0  0
 ITRead=  0  0  0  0  0  0  0  0  0  0  0  0  0  0  0  0  0  0
 MicOpt= -1 -1 -1 -1 -1 -1 -1 -1 -1 -1 -1 -1 -1 -1 -1 -1 -1 -1 -1 -1
 MicOpt= -1 -1 -1 -1 -1 -1 -1 -1 -1 -1 -1 -1 -1 -1 -1 -1 -1 -1 -1 -1
 MicOpt= -1 -1 -1 -1 -1 -1 -1 -1 -1 -1 -1 -1 -1 -1 -1 -1 -1 -1 -1 -1
 MicOpt= -1 -1 -1 -1 -1 -1 -1 -1 -1 -1 -1 -1 -1 -1 -1 -1 -1 -1 -1 -1
 MicOpt= -1 -1 -1 -1 -1 -1 -1 -1 -1 -1 -1 -1 -1 -1 -1 -1 -1 -1 -1 -1
 MicOpt= -1 -1 -1 -1 -1 -1 -1 -1 -1 -1 -1 -1 -1 -1 -1 -1 -1 -1 -1 -1
 MicOpt= -1 -1 -1 -1 -1 -1 -1 -1 -1 -1 -1 -1 -1 -1 -1 -1 -1 -1 -1 -1
 MicOpt= -1 -1 -1 -1 -1 -1 -1 -1 -1 -1 -1 -1 -1 -1 -1 -1 -1 -1 -1 -1
 MicOpt= -1 -1 -1 -1 -1 -1 -1 -1 -1 -1 -1 -1 -1 -1 -1 -1 -1 -1
 NAtoms=    178 NQM=      178 NQMF=       0 NMMI=      0 NMMIF=      0
                NMic=       0 NMicF=      0.
                    Isotopes and Nuclear Properties:
 (Nuclear quadrupole moments (NQMom) in fm**2, nuclear magnetic moments (NMagM)
  in nuclear magnetons)

  Atom         1           2           3           4           5           6           7           8           9          10
 IAtWgt=         106         106          12          12          12          12          12          12          12          12
 AtmWgt= 105.9032000 105.9032000  12.0000000  12.0000000  12.0000000  12.0000000  12.0000000  12.0000000  12.0000000  12.0000000
 NucSpn=           0           0           0           0           0           0           0           0           0           0
 AtZEff=  -0.0000000  -0.0000000  -0.0000000  -0.0000000  -0.0000000  -0.0000000  -0.0000000  -0.0000000  -0.0000000  -0.0000000
 NQMom=    0.0000000   0.0000000   0.0000000   0.0000000   0.0000000   0.0000000   0.0000000   0.0000000   0.0000000   0.0000000
 NMagM=    0.0000000   0.0000000   0.0000000   0.0000000   0.0000000   0.0000000   0.0000000   0.0000000   0.0000000   0.0000000
 AtZNuc=  46.0000000  46.0000000   6.0000000   6.0000000   6.0000000   6.0000000   6.0000000   6.0000000   6.0000000   6.0000000

  Atom        11          12          13          14          15          16          17          18          19          20
 IAtWgt=          14          12          12          12           1           1           1           1           1           1
 AtmWgt=  14.0030740  12.0000000  12.0000000  12.0000000   1.0078250   1.0078250   1.0078250   1.0078250   1.0078250   1.0078250
 NucSpn=           2           0           0           0           1           1           1           1           1           1
 AtZEff=  -0.0000000  -0.0000000  -0.0000000  -0.0000000  -0.0000000  -0.0000000  -0.0000000  -0.0000000  -0.0000000  -0.0000000
 NQMom=    2.0440000   0.0000000   0.0000000   0.0000000   0.0000000   0.0000000   0.0000000   0.0000000   0.0000000   0.0000000
 NMagM=    0.4037610   0.0000000   0.0000000   0.0000000   2.7928460   2.7928460   2.7928460   2.7928460   2.7928460   2.7928460
 AtZNuc=   7.0000000   6.0000000   6.0000000   6.0000000   1.0000000   1.0000000   1.0000000   1.0000000   1.0000000   1.0000000

  Atom        21          22          23          24          25          26          27          28          29          30
 IAtWgt=          12          12          12          12          12          12          12          12          12          12
 AtmWgt=  12.0000000  12.0000000  12.0000000  12.0000000  12.0000000  12.0000000  12.0000000  12.0000000  12.0000000  12.0000000
 NucSpn=           0           0           0           0           0           0           0           0           0           0
 AtZEff=  -0.0000000  -0.0000000  -0.0000000  -0.0000000  -0.0000000  -0.0000000  -0.0000000  -0.0000000  -0.0000000  -0.0000000
 NQMom=    0.0000000   0.0000000   0.0000000   0.0000000   0.0000000   0.0000000   0.0000000   0.0000000   0.0000000   0.0000000
 NMagM=    0.0000000   0.0000000   0.0000000   0.0000000   0.0000000   0.0000000   0.0000000   0.0000000   0.0000000   0.0000000
 AtZNuc=   6.0000000   6.0000000   6.0000000   6.0000000   6.0000000   6.0000000   6.0000000   6.0000000   6.0000000   6.0000000

  Atom        31          32          33          34          35          36          37          38          39          40
 IAtWgt=           1           1           1           1           1           1          12          12          12          12
 AtmWgt=   1.0078250   1.0078250   1.0078250   1.0078250   1.0078250   1.0078250  12.0000000  12.0000000  12.0000000  12.0000000
 NucSpn=           1           1           1           1           1           1           0           0           0           0
 AtZEff=  -0.0000000  -0.0000000  -0.0000000  -0.0000000  -0.0000000  -0.0000000  -0.0000000  -0.0000000  -0.0000000  -0.0000000
 NQMom=    0.0000000   0.0000000   0.0000000   0.0000000   0.0000000   0.0000000   0.0000000   0.0000000   0.0000000   0.0000000
 NMagM=    2.7928460   2.7928460   2.7928460   2.7928460   2.7928460   2.7928460   0.0000000   0.0000000   0.0000000   0.0000000
 AtZNuc=   1.0000000   1.0000000   1.0000000   1.0000000   1.0000000   1.0000000   6.0000000   6.0000000   6.0000000   6.0000000

  Atom        41          42          43          44          45          46          47          48          49          50
 IAtWgt=          14          12           1           1           1           1          12          12          12          12
 AtmWgt=  14.0030740  12.0000000   1.0078250   1.0078250   1.0078250   1.0078250  12.0000000  12.0000000  12.0000000  12.0000000
 NucSpn=           2           0           1           1           1           1           0           0           0           0
 AtZEff=  -0.0000000  -0.0000000  -0.0000000  -0.0000000  -0.0000000  -0.0000000  -0.0000000  -0.0000000  -0.0000000  -0.0000000
 NQMom=    2.0440000   0.0000000   0.0000000   0.0000000   0.0000000   0.0000000   0.0000000   0.0000000   0.0000000   0.0000000
 NMagM=    0.4037610   0.0000000   2.7928460   2.7928460   2.7928460   2.7928460   0.0000000   0.0000000   0.0000000   0.0000000
 AtZNuc=   7.0000000   6.0000000   1.0000000   1.0000000   1.0000000   1.0000000   6.0000000   6.0000000   6.0000000   6.0000000

  Atom        51          52          53          54          55          56          57          58          59          60
 IAtWgt=          12          12          12          12          14          12          12          12           1           1
 AtmWgt=  12.0000000  12.0000000  12.0000000  12.0000000  14.0030740  12.0000000  12.0000000  12.0000000   1.0078250   1.0078250
 NucSpn=           0           0           0           0           2           0           0           0           1           1
 AtZEff=  -0.0000000  -0.0000000  -0.0000000  -0.0000000  -0.0000000  -0.0000000  -0.0000000  -0.0000000  -0.0000000  -0.0000000
 NQMom=    0.0000000   0.0000000   0.0000000   0.0000000   2.0440000   0.0000000   0.0000000   0.0000000   0.0000000   0.0000000
 NMagM=    0.0000000   0.0000000   0.0000000   0.0000000   0.4037610   0.0000000   0.0000000   0.0000000   2.7928460   2.7928460
 AtZNuc=   6.0000000   6.0000000   6.0000000   6.0000000   7.0000000   6.0000000   6.0000000   6.0000000   1.0000000   1.0000000

  Atom        61          62          63          64          65          66          67          68          69          70
 IAtWgt=           1           1           1           1          12          12          12          12          12          12
 AtmWgt=   1.0078250   1.0078250   1.0078250   1.0078250  12.0000000  12.0000000  12.0000000  12.0000000  12.0000000  12.0000000
 NucSpn=           1           1           1           1           0           0           0           0           0           0
 AtZEff=  -0.0000000  -0.0000000  -0.0000000  -0.0000000  -0.0000000  -0.0000000  -0.0000000  -0.0000000  -0.0000000  -0.0000000
 NQMom=    0.0000000   0.0000000   0.0000000   0.0000000   0.0000000   0.0000000   0.0000000   0.0000000   0.0000000   0.0000000
 NMagM=    2.7928460   2.7928460   2.7928460   2.7928460   0.0000000   0.0000000   0.0000000   0.0000000   0.0000000   0.0000000
 AtZNuc=   1.0000000   1.0000000   1.0000000   1.0000000   6.0000000   6.0000000   6.0000000   6.0000000   6.0000000   6.0000000

  Atom        71          72          73          74          75          76          77          78          79          80
 IAtWgt=          12          12          12          12           1           1           1           1           1           1
 AtmWgt=  12.0000000  12.0000000  12.0000000  12.0000000   1.0078250   1.0078250   1.0078250   1.0078250   1.0078250   1.0078250
 NucSpn=           0           0           0           0           1           1           1           1           1           1
 AtZEff=  -0.0000000  -0.0000000  -0.0000000  -0.0000000  -0.0000000  -0.0000000  -0.0000000  -0.0000000  -0.0000000  -0.0000000
 NQMom=    0.0000000   0.0000000   0.0000000   0.0000000   0.0000000   0.0000000   0.0000000   0.0000000   0.0000000   0.0000000
 NMagM=    0.0000000   0.0000000   0.0000000   0.0000000   2.7928460   2.7928460   2.7928460   2.7928460   2.7928460   2.7928460
 AtZNuc=   6.0000000   6.0000000   6.0000000   6.0000000   1.0000000   1.0000000   1.0000000   1.0000000   1.0000000   1.0000000

  Atom        81          82          83          84          85          86          87          88          89          90
 IAtWgt=          12          12          12          12          14          12           1           1           1           1
 AtmWgt=  12.0000000  12.0000000  12.0000000  12.0000000  14.0030740  12.0000000   1.0078250   1.0078250   1.0078250   1.0078250
 NucSpn=           0           0           0           0           2           0           1           1           1           1
 AtZEff=  -0.0000000  -0.0000000  -0.0000000  -0.0000000  -0.0000000  -0.0000000  -0.0000000  -0.0000000  -0.0000000  -0.0000000
 NQMom=    0.0000000   0.0000000   0.0000000   0.0000000   2.0440000   0.0000000   0.0000000   0.0000000   0.0000000   0.0000000
 NMagM=    0.0000000   0.0000000   0.0000000   0.0000000   0.4037610   0.0000000   2.7928460   2.7928460   2.7928460   2.7928460
 AtZNuc=   6.0000000   6.0000000   6.0000000   6.0000000   7.0000000   6.0000000   1.0000000   1.0000000   1.0000000   1.0000000

  Atom        91          92          93          94          95          96          97          98          99         100
 IAtWgt=          12          12          12          12          12          12          12          12          14          12
 AtmWgt=  12.0000000  12.0000000  12.0000000  12.0000000  12.0000000  12.0000000  12.0000000  12.0000000  14.0030740  12.0000000
 NucSpn=           0           0           0           0           0           0           0           0           2           0
 AtZEff=  -0.0000000  -0.0000000  -0.0000000  -0.0000000  -0.0000000  -0.0000000  -0.0000000  -0.0000000  -0.0000000  -0.0000000
 NQMom=    0.0000000   0.0000000   0.0000000   0.0000000   0.0000000   0.0000000   0.0000000   0.0000000   2.0440000   0.0000000
 NMagM=    0.0000000   0.0000000   0.0000000   0.0000000   0.0000000   0.0000000   0.0000000   0.0000000   0.4037610   0.0000000
 AtZNuc=   6.0000000   6.0000000   6.0000000   6.0000000   6.0000000   6.0000000   6.0000000   6.0000000   7.0000000   6.0000000

  Atom       101         102         103         104         105         106         107         108         109         110
 IAtWgt=          12          12           1           1           1           1           1           1          12          12
 AtmWgt=  12.0000000  12.0000000   1.0078250   1.0078250   1.0078250   1.0078250   1.0078250   1.0078250  12.0000000  12.0000000
 NucSpn=           0           0           1           1           1           1           1           1           0           0
 AtZEff=  -0.0000000  -0.0000000  -0.0000000  -0.0000000  -0.0000000  -0.0000000  -0.0000000  -0.0000000  -0.0000000  -0.0000000
 NQMom=    0.0000000   0.0000000   0.0000000   0.0000000   0.0000000   0.0000000   0.0000000   0.0000000   0.0000000   0.0000000
 NMagM=    0.0000000   0.0000000   2.7928460   2.7928460   2.7928460   2.7928460   2.7928460   2.7928460   0.0000000   0.0000000
 AtZNuc=   6.0000000   6.0000000   1.0000000   1.0000000   1.0000000   1.0000000   1.0000000   1.0000000   6.0000000   6.0000000

  Atom       111         112         113         114         115         116         117         118         119         120
 IAtWgt=          12          12          12          12          12          12          12          12           1           1
 AtmWgt=  12.0000000  12.0000000  12.0000000  12.0000000  12.0000000  12.0000000  12.0000000  12.0000000   1.0078250   1.0078250
 NucSpn=           0           0           0           0           0           0           0           0           1           1
 AtZEff=  -0.0000000  -0.0000000  -0.0000000  -0.0000000  -0.0000000  -0.0000000  -0.0000000  -0.0000000  -0.0000000  -0.0000000
 NQMom=    0.0000000   0.0000000   0.0000000   0.0000000   0.0000000   0.0000000   0.0000000   0.0000000   0.0000000   0.0000000
 NMagM=    0.0000000   0.0000000   0.0000000   0.0000000   0.0000000   0.0000000   0.0000000   0.0000000   2.7928460   2.7928460
 AtZNuc=   6.0000000   6.0000000   6.0000000   6.0000000   6.0000000   6.0000000   6.0000000   6.0000000   1.0000000   1.0000000

  Atom       121         122         123         124         125         126         127         128         129         130
 IAtWgt=           1           1           1           1          12          12          12          12          14          12
 AtmWgt=   1.0078250   1.0078250   1.0078250   1.0078250  12.0000000  12.0000000  12.0000000  12.0000000  14.0030740  12.0000000
 NucSpn=           1           1           1           1           0           0           0           0           2           0
 AtZEff=  -0.0000000  -0.0000000  -0.0000000  -0.0000000  -0.0000000  -0.0000000  -0.0000000  -0.0000000  -0.0000000  -0.0000000
 NQMom=    0.0000000   0.0000000   0.0000000   0.0000000   0.0000000   0.0000000   0.0000000   0.0000000   2.0440000   0.0000000
 NMagM=    2.7928460   2.7928460   2.7928460   2.7928460   0.0000000   0.0000000   0.0000000   0.0000000   0.4037610   0.0000000
 AtZNuc=   1.0000000   1.0000000   1.0000000   1.0000000   6.0000000   6.0000000   6.0000000   6.0000000   7.0000000   6.0000000

  Atom       131         132         133         134         135         136         137         138         139         140
 IAtWgt=           1           1           1           1          12          12          12          12          12          12
 AtmWgt=   1.0078250   1.0078250   1.0078250   1.0078250  12.0000000  12.0000000  12.0000000  12.0000000  12.0000000  12.0000000
 NucSpn=           1           1           1           1           0           0           0           0           0           0
 AtZEff=  -0.0000000  -0.0000000  -0.0000000  -0.0000000  -0.0000000  -0.0000000  -0.0000000  -0.0000000  -0.0000000  -0.0000000
 NQMom=    0.0000000   0.0000000   0.0000000   0.0000000   0.0000000   0.0000000   0.0000000   0.0000000   0.0000000   0.0000000
 NMagM=    2.7928460   2.7928460   2.7928460   2.7928460   0.0000000   0.0000000   0.0000000   0.0000000   0.0000000   0.0000000
 AtZNuc=   1.0000000   1.0000000   1.0000000   1.0000000   6.0000000   6.0000000   6.0000000   6.0000000   6.0000000   6.0000000

  Atom       141         142         143         144         145         146         147         148         149         150
 IAtWgt=          12          12          14          12          12          12           1           1           1           1
 AtmWgt=  12.0000000  12.0000000  14.0030740  12.0000000  12.0000000  12.0000000   1.0078250   1.0078250   1.0078250   1.0078250
 NucSpn=           0           0           2           0           0           0           1           1           1           1
 AtZEff=  -0.0000000  -0.0000000  -0.0000000  -0.0000000  -0.0000000  -0.0000000  -0.0000000  -0.0000000  -0.0000000  -0.0000000
 NQMom=    0.0000000   0.0000000   2.0440000   0.0000000   0.0000000   0.0000000   0.0000000   0.0000000   0.0000000   0.0000000
 NMagM=    0.0000000   0.0000000   0.4037610   0.0000000   0.0000000   0.0000000   2.7928460   2.7928460   2.7928460   2.7928460
 AtZNuc=   6.0000000   6.0000000   7.0000000   6.0000000   6.0000000   6.0000000   1.0000000   1.0000000   1.0000000   1.0000000

  Atom       151         152         153         154         155         156         157         158         159         160
 IAtWgt=           1           1          12          12          12          12          12          12          12          12
 AtmWgt=   1.0078250   1.0078250  12.0000000  12.0000000  12.0000000  12.0000000  12.0000000  12.0000000  12.0000000  12.0000000
 NucSpn=           1           1           0           0           0           0           0           0           0           0
 AtZEff=  -0.0000000  -0.0000000  -0.0000000  -0.0000000  -0.0000000  -0.0000000  -0.0000000  -0.0000000  -0.0000000  -0.0000000
 NQMom=    0.0000000   0.0000000   0.0000000   0.0000000   0.0000000   0.0000000   0.0000000   0.0000000   0.0000000   0.0000000
 NMagM=    2.7928460   2.7928460   0.0000000   0.0000000   0.0000000   0.0000000   0.0000000   0.0000000   0.0000000   0.0000000
 AtZNuc=   1.0000000   1.0000000   6.0000000   6.0000000   6.0000000   6.0000000   6.0000000   6.0000000   6.0000000   6.0000000

  Atom       161         162         163         164         165         166         167         168         169         170
 IAtWgt=          12          12           1           1           1           1           1           1          12          12
 AtmWgt=  12.0000000  12.0000000   1.0078250   1.0078250   1.0078250   1.0078250   1.0078250   1.0078250  12.0000000  12.0000000
 NucSpn=           0           0           1           1           1           1           1           1           0           0
 AtZEff=  -0.0000000  -0.0000000  -0.0000000  -0.0000000  -0.0000000  -0.0000000  -0.0000000  -0.0000000  -0.0000000  -0.0000000
 NQMom=    0.0000000   0.0000000   0.0000000   0.0000000   0.0000000   0.0000000   0.0000000   0.0000000   0.0000000   0.0000000
 NMagM=    0.0000000   0.0000000   2.7928460   2.7928460   2.7928460   2.7928460   2.7928460   2.7928460   0.0000000   0.0000000
 AtZNuc=   6.0000000   6.0000000   1.0000000   1.0000000   1.0000000   1.0000000   1.0000000   1.0000000   6.0000000   6.0000000

  Atom       171         172         173         174         175         176         177         178
 IAtWgt=          12          12          14          12           1           1           1           1
 AtmWgt=  12.0000000  12.0000000  14.0030740  12.0000000   1.0078250   1.0078250   1.0078250   1.0078250
 NucSpn=           0           0           2           0           1           1           1           1
 AtZEff=  -0.0000000  -0.0000000  -0.0000000  -0.0000000  -0.0000000  -0.0000000  -0.0000000  -0.0000000
 NQMom=    0.0000000   0.0000000   2.0440000   0.0000000   0.0000000   0.0000000   0.0000000   0.0000000
 NMagM=    0.0000000   0.0000000   0.4037610   0.0000000   2.7928460   2.7928460   2.7928460   2.7928460
 AtZNuc=   6.0000000   6.0000000   7.0000000   6.0000000   1.0000000   1.0000000   1.0000000   1.0000000
 Leave Link  101 at Fri Feb 26 11:34:49 2021, MaxMem=  7864320000 cpu:               7.5 elap:               0.3
 (Enter /apps/gaussian/g16-c01-avx/g16/l202.exe)
 Stoichiometry    C104H64N8Pd2(4+)
 Framework group  C1[X(C104H64N8Pd2)]
 Deg. of freedom   528
 Full point group                 C1      NOp   1
 Largest Abelian subgroup         C1      NOp   1
 Largest concise Abelian subgroup C1      NOp   1
                         Standard orientation:                         
 ---------------------------------------------------------------------
 Center     Atomic      Atomic             Coordinates (Angstroms)
 Number     Number       Type             X           Y           Z
 ---------------------------------------------------------------------
      1         46           0        5.204496   -0.003450   -0.010936
      2         46           0       -5.621966   -0.002034   -0.009941
      3          6           0        1.866258   -4.899858   -4.721148
      4          6           0        3.053567   -4.787907   -4.517414
      5          6           0        4.386223   -4.518821   -4.148483
      6          6           0        5.462547   -5.254868   -4.606133
      7          6           0        6.764675   -4.957491   -4.183334
      8          6           0        7.011908   -3.937138   -3.300495
      9          6           0        5.941123   -3.157074   -2.813361
     10          6           0        6.118677   -2.102458   -1.893885
     11          7           0        5.116898   -1.376944   -1.446180
     12          6           0        3.854820   -1.620811   -1.884094
     13          6           0        3.574625   -2.623122   -2.764646
     14          6           0        4.616247   -3.439230   -3.247997
     15          1           0        5.298008   -6.071460   -5.292796
     16          1           0        7.581915   -5.553057   -4.560646
     17          1           0        8.017624   -3.724353   -2.974655
     18          1           0        7.109992   -1.861915   -1.521473
     19          1           0        3.070612   -0.968487   -1.501982
     20          1           0        2.567388   -2.803435   -3.103236
     21          6           0        0.474349   -4.969304   -4.937480
     22          6           0       -0.042563   -5.538032   -6.125517
     23          6           0       -1.388994   -5.551833   -6.346358
     24          6           0       -2.287330   -5.009889   -5.400948
     25          6           0       -3.681348   -5.000737   -5.611776
     26          6           0       -4.528671   -4.490723   -4.671591
     27          6           0       -4.029589   -3.951227   -3.461932
     28          6           0       -2.671903   -3.927572   -3.242376
     29          6           0       -1.775353   -4.455014   -4.196516
     30          6           0       -0.383421   -4.445182   -3.990592
     31          1           0        0.641281   -5.951859   -6.851524
     32          1           0       -1.787574   -5.980548   -7.254502
     33          1           0       -4.069875   -5.409216   -6.533085
     34          1           0       -5.590880   -4.477541   -4.861378
     35          1           0       -2.269914   -3.543854   -2.317349
     36          1           0        0.012150   -4.029117   -3.076538
     37          6           0       -4.995056   -3.455920   -2.469037
     38          6           0       -6.183986   -4.157279   -2.243116
     39          6           0       -7.118026   -3.657543   -1.352733
     40          6           0       -6.852689   -2.464482   -0.705652
     41          7           0       -5.704811   -1.802685   -0.896148
     42          6           0       -4.793169   -2.279542   -1.746111
     43          1           0       -6.365687   -5.089234   -2.754932
     44          1           0       -8.041923   -4.181521   -1.168740
     45          1           0       -7.573245   -2.026792   -0.017364
     46          1           0       -3.890901   -1.687426   -1.864170
     47          6           0        1.860036   -4.774826    4.825900
     48          6           0        3.047483   -4.570689    4.715975
     49          6           0        4.380373   -4.199120    4.452183
     50          6           0        5.456757   -4.672867    5.177936
     51          6           0        6.759366   -4.247092    4.886993
     52          6           0        7.007156   -3.345767    3.882965
     53          6           0        5.936400   -2.841766    3.113865
     54          6           0        6.114799   -1.904646    2.075070
     55          7           0        5.113222   -1.441940    1.358889
     56          6           0        3.849997   -1.879551    1.597868
     57          6           0        3.569161   -2.777018    2.584885
     58          6           0        4.610836   -3.278382    3.389818
     59          1           0        5.291870   -5.374565    5.981549
     60          1           0        7.576655   -4.637276    5.474185
     61          1           0        8.013333   -3.018161    3.675057
     62          1           0        7.106677   -1.530781    1.839188
     63          1           0        3.065636   -1.482942    0.954294
     64          1           0        2.561125   -3.115608    2.761175
     65          6           0        0.467734   -4.988595    4.894760
     66          6           0       -0.052022   -6.181133    5.451395
     67          6           0       -1.399281   -6.397119    5.466518
     68          6           0       -2.295629   -5.442322    4.938101
     69          6           0       -3.690597   -5.647077    4.931980
     70          6           0       -4.535882   -4.697597    4.435750
     71          6           0       -4.033536   -3.484487    3.907338
     72          6           0       -2.674996   -3.270526    3.880646
     73          6           0       -1.780678   -4.234004    4.394627
     74          6           0       -0.388072   -4.033082    4.382928
     75          1           0        0.630240   -6.914071    5.855354
     76          1           0       -1.800023   -7.308492    5.886379
     77          1           0       -4.081586   -6.571108    5.331853
     78          1           0       -5.598922   -4.882467    4.424975
     79          1           0       -2.270599   -2.343109    3.505556
     80          1           0        0.009726   -3.115909    3.975852
     81          6           0       -4.996156   -2.482030    3.425916
     82          6           0       -6.181006   -2.256344    4.134061
     83          6           0       -7.111718   -1.355671    3.646834
     84          6           0       -6.847904   -0.699177    2.458540
     85          7           0       -5.704401   -0.890521    1.789724
     86          6           0       -4.795175   -1.749482    2.255369
     87          1           0       -6.361825   -2.776463    5.061659
     88          1           0       -8.032151   -1.171003    4.176687
     89          1           0       -7.565882   -0.002513    2.030592
     90          1           0       -3.895797   -1.866793    1.658818
     91          6           0        1.864272    4.865367    4.730369
     92          6           0        3.051482    4.753458    4.526316
     93          6           0        4.384190    4.485781    4.156311
     94          6           0        5.461162    5.215497    4.622660
     95          6           0        6.763406    4.920127    4.198860
     96          6           0        7.010113    3.907705    3.306612
     97          6           0        5.938692    3.134442    2.810335
     98          6           0        6.115935    2.087692    1.881888
     99          7           0        5.113698    1.368060    1.425901
    100          6           0        3.851042    1.610876    1.863074
    101          6           0        3.571305    2.605683    2.752262
    102          6           0        4.613632    3.414910    3.245329
    103          1           0        5.296969    6.025533    5.317166
    104          1           0        7.581160    5.510390    4.583192
    105          1           0        8.015970    3.696292    2.980340
    106          1           0        7.107574    1.848292    1.509350
    107          1           0        3.066325    0.963845    1.473115
    108          1           0        2.563649    2.784953    3.090390
    109          6           0        0.472199    4.935292    4.945376
    110          6           0       -0.045923    5.498365    6.135566
    111          6           0       -1.392811    5.513318    6.353965
    112          6           0       -2.290306    4.978225    5.404039
    113          6           0       -3.684842    4.970946    5.611761
    114          6           0       -4.531232    4.467543    4.667196
    115          6           0       -4.030579    3.932913    3.456013
    116          6           0       -2.672496    3.907540    3.239222
    117          6           0       -1.777033    4.428442    4.197768
    118          6           0       -0.384744    4.417328    3.994313
    119          1           0        0.637324    5.907155    6.864983
    120          1           0       -1.792289    5.937966    7.263634
    121          1           0       -4.074461    5.375543    6.534343
    122          1           0       -5.593849    4.455788    4.854515
    123          1           0       -2.269409    3.527690    2.313133
    124          1           0        0.011833    4.005417    3.078782
    125          6           0       -4.994659    3.443895    2.458676
    126          6           0       -6.181402    4.148471    2.232043
    127          6           0       -7.113711    3.654332    1.336592
    128          6           0       -6.848884    2.463242    0.685672
    129          7           0       -5.703170    1.798113    0.877467
    130          6           0       -4.793034    2.269879    1.731841
    131          1           0       -6.362795    5.078604    2.747249
    132          1           0       -8.035806    4.181128    1.151688
    133          1           0       -7.567957    2.029713   -0.006833
    134          1           0       -3.892380    1.675454    1.850227
    135          6           0        1.866166    4.815247   -4.804146
    136          6           0        3.053700    4.609696   -4.697309
    137          6           0        4.386306    4.234399   -4.437005
    138          6           0        5.464050    4.718503   -5.153972
    139          6           0        6.766166    4.289151   -4.866044
    140          6           0        7.012185    3.374627   -3.873637
    141          6           0        5.940048    2.859759   -3.113670
    142          6           0        6.116883    1.910055   -2.085907
    143          7           0        5.113973    1.437405   -1.378178
    144          6           0        3.850785    1.875706   -1.616010
    145          6           0        3.571486    2.785361   -2.592185
    146          6           0        4.614885    3.298905   -3.387191
    147          1           0        5.300602    5.431185   -5.948035
    148          1           0        7.584549    4.687587   -5.446110
    149          1           0        8.018135    3.044999   -3.667677
    150          1           0        7.108674    1.534765   -1.852032
    151          1           0        3.064810    1.469365   -0.980534
    152          1           0        2.563548    3.124727   -2.767268
    153          6           0        0.473723    5.028903   -4.869088
    154          6           0       -0.047879    6.227558   -5.410663
    155          6           0       -1.395412    6.442181   -5.421949
    156          6           0       -2.290246    5.479950   -4.904535
    157          6           0       -3.685542    5.682665   -4.895601
    158          6           0       -4.529237    4.725884   -4.410843
    159          6           0       -4.024894    3.507382   -3.896937
    160          6           0       -2.666134    3.295164   -3.872856
    161          6           0       -1.773362    4.265809   -4.375889
    162          6           0       -0.380587    4.066402   -4.367886
    163          1           0        0.633263    6.966165   -5.806151
    164          1           0       -1.797510    7.358120   -5.830407
    165          1           0       -4.077852    6.610804   -5.284191
    166          1           0       -5.592654    4.908635   -4.398004
    167          1           0       -2.260415    2.363916   -3.508724
    168          1           0        0.018543    3.144799   -3.972383
    169          6           0       -4.986106    2.497624   -3.427858
    170          6           0       -6.168575    2.276167   -4.141268
    171          6           0       -7.098020    1.368082   -3.665645
    172          6           0       -6.836005    0.701122   -2.482692
    173          7           0       -5.695022    0.889239   -1.808631
    174          6           0       -4.786386    1.754462   -2.263874
    175          1           0       -6.348443    2.805248   -5.063960
    176          1           0       -8.016466    1.185949   -4.199774
    177          1           0       -7.553394   -0.001518   -2.063578
    178          1           0       -3.888578    1.868052   -1.664173
 ---------------------------------------------------------------------
 Rotational constants (GHZ):           0.0116338           0.0086815           0.0086035
 Leave Link  202 at Fri Feb 26 11:34:49 2021, MaxMem=  7864320000 cpu:               0.4 elap:               0.1
 (Enter /apps/gaussian/g16-c01-avx/g16/l301.exe)
 Standard basis: def2SVP (5D, 7F)
 Ernie: Thresh=  0.10000D-02 Tol=  0.10000D-05 Strict=F.
 There are  2072 symmetry adapted cartesian basis functions of A   symmetry.
 There are  1950 symmetry adapted basis functions of A   symmetry.
  1950 basis functions,  3378 primitive gaussians,  2072 cartesian basis functions
   388 alpha electrons      388 beta electrons
       nuclear repulsion energy     21868.9884684709 Hartrees.
 IExCor= 1009 DFT=T Ex+Corr=PBE1PBE ExCW=0 ScaHFX=  0.250000
 ScaDFX=  0.750000  0.750000  1.000000  1.000000 ScalE2=  1.000000  1.000000
 IRadAn=      7 IRanWt=     -1 IRanGd=            0 ICorTp=0 IEmpDi=141
 NAtoms=  178 NActive=  178 NUniq=  178 SFac= 1.00D+00 NAtFMM=   60 NAOKFM=T Big=T
 Integral buffers will be    131072 words long.
 Raffenetti 2 integral format.
 Two-electron integral symmetry is turned on.
 R6Disp:  Grimme-D3(BJ) Dispersion energy=       -0.2865077226 Hartrees.
 Nuclear repulsion after empirical dispersion term =    21868.7019607482 Hartrees.
 ------------------------------------------------------------------------------
 Polarizable Continuum Model (PCM)
 =================================
 Model                : PCM.
 Atomic radii         : UFF (Universal Force Field).
 Polarization charges : Total charges.
 Charge compensation  : None.
 Solution method      : On-the-fly selection.
 Cavity type          : Scaled VdW (van der Waals Surface) (Alpha=1.100).
 Cavity algorithm     : GePol (No added spheres)
                        Default sphere list used, NSphG=  178.
                        Lebedev-Laikov grids with approx.  5.0 points / Ang**2.
                        Smoothing algorithm: York/Karplus (Gamma=1.0000).
                        Polarization charges: spherical gaussians, with
                                              point-specific exponents (IZeta= 3).
                        Self-potential: point-specific (ISelfS= 7).
                        Self-field    : sphere-specific E.n sum rule (ISelfD= 2).
 Solvent              : DiMethylSulfoxide, Eps=  46.826000 Eps(inf)=   2.007889
 ------------------------------------------------------------------------------
 GePol: Number of generator spheres                  =     178
 GePol: Total number of spheres                      =     178
 GePol: Number of exposed spheres                    =     178 (100.00%)
 GePol: Number of points                             =   12418
 GePol: Average weight of points                     =       0.13
 GePol: Minimum weight of points                     =   0.12D-11
 GePol: Maximum weight of points                     =    0.20577
 GePol: Number of points with low weight             =     973
 GePol: Fraction of low-weight points (<1% of avg)   =       7.84%
 GePol: Cavity surface area                          =   1572.400 Ang**2
 GePol: Cavity volume                                =   1923.905 Ang**3
 Leave Link  301 at Fri Feb 26 11:34:49 2021, MaxMem=  7864320000 cpu:               5.1 elap:               0.2
 (Enter /apps/gaussian/g16-c01-avx/g16/l302.exe)
 NPDir=0 NMtPBC=     1 NCelOv=     1 NCel=       1 NClECP=     1 NCelD=      1
         NCelK=      1 NCelE2=     1 NClLst=     1 CellRange=     0.0.
 One-electron integrals computed using PRISM.
 One-electron integral symmetry used in STVInt
   1 Symmetry operations used in ECPInt.
 ECPInt:  NShTT=  392941 NPrTT= 1450931 LenC2=  205108 LenP2D=  418318.
 LDataN:  DoStor=T MaxTD1= 7 Len=  274
 NBasis=  1950 RedAO= T EigKep=  2.37D-04  NBF=  1950
 NBsUse=  1950 1.00D-06 EigRej= -1.00D+00 NBFU=  1950
 Precomputing XC quadrature grid using
 IXCGrd= 4 IRadAn=           7 IRanWt=          -1 IRanGd=           0 AccXCQ= 0.00D+00.
 Generated NRdTot=       0 NPtTot=           0 NUsed=           0 NTot=          32
 NSgBfM=  1620  1606  1619  1619  1620 MxSgAt=   178 MxSgA2=   178.
 Leave Link  302 at Fri Feb 26 11:35:11 2021, MaxMem=  7864320000 cpu:             687.2 elap:              21.6
 (Enter /apps/gaussian/g16-c01-avx/g16/l303.exe)
 DipDrv:  MaxL=1.
 Leave Link  303 at Fri Feb 26 11:35:12 2021, MaxMem=  7864320000 cpu:              32.3 elap:               1.1
 (Enter /apps/gaussian/g16-c01-avx/g16/l401.exe)
 ExpMin= 3.70D-02 ExpMax= 1.71D+03 ExpMxC= 2.58D+02 IAcc=3 IRadAn=         7 AccDes= 0.00D+00
 Harris functional with IExCor= 1009 and IRadAn=       7 diagonalized for initial guess.
 HarFok:  IExCor= 1009 AccDes= 0.00D+00 IRadAn=         7 IDoV= 1 UseB2=F ITyADJ=14
 ICtDFT=  3500011 ScaDFX=  1.000000  1.000000  1.000000  1.000000
 FoFCou: FMM=F IPFlag=           0 FMFlag=      100000 FMFlg1=        2001
         NFxFlg=           0 DoJE=T BraDBF=F KetDBF=T FulRan=T
         wScrn=  0.000000 ICntrl=       500 IOpCl=  0 I1Cent=   200000004 NGrid=           0
         NMat0=    1 NMatS0=      1 NMatT0=    0 NMatD0=    1 NMtDS0=    0 NMtDT0=    0
 Petite list used in FoFCou.
 Harris En= -4688.79305308932    
 JPrj=0 DoOrth=F DoCkMO=F.
 Leave Link  401 at Fri Feb 26 11:36:03 2021, MaxMem=  7864320000 cpu:            1632.3 elap:              51.2
 (Enter /apps/gaussian/g16-c01-avx/g16/l508.exe)
 Integral symmetry usage will be decided dynamically.
 Tight linear equation convergence will be used.
 RPBE1PBE wavefunction.
 Linear searches until partial convergence.
 Full line searches.
 Fock matrices will be formed incrementally for  20 cycles.
 Inv3:  Mode=1 IEnd=   462620172.
 Iteration    1 A*A^-1 deviation from unit magnitude is 1.07D-14 for  12397.
 Iteration    1 A*A^-1 deviation from orthogonality  is 4.38D-15 for  12389   6930.
 Iteration    1 A^-1*A deviation from unit magnitude is 9.77D-15 for  12397.
 Iteration    1 A^-1*A deviation from orthogonality  is 1.49D-14 for   6919   6871.
 FoFJK:  IHMeth= 1 ICntrl=       0 DoSepK=F KAlg= 0 I1Cent=           0 FoldK=F
 IRaf= 480000000 NMat=       1 IRICut=       1 DoRegI=T DoRafI=F ISym2E= 1 IDoP0=0 IntGTp=1.
 Iteration   1 EE= -4658.79485917917                                    Grad=5.636D+00 Max rot=   48.3350 deg.
 Gradient too large for Newton-Raphson -- use scaled steepest descent instead.
 Alpha Gap=     0.051 HL deriv= 5.31D-03
     ILin= 1 X=0.000D+00 Y=-4.658794859179D+03 DE= 0.00D+00 F= -9.60D+01
 RMSU=  1.11D-03    CP:  9.87D-01
     ILin= 2 X=1.000D-01 Y=-4.666860911860D+03 DE=-8.07D+00 F= -5.88D+01 OKLS=F
 RMSU=  9.73D-04    CP:  9.73D-01  1.71D+00
     ILin= 3 X=2.000D-01 Y=-4.670576007424D+03 DE=-1.18D+01 F= -1.99D+01
     Note:  rotation exceeds Pi/2.
 RMSU=  7.76D-05    CP:  9.71D-01  1.73D+00  1.15D+00
     ILin= 4 X=2.153D-01 Y=-4.670852808208D+03 DE=-1.21D+01 F= -1.65D+01
     Note:  rotation exceeds Pi/2.
 RMSU=  7.44D-04    CP:  9.60D-01  1.46D+00  1.55D+00  3.00D+00
     ILin= 5 X=3.045D-01 Y=-4.671903760940D+03 DE=-1.31D+01 F= -1.07D+01
     Note:  rotation exceeds Pi/2.
 RMSU=  5.61D-04    CP:  9.44D-01  1.40D+00  9.42D-01  3.00D+00  2.81D+00
     ILin= 6 X=4.306D-01 Y=-4.673476491614D+03 DE=-1.47D+01 F= -9.74D+00
     Note:  rotation exceeds Pi/2.
 RMSU=  6.16D-04    CP:  9.23D-01  2.65D+00  1.90D+00  3.00D+00  2.74D+00
                    CP:  3.00D+00
     ILin= 7 X=6.089D-01 Y=-4.671525629851D+03 DE=-1.27D+01 F=  2.92D+01
     An  expanding polynomial of degree  7 produced  0.4981
 RMSU=  4.75D-05    CP:  9.36D-01  1.92D+00  9.15D-01  3.00D+00  2.98D+00
                    CP:  2.05D+00  1.27D-01
 Iteration   2 EE= -4673.65321805836     Delta-E=      -14.858358879188 Grad=3.199D+00 Max rot=   25.7825 deg.
 Gradient too large for Newton-Raphson -- use scaled steepest descent instead.
 Alpha Gap=     0.204 HL deriv= 1.09D-03
     ILin= 1 X=0.000D+00 Y=-4.673653218058D+03 DE= 0.00D+00 F= -4.58D+01
 RMSU=  1.20D-03    CP:  9.33D-01  1.77D+00  7.04D-01  3.00D+00  2.50D+00
                    CP:  1.11D+00  4.39D-01  2.64D+00
     ILin= 2 X=2.000D-01 Y=-4.679368437698D+03 DE=-5.72D+00 F= -1.12D+01 OKLS=F
 RMSU=  3.52D-04    CP:  9.31D-01  1.67D+00  6.59D-01  3.00D+00  2.15D+00
                    CP:  8.82D-01  7.10D-01  3.00D+00  1.38D+00
     ILin= 3 X=3.000D-01 Y=-4.679802625688D+03 DE=-6.15D+00 F=  1.72D+00
 RMSU=  5.34D-04    CP:  9.27D-01  1.48D+00  7.46D-01  3.00D+00  1.48D+00
                    CP:  9.99D-01  1.01D+00  3.00D+00  1.72D+00  3.00D+00
     ILin= 4 X=5.000D-01 Y=-4.677679704029D+03 DE=-4.03D+00 F=  1.77D+01
     An  expanding polynomial of degree  4 produced  0.2837
     Minimum is close to point  3 DX= -1.63D-02 DF= -1.55D-02 DXR=  5.76D-02 DFR=  2.52D-03 which will be used.
 Iteration   3 EE= -4679.80262568842     Delta-E=       -6.149407630059 Grad=1.440D+00 Max rot=    9.7621 deg.
 Gradient too large for Newton-Raphson -- use scaled steepest descent instead.
 Alpha Gap=     0.167 HL deriv= 1.35D-03
     ILin= 1 X=0.000D+00 Y=-4.679802625688D+03 DE= 0.00D+00 F= -1.08D+01
 RMSU=  1.32D-03    CP:  9.23D-01  1.21D+00  3.66D-01  3.00D+00  1.64D+00
                    CP:  2.51D-01  4.14D-01  2.77D+00  1.19D+00  8.18D-01
                    CP:  4.61D-01
     ILin= 2 X=5.000D-01 Y=-4.682365817440D+03 DE=-2.56D+00 F= -1.89D-01 OKLS=T
     Reject lnstep IMin12=  1  2 Big=T Turn=F Min= 5.621D-01 FVal=-4.682380154285D+03 Lims=  0.00D+00  5.00D-01
 RMSU=  3.38D-04    CP:  9.19D-01  1.04D+00  3.21D-01  3.00D+00  1.39D+00
                    CP:  1.52D-01  3.12D-01  2.01D+00  1.05D+00  1.02D+00
                    CP:  6.45D-01  1.29D+00
     ILin= 3 X=7.000D-01 Y=-4.682165947124D+03 DE=-2.36D+00 F=  2.02D+00
     An  expanding polynomial of degree  3 produced  0.5429
     Minimum is close to point  2 DX=  4.29D-02 DF= -1.61D-02 DXR=  7.90D-02 DFR=  6.28D-03 which will be used.
 Iteration   4 EE= -4682.36581744042     Delta-E=       -2.563191752004 Grad=1.356D+00 Max rot=    8.6045 deg.
 Gradient too large for Newton-Raphson -- use scaled steepest descent instead.
 Alpha Gap=     0.093 HL deriv= 7.24D-04
     ILin= 1 X=0.000D+00 Y=-4.682365817440D+03 DE= 0.00D+00 F= -6.63D+00
 RMSU=  6.96D-04    CP:  9.20D-01  9.09D-01  2.86D-01  3.00D+00  1.26D+00
                    CP: -7.46D-02  2.16D-01  1.68D+00  9.19D-01  6.45D-01
                    CP:  2.96D-01  9.01D-01  2.58D-02
     ILin= 2 X=4.000D-01 Y=-4.683852497709D+03 DE=-1.49D+00 F= -3.23D-01 OKLS=F
 RMSU=  1.29D-04    CP:  9.19D-01  7.61D-01  2.70D-01  3.00D+00  1.05D+00
                    CP: -1.70D-01  1.32D-01  1.12D+00  7.81D-01  5.90D-01
                    CP:  2.26D-01  8.33D-01  1.95D-01  1.41D+00
     ILin= 3 X=6.000D-01 Y=-4.683544841773D+03 DE=-1.18D+00 F=  3.38D+00
     An  expanding polynomial of degree  3 produced  0.4122
     Minimum is close to point  2 DX=  1.22D-02 DF= -1.30D-03 DXR=  2.96D-02 DFR=  8.74D-04 which will be used.
 Iteration   5 EE= -4683.85249770856     Delta-E=       -1.486680268135 Grad=8.909D-01 Max rot=    8.5438 deg.
 Gradient too large for Newton-Raphson -- use scaled steepest descent instead.
 Alpha Gap=     0.344 HL deriv= 2.45D-04
     ILin= 1 X=0.000D+00 Y=-4.683852497709D+03 DE= 0.00D+00 F= -5.63D+00
 RMSU=  8.89D-04    CP:  9.12D-01  8.17D-01  2.44D-01  3.00D+00  1.05D+00
                    CP: -4.38D-02  1.31D-01  8.33D-01  9.16D-01  6.74D-01
                    CP:  3.17D-01  9.53D-01  8.20D-01  9.15D-01  1.39D+00
     ILin= 2 X=5.000D-01 Y=-4.684769354416D+03 DE=-9.17D-01 F=  2.78D-01 OKLS=F
 RMSU=  3.48D-04    CP:  9.09D-01  7.92D-01  2.36D-01  3.00D+00  9.78D-01
                    CP: -2.89D-02  1.05D-01  5.72D-01  8.94D-01  6.72D-01
                    CP:  3.07D-01  9.35D-01  1.17D+00  7.86D-01  2.08D+00
                    CP:  1.18D+00
     ILin= 3 X=7.000D-01 Y=-4.684632936297D+03 DE=-7.80D-01 F=  1.19D+00
     An  expanding polynomial of degree  3 produced  0.5051
     Minimum is close to point  2 DX=  5.11D-03 DF= -9.37D-05 DXR=  1.01D-02 DFR=  1.02D-04 which will be used.
 Iteration   6 EE= -4684.76935441561     Delta-E=       -0.916856707048 Grad=8.683D-01 Max rot=    6.6368 deg.
 Gradient too large for Newton-Raphson -- use scaled steepest descent instead.
 Alpha Gap=     0.199 HL deriv= 3.49D-04
     ILin= 1 X=0.000D+00 Y=-4.684769354416D+03 DE= 0.00D+00 F= -3.21D+00
 RMSU=  5.43D-04    CP:  9.10D-01  6.18D-01  2.02D-01  3.00D+00  7.85D-01
                    CP: -1.79D-01  4.28D-02  2.08D-01  6.87D-01  5.45D-01
                    CP:  2.09D-01  8.48D-01  8.57D-01  1.30D+00  2.42D+00
                    CP:  8.33D-01  9.52D-02
     ILin= 2 X=5.000D-01 Y=-4.685430983661D+03 DE=-6.62D-01 F=  8.28D-01 OKLS=T
     Accept linear search using points  1 and  2.
     An  expanding polynomial of degree  2 produced  0.3071
 RMSU=  6.29D-05    CP:  9.11D-01  6.95D-01  2.14D-01  3.00D+00  8.89D-01
                    CP: -1.36D-01  7.36D-02  4.41D-01  7.75D-01  5.92D-01
                    CP:  2.49D-01  8.89D-01  8.15D-01  1.18D+00  1.84D+00
                    CP:  9.17D-01  3.06D-02  6.33D-01
 Iteration   7 EE= -4685.42598958832     Delta-E=       -0.656635172712 Grad=4.514D-01 Max rot=    4.2875 deg.
 Gradient too large for Newton-Raphson -- use scaled steepest descent instead.
 Alpha Gap=     0.351 HL deriv= 1.57D-04
     ILin= 1 X=0.000D+00 Y=-4.685425989588D+03 DE= 0.00D+00 F= -9.45D-01
 RMSU=  2.44D-04    CP:  9.09D-01  6.59D-01  1.84D-01  3.00D+00  8.05D-01
                    CP: -1.42D-01  3.25D-02  6.75D-02  7.48D-01  5.88D-01
                    CP:  2.55D-01  8.93D-01  7.57D-01  1.24D+00  2.07D+00
                    CP:  8.87D-01  2.54D-02  7.16D-01  4.64D-01
     ILin= 2 X=4.000D-01 Y=-4.685707460708D+03 DE=-2.81D-01 F= -4.73D-01 OKLS=F
 Restarting incremental Fock formation.
     ILin= 3 X=6.000D-01 Y=-4.685780862567D+03 DE=-3.55D-01 F= -2.65D-01
 RMSU=  1.35D-04    CP:  9.99D-01
     ILin= 4 X=8.000D-01 Y=-4.685814609982D+03 DE=-3.89D-01 F= -7.61D-02
 RMSU=  3.57D-05    CP:  9.97D-01  2.47D+00
     ILin= 5 X=1.100D+00 Y=-4.685798793254D+03 DE=-3.73D-01 F=  1.76D-01
     An  expanding polynomial of degree  5 produced  0.8860
     Minimum is close to point  4 DX=  8.60D-02 DF= -3.24D-03 DXR=  9.71D-02 DFR=  8.33D-03 which will be used.
 Iteration   8 EE= -4685.81460998202     Delta-E=       -0.388620393704 Grad=3.941D-01 Max rot=    3.4621 deg.
 Gradient too large for Newton-Raphson -- use scaled steepest descent instead.
 Alpha Gap=     0.322 HL deriv= 2.49D-04
     ILin= 1 X=0.000D+00 Y=-4.685814609982D+03 DE= 0.00D+00 F= -5.77D-01
 RMSU=  2.80D-04    CP:  9.97D-01  1.09D+00  5.48D-01
     ILin= 2 X=5.000D-01 Y=-4.685942214224D+03 DE=-1.28D-01 F=  8.08D-02 OKLS=T
     Accept linear search using points  1 and  2.
     An  expanding polynomial of degree  2 produced  0.3190
 RMSU=  8.44D-06    CP:  9.97D-01  1.06D+00  2.60D-01  6.41D-01
 Iteration   9 EE= -4685.93438962462     Delta-E=       -0.119779642599 Grad=1.776D-01 Max rot=    1.2461 deg.
 Gradient too large for Newton-Raphson -- use scaled steepest descent instead.
 Alpha Gap=     0.350 HL deriv= 2.85D-04
     ILin= 1 X=0.000D+00 Y=-4.685934389625D+03 DE= 0.00D+00 F= -1.55D-01
 RMSU=  1.00D-04    CP:  9.96D-01  1.50D+00  5.93D-01  8.69D-01 -3.58D-01
     ILin= 2 X=5.000D-01 Y=-4.686006443718D+03 DE=-7.21D-02 F= -1.32D-01 OKLS=F
 RMSU=  8.92D-06    CP:  9.96D-01  1.75D+00  8.84D-01  1.00D+00 -1.89D+00
                    CP:  1.60D+00
     ILin= 3 X=8.000D-01 Y=-4.686043629910D+03 DE=-1.09D-01 F= -1.15D-01
 RMSU=  2.44D-05    CP:  9.94D-01  2.15D+00  1.51D+00  1.20D+00 -3.00D+00
                    CP:  2.56D+00  3.00D+00
     ILin= 4 X=1.300D+00 Y=-4.686093236229D+03 DE=-1.59D-01 F= -8.21D-02
 RMSU=  1.16D-04    CP:  9.92D-01  2.71D+00  2.85D+00  1.47D+00 -3.00D+00
                    CP:  3.00D+00  3.00D+00  3.00D+00
     ILin= 5 X=2.100D+00 Y=-4.686133881952D+03 DE=-1.99D-01 F= -1.77D-02
     Reject lnstep IMin12=  4  5 Big=T Turn=F Min= 3.326D+00 FVal=-4.686152808858D+03 Lims=  1.30D+00  2.10D+00
 RMSU=  1.75D-04    CP:  9.88D-01  3.00D+00  3.00D+00  1.71D+00 -3.00D+00
                    CP:  3.00D+00  3.00D+00  3.00D+00  3.00D+00
     ILin= 6 X=3.400D+00 Y=-4.686080446249D+03 DE=-1.46D-01 F=  1.01D-01
     An  expanding polynomial of degree  6 produced  2.2985
     Minimum is close to point  5 DX=  1.98D-01 DF= -1.75D-03 DXR=  8.64D-02 DFR=  8.78D-03 which will be used.
 Iteration  10 EE= -4686.13388195250     Delta-E=       -0.199492327876 Grad=2.052D-01 Max rot=    1.5753 deg.
 Gradient too large for Newton-Raphson -- use scaled steepest descent instead.
 Alpha Gap=     0.294 HL deriv= 4.72D-04
     ILin= 1 X=0.000D+00 Y=-4.686133881952D+03 DE= 0.00D+00 F= -1.96D-01
 RMSU=  3.02D-04    CP:  9.90D-01  2.64D+00  2.83D+00  1.70D+00 -3.00D+00
                    CP:  3.00D+00  3.00D+00  3.00D+00  1.24D+00  2.88D-01
     ILin= 2 X=9.000D-01 Y=-4.686254518141D+03 DE=-1.21D-01 F= -6.44D-02 OKLS=T
     Reject lnstep IMin12=  1  2 Big=T Turn=F Min= 3.624D+00 FVal=-4.686327060232D+03 Lims=  0.00D+00  9.00D-01
 RMSU=  4.04D-05    CP:  9.89D-01  2.58D+00  2.96D+00  1.75D+00 -3.00D+00
                    CP:  3.00D+00  3.00D+00  3.00D+00  1.27D+00  5.20D-01
                    CP:  1.42D+00
     ILin= 3 X=1.300D+00 Y=-4.686265903870D+03 DE=-1.32D-01 F=  9.00D-03
     Accept linear search using points  2 and  3.
     An  expanding polynomial of degree  3 produced  1.1238
 RMSU=  5.17D-07    CP:  9.90D-01  2.61D+00  2.90D+00  1.73D+00 -3.00D+00
                    CP:  3.00D+00  3.00D+00  3.00D+00  1.27D+00  4.11D-01
                    CP:  1.24D+00  4.88D-01
 Iteration  11 EE= -4686.26451293304     Delta-E=       -0.130630980544 Grad=3.173D-01 Max rot=    3.2308 deg.
 Gradient too large for Newton-Raphson -- use scaled steepest descent instead.
 Alpha Gap=     0.359 HL deriv= 5.88D-04
     ILin= 1 X=0.000D+00 Y=-4.686264512933D+03 DE= 0.00D+00 F= -3.91D-01
 RMSU=  5.82D-04    CP:  9.89D-01  2.83D+00  3.00D+00  1.95D-01 -3.00D+00
                    CP:  3.00D+00  3.00D+00  3.00D+00  2.94D+00  1.30D+00
                    CP:  1.03D+00  3.00D+00  3.00D+00
     ILin= 2 X=1.600D+00 Y=-4.685888621732D+03 DE= 3.76D-01 F=  6.63D-01 OKLS=T
     Reject lnstep IMin12=  1  2 Big=F Turn=F Min= 2.498D-01 FVal=-4.686293507912D+03 Lims=  0.00D+00  1.60D+00
 RMSU=  4.33D-05    CP:  9.90D-01  2.67D+00  3.00D+00  1.54D+00 -3.00D+00
                    CP:  3.00D+00  3.00D+00  3.00D+00  1.65D+00  4.38D-01
                    CP:  1.29D+00  9.17D-01  3.00D+00  1.05D-01
     ILin= 3 X=2.000D-01 Y=-4.686325841552D+03 DE=-6.13D-02 F= -2.20D-01
     A contracting polynomial of degree  3 produced  0.4963
 RMSU=  1.13D-05    CP:  9.89D-01  2.74D+00  3.00D+00  1.24D+00 -3.00D+00
                    CP:  3.00D+00  3.00D+00  3.00D+00  2.13D+00  5.53D-01
                    CP:  1.33D+00  1.79D+00  3.00D+00  2.78D-01  2.09D+00
 Iteration  12 EE= -4686.35219902839     Delta-E=       -0.087686095347 Grad=2.417D-01 Max rot=    2.6231 deg.
 Gradient too large for Newton-Raphson -- use scaled steepest descent instead.
 Alpha Gap=     0.281 HL deriv= 7.68D-04
     ILin= 1 X=0.000D+00 Y=-4.686352199028D+03 DE= 0.00D+00 F= -2.43D-01
 RMSU=  1.38D-04    CP:  9.87D-01  2.39D+00  3.00D+00  1.59D+00 -3.00D+00
                    CP:  2.91D+00  3.00D+00  3.00D+00  1.74D+00  1.11D+00
                    CP:  1.68D+00  3.00D+00  3.00D+00  3.11D-01  1.92D+00
                    CP: -3.00D+00
     ILin= 2 X=7.000D-01 Y=-4.686425289635D+03 DE=-7.31D-02 F=  3.57D-02 OKLS=T
     Accept linear search using points  1 and  2.
     An  expanding polynomial of degree  2 produced  0.5312
 RMSU=  1.97D-05    CP:  9.88D-01  2.47D+00  3.00D+00  1.51D+00 -3.00D+00
                    CP:  3.00D+00  3.00D+00  3.00D+00  1.81D+00  9.80D-01
                    CP:  1.62D+00  3.00D+00  3.00D+00  2.99D-01  2.14D+00
                    CP: -2.86D+00  7.20D-01
 Iteration  13 EE= -4686.42559413055     Delta-E=       -0.073395102165 Grad=1.861D-01 Max rot=    2.9489 deg.
 Gradient too large for Newton-Raphson -- use scaled steepest descent instead.
 Alpha Gap=     0.322 HL deriv= 3.97D-04
     ILin= 1 X=0.000D+00 Y=-4.686425594131D+03 DE= 0.00D+00 F= -1.92D-01
 RMSU=  9.49D-05    CP:  9.87D-01  2.59D+00  3.00D+00  1.22D+00 -3.00D+00
                    CP:  3.00D+00  3.00D+00  3.00D+00  1.95D+00  1.25D+00
                    CP:  1.63D+00  3.00D+00  3.00D+00  5.34D-01  1.62D+00
                    CP: -3.00D+00  9.67D-01 -8.54D-01
     ILin= 2 X=5.000D-01 Y=-4.686475986925D+03 DE=-5.04D-02 F= -8.95D-03 OKLS=T
     Reject lnstep IMin12=  1  2 Big=T Turn=F Min= 6.155D-01 FVal=-4.686477357094D+03 Lims=  0.00D+00  5.00D-01
 RMSU=  9.83D-06    CP:  9.87D-01  2.64D+00  3.00D+00  1.11D+00 -3.00D+00
                    CP:  3.00D+00  3.00D+00  3.00D+00  1.95D+00  1.36D+00
                    CP:  1.59D+00  3.00D+00  3.00D+00  6.24D-01  1.05D+00
                    CP: -3.00D+00  1.05D+00 -1.44D+00  1.38D+00
     ILin= 3 X=7.000D-01 Y=-4.686470944519D+03 DE=-4.54D-02 F=  5.79D-02
     An  expanding polynomial of degree  3 produced  0.5300
     Minimum is close to point  2 DX=  3.00D-02 DF= -1.62D-04 DXR=  5.65D-02 DFR=  3.21D-03 which will be used.
 Iteration  14 EE= -4686.47598692526     Delta-E=       -0.050392794710 Grad=2.043D-01 Max rot=    3.0780 deg.
 Gradient too large for Newton-Raphson -- use scaled steepest descent instead.
 Alpha Gap=     0.281 HL deriv= 3.65D-04
     ILin= 1 X=0.000D+00 Y=-4.686475986925D+03 DE= 0.00D+00 F= -1.50D-01
 Restarting incremental Fock formation.
     ILin= 2 X=5.000D-01 Y=-4.686517850939D+03 DE=-4.19D-02 F= -1.73D-02 OKLS=F
 RMSU=  8.99D-05    CP:  1.00D+00
     ILin= 3 X=8.000D-01 Y=-4.686511146888D+03 DE=-3.52D-02 F=  6.18D-02
     An  expanding polynomial of degree  3 produced  0.5657
 RMSU=  7.92D-07    CP:  1.00D+00  2.19D-01
 Iteration  15 EE= -4686.51841493224     Delta-E=       -0.042428006978 Grad=1.784D-01 Max rot=    3.8097 deg.
 Gradient too large for Newton-Raphson -- use scaled steepest descent instead.
 Alpha Gap=     0.305 HL deriv= 8.75D-05
     ILin= 1 X=0.000D+00 Y=-4.686518414932D+03 DE= 0.00D+00 F= -1.35D-01
 RMSU=  1.52D-04    CP:  1.00D+00  1.47D-01 -3.00D+00
     ILin= 2 X=5.000D-01 Y=-4.686551434135D+03 DE=-3.30D-02 F=  1.59D-04 OKLS=T
     Accept linear search using points  1 and  2.
     An  expanding polynomial of degree  2 produced  0.4381
 RMSU=  2.51D-06    CP:  1.00D+00  1.56D-01 -3.00D+00  8.77D-01
 Iteration  16 EE= -4686.55096469530     Delta-E=       -0.032549763058 Grad=1.526D-01 Max rot=    3.8164 deg.
 Gradient too large for Newton-Raphson -- use scaled steepest descent instead.
 Alpha Gap=     0.281 HL deriv= 7.82D-05
     ILin= 1 X=0.000D+00 Y=-4.686550964695D+03 DE= 0.00D+00 F= -7.43D-02
 RMSU=  2.82D-05    CP:  1.00D+00  1.21D+00 -3.00D+00  9.43D-01 -1.54D+00
     ILin= 2 X=5.000D-01 Y=-4.686577509843D+03 DE=-2.65D-02 F= -3.18D-02 OKLS=F
 RMSU=  6.02D-06    CP:  9.99D-01  1.83D+00 -3.00D+00  9.77D-01 -3.00D+00
                    CP:  1.64D+00
     ILin= 3 X=8.000D-01 Y=-4.686583219824D+03 DE=-3.23D-02 F= -6.22D-03
 RMSU=  1.22D-05    CP:  9.99D-01  2.84D+00 -3.00D+00  1.02D+00 -3.00D+00
                    CP:  2.76D+00  3.00D+00
     ILin= 4 X=1.300D+00 Y=-4.686575658126D+03 DE=-2.47D-02 F=  3.64D-02
     An  expanding polynomial of degree  4 produced  0.8731
     Minimum is close to point  3 DX=  7.31D-02 DF= -2.28D-04 DXR=  8.37D-02 DFR=  7.07D-03 which will be used.
 Iteration  17 EE= -4686.58321982367     Delta-E=       -0.032255128375 Grad=1.791D-01 Max rot=    4.4218 deg.
 Gradient too large for Newton-Raphson -- use scaled steepest descent instead.
 Alpha Gap=     0.295 HL deriv= 5.87D-05
     ILin= 1 X=0.000D+00 Y=-4.686583219824D+03 DE= 0.00D+00 F= -1.02D-01
 RMSU=  4.10D-05    CP:  9.99D-01  1.43D+00 -3.00D+00  1.80D+00 -3.00D+00
                    CP:  2.17D+00  3.00D+00  1.42D+00
     ILin= 2 X=6.000D-01 Y=-4.686606812821D+03 DE=-2.36D-02 F=  2.01D-02 OKLS=T
     Accept linear search using points  1 and  2.
     An  expanding polynomial of degree  2 produced  0.3900
 RMSU=  1.23D-06    CP:  9.99D-01  1.57D+00 -3.00D+00  1.52D+00 -3.00D+00
                    CP:  2.00D+00  2.93D+00  4.46D-01  6.37D-01
 Iteration  18 EE= -4686.60683842637     Delta-E=       -0.023618602696 Grad=1.254D-01 Max rot=    4.3299 deg.
 Gradient too large for Newton-Raphson -- use scaled steepest descent instead.
 Alpha Gap=     0.281 HL deriv= 4.54D-05
     ILin= 1 X=0.000D+00 Y=-4.686606838426D+03 DE= 0.00D+00 F= -2.47D-01
 RMSU=  3.19D-04    CP:  9.98D-01  2.04D+00 -3.00D+00  1.58D+00 -3.00D+00
                    CP:  3.00D+00  3.00D+00  3.00D+00  1.69D+00  3.00D+00
     ILin= 2 X=6.000D-01 Y=-4.686739711576D+03 DE=-1.33D-01 F= -1.67D-01 OKLS=F
 RMSU=  6.83D-05    CP:  9.97D-01  2.07D+00 -3.00D+00  1.51D+00 -3.00D+00
                    CP:  3.00D+00  3.00D+00  3.00D+00  1.80D+00  3.00D+00
                    CP:  1.29D+00
     ILin= 3 X=8.000D-01 Y=-4.686767305621D+03 DE=-1.60D-01 F= -1.07D-01
 RMSU=  6.38D-05    CP:  9.96D-01  1.98D+00 -3.00D+00  1.25D+00 -3.00D+00
                    CP:  3.00D+00  3.00D+00  3.00D+00  1.52D+00  3.00D+00
                    CP:  1.63D+00  3.00D+00
     ILin= 4 X=1.200D+00 Y=-4.686780877414D+03 DE=-1.74D-01 F=  4.26D-02
     Accept linear search using points  3 and  4.
     An  expanding polynomial of degree  4 produced  1.0126
 RMSU=  6.47D-06    CP:  9.96D-01  2.04D+00 -3.00D+00  1.39D+00 -3.00D+00
                    CP:  3.00D+00  3.00D+00  3.00D+00  1.73D+00  3.00D+00
                    CP:  1.52D+00  2.43D+00  2.96D-02
 Iteration  19 EE= -4686.78200401668     Delta-E=       -0.175165590314 Grad=1.218D-01 Max rot=    1.1467 deg.
 Gradient too large for Newton-Raphson -- use scaled steepest descent instead.
 Alpha Gap=     0.273 HL deriv= 2.46D-05
     ILin= 1 X=0.000D+00 Y=-4.686782004017D+03 DE= 0.00D+00 F= -6.07D-02
 RMSU=  9.83D-05    CP:  9.96D-01  1.80D+00 -3.00D+00  1.47D+00 -3.00D+00
                    CP:  3.00D+00  3.00D+00  3.00D+00  2.84D+00 -3.00D+00
                    CP:  1.44D+00  2.67D+00 -8.78D-02 -3.00D+00
     ILin= 2 X=6.000D-01 Y=-4.686804219592D+03 DE=-2.22D-02 F= -1.30D-02 OKLS=F
 RMSU=  3.01D-05    CP:  9.95D-01  1.63D+00 -3.00D+00  1.51D+00 -3.00D+00
                    CP:  3.00D+00  3.00D+00  3.00D+00  3.00D+00 -3.00D+00
                    CP:  1.37D+00  2.85D+00 -1.60D-01 -3.00D+00  1.65D+00
     ILin= 3 X=1.000D+00 Y=-4.686802920950D+03 DE=-2.09D-02 F=  1.96D-02
     An  expanding polynomial of degree  3 produced  0.7597
 RMSU=  2.31D-06    CP:  9.96D-01  1.73D+00 -3.00D+00  1.49D+00 -3.00D+00
                    CP:  3.00D+00  3.00D+00  3.00D+00  3.00D+00 -3.00D+00
                    CP:  1.41D+00  2.74D+00 -1.17D-01 -3.00D+00  1.26D+00
                    CP:  2.99D-01
 Iteration  20 EE= -4686.80526588486     Delta-E=       -0.023261868177 Grad=9.426D-02 Max rot=    0.5814 deg.
 Gradient too large for Newton-Raphson -- use scaled steepest descent instead.
 Alpha Gap=     0.280 HL deriv= 8.32D-05
     ILin= 1 X=0.000D+00 Y=-4.686805265885D+03 DE= 0.00D+00 F= -2.89D-02
 RMSU=  8.83D-05    CP:  9.95D-01  1.96D+00 -3.00D+00  1.30D+00 -3.00D+00
                    CP:  3.00D+00  3.00D+00  3.00D+00  2.59D+00 -3.00D+00
                    CP:  1.40D+00  3.00D+00 -7.72D-02 -3.00D+00  1.52D+00
                    CP:  5.72D-01  3.00D+00
     ILin= 2 X=9.000D-01 Y=-4.686806081314D+03 DE=-8.15D-04 F=  2.71D-02 OKLS=T
     Accept linear search using points  1 and  2.
     An  expanding polynomial of degree  2 produced  0.4624
 RMSU=  1.62D-06    CP:  9.96D-01  1.85D+00 -3.00D+00  1.39D+00 -3.00D+00
                    CP:  3.00D+00  3.00D+00  3.00D+00  2.86D+00 -3.00D+00
                    CP:  1.41D+00  2.93D+00 -1.51D-01 -3.00D+00  1.40D+00
                    CP:  3.50D-01  3.00D+00  5.12D-01
 Iteration  21 EE= -4686.81197251348     Delta-E=       -0.006706628621 Grad=4.079D-02 Max rot=    0.3586 deg.
 Gradient too large for Newton-Raphson -- use scaled steepest descent instead.
 Alpha Gap=     0.276 HL deriv= 3.00D-05
     ILin= 1 X=0.000D+00 Y=-4.686811972513D+03 DE= 0.00D+00 F= -6.97D-03
 RMSU=  1.85D-05    CP:  9.95D-01  1.75D+00 -3.00D+00  1.40D+00 -3.00D+00
                    CP:  3.00D+00  3.00D+00  3.00D+00  3.00D+00 -3.00D+00
                    CP:  1.38D+00  3.00D+00 -7.57D-02 -3.00D+00  1.61D+00
                    CP:  7.40D-01  3.00D+00  5.24D-01 -3.58D-01
     ILin= 2 X=6.000D-01 Y=-4.686814370410D+03 DE=-2.40D-03 F= -1.03D-03 OKLS=T
     Reject lnstep IMin12=  1  2 Big=T Turn=F Min= 8.612D-01 FVal=-4.686814686888D+03 Lims=  0.00D+00  6.00D-01
 Restarting incremental Fock formation.
     ILin= 3 X=1.100D+00 Y=-4.686813647838D+03 DE=-1.68D-03 F=  3.92D-03
     An  expanding polynomial of degree  3 produced  0.7039
 RMSU=  2.36D-05    CP:  1.00D+00
 Iteration  22 EE= -4686.81442377738     Delta-E=       -0.002451263903 Grad=3.560D-02 Max rot=    0.2379 deg.
 Gradient too large for Newton-Raphson -- use scaled steepest descent instead.
 Alpha Gap=     0.277 HL deriv= 3.15D-05
     ILin= 1 X=0.000D+00 Y=-4.686814423777D+03 DE= 0.00D+00 F= -4.61D-03
 RMSU=  2.65D-05    CP:  1.00D+00  8.35D-01
     ILin= 2 X=6.000D-01 Y=-4.686815290976D+03 DE=-8.67D-04 F=  1.73D-03 OKLS=T
     Accept linear search using points  1 and  2.
     An  expanding polynomial of degree  2 produced  0.3594
 RMSU=  1.01D-07    CP:  1.00D+00  9.01D-01  5.99D-01
 Iteration  23 EE= -4686.81540016807     Delta-E=       -0.000976390689 Grad=1.394D-02 Max rot=    0.1662 deg.
 Gradient too large for Newton-Raphson -- use scaled steepest descent instead.
 Alpha Gap=     0.277 HL deriv= 1.99D-05
     ILin= 1 X=0.000D+00 Y=-4.686815400168D+03 DE= 0.00D+00 F= -1.00D-03
 RMSU=  2.77D-06    CP:  1.00D+00  4.62D-01  7.58D-01 -1.11D+00
     ILin= 2 X=5.000D-01 Y=-4.686815804286D+03 DE=-4.04D-04 F= -6.15D-04 OKLS=F
 RMSU=  3.65D-07    CP:  1.00D+00  2.47D-02  9.17D-01 -3.00D+00  2.00D+00
     ILin= 3 X=1.000D+00 Y=-4.686816014960D+03 DE=-6.15D-04 F= -2.28D-04
 RMSU=  3.10D-06    CP:  1.00D+00 -8.46D-01  1.23D+00 -3.00D+00  3.00D+00
                    CP:  3.00D+00
     ILin= 4 X=2.000D+00 Y=-4.686815855476D+03 DE=-4.55D-04 F=  5.47D-04
     An  expanding polynomial of degree  4 produced  1.2942
 RMSU=  3.12D-08    CP:  1.00D+00 -2.32D-01  1.01D+00 -3.00D+00  2.59D+00
                    CP:  2.32D+00  3.13D-04
 Iteration  24 EE= -4686.81604845858     Delta-E=       -0.000648290508 Grad=1.485D-02 Max rot=    0.0567 deg.
 Gradient too large for Newton-Raphson -- use scaled steepest descent instead.
 Alpha Gap=     0.276 HL deriv= 8.72D-06
     ILin= 1 X=0.000D+00 Y=-4.686816048459D+03 DE= 0.00D+00 F= -7.53D-04
 RMSU=  5.39D-06    CP:  1.00D+00 -1.84D-01  1.35D+00 -3.00D+00  9.99D-01
                    CP:  3.00D+00  1.05D-02 -1.70D+00
     ILin= 2 X=7.000D-01 Y=-4.686816006603D+03 DE= 4.19D-05 F=  8.73D-04 OKLS=T
     Reject lnstep IMin12=  1  2 Big=F Turn=F Min= 3.358D-01 FVal=-4.686816231039D+03 Lims=  0.00D+00  7.00D-01
 RMSU=  3.32D-08    CP:  1.00D+00 -2.11D-01  1.15D+00 -3.00D+00  1.91D+00
                    CP:  2.70D+00 -6.11D-04 -3.46D-01  4.29D-01
     ILin= 3 X=3.000D-01 Y=-4.686816169867D+03 DE=-1.21D-04 F= -5.63D-05
     A contracting polynomial of degree  3 produced  0.3243
     Minimum is close to point  3 DX=  2.43D-02 DF= -6.83D-07 DXR=  7.48D-02 DFR=  5.63D-03 which will be used.
 Iteration  25 EE= -4686.81616986719     Delta-E=       -0.000121408604 Grad=2.743D-03 Max rot=    0.0259 deg.
 SCF Done:  E(RPBE1PBE) =  -4686.81616987     a.u. after   25 cycles
            Convg  =    0.2743D-02                    70 Fock formations.
              S**2 =  0.0000                  -V/T =  2.0453
 Leave Link  508 at Fri Feb 26 14:44:41 2021, MaxMem=  7864320000 cpu:          358412.4 elap:           11316.7
 (Enter /apps/gaussian/g16-c01-avx/g16/l502.exe)
 Integral symmetry usage will be decided dynamically.
 Closed shell SCF:
 Using DIIS extrapolation, IDIIS=  1040.
 NGot=  7864320000 LenX=  7855642282 LenY=  7851347026
 Requested convergence on RMS density matrix=1.00D-08 within 128 cycles.
 Requested convergence on MAX density matrix=1.00D-06.
 Requested convergence on             energy=1.00D-06.
 No special actions if energy rises.
 Fock matrices will be formed incrementally for  20 cycles.

 Cycle   1  Pass 1  IDiag  1:
 FoFJK:  IHMeth= 1 ICntrl=       0 DoSepK=F KAlg= 0 I1Cent=           0 FoldK=F
 IRaf= 480000000 NMat=       1 IRICut=       1 DoRegI=T DoRafI=F ISym2E= 0 IDoP0=0 IntGTp=1.
 FoFCou: FMM=T IPFlag=           0 FMFlag=      100000 FMFlg1=        2001
         NFxFlg=           0 DoJE=F BraDBF=F KetDBF=F FulRan=T
         wScrn=  0.000000 ICntrl=         0 IOpCl=  0 I1Cent=           0 NGrid=           0
         NMat0=    1 NMatS0=      1 NMatT0=    0 NMatD0=    1 NMtDS0=    0 NMtDT0=    0
 Symmetry not used in FoFCou.
 FMM levels:  10  Number of levels for PrismC:   9
 E= -4686.81616986714    
 DIIS: error= 1.81D-04 at cycle   1 NSaved=   1.
 NSaved= 1 IEnMin= 1 EnMin= -4686.81616986714     IErMin= 1 ErrMin= 1.81D-04
[...]
 Alpha virt. eigenvalues --    2.16267   2.16326   2.16764   2.17737   2.17759
 Alpha virt. eigenvalues --    2.18558   2.18797   2.18802   2.18850   2.19478
 Alpha virt. eigenvalues --    2.19494   2.19497   2.19701   2.20460   2.20470
 Alpha virt. eigenvalues --    2.20536   2.20827   2.21459   2.21488   2.21489
 Alpha virt. eigenvalues --    2.21625   2.22232   2.22648   2.22662   2.22874
 Alpha virt. eigenvalues --    2.23033   2.23280   2.23289   2.23312   2.23429
 Alpha virt. eigenvalues --    2.23690   2.23834   2.23839   2.23893   2.24753
 Alpha virt. eigenvalues --    2.24992   2.25112   2.25116   2.25673   2.25688
 Alpha virt. eigenvalues --    2.25945   2.26003   2.26044   2.26258   2.26292
 Alpha virt. eigenvalues --    2.26298   2.27537   2.27583   2.27620   2.27892
 Alpha virt. eigenvalues --    2.27896   2.27901   2.27949   2.28823   2.28992
 Alpha virt. eigenvalues --    2.29000   2.29470   2.29699   2.29803   2.29830
 Alpha virt. eigenvalues --    2.29840   2.30114   2.30712   2.31361   2.31380
 Alpha virt. eigenvalues --    2.32086   2.32102   2.32220   2.32345   2.32813
 Alpha virt. eigenvalues --    2.33398   2.33464   2.33468   2.33614   2.34302
 Alpha virt. eigenvalues --    2.34703   2.34722   2.34739   2.34876   2.34916
 Alpha virt. eigenvalues --    2.35506   2.35775   2.35903   2.35905   2.36498
 Alpha virt. eigenvalues --    2.36604   2.36615   2.36768   2.37029   2.37033
 Alpha virt. eigenvalues --    2.37294   2.37450   2.37549   2.37559   2.37622
 Alpha virt. eigenvalues --    2.37758   2.38046   2.38057   2.38597   2.38641
 Alpha virt. eigenvalues --    2.38663   2.38760   2.38800   2.39095   2.39100
 Alpha virt. eigenvalues --    2.39351   2.39396   2.39688   2.39748   2.39756
 Alpha virt. eigenvalues --    2.39894   2.40688   2.40774   2.40775   2.40871
 Alpha virt. eigenvalues --    2.41035   2.42556   2.43432   2.43528   2.43547
 Alpha virt. eigenvalues --    2.44392   2.44408   2.44522   2.44564   2.44602
 Alpha virt. eigenvalues --    2.45284   2.45821   2.45827   2.46471   2.46730
 Alpha virt. eigenvalues --    2.46895   2.46962   2.47167   2.48262   2.48548
 Alpha virt. eigenvalues --    2.48583   2.48608   2.49236   2.49366   2.49401
 Alpha virt. eigenvalues --    2.49816   2.49972   2.50902   2.52505   2.52548
 Alpha virt. eigenvalues --    2.52622   2.53806   2.53845   2.53895   2.54023
 Alpha virt. eigenvalues --    2.55319   2.55339   2.55513   2.55576   2.56099
 Alpha virt. eigenvalues --    2.56678   2.56844   2.56863   2.57034   2.57386
 Alpha virt. eigenvalues --    2.57428   2.57489   2.57741   2.57789   2.57974
 Alpha virt. eigenvalues --    2.58149   2.59661   2.60690   2.60705   2.60722
 Alpha virt. eigenvalues --    2.61288   2.62016   2.62029   2.62244   2.62248
 Alpha virt. eigenvalues --    2.62309   2.62314   2.62350   2.62396   2.63007
 Alpha virt. eigenvalues --    2.63978   2.64050   2.64096   2.64577   2.64894
 Alpha virt. eigenvalues --    2.64961   2.64968   2.65263   2.65413   2.65480
 Alpha virt. eigenvalues --    2.65799   2.66198   2.66205   2.66225   2.66530
 Alpha virt. eigenvalues --    2.67020   2.67403   2.67432   2.67574   2.67609
 Alpha virt. eigenvalues --    2.67636   2.67663   2.68055   2.68058   2.68109
 Alpha virt. eigenvalues --    2.68212   2.68488   2.68570   2.70132   2.70222
 Alpha virt. eigenvalues --    2.70655   2.72131   2.73002   2.73011   2.73074
 Alpha virt. eigenvalues --    2.73373   2.73762   2.73765   2.73831   2.74575
 Alpha virt. eigenvalues --    2.74581   2.74587   2.74632   2.74740   2.74847
 Alpha virt. eigenvalues --    2.75009   2.75843   2.75866   2.75881   2.76810
 Alpha virt. eigenvalues --    2.76829   2.76837   2.76841   2.76941   2.76949
 Alpha virt. eigenvalues --    2.76988   2.77128   2.77361   2.77742   2.78022
 Alpha virt. eigenvalues --    2.78035   2.78093   2.78202   2.78355   2.78407
 Alpha virt. eigenvalues --    2.79188   2.80163   2.80191   2.80238   2.80834
 Alpha virt. eigenvalues --    2.81487   2.81532   2.81549   2.81558   2.81968
 Alpha virt. eigenvalues --    2.82053   2.82082   2.83164   2.83622   2.83639
 Alpha virt. eigenvalues --    2.84279   2.87186   2.88880   2.88919   2.89167
 Alpha virt. eigenvalues --    2.89680   2.90498   2.90505   2.90509   2.90514
 Alpha virt. eigenvalues --    2.91190   2.91772   2.91781   2.91791   2.91948
 Alpha virt. eigenvalues --    2.92448   2.92486   2.93708   2.93735   2.93903
 Alpha virt. eigenvalues --    2.93914   2.94057   2.95276   2.95295   2.95524
 Alpha virt. eigenvalues --    2.95818   2.96054   2.96063   2.96327   2.96371
 Alpha virt. eigenvalues --    2.97612   2.97627   2.98410   2.99447   2.99806
 Alpha virt. eigenvalues --    2.99935   3.00318   3.01078   3.01091   3.01535
 Alpha virt. eigenvalues --    3.02221   3.02497   3.03143   3.03163   3.03572
 Alpha virt. eigenvalues --    3.05728   3.06480   3.06494   3.06798   3.07038
 Alpha virt. eigenvalues --    3.08102   3.08999   3.09010   3.09654   3.11218
 Alpha virt. eigenvalues --    3.11900   3.12237   3.12239   3.12397   3.12851
 Alpha virt. eigenvalues --    3.12879   3.12891   3.13706   3.13855   3.13874
 Alpha virt. eigenvalues --    3.14032   3.14343   3.14682   3.14715   3.15230
 Alpha virt. eigenvalues --    3.16086   3.16551   3.16553   3.16570   3.16674
 Alpha virt. eigenvalues --    3.22334   3.22588   3.22590   3.23187   3.26113
 Alpha virt. eigenvalues --    3.27033   3.27042   3.29636   3.32679   3.33071
 Alpha virt. eigenvalues --    3.33085   3.33123   3.35626   3.35748   3.35763
 Alpha virt. eigenvalues --    3.36345   3.47208   3.47254   3.47257   3.47305
 Alpha virt. eigenvalues --    3.54628   3.54634   3.54674   3.54682   3.59025
 Alpha virt. eigenvalues --    3.59028   3.59294   3.59320   3.64458   3.64460
 Alpha virt. eigenvalues --    3.64839   3.64904   3.68554   3.68557   3.68712
 Alpha virt. eigenvalues --    3.68723   3.79429   3.79436   3.79442   3.79464
 Alpha virt. eigenvalues --   51.68839  51.70568
          Condensed to atoms (all electrons):
 Mulliken charges:
               1
     1  Pd   0.518376
     2  Pd   0.480921
     3  C    0.004122
     4  C   -0.057829
     5  C   -0.014256
     6  C    0.020777
     7  C   -0.002676
     8  C    0.020726
     9  C   -0.064295
    10  C    0.186132
    11  N   -0.317885
    12  C    0.142959
    13  C   -0.007540
    14  C    0.059452
    15  H    0.043512
    16  H    0.054603
    17  H    0.043798
    18  H    0.087003
    19  H    0.089019
    20  H    0.043335
    21  C   -0.061942
    22  C    0.025821
    23  C   -0.010570
    24  C    0.006166
    25  C   -0.014219
    26  C   -0.013521
    27  C    0.028594
    28  C   -0.031736
    29  C    0.031580
    30  C   -0.028176
    31  H    0.032468
    32  H    0.029684
    33  H    0.028218
    34  H    0.035917
    35  H    0.023078
    36  H    0.025777
    37  C   -0.044300
    38  C    0.065554
    39  C   -0.027204
    40  C    0.134723
    41  N   -0.323957
    42  C    0.167811
    43  H    0.064921
    44  H    0.067448
    45  H    0.115895
    46  H    0.091138
    47  C    0.004232
    48  C   -0.057980
    49  C   -0.014151
    50  C    0.020753
    51  C   -0.002684
    52  C    0.020645
    53  C   -0.064134
    54  C    0.185907
    55  N   -0.318571
    56  C    0.143006
    57  C   -0.007479
    58  C    0.059545
    59  H    0.043500
    60  H    0.054618
    61  H    0.043822
    62  H    0.087003
    63  H    0.089753
    64  H    0.043225
    65  C   -0.061769
    66  C    0.025849
    67  C   -0.010596
    68  C    0.006234
    69  C   -0.014209
    70  C   -0.013358
    71  C    0.028412
    72  C   -0.031773
    73  C    0.031763
    74  C   -0.028541
    75  H    0.032437
    76  H    0.029706
    77  H    0.028223
    78  H    0.035858
    79  H    0.023062
    80  H    0.025877
    81  C   -0.044264
    82  C    0.065755
    83  C   -0.027429
    84  C    0.135040
    85  N   -0.323389
    86  C    0.167781
    87  H    0.064863
    88  H    0.067477
    89  H    0.115087
    90  H    0.091040
    91  C    0.004067
    92  C   -0.057807
    93  C   -0.014237
    94  C    0.020766
    95  C   -0.002642
    96  C    0.020653
    97  C   -0.064081
    98  C    0.185870
    99  N   -0.318291
   100  C    0.143116
   101  C   -0.007634
   102  C    0.059582
   103  H    0.043531
   104  H    0.054592
   105  H    0.043811
   106  H    0.087112
   107  H    0.089272
   108  H    0.043284
   109  C   -0.061790
   110  C    0.025814
   111  C   -0.010608
   112  C    0.006226
   113  C   -0.014204
   114  C   -0.013350
   115  C    0.028462
   116  C   -0.031784
   117  C    0.031722
   118  C   -0.028428
   119  H    0.032474
   120  H    0.029687
   121  H    0.028228
   122  H    0.035871
   123  H    0.023063
   124  H    0.025847
   125  C   -0.044201
   126  C    0.065691
   127  C   -0.027077
   128  C    0.134431
   129  N   -0.324002
   130  C    0.167673
   131  H    0.064872
   132  H    0.067452
   133  H    0.116135
   134  H    0.091126
   135  C    0.004187
   136  C   -0.057970
   137  C   -0.014097
   138  C    0.020799
   139  C   -0.002666
   140  C    0.020638
   141  C   -0.064382
   142  C    0.186099
   143  N   -0.318371
   144  C    0.143132
   145  C   -0.007456
   146  C    0.059468
   147  H    0.043443
   148  H    0.054605
   149  H    0.043827
   150  H    0.086977
   151  H    0.089639
   152  H    0.042970
   153  C   -0.061568
   154  C    0.025848
   155  C   -0.010594
   156  C    0.006174
   157  C   -0.014091
   158  C   -0.013181
   159  C    0.027975
   160  C   -0.031558
   161  C    0.031839
   162  C   -0.028817
   163  H    0.032447
   164  H    0.029708
   165  H    0.028161
   166  H    0.035865
   167  H    0.023063
   168  H    0.025909
   169  C   -0.044633
   170  C    0.066083
   171  C   -0.027465
   172  C    0.135138
   173  N   -0.323319
   174  C    0.167933
   175  H    0.064797
   176  H    0.067450
   177  H    0.115067
   178  H    0.091062
 Sum of Mulliken charges =   4.00000
 Mulliken charges with hydrogens summed into heavy atoms:
               1
     1  Pd   0.518376
     2  Pd   0.480921
     3  C    0.004122
     4  C   -0.057829
     5  C   -0.014256
     6  C    0.064289
     7  C    0.051927
     8  C    0.064524
     9  C   -0.064295
    10  C    0.273136
    11  N   -0.317885
    12  C    0.231978
    13  C    0.035796
    14  C    0.059452
    21  C   -0.061942
    22  C    0.058288
    23  C    0.019114
    24  C    0.006166
    25  C    0.013999
    26  C    0.022396
    27  C    0.028594
    28  C   -0.008658
    29  C    0.031580
    30  C   -0.002400
    37  C   -0.044300
    38  C    0.130476
    39  C    0.040245
    40  C    0.250618
    41  N   -0.323957
    42  C    0.258950
    47  C    0.004232
    48  C   -0.057980
    49  C   -0.014151
    50  C    0.064253
    51  C    0.051934
    52  C    0.064466
    53  C   -0.064134
    54  C    0.272910
    55  N   -0.318571
    56  C    0.232759
    57  C    0.035747
    58  C    0.059545
    65  C   -0.061769
    66  C    0.058287
    67  C    0.019110
    68  C    0.006234
    69  C    0.014014
    70  C    0.022500
    71  C    0.028412
    72  C   -0.008711
    73  C    0.031763
    74  C   -0.002664
    81  C   -0.044264
    82  C    0.130619
    83  C    0.040047
    84  C    0.250127
    85  N   -0.323389
    86  C    0.258821
    91  C    0.004067
    92  C   -0.057807
    93  C   -0.014237
    94  C    0.064296
    95  C    0.051950
    96  C    0.064464
    97  C   -0.064081
    98  C    0.272983
    99  N   -0.318291
   100  C    0.232387
   101  C    0.035649
   102  C    0.059582
   109  C   -0.061790
   110  C    0.058288
   111  C    0.019080
   112  C    0.006226
   113  C    0.014024
   114  C    0.022521
   115  C    0.028462
   116  C   -0.008721
   117  C    0.031722
   118  C   -0.002581
   125  C   -0.044201
   126  C    0.130563
   127  C    0.040374
   128  C    0.250566
   129  N   -0.324002
   130  C    0.258799
   135  C    0.004187
   136  C   -0.057970
   137  C   -0.014097
   138  C    0.064241
   139  C    0.051939
   140  C    0.064465
   141  C   -0.064382
   142  C    0.273076
   143  N   -0.318371
   144  C    0.232772
   145  C    0.035514
   146  C    0.059468
   153  C   -0.061568
   154  C    0.058294
   155  C    0.019114
   156  C    0.006174
   157  C    0.014070
   158  C    0.022685
   159  C    0.027975
   160  C   -0.008494
   161  C    0.031839
   162  C   -0.002908
   169  C   -0.044633
   170  C    0.130880
   171  C    0.039985
   172  C    0.250205
   173  N   -0.323319
   174  C    0.258994
 Electronic spatial extent (au):  <R**2>=         143604.8087
 Charge=              4.0000 electrons
 Dipole moment (field-independent basis, Debye):
    X=             -8.5710    Y=             -0.0015    Z=             -0.0564  Tot=              8.5711
 Quadrupole moment (field-independent basis, Debye-Ang):
   XX=             93.2112   YY=           -447.1339   ZZ=           -452.4037
   XY=             -0.0862   XZ=              0.2933   YZ=             -0.0136
 Traceless Quadrupole moment (field-independent basis, Debye-Ang):
   XX=            361.9867   YY=           -178.3584   ZZ=           -183.6282
   XY=             -0.0862   XZ=              0.2933   YZ=             -0.0136
 Octapole moment (field-independent basis, Debye-Ang**2):
  XXX=           -286.4174  YYY=              1.7422  ZZZ=              5.3237  XYY=            -74.6182
  XXY=              0.2196  XXZ=             -2.1087  XZZ=            -85.0065  YZZ=             -3.0670
  YYZ=             -6.8726  XYZ=             -1.5536
 Hexadecapole moment (field-independent basis, Debye-Ang**3):
 XXXX=         -48035.2978 YYYY=         -53288.9263 ZZZZ=         -52244.8732 XXXY=              4.3405
 XXXZ=             12.4859 YYYX=             -9.7518 YYYZ=           -746.9760 ZZZX=             20.9069
 ZZZY=            777.1252 XXYY=         -16139.7374 XXZZ=         -16093.2687 YYZZ=         -12451.6888
 XXYZ=            -19.7966 YYXZ=            -12.0643 ZZXY=              8.7519
 N-N= 2.186870196075D+04 E-N=-5.432643368842D+04  KE= 4.483653552807D+03
 Leave Link  601 at Fri Feb 26 15:04:43 2021, MaxMem=  7864320000 cpu:              90.8 elap:               3.2
 (Enter /apps/gaussian/g16-c01-avx/g16/l9999.exe)
 Unable to Open any file for archive entry.
 1\1\GINC-CX1-105-19-3\SP\RPBE1PBE\def2SVP\C104H64N8Pd2(4+)\ATARZIA\26-
 Feb-2021\0\\#P PBE1PBE/Def2SVP SP SCF=(YQC,MaxCycle=900) int=(Grid=Sup
 erfinegrid) EmpiricalDispersion=GD3BJ SCRF=(PCM,Solvent=DiMethylSulfox
 ide)\\_s_5a1_a\\4,1\Pd,0,0.1935,6.8856,0.1689\Pd,0,-0.1795,-3.9293,-0.
 1644\C,0,6.8491,3.3348,-0.4632\C,0,6.674,4.5256,-0.3404\C,0,6.2777,5.8
 685,-0.1853\C,0,7.1732,6.9107,-0.0384\C,0,6.7198,8.2243,0.1394\C,0,5.3
 802,8.5165,0.1811\C,0,4.4322,7.4818,0.0292\C,0,3.0405,7.7059,0.0753\N,
 0,2.162,6.7377,-0.0703\C,0,2.5851,5.4666,-0.2925\C,0,3.9082,5.1423,-0.
 3449\C,0,4.8806,6.1462,-0.1681\H,0,8.2338,6.7101,-0.0554\H,0,7.447,9.0
 14,0.2512\H,0,5.0435,9.5303,0.3286\H,0,2.6523,8.7065,0.2407\H,0,1.8122
 ,4.7125,-0.4356\H,0,4.2279,4.1285,-0.5229\C,0,6.9924,1.9416,-0.629\C,0
 ,8.1683,1.4014,-1.2013\C,0,8.2731,0.0562,-1.4045\C,0,7.2235,-0.8181,-1
 .0461\C,0,7.3026,-2.2098,-1.2576\C,0,6.2827,-3.0346,-0.8814\C,0,5.115,
 -2.5136,-0.2744\C,0,5.0038,-1.1567,-0.0781\C,0,6.0477,-0.2835,-0.4525\
 C,0,5.957,1.107,-0.2569\H,0,8.9723,2.0669,-1.4782\H,0,9.1672,-0.3599,-
 1.8459\H,0,8.1898,-2.6149,-1.7217\H,0,6.3567,-4.0947,-1.069\H,0,4.1338
 ,-0.7393,0.405\H,0,5.0688,1.5195,0.197\C,0,4.0689,-3.4572,0.1482\C,0,4
 .4256,-4.6776,0.7312\C,0,3.4423,-5.5894,1.0728\C,0,2.1199,-5.2707,0.82
 34\N,0,1.7698,-4.0932,0.2916\C,0,2.709,-3.2028,-0.034\H,0,5.4635,-4.90
 1,0.9219\H,0,3.6979,-6.5368,1.519\H,0,1.3202,-5.9717,1.0549\H,0,2.3582
 ,-2.274,-0.4732\C,0,0.686,3.3155,6.8291\C,0,0.6391,4.5113,6.6512\C,0,0
 .5658,5.8604,6.2527\C,0,0.507,6.9124,7.1469\C,0,0.4081,8.2338,6.6921\C
 ,0,0.3593,8.5248,5.3524\C,0,0.4225,7.4799,4.4057\C,0,0.3658,7.7033,3.0
 143\N,0,0.4296,6.7255,2.1368\C,0,0.572,5.443,2.5602\C,0,0.6275,5.1192,
 3.8833\C,0,0.5385,6.1351,4.8551\H,0,0.532,6.7138,8.2077\H,0,0.364,9.03
 11,7.4183\H,0,0.2732,9.5454,5.0149\H,0,0.2613,8.7118,2.6254\H,0,0.6481
 ,4.679,1.7874\H,0,0.7421,4.0963,4.2033\C,0,0.7594,1.9147,6.9751\C,0,1.
 3078,1.3395,8.1458\C,0,1.4186,-0.0163,8.2531\C,0,0.9871,-0.8667,7.2115
 \C,0,1.1011,-2.2696,7.2938\C,0,0.655,-3.0693,6.282\C,0,0.0722,-2.5106,
 5.1195\C,0,-0.0293,-1.1436,5.0049\C,0,0.418,-0.2956,6.0408\C,0,0.3182,
 1.1048,5.9471\H,0,1.6399,1.9865,8.9439\H,0,1.8411,-0.4594,9.1434\H,0,1
 .5464,-2.7035,8.177\H,0,0.768,-4.1397,6.3583\H,0,-0.4925,-0.6962,4.139
 1\H,0,-0.117,1.5452,5.0629\C,0,-0.4282,-3.4251,4.0819\C,0,-1.0929,-4.5
 997,4.449\C,0,-1.51,-5.487,3.4725\C,0,-1.2523,-5.1909,2.1464\N,0,-0.64
 05,-4.0561,1.7866\C,0,-0.2426,-3.1883,2.7193\H,0,-1.2873,-4.8061,5.489
 8\H,0,-2.0207,-6.399,3.7361\H,0,-1.5424,-5.8752,1.3517\H,0,0.2578,-2.2
 941,2.3608\C,0,-6.6896,3.7637,0.637\C,0,-6.4329,4.9449,0.587\C,0,-5.94
 56,6.2646,0.5122\C,0,-6.7679,7.3731,0.4423\C,0,-6.2261,8.6612,0.3426\C
 ,0,-4.8697,8.8628,0.3038\C,0,-3.9946,7.7579,0.3784\C,0,-2.5911,7.8886,
 0.3313\N,0,-1.7806,6.8552,0.4051\C,0,-2.289,5.6042,0.5497\C,0,-3.631,5
 .3688,0.5963\C,0,-4.5328,6.4463,0.4955\H,0,-7.8397,7.245,0.4594\H,0,-6
 .8976,9.5045,0.2899\H,0,-4.4648,9.8585,0.217\H,0,-2.1357,8.8689,0.2261
 \H,0,-1.569,4.7913,0.6351\H,0,-4.0187,4.3698,0.7126\C,0,-6.9279,2.3759
 ,0.7158\C,0,-8.1363,1.8819,1.2615\C,0,-8.3328,0.5367,1.3792\C,0,-7.347
 2,-0.3826,0.9577\C,0,-7.5214,-1.7764,1.0798\C,0,-6.5619,-2.6432,0.6439
 \C,0,-5.3627,-2.1653,0.0634\C,0,-5.1588,-0.8094,-0.0461\C,0,-6.139,0.1
 072,0.391\C,0,-5.9534,1.4979,0.2838\H,0,-8.8917,2.5818,1.5863\H,0,-9.2
 521,0.1554,1.7998\H,0,-8.4331,-2.1488,1.5234\H,0,-6.7083,-3.7056,0.763
 3\H,0,-4.2635,-0.4224,-0.5077\H,0,-5.0403,1.8769,-0.1495\C,0,-4.3848,-
 3.1489,-0.426\C,0,-4.825,-4.3015,-1.0847\C,0,-3.9068,-5.2538,-1.4912\C
 ,0,-2.5653,-5.0428,-1.2297\N,0,-2.1348,-3.9293,-0.6242\C,0,-3.0104,-3.
 0001,-0.2359\H,0,-5.8761,-4.4409,-1.2828\H,0,-4.2273,-6.1503,-1.9967\H
 ,0,-1.8155,-5.7797,-1.5114\H,0,-2.5962,-2.128,0.2605\C,0,-0.5924,3.782
 1,-6.6933\C,0,-0.461,4.9587,-6.4438\C,0,-0.2912,6.2721,-5.9636\C,0,-0.
 1721,7.3724,-6.7913\C,0,0.0208,8.6528,-6.2564\C,0,0.1041,8.8545,-4.902
 1\C,0,-0.0184,7.7583,-4.0215\C,0,0.0672,7.8892,-2.6197\N,0,-0.0523,6.8
 642,-1.8041\C,0,-0.2826,5.623,-2.3048\C,0,-0.3736,5.3878,-3.6445\C,0,-
 0.2288,6.4553,-4.5522\H,0,-0.2229,7.2435,-7.8618\H,0,0.1101,9.4898,-6.
 932\H,0,0.262,9.8438,-4.5029\H,0,0.2421,8.8622,-2.1704\H,0,-0.3999,4.8
 179,-1.5804\H,0,-0.5587,4.3969,-4.0261\C,0,-0.7637,2.4011,-6.9219\C,0,
 -1.3621,1.9363,-8.1169\C,0,-1.5667,0.6001,-8.3033\C,0,-1.1839,-0.3391,
 -7.3206\C,0,-1.3938,-1.7236,-7.4853\C,0,-0.9927,-2.6114,-6.5297\C,0,-0
 .362,-2.1647,-5.344\C,0,-0.167,-0.8172,-5.1489\C,0,-0.5655,0.1203,-6.1
 259\C,0,-0.369,1.5024,-5.9503\H,0,-1.6572,2.6515,-8.8701\H,0,-2.0275,0
 .2414,-9.2124\H,0,-1.8763,-2.072,-8.3865\H,0,-1.1783,-3.6653,-6.6685\H
 ,0,0.3339,-0.4555,-4.2642\H,0,0.1043,1.8579,-5.0477\C,0,0.0859,-3.1723
 ,-4.3705\C,0,0.6695,-4.3623,-4.8172\C,0,1.0359,-5.3335,-3.9022\C,0,0.8
 077,-5.1048,-2.5574\N,0,0.2734,-3.9577,-2.1212\C,0,-0.0736,-3.0093,-2.
 9939\H,0,0.8415,-4.5158,-5.871\H,0,1.4843,-6.2583,-4.2273\H,0,1.0588,-
 5.8546,-1.8099\H,0,-0.5115,-2.1084,-2.5753\\Version=ES64L-G16RevC.01\S
 tate=1-A\HF=-4686.8162044\RMSD=3.994e-09\Dipole=-0.1010641,-3.3684773,
 -0.1205355\Quadrupole=-133.7306511,268.2685563,-134.5379052,13.6683458
 ,2.3526805,12.5640328\PG=C01 [X(C104H64N8Pd2)]\\@
 The archive entry for this job was punched.


 NECESSARY EVIL: ONE WE LIKE TOO MUCH TO RELINQUISH.
 Job cpu time:       4 days 14 hours 47 minutes 56.3 seconds.
 Elapsed time:       0 days  3 hours 29 minutes 51.8 seconds.
 File lengths (MBytes):  RWF=   4722 Int=      0 D2E=      0 Chk=    224 Scr=      1
 Normal termination of Gaussian 16 at Fri Feb 26 15:04:47 2021.
