      -----------------------------------------------------------      
     |                   =====================                   |     
     |                           x T B                           |     
     |                   =====================                   |     
     |                         S. Grimme                         |     
     |          Mulliken Center for Theoretical Chemistry        |     
     |                    University of Bonn                     |     
     |                Version 6.2 RC2 (SAW190805)                |     
      -----------------------------------------------------------      

   This program is distributed in the hope that it will be useful,
   but WITHOUT ANY WARRANTY; without even the implied warranty of
   MERCHANTABILITY or FITNESS FOR A PARTICULAR PURPOSE.
   
   FOR NON-COMMERCIAL, ACADEMIA USE ONLY.
   
   Cite this work as:
   * S. Grimme, C. Bannwarth, P. Shushkov, J. Chem. Theory Comput., 2017,
     13, 1989-2009. DOI: 10.1021/acs.jctc.7b00118
   * C. Bannwarth, S. Ehlert and S. Grimme., J. Chem. Theory Comput., 2019,
     15, 1652-1671. DOI: 10.1021/acs.jctc.8b01176
   * P. Pracht, E. Caldeweyher, S. Ehlert, S. Grimme, ChemRxiv, 2019, preprint.
     DOI: 10.26434/chemrxiv.8326202.v1
   
   for DFT-D4:
   * E. Caldeweyher, C. Bannwarth and S. Grimme, J. Chem. Phys., 2017,
     147, 034112. DOI: 10.1063/1.4993215
   * E. Caldeweyher, S. Ehlert, A. Hansen, H. Neugebauer, S. Spicher,
     C. Bannwarth and S. Grimme, J. Chem. Phys., 2019, 150, 154122.
     DOI: 10.1063/1.5090222
   
   for sTDA-xTB:
   * S. Grimme and C. Bannwarth, J. Chem. Phys., 2016, 145, 054103.
     DOI: 10.1063/1.4959605
   
   in the mass-spec context:
   * V. Asgeirsson, C. Bauer and S. Grimme, Chem. Sci., 2017, 8, 4879.
     DOI: 10.1039/c7sc00601b
   
   for metadynamics refer to:
   * S. Grimme, J. Chem. Theory Comput., 2019, 155, 2847-2862
     DOI: 10.1021/acs.jctc.9b00143
   
   with help from (in alphabetical order)
   C. Bannwarth, F. Bohle, G. Brandenburg, E. Caldeweyher, M. Checinski,
   S. Dohm, S. Ehlert, S. Ehrlich, F. März, H. Neugebauer, J. Pisarek,
   P. Pracht, P. Shushkov, and S. Spicher.
   
 * started run on 2021/06/21 at 22:04:33.417     

           -------------------------------------------------
          |                Calculation Setup                |
           -------------------------------------------------

          program call               : /home/atarzia/software/xtb-190806/bin/xtb /data/atarzia/projects/unsymm/screening/production/free_energy_calculations/fe_5b4_a/input_structure.xyz --gfn 2 --hess --parallel 6 --etemp 300 --gbsa dmso --chrg 4 --uhf 0 -I det_control.in
          coordinate file            : /data/atarzia/projects/unsymm/screening/production/free_energy_calculations/fe_5b4_a/input_structure.xyz
          omp threads                :                     6
          number of atoms            :                   186
          number of electrons        :                   568
          charge                     :                     4
          spin                       :                   0.0
          first test random number   :      0.87335560574905


molecular fragmentation (1/2 indicates fragments):
111111111111111111111111111111111111111111111111111111111111111121111111
111111111111111111111111111111111111112111111111111111111111111111111111
111111111111111111111111111111111111111111
# atoms in fragment 1/2:   184     2
 fragment masses (1/2) :     1732.58        2.02
CMA distance (Bohr)    :  11.965
constraining FC (au)   :  0.0500

########################################################################
# WARNING! Please study the warnings concerning your input carefully
#  - XTBHOME is not set, using HOME instead
#  - XTBPATH is not set, using XTBHOME instead
#  - Process number higher than OMP_NUM_THREADS, I hope you know what you are doing.
########################################################################

           ------------------------------------------------- 
          |                 G F N 2 - x T B                 |
          | Geometry, Frequencies, Noncovalent interactions |
          |            JCTC 2019 parametrisation            |
           ------------------------------------------------- 
             k(s)              :                1.8500
             k(p)              :                2.2300
             k(d)              :                2.2300
             k(f)              :                2.0000
             kEN (H0ij)        :               -2.0000
             D4 a1             :                0.5200
             D4 a2             :                5.0000
             D4 s6             :                1.0000
             D4 s8             :                2.7000
             D4 s9             :                5.0000
             alphaj            :                2.0000

  Z AO/shell   Hii/eV     exponent
  1     Wed Apr 25 08:07:45 CEST 2018   EN: 2.200 GM2: 0.406  GM3: 0.0800  RAES: 1.40
     1s    -10.707211    1.230000
  6     Wed Apr 25 08:07:45 CEST 2018   EN: 2.550 GM2: 0.538  GM3: 0.1500  RAES: 3.00
     2s    -13.970922    2.096432
     2p    -10.063292    1.800000
  7     Wed Apr 25 08:07:45 CEST 2018   EN: 3.040 GM2: 0.461  GM3:-0.0640  RAES: 1.90
     2s    -16.686243    2.339881
     2p    -12.523956    2.014332
 46     Wed Apr 25 16:26:58 CEST 2018   EN: 2.200 GM2: 0.273  GM3: 0.0800  RAES: 5.00
     4d    -11.963518    2.353691
     5s     -9.714059    1.828354
     5p     -2.035281    1.333352

 Solvent             : dmso
 Using internal parameter file: .param_gbsa2_dmso
 Gsolv ref. state (COSMO-RS): gsolv [1 M gas/solution]
 temperature (mdtemp)       :    298.150000000000     
 dielectric constant        :    46.6800000000000     
 rho                        :    1.10000000000000     
 mass                       :    78.1300000000000     
 surface tension            :    15.5689454083859     
 probe radius               :   0.949087640000000     
 vdW radii scaling          :    1.00000000000000     
 Gshift (Eh)                :   5.161738145414381E-003
 c1                         :    1.63948621000000     
 soset                      :   1.179665000000000E-002
 HB correction              :  T
           ------------------------------------------------- 
          |        Self-Consistent Charge Iterations        |
           ------------------------------------------------- 

          ...................................................
          :                      SETUP                      :
          :.................................................:
          :  # basis functions                 564          :
          :  # atomic orbitals                 562          :
          :  # shells                          310          :
          :  # electrons                       568          :
          :  max. iterations                   250          :
          :  Hamiltonian                  GFN2-xTB          :
          :  restarted?                      false          :
          :  GBSA solvation                   true          :
          :  PC potential                    false          :
          :  electronic temp.          300.0000000     K    :
          :  accuracy                    1.0000000          :
          :  -> integral cutoff          0.2500000E+02      :
          :  -> integral neglect         0.1000000E-07      :
          :  -> SCF convergence          0.1000000E-05 Eh   :
          :  -> wf. convergence          0.1000000E-03 e    :
          :  Broyden damping             0.4000000          :
          ...................................................

 iter      E             dE          RMSdq      gap      omega  full diag
   1   -308.6963699 -0.308696E+03  0.593E+00    2.05       0.0  T
   2   -309.0932291 -0.396859E+00  0.380E+00    0.95       1.0  T
   3   -308.6868697  0.406359E+00  0.207E+00    1.41       1.0  T
   4   -309.3204072 -0.633538E+00  0.828E-01    1.56       1.0  T
   5   -309.3953078 -0.749005E-01  0.323E-01    1.58       1.0  T
   6   -309.4072609 -0.119531E-01  0.155E-01    1.64       1.0  T
   7   -309.4094758 -0.221489E-02  0.779E-02    1.65       1.0  T
   8   -309.4096389 -0.163188E-03  0.335E-02    1.65       1.0  T
   9   -309.4097401 -0.101178E-03  0.132E-02    1.65       1.0  T
  10   -309.4097498 -0.969704E-05  0.602E-03    1.64       1.2  T
  11   -309.4097511 -0.130863E-05  0.351E-03    1.65       2.1  T
  12   -309.4097516 -0.514550E-06  0.184E-03    1.64       4.0  T
  13   -309.4097519 -0.306179E-06  0.984E-04    1.64       7.4  T
  14   -309.4097520 -0.833408E-07  0.491E-04    1.64      14.9  T

   *** convergence criteria satisfied after 14 iterations ***

         #    Occupation            Energy/Eh            Energy/eV
      -------------------------------------------------------------
         1        2.0000           -0.7331572             -19.9502
       ...           ...                  ...                  ...
       278        2.0000           -0.4108216             -11.1790
       279        2.0000           -0.4094888             -11.1428
       280        2.0000           -0.4050652             -11.0224
       281        2.0000           -0.3899393             -10.6108
       282        2.0000           -0.3892765             -10.5928
       283        2.0000           -0.3885889             -10.5740
       284        2.0000           -0.3876039             -10.5472 (HOMO)
       285                         -0.3271575              -8.9024 (LUMO)
       286                         -0.3244661              -8.8292
       287                         -0.3219109              -8.7596
       288                         -0.3205429              -8.7224
       289                         -0.3196224              -8.6974
       ...                                ...                  ...
       562                          1.6227772              44.1580
      -------------------------------------------------------------
                  HL-Gap            0.0604464 Eh            1.6448 eV
             Fermi-level           -0.3573807 Eh           -9.7248 eV

 SCC (total)                   0 d,  0 h,  0 min,  1.554 sec
 SCC setup                      ...        0 min,  0.074 sec (  4.751%)
 Dispersion                     ...        0 min,  0.026 sec (  1.669%)
 integral evaluation            ...        0 min,  0.260 sec ( 16.723%)
 zeroth order Hamiltonian       ...        0 min,  0.004 sec (  0.289%)
 iterations                     ...        0 min,  0.998 sec ( 64.172%)
 molecular gradient             ...        0 min,  0.187 sec ( 12.034%)
 printout                       ...        0 min,  0.006 sec (  0.357%)

         :::::::::::::::::::::::::::::::::::::::::::::::::::::
         ::                     SUMMARY                     ::
         :::::::::::::::::::::::::::::::::::::::::::::::::::::
         :: total energy            -303.539889983292 Eh    ::
         :: total w/o Gsasa/hb      -303.400591063727 Eh    ::
         :: gradient norm              0.000825888392 Eh/a0 ::
         :: HOMO-LUMO gap              1.644828979660 eV    ::
         ::.................................................::
         :: SCC energy              -309.534986873262 Eh    ::
         :: -> isotropic ES            0.581939378273 Eh    ::
         :: -> anisotropic ES         -0.078370913957 Eh    ::
         :: -> anisotropic XC          0.216346454430 Eh    ::
         :: -> dispersion             -0.280516072119 Eh    ::
         :: -> Gsolv                  -0.638437131077 Eh    ::
         ::    -> Gborn               -0.499138211512 Eh    ::
         ::    -> Gsasa               -0.130396579989 Eh    ::
         ::    -> Ghb                 -0.014064077722 Eh    ::
         ::    -> Gshift               0.005161738145 Eh    ::
         :: repulsion energy           5.985845199092 Eh    ::
         :: add. restraining           0.000000000000 Eh    ::
         :::::::::::::::::::::::::::::::::::::::::::::::::::::

           ------------------------------------------------- 
          |                Numerical Hessian                |
           ------------------------------------------------- 
step length          :   0.00500
SCC accuracy         :   0.30000
Hessian scale factor :   1.00000
frozen atoms in %    :   0.00000    0
RMS gradient         :   0.00082
estimated CPU  time    121.05 min
estimated wall time     20.33 min

writing file <hessian>.

 projected vibrational frequencies (cm-1)
eigval :       -0.00    -0.00     0.00     0.00     0.00     0.00
eigval :        4.66     5.39     7.21     8.84    10.00    10.37
eigval :       11.58    12.98    16.52    16.83    17.38    18.92
eigval :       22.60    25.12    25.88    28.76    31.29    32.53
eigval :       35.14    38.82    41.03    46.28    47.10    50.98
eigval :       52.16    54.09    58.30    60.74    63.12    69.64
eigval :       72.93    73.89    77.52    79.00    81.51    83.69
eigval :       88.61    93.23    99.50   101.51   102.67   106.31
eigval :      111.12   112.46   113.26   115.69   118.12   120.21
eigval :      124.66   128.98   130.55   133.23   139.11   143.11
eigval :      144.38   147.58   154.60   156.03   157.03   158.75
eigval :      159.57   162.98   164.45   166.33   168.28   171.91
eigval :      172.77   179.70   182.06   182.77   188.61   193.34
eigval :      195.67   198.70   204.69   224.76   227.28   241.64
eigval :      247.56   249.89   254.59   255.79   262.27   270.11
eigval :      271.07   275.50   277.97   290.18   294.13   297.21
eigval :      298.60   303.03   306.19   310.20   312.12   315.77
eigval :      323.01   327.68   330.00   333.62   339.71   343.34
eigval :      344.43   348.82   349.38   356.77   357.71   361.84
eigval :      362.73   363.30   363.34   380.80   390.55   393.91
eigval :      394.79   395.38   395.44   396.34   398.07   432.14
eigval :      432.72   433.19   434.42   435.83   436.42   436.87
eigval :      437.53   438.31   440.12   444.25   447.29   447.91
eigval :      450.65   451.80   454.43   456.45   467.98   469.04
eigval :      469.50   472.54   473.91   474.09   474.85   476.21
eigval :      476.56   477.25   477.70   478.80   482.01   483.99
eigval :      485.71   497.77   508.26   508.95   509.16   510.40
eigval :      511.47   513.06   514.44   515.14   517.82   519.16
eigval :      520.12   523.53   533.35   534.82   535.32   536.34
eigval :      539.60   542.05   543.09   544.88   549.88   554.20
eigval :      555.35   566.23   569.59   574.15   575.25   609.84
eigval :      610.14   611.48   612.06   612.31   612.71   619.18
eigval :      620.24   621.32   622.72   623.64   624.50   625.62
eigval :      626.15   627.40   631.16   674.95   675.35   675.60
eigval :      675.71   675.79   688.35   689.39   689.67   695.06
eigval :      723.46   724.62   724.96   725.19   725.39   725.53
eigval :      726.18   729.29   763.74   764.27   764.58   766.49
eigval :      776.55   776.97   777.42   777.95   779.90   780.97
eigval :      782.66   783.92   788.97   795.24   798.15   799.08
eigval :      799.64   801.47   802.68   803.49   808.76   810.87
eigval :      811.02   811.92   812.34   826.07   826.86   829.27
eigval :      829.51   830.46   830.95   831.78   832.18   835.07
eigval :      835.25   841.20   855.10   856.08   857.86   858.62
eigval :      859.54   862.69   864.59   864.92   866.47   867.84
eigval :      868.99   870.55   875.73   877.68   881.07   881.78
eigval :      887.07   887.59   890.81   892.93   893.24   893.64
eigval :      893.80   894.05   895.01   895.14   895.24   895.77
eigval :      897.03   899.79   902.11   902.65   903.04   903.30
eigval :      905.27   906.02   907.28   908.09   908.96   914.48
eigval :      922.93   923.13   923.25   923.68   932.09   933.67
eigval :      933.73   933.84   934.19   934.41   934.47   934.91
eigval :      995.04   996.21   996.75   996.90  1037.26  1038.06
eigval :     1038.86  1039.55  1048.35  1049.30  1050.19  1050.64
eigval :     1063.56  1065.00  1065.63  1068.67  1070.24  1071.28
eigval :     1072.87  1080.49  1104.04  1104.64  1105.74  1106.73
eigval :     1111.13  1111.32  1113.07  1113.93  1127.74  1128.04
eigval :     1128.33  1128.38  1158.06  1162.30  1163.64  1164.11
eigval :     1166.47  1167.09  1169.20  1171.13  1171.70  1172.18
eigval :     1173.03  1174.31  1174.53  1174.69  1175.12  1175.72
eigval :     1185.69  1186.30  1187.57  1190.32  1192.54  1193.90
eigval :     1195.68  1199.56  1201.75  1202.57  1203.41  1205.45
eigval :     1209.23  1211.11  1213.73  1215.66  1216.55  1217.41
eigval :     1218.22  1219.65  1219.86  1220.45  1220.67  1221.65
eigval :     1221.85  1222.35  1223.12  1224.30  1254.23  1254.65
eigval :     1254.83  1255.99  1283.56  1285.44  1286.57  1289.08
eigval :     1294.32  1296.57  1298.25  1301.08  1303.30  1304.30
eigval :     1305.27  1305.82  1309.44  1312.84  1313.97  1315.74
eigval :     1319.96  1321.13  1321.84  1325.32  1344.19  1346.77
eigval :     1349.74  1351.75  1358.51  1359.26  1361.85  1363.21
eigval :     1369.67  1370.78  1371.02  1371.72  1375.90  1376.61
eigval :     1377.35  1378.21  1388.70  1392.80  1394.06  1394.46
eigval :     1395.41  1397.72  1398.87  1399.31  1400.23  1400.62
eigval :     1400.78  1402.66  1423.63  1423.98  1424.42  1425.77
eigval :     1437.47  1439.33  1439.75  1441.58  1459.01  1461.78
eigval :     1464.60  1467.48  1468.10  1468.33  1469.50  1474.78
eigval :     1485.45  1486.75  1488.04  1489.55  1523.69  1524.60
eigval :     1525.50  1525.80  1527.10  1527.98  1528.63  1529.01
eigval :     1534.70  1536.61  1536.93  1538.79  1550.58  1553.82
eigval :     1554.41  1556.51  1556.84  1557.30  1558.21  1563.78
eigval :     1567.71  1568.51  1568.96  1569.20  1569.65  1570.93
eigval :     1571.62  1576.23  1577.44  1577.82  1578.31  1588.39
eigval :     2282.98  2286.17  2290.73  2290.96  2291.10  2294.25
eigval :     2298.13  2298.31  2927.64  2955.84  2962.81  2967.33
eigval :     2986.15  2989.85  2993.95  3012.08  3015.91  3018.54
eigval :     3018.74  3021.31  3025.53  3028.65  3030.51  3041.02
eigval :     3085.07  3085.25  3086.51  3086.60  3093.17  3093.77
eigval :     3093.93  3094.12  3094.53  3094.55  3095.68  3096.14
eigval :     3096.69  3097.22  3097.46  3098.21  3098.24  3100.77
eigval :     3101.30  3102.26  3102.66  3102.86  3103.27  3103.55
eigval :     3103.91  3104.06  3104.09  3104.42  3109.10  3109.34
eigval :     3109.43  3109.66  3109.85  3110.29  3110.88  3110.96
eigval :     3111.79  3111.81  3112.31  3112.32  3112.57  3112.75
eigval :     3112.93  3113.37  3115.70  3119.18  3119.55  3120.77
           -------------------------------------------------
          |                Property Printout                |
           -------------------------------------------------

    * Orbital Energies and Occupations

         #    Occupation            Energy/Eh            Energy/eV
      -------------------------------------------------------------
         1        2.0000           -0.7331596             -19.9503
       ...           ...                  ...                  ...
       272        2.0000           -0.4186303             -11.3915
       273        2.0000           -0.4182616             -11.3815
       274        2.0000           -0.4180054             -11.3745
       275        2.0000           -0.4161232             -11.3233
       276        2.0000           -0.4160999             -11.3227
       277        2.0000           -0.4115600             -11.1991
       278        2.0000           -0.4108167             -11.1789
       279        2.0000           -0.4094849             -11.1427
       280        2.0000           -0.4050621             -11.0223
       281        2.0000           -0.3899346             -10.6107
       282        2.0000           -0.3892717             -10.5926
       283        2.0000           -0.3885830             -10.5739
       284        2.0000           -0.3875984             -10.5471 (HOMO)
       285                         -0.3271562              -8.9024 (LUMO)
       286                         -0.3244631              -8.8291
       287                         -0.3219077              -8.7596
       288                         -0.3205382              -8.7223
       289                         -0.3196175              -8.6972
       290                         -0.3187774              -8.6744
       291                         -0.3171286              -8.6295
       292                         -0.3137308              -8.5370
       293                         -0.3003845              -8.1739
       294                         -0.2961891              -8.0597
       295                         -0.2912220              -7.9246
       ...                                ...                  ...
       562                          1.6227764              44.1580
      -------------------------------------------------------------
                  HL-Gap            0.0604423 Eh            1.6447 eV
             Fermi-level           -0.3573773 Eh           -9.7247 eV

     #   Z        covCN         q      C6AA      α(0)
     1  46 Pd     3.781    -0.067   360.699    34.965
     2  46 Pd     3.497    -0.081   274.221    34.151
     3   6 C      1.983    -0.021    31.623     9.081
     4   6 C      1.981    -0.034    31.963     9.130
     5   6 C      2.966     0.045    26.978     8.520
     6   6 C      2.920    -0.017    28.429     8.744
     7   6 C      2.914    -0.018    28.452     8.747
     8   6 C      2.914    -0.030    28.748     8.792
     9   6 C      2.981     0.003    27.960     8.674
    10   6 C      2.901     0.070    26.440     8.431
    11   7 N      2.667    -0.151    24.280     7.318
    12   6 C      2.901     0.040    27.109     8.537
    13   6 C      2.912    -0.027    28.678     8.781
    14   6 C      3.001     0.013    27.722     8.637
    15   1 H      0.926     0.066     2.133     2.284
    16   1 H      0.926     0.064     2.153     2.295
    17   1 H      0.926     0.076     2.017     2.221
    18   1 H      0.925     0.130     1.538     1.939
    19   1 H      0.925     0.125     1.574     1.962
    20   1 H      0.926     0.104     1.751     2.069
    21   6 C      2.971     0.038    27.152     8.547
    22   6 C      2.927    -0.034    28.840     8.807
    23   6 C      2.922    -0.034    28.853     8.809
    24   6 C      2.971     0.038    27.149     8.547
    25   6 C      2.927    -0.026    28.640     8.776
    26   6 C      2.922    -0.026    28.644     8.777
    27   1 H      0.926     0.065     2.137     2.286
    28   1 H      0.926     0.074     2.043     2.235
    29   1 H      0.926     0.041     2.438     2.442
    30   1 H      0.926     0.041     2.435     2.440
    31   6 C      1.983    -0.019    31.552     9.071
    32   6 C      1.983    -0.037    32.048     9.142
    33   6 C      2.965     0.044    27.002     8.523
    34   6 C      2.929    -0.023    28.568     8.766
    35   6 C      2.914    -0.016    28.410     8.740
    36   6 C      2.915    -0.032    28.790     8.799
    37   6 C      2.990     0.026    27.403     8.587
    38   6 C      2.912    -0.033    28.828     8.804
    39   6 C      2.911     0.042    27.050     8.528
    40   7 N      2.658    -0.105    23.308     7.170
    41   6 C      2.887     0.062    26.602     8.456
    42   6 C      2.983    -0.005    28.132     8.700
    43   1 H      0.926     0.064     2.150     2.293
    44   1 H      0.926     0.058     2.217     2.328
    45   1 H      0.926     0.064     2.158     2.297
    46   1 H      0.926     0.089     1.888     2.149
    47   1 H      0.925     0.109     1.704     2.042
    48   1 H      0.925     0.126     1.564     1.956
    49   6 C      1.982    -0.024    31.690     9.091
    50   6 C      1.981    -0.035    31.989     9.134
    51   6 C      2.966     0.044    27.021     8.526
    52   6 C      2.919    -0.018    28.463     8.749
    53   6 C      2.914    -0.019    28.483     8.751
    54   6 C      2.913    -0.030    28.755     8.793
    55   6 C      2.980     0.005    27.911     8.666
    56   6 C      2.889     0.059    26.665     8.466
    57   7 N      2.666    -0.089    22.983     7.120
    58   6 C      2.998     0.032    27.265     8.565
    59   6 C      2.912    -0.029    28.717     8.787
    60   6 C      3.004     0.012    27.740     8.640
    61   1 H      0.926     0.062     2.171     2.304
    62   1 H      0.926     0.059     2.208     2.324
    63   1 H      0.926     0.071     2.073     2.252
    64   1 H      0.925     0.125     1.574     1.962
    65   1 H      0.924     0.133     1.514     1.924
    66   1 H      0.926     0.097     1.813     2.106
    67   6 C      2.970     0.038    27.146     8.546
    68   6 C      2.927    -0.033    28.832     8.806
    69   6 C      2.921    -0.035    28.861     8.810
    70   6 C      2.971     0.038    27.135     8.544
    71   6 C      2.929    -0.026    28.641     8.777
    72   6 C      2.922    -0.026    28.641     8.776
    73   1 H      0.926     0.064     2.153     2.295
    74   1 H      0.926     0.077     2.015     2.220
    75   1 H      0.926     0.039     2.463     2.454
    76   1 H      0.926     0.039     2.462     2.454
    77   6 C      1.983    -0.019    31.547     9.070
    78   6 C      1.986    -0.037    32.044     9.142
    79   6 C      2.964     0.045    26.995     8.522
    80   6 C      2.934    -0.023    28.571     8.766
    81   6 C      2.913    -0.016    28.414     8.741
    82   6 C      2.916    -0.032    28.793     8.799
    83   6 C      2.991     0.026    27.419     8.590
    84   6 C      2.912    -0.034    28.836     8.805
    85   6 C      2.934     0.041    27.075     8.534
    86   7 N      2.655    -0.097    23.148     7.146
    87   6 C      2.881     0.061    26.636     8.461
    88   6 C      2.981    -0.003    28.094     8.694
    89   1 H      0.926     0.063     2.168     2.302
    90   1 H      0.926     0.058     2.218     2.329
    91   1 H      0.926     0.063     2.159     2.298
    92   1 H      0.926     0.089     1.891     2.150
    93   1 H      0.924     0.114     1.666     2.018
    94   1 H      0.925     0.129     1.544     1.943
    95   6 C      1.982    -0.022    31.647     9.085
    96   6 C      1.981    -0.034    31.964     9.130
    97   6 C      2.966     0.042    27.047     8.530
    98   6 C      2.920    -0.019    28.475     8.751
    99   6 C      2.915    -0.020    28.508     8.755
   100   6 C      2.913    -0.029    28.734     8.790
   101   6 C      2.980    -0.000    28.027     8.684
   102   6 C      2.906     0.059    26.681     8.470
   103   7 N      2.656    -0.092    23.039     7.129
   104   6 C      3.061     0.036    27.131     8.542
   105   6 C      2.910    -0.034    28.836     8.805
   106   6 C      3.004     0.008    27.836     8.655
   107   1 H      0.926     0.066     2.132     2.283
   108   1 H      0.926     0.060     2.199     2.319
   109   1 H      0.926     0.068     2.103     2.268
   110   1 H      0.925     0.114     1.659     2.014
   111   1 H      0.925     0.128     1.553     1.949
   112   1 H      0.926     0.098     1.804     2.100
   113   6 C      2.971     0.037    27.168     8.550
   114   6 C      2.923    -0.028    28.709     8.787
   115   6 C      2.929    -0.026    28.661     8.780
   116   6 C      2.970     0.037    27.168     8.550
   117   6 C      2.921    -0.033    28.826     8.805
   118   6 C      2.925    -0.034    28.853     8.809
   119   1 H      0.926     0.042     2.428     2.437
   120   1 H      0.926     0.042     2.427     2.436
   121   1 H      0.926     0.071     2.077     2.254
   122   1 H      0.926     0.064     2.158     2.297
   123   6 C      1.983    -0.019    31.549     9.071
   124   6 C      1.985    -0.038    32.068     9.145
   125   6 C      2.964     0.045    26.998     8.523
   126   6 C      2.933    -0.023    28.580     8.768
   127   6 C      2.913    -0.016    28.417     8.741
   128   6 C      2.916    -0.032    28.796     8.800
   129   6 C      2.991     0.026    27.406     8.587
   130   6 C      2.912    -0.033    28.834     8.805
   131   6 C      2.914     0.041    27.079     8.533
   132   7 N      2.658    -0.088    22.968     7.118
   133   6 C      2.886     0.060    26.663     8.466
   134   6 C      2.981    -0.003    28.092     8.694
   135   1 H      0.926     0.064     2.153     2.295
   136   1 H      0.926     0.058     2.220     2.330
   137   1 H      0.926     0.062     2.174     2.306
   138   1 H      0.926     0.087     1.905     2.159
   139   1 H      0.925     0.110     1.699     2.038
   140   1 H      0.925     0.129     1.544     1.943
   141   6 C      1.983    -0.021    31.606     9.079
   142   6 C      1.981    -0.034    31.956     9.129
   143   6 C      2.966     0.046    26.973     8.519
   144   6 C      2.920    -0.017    28.427     8.743
   145   6 C      2.914    -0.018    28.454     8.747
   146   6 C      2.914    -0.029    28.733     8.790
   147   6 C      2.981     0.002    27.969     8.675
   148   6 C      2.891     0.069    26.452     8.432
   149   7 N      2.667    -0.153    24.307     7.322
   150   6 C      2.945     0.043    27.037     8.528
   151   6 C      2.911    -0.029    28.714     8.787
   152   6 C      3.002     0.011    27.755     8.642
   153   1 H      0.926     0.067     2.118     2.276
   154   1 H      0.926     0.064     2.149     2.292
   155   1 H      0.926     0.076     2.023     2.224
   156   1 H      0.925     0.126     1.563     1.955
   157   1 H      0.925     0.119     1.621     1.991
   158   1 H      0.926     0.105     1.744     2.065
   159   6 C      2.972     0.037    27.167     8.550
   160   6 C      2.927    -0.035    28.882     8.813
   161   6 C      2.922    -0.034    28.851     8.808
   162   6 C      2.971     0.037    27.170     8.550
   163   6 C      2.928    -0.026    28.648     8.778
   164   6 C      2.922    -0.027    28.665     8.780
   165   1 H      0.926     0.068     2.104     2.268
   166   1 H      0.926     0.073     2.049     2.239
   167   1 H      0.926     0.041     2.437     2.441
   168   1 H      0.926     0.041     2.438     2.442
   169   6 C      1.983    -0.019    31.557     9.072
   170   6 C      1.983    -0.038    32.061     9.144
   171   6 C      2.965     0.044    27.002     8.523
   172   6 C      2.930    -0.023    28.569     8.766
   173   6 C      2.914    -0.016    28.410     8.740
   174   6 C      2.915    -0.032    28.789     8.798
   175   6 C      2.990     0.026    27.407     8.588
   176   6 C      2.912    -0.033    28.824     8.804
   177   6 C      2.924     0.042    27.052     8.529
   178   7 N      2.660    -0.099    23.180     7.151
   179   6 C      2.886     0.061    26.635     8.461
   180   6 C      2.983    -0.005    28.132     8.700
   181   1 H      0.926     0.064     2.149     2.292
   182   1 H      0.926     0.059     2.215     2.327
   183   1 H      0.926     0.064     2.156     2.296
   184   1 H      0.926     0.090     1.883     2.146
   185   1 H      0.925     0.114     1.661     2.016
   186   1 H      0.925     0.126     1.566     1.957

 Mol. C6AA /au·bohr⁶  :     580241.807208
 Mol. C8AA /au·bohr⁸  :   16375764.744818
 Mol. α(0) /au        :       1245.907493


Wiberg/Mayer (AO) data.
largest (>0.10) Wiberg bond orders for each atom
          total WBO             WBO to atom ...
     1  Pd  3.547        N   57 0.605    N   11 0.594    N  149 0.578    N  103 0.561    C  104 0.122    C   58 0.114
     2  Pd  3.464        N  132 0.610    N  178 0.602    N   86 0.595    N   40 0.590
     3  C   3.944        C    4 2.631    C   21 1.138
     4  C   3.941        C    3 2.631    C    5 1.141
     5  C   3.987        C    6 1.442    C   14 1.212    C    4 1.141
     6  C   3.964        C    5 1.442    C    7 1.345    H   15 0.967
     7  C   3.985        C    8 1.534    C    6 1.345    H   16 0.967
     8  C   3.941        C    7 1.534    C    9 1.270    H   17 0.964
     9  C   3.987        C   10 1.295    C    8 1.270    C   14 1.231
    10  C   3.958        N   11 1.431    C    9 1.295    H   18 0.908    C   13 0.102
    11  N   3.511        C   10 1.431    C   12 1.233    Pd   1 0.594
    12  C   3.960        C   13 1.542    N   11 1.233    H   19 0.909
    13  C   3.980        C   12 1.542    C   14 1.295    H   20 0.953    C   10 0.102
    14  C   3.983        C   13 1.295    C    9 1.231    C    5 1.212
    15  H   0.995        C    6 0.967
    16  H   0.994        C    7 0.967
    17  H   0.993        C    8 0.964
    18  H   0.982        C   10 0.908
    19  H   0.984        C   12 0.909
    20  H   0.988        C   13 0.953
    21  C   3.952        C   26 1.342    C   22 1.335    C    3 1.138
    22  C   3.976        C   23 1.486    C   21 1.335    H   27 0.966
    23  C   3.969        C   22 1.486    C   24 1.338    H   28 0.965
    24  C   3.955        C   23 1.338    C   25 1.335    C   31 1.142
    25  C   3.980        C   26 1.483    C   24 1.335    H   29 0.969
    26  C   3.976        C   25 1.483    C   21 1.342    H   30 0.969
    27  H   0.995        C   22 0.966
    28  H   0.993        C   23 0.965
    29  H   0.997        C   25 0.969
    30  H   0.997        C   26 0.969
    31  C   3.942        C   32 2.624    C   24 1.142
    32  C   3.943        C   31 2.624    C   33 1.150
    33  C   3.983        C   34 1.434    C   42 1.202    C   32 1.150
    34  C   3.972        C   33 1.434    C   35 1.357    H   43 0.967
    35  C   3.982        C   36 1.513    C   34 1.357    H   44 0.967
    36  C   3.944        C   35 1.513    C   37 1.297    H   45 0.965
    37  C   3.988        C   36 1.297    C   38 1.270    C   42 1.230
    38  C   3.978        C   39 1.559    C   37 1.270    H   46 0.960    C   41 0.102
    39  C   3.972        C   38 1.559    N   40 1.241    H   47 0.908
    40  N   3.522        C   41 1.434    C   39 1.241    Pd   2 0.590
    41  C   3.963        N   40 1.434    C   42 1.318    H   48 0.917    C   38 0.102
    42  C   3.978        C   41 1.318    C   37 1.230    C   33 1.202
    43  H   0.995        C   34 0.967
    44  H   0.995        C   35 0.967
    45  H   0.995        C   36 0.965
    46  H   0.991        C   38 0.960
    47  H   0.987        C   39 0.908
    48  H   0.983        C   41 0.917
    49  C   3.944        C   50 2.630    C   67 1.141
    50  C   3.942        C   49 2.630    C   51 1.144
    51  C   3.986        C   52 1.438    C   60 1.212    C   50 1.144
    52  C   3.960        C   51 1.438    C   53 1.350    H   61 0.968
    53  C   3.986        C   54 1.529    C   52 1.350    H   62 0.968
    54  C   3.939        C   53 1.529    C   55 1.275    H   63 0.965
    55  C   3.985        C   56 1.278    C   54 1.275    C   60 1.240
    56  C   3.957        N   57 1.455    C   55 1.278    H   64 0.924
    57  N   3.525        C   56 1.455    C   58 1.218    Pd   1 0.605
    58  C   3.965        C   59 1.553    N   57 1.218    H   65 0.884    Pd   1 0.114
    59  C   3.982        C   58 1.553    C   60 1.285    H   66 0.953
    60  C   3.981        C   59 1.285    C   55 1.240    C   51 1.212
    61  H   0.995        C   52 0.968
    62  H   0.995        C   53 0.968
    63  H   0.994        C   54 0.965
    64  H   0.983        C   56 0.924
    65  H   0.981        C   58 0.884
    66  H   0.990        C   59 0.953
    67  C   3.952        C   72 1.339    C   68 1.334    C   49 1.141
    68  C   3.975        C   69 1.486    C   67 1.334    H   73 0.966
    69  C   3.969        C   68 1.486    C   70 1.339    H   74 0.965
    70  C   3.953        C   69 1.339    C   71 1.332    C   77 1.143
    71  C   3.980        C   72 1.485    C   70 1.332    H   75 0.970
    72  C   3.974        C   71 1.485    C   67 1.339    H   76 0.969
    73  H   0.995        C   68 0.966
    74  H   0.993        C   69 0.965
    75  H   0.997        C   71 0.970
    76  H   0.997        C   72 0.969
    77  C   3.941        C   78 2.622    C   70 1.143
    78  C   3.941        C   77 2.622    C   79 1.150
    79  C   3.982        C   80 1.428    C   88 1.207    C   78 1.150
    80  C   3.971        C   79 1.428    C   81 1.361    H   89 0.967
    81  C   3.982        C   82 1.510    C   80 1.361    H   90 0.967
    82  C   3.944        C   81 1.510    C   83 1.299    H   91 0.965
    83  C   3.988        C   82 1.299    C   84 1.267    C   88 1.230
    84  C   3.979        C   85 1.564    C   83 1.267    H   92 0.960    C   87 0.101
    85  C   3.972        C   84 1.564    N   86 1.235    H   93 0.897
    86  N   3.527        C   87 1.441    C   85 1.235    Pd   2 0.595
    87  C   3.960        N   86 1.441    C   88 1.313    H   94 0.923    C   84 0.101
    88  C   3.978        C   87 1.313    C   83 1.230    C   79 1.207
    89  H   0.995        C   80 0.967
    90  H   0.994        C   81 0.967
    91  H   0.995        C   82 0.965
    92  H   0.991        C   84 0.960
    93  H   0.986        C   85 0.897
    94  H   0.982        C   87 0.923
    95  C   3.940        C   96 2.635    C  113 1.126
    96  C   3.937        C   95 2.635    C   97 1.128
    97  C   3.986        C   98 1.451    C  106 1.217    C   96 1.128
    98  C   3.974        C   97 1.451    C   99 1.342    H  107 0.967
    99  C   3.986        C  100 1.537    C   98 1.342    H  108 0.967
   100  C   3.953        C   99 1.537    C  101 1.272    H  109 0.965
   101  C   3.986        C  102 1.283    C  100 1.272    C  106 1.238
   102  C   3.962        N  103 1.451    C  101 1.283    H  110 0.931    C  105 0.100
   103  N   3.467        C  102 1.451    C  104 1.212    Pd   1 0.561
   104  C   3.970        C  105 1.540    N  103 1.212    H  111 0.905    Pd   1 0.122
   105  C   3.981        C  104 1.540    C  106 1.278    H  112 0.954    C  102 0.100
   106  C   3.980        C  105 1.278    C  101 1.238    C   97 1.217
   107  H   0.995        C   98 0.967
   108  H   0.995        C   99 0.967
   109  H   0.994        C  100 0.965
   110  H   0.986        C  102 0.931
   111  H   0.982        C  104 0.905
   112  H   0.989        C  105 0.954
   113  C   3.951        C  118 1.345    C  114 1.344    C   95 1.126
   114  C   3.982        C  115 1.481    C  113 1.344    H  119 0.969
   115  C   3.980        C  114 1.481    C  116 1.334    H  120 0.969
   116  C   3.961        C  117 1.344    C  115 1.334    C  123 1.141
   117  C   3.970        C  118 1.479    C  116 1.344    H  121 0.966
   118  C   3.980        C  117 1.479    C  113 1.345    H  122 0.967
   119  H   0.997        C  114 0.969
   120  H   0.997        C  115 0.969
   121  H   0.994        C  117 0.966
   122  H   0.995        C  118 0.967
   123  C   3.941        C  124 2.625    C  116 1.141
   124  C   3.944        C  123 2.625    C  125 1.149
   125  C   3.982        C  126 1.431    C  134 1.205    C  124 1.149
   126  C   3.972        C  125 1.431    C  127 1.359    H  135 0.967
   127  C   3.982        C  128 1.511    C  126 1.359    H  136 0.967
   128  C   3.945        C  127 1.511    C  129 1.298    H  137 0.966
   129  C   3.988        C  128 1.298    C  130 1.270    C  134 1.228
   130  C   3.979        C  131 1.559    C  129 1.270    H  138 0.960    C  133 0.102
   131  C   3.972        C  130 1.559    N  132 1.240    H  139 0.907
   132  N   3.538        C  133 1.433    C  131 1.240    Pd   2 0.610
   133  C   3.962        N  132 1.433    C  134 1.317    H  140 0.919    C  130 0.102
   134  C   3.978        C  133 1.317    C  129 1.228    C  125 1.205
   135  H   0.995        C  126 0.967
   136  H   0.994        C  127 0.967
   137  H   0.995        C  128 0.966
   138  H   0.991        C  130 0.960
   139  H   0.987        C  131 0.907
   140  H   0.982        C  133 0.919
   141  C   3.942        C  142 2.633    C  159 1.130
   142  C   3.939        C  141 2.633    C  143 1.133
   143  C   3.987        C  144 1.446    C  152 1.216    C  142 1.133
   144  C   3.970        C  143 1.446    C  145 1.344    H  153 0.967
   145  C   3.986        C  146 1.534    C  144 1.344    H  154 0.967
   146  C   3.945        C  145 1.534    C  147 1.272    H  155 0.964
   147  C   3.987        C  148 1.290    C  146 1.272    C  152 1.233
   148  C   3.956        N  149 1.437    C  147 1.290    H  156 0.919
   149  N   3.493        C  148 1.437    C  150 1.224    Pd   1 0.578
   150  C   3.966        C  151 1.549    N  149 1.224    H  157 0.897
   151  C   3.980        C  150 1.549    C  152 1.288    H  158 0.953
   152  C   3.983        C  151 1.288    C  147 1.233    C  143 1.216
   153  H   0.995        C  144 0.967
   154  H   0.994        C  145 0.967
   155  H   0.993        C  146 0.964
   156  H   0.983        C  148 0.919
   157  H   0.985        C  150 0.897
   158  H   0.988        C  151 0.953
   159  C   3.951        C  164 1.345    C  160 1.339    C  141 1.130
   160  C   3.980        C  161 1.483    C  159 1.339    H  165 0.966
   161  C   3.969        C  160 1.483    C  162 1.340    H  166 0.965
   162  C   3.959        C  161 1.340    C  163 1.336    C  169 1.141
   163  C   3.980        C  164 1.480    C  162 1.336    H  167 0.969
   164  C   3.980        C  163 1.480    C  159 1.345    H  168 0.969
   165  H   0.994        C  160 0.966
   166  H   0.993        C  161 0.965
   167  H   0.997        C  163 0.969
   168  H   0.997        C  164 0.969
   169  C   3.941        C  170 2.625    C  162 1.141
   170  C   3.944        C  169 2.625    C  171 1.150
   171  C   3.982        C  172 1.433    C  180 1.203    C  170 1.150
   172  C   3.972        C  171 1.433    C  173 1.358    H  181 0.967
   173  C   3.981        C  174 1.512    C  172 1.358    H  182 0.967
   174  C   3.944        C  173 1.512    C  175 1.298    H  183 0.965
   175  C   3.988        C  174 1.298    C  176 1.268    C  180 1.229
   176  C   3.978        C  177 1.560    C  175 1.268    H  184 0.960    C  179 0.101
   177  C   3.972        C  176 1.560    N  178 1.237    H  185 0.903
   178  N   3.529        C  179 1.434    C  177 1.237    Pd   2 0.602
   179  C   3.963        N  178 1.434    C  180 1.317    H  186 0.919    C  176 0.101
   180  C   3.979        C  179 1.317    C  175 1.229    C  171 1.203
   181  H   0.995        C  172 0.967
   182  H   0.995        C  173 0.967
   183  H   0.995        C  174 0.965
   184  H   0.991        C  176 0.960
   185  H   0.986        C  177 0.903
   186  H   0.983        C  179 0.919

molecular dipole:
                 x           y           z       tot (Debye)
 q only:       -3.275      -8.232      -2.280
   full:       -2.893      -8.145      -2.425      22.818
molecular quadrupole (traceless):
                xx          xy          yy          xz          yz          zz
 q only:     -254.021     -44.700     474.114      16.615      16.382    -220.093
  q+dip:     -280.731     -42.623     512.588      20.326      16.200    -231.856
   full:     -263.069     -45.008     482.979      19.814      14.998    -219.911

           -------------------------------------------------
          |               Frequency Printout                |
           -------------------------------------------------
 projected vibrational frequencies (cm-1)
eigval :       -0.00    -0.00     0.00     0.00     0.00     0.00
eigval :        4.66     5.39     7.21     8.84    10.00    10.37
eigval :       11.58    12.98    16.52    16.83    17.38    18.92
eigval :       22.60    25.12    25.88    28.76    31.29    32.53
eigval :       35.14    38.82    41.03    46.28    47.10    50.98
eigval :       52.16    54.09    58.30    60.74    63.12    69.64
eigval :       72.93    73.89    77.52    79.00    81.51    83.69
eigval :       88.61    93.23    99.50   101.51   102.67   106.31
eigval :      111.12   112.46   113.26   115.69   118.12   120.21
eigval :      124.66   128.98   130.55   133.23   139.11   143.11
eigval :      144.38   147.58   154.60   156.03   157.03   158.75
eigval :      159.57   162.98   164.45   166.33   168.28   171.91
eigval :      172.77   179.70   182.06   182.77   188.61   193.34
eigval :      195.67   198.70   204.69   224.76   227.28   241.64
eigval :      247.56   249.89   254.59   255.79   262.27   270.11
eigval :      271.07   275.50   277.97   290.18   294.13   297.21
eigval :      298.60   303.03   306.19   310.20   312.12   315.77
eigval :      323.01   327.68   330.00   333.62   339.71   343.34
eigval :      344.43   348.82   349.38   356.77   357.71   361.84
eigval :      362.73   363.30   363.34   380.80   390.55   393.91
eigval :      394.79   395.38   395.44   396.34   398.07   432.14
eigval :      432.72   433.19   434.42   435.83   436.42   436.87
eigval :      437.53   438.31   440.12   444.25   447.29   447.91
eigval :      450.65   451.80   454.43   456.45   467.98   469.04
eigval :      469.50   472.54   473.91   474.09   474.85   476.21
eigval :      476.56   477.25   477.70   478.80   482.01   483.99
eigval :      485.71   497.77   508.26   508.95   509.16   510.40
eigval :      511.47   513.06   514.44   515.14   517.82   519.16
eigval :      520.12   523.53   533.35   534.82   535.32   536.34
eigval :      539.60   542.05   543.09   544.88   549.88   554.20
eigval :      555.35   566.23   569.59   574.15   575.25   609.84
eigval :      610.14   611.48   612.06   612.31   612.71   619.18
eigval :      620.24   621.32   622.72   623.64   624.50   625.62
eigval :      626.15   627.40   631.16   674.95   675.35   675.60
eigval :      675.71   675.79   688.35   689.39   689.67   695.06
eigval :      723.46   724.62   724.96   725.19   725.39   725.53
eigval :      726.18   729.29   763.74   764.27   764.58   766.49
eigval :      776.55   776.97   777.42   777.95   779.90   780.97
eigval :      782.66   783.92   788.97   795.24   798.15   799.08
eigval :      799.64   801.47   802.68   803.49   808.76   810.87
eigval :      811.02   811.92   812.34   826.07   826.86   829.27
eigval :      829.51   830.46   830.95   831.78   832.18   835.07
eigval :      835.25   841.20   855.10   856.08   857.86   858.62
eigval :      859.54   862.69   864.59   864.92   866.47   867.84
eigval :      868.99   870.55   875.73   877.68   881.07   881.78
eigval :      887.07   887.59   890.81   892.93   893.24   893.64
eigval :      893.80   894.05   895.01   895.14   895.24   895.77
eigval :      897.03   899.79   902.11   902.65   903.04   903.30
eigval :      905.27   906.02   907.28   908.09   908.96   914.48
eigval :      922.93   923.13   923.25   923.68   932.09   933.67
eigval :      933.73   933.84   934.19   934.41   934.47   934.91
eigval :      995.04   996.21   996.75   996.90  1037.26  1038.06
eigval :     1038.86  1039.55  1048.35  1049.30  1050.19  1050.64
eigval :     1063.56  1065.00  1065.63  1068.67  1070.24  1071.28
eigval :     1072.87  1080.49  1104.04  1104.64  1105.74  1106.73
eigval :     1111.13  1111.32  1113.07  1113.93  1127.74  1128.04
eigval :     1128.33  1128.38  1158.06  1162.30  1163.64  1164.11
eigval :     1166.47  1167.09  1169.20  1171.13  1171.70  1172.18
eigval :     1173.03  1174.31  1174.53  1174.69  1175.12  1175.72
eigval :     1185.69  1186.30  1187.57  1190.32  1192.54  1193.90
eigval :     1195.68  1199.56  1201.75  1202.57  1203.41  1205.45
eigval :     1209.23  1211.11  1213.73  1215.66  1216.55  1217.41
eigval :     1218.22  1219.65  1219.86  1220.45  1220.67  1221.65
eigval :     1221.85  1222.35  1223.12  1224.30  1254.23  1254.65
eigval :     1254.83  1255.99  1283.56  1285.44  1286.57  1289.08
eigval :     1294.32  1296.57  1298.25  1301.08  1303.30  1304.30
eigval :     1305.27  1305.82  1309.44  1312.84  1313.97  1315.74
eigval :     1319.96  1321.13  1321.84  1325.32  1344.19  1346.77
eigval :     1349.74  1351.75  1358.51  1359.26  1361.85  1363.21
eigval :     1369.67  1370.78  1371.02  1371.72  1375.90  1376.61
eigval :     1377.35  1378.21  1388.70  1392.80  1394.06  1394.46
eigval :     1395.41  1397.72  1398.87  1399.31  1400.23  1400.62
eigval :     1400.78  1402.66  1423.63  1423.98  1424.42  1425.77
eigval :     1437.47  1439.33  1439.75  1441.58  1459.01  1461.78
eigval :     1464.60  1467.48  1468.10  1468.33  1469.50  1474.78
eigval :     1485.45  1486.75  1488.04  1489.55  1523.69  1524.60
eigval :     1525.50  1525.80  1527.10  1527.98  1528.63  1529.01
eigval :     1534.70  1536.61  1536.93  1538.79  1550.58  1553.82
eigval :     1554.41  1556.51  1556.84  1557.30  1558.21  1563.78
eigval :     1567.71  1568.51  1568.96  1569.20  1569.65  1570.93
eigval :     1571.62  1576.23  1577.44  1577.82  1578.31  1588.39
eigval :     2282.98  2286.17  2290.73  2290.96  2291.10  2294.25
eigval :     2298.13  2298.31  2927.64  2955.84  2962.81  2967.33
eigval :     2986.15  2989.85  2993.95  3012.08  3015.91  3018.54
eigval :     3018.74  3021.31  3025.53  3028.65  3030.51  3041.02
eigval :     3085.07  3085.25  3086.51  3086.60  3093.17  3093.77
eigval :     3093.93  3094.12  3094.53  3094.55  3095.68  3096.14
eigval :     3096.69  3097.22  3097.46  3098.21  3098.24  3100.77
eigval :     3101.30  3102.26  3102.66  3102.86  3103.27  3103.55
eigval :     3103.91  3104.06  3104.09  3104.42  3109.10  3109.34
eigval :     3109.43  3109.66  3109.85  3110.29  3110.88  3110.96
eigval :     3111.79  3111.81  3112.31  3112.32  3112.57  3112.75
eigval :     3112.93  3113.37  3115.70  3119.18  3119.55  3120.77
 reduced masses (amu)
   1: 24.26   2: 20.23   3: 22.79   4: 18.84   5: 20.33   6: 23.04   7: 12.33   8: 13.59
   9: 12.62  10: 15.28  11: 15.33  12: 12.04  13: 17.68  14: 16.97  15: 15.25  16: 16.89
  17: 13.45  18: 13.63  19: 12.45  20: 13.96  21: 13.45  22: 13.43  23: 19.84  24: 14.53
  25: 16.91  26: 11.56  27: 13.90  28: 12.78  29: 13.26  30: 15.53  31: 17.19  32: 11.47
  33: 14.74  34: 11.81  35: 11.26  36: 12.61  37: 11.54  38: 15.37  39: 18.05  40: 12.20
  41: 15.29  42: 12.38  43: 12.47  44: 11.67  45: 12.72  46: 12.99  47: 11.74  48: 11.32
  49: 14.86  50: 12.40  51: 12.44  52: 12.61  53: 11.62  54: 11.73  55: 13.88  56: 11.34
  57: 11.75  58: 12.01  59: 11.65  60: 12.56  61: 12.84  62: 14.06  63: 14.89  64: 12.93
  65: 13.13  66: 11.86  67: 13.57  68: 10.40  69: 18.45  70: 12.29  71: 11.46  72: 11.17
  73: 13.07  74: 12.86  75: 41.45  76: 15.36  77: 16.51  78: 16.78  79: 26.42  80: 29.65
  81: 21.11  82: 46.34  83: 11.76  84: 31.29  85: 23.49  86: 22.61  87: 27.89  88: 18.83
  89: 20.42  90: 12.45  91: 46.22  92: 24.97  93: 24.42  94: 15.96  95: 17.62  96: 13.59
  97: 15.00  98: 13.04  99: 13.34 100: 13.65 101: 11.98 102: 16.77 103: 12.63 104: 12.15
 105: 13.32 106: 12.13 107: 12.27 108: 14.15 109: 12.01 110: 12.39 111: 12.25 112: 11.87
 113: 13.14 114:  8.97 115:  8.95 116:  8.97 117:  8.94 118: 12.15 119:  9.43 120:  9.56
 121:  9.51 122:  9.58 123:  9.56 124:  9.53 125:  9.71 126: 11.90 127: 11.89 128: 11.86
 129: 12.22 130: 11.93 131: 11.49 132: 11.74 133: 12.85 134: 11.96 135: 10.52 136: 12.78
 137: 10.41 138: 10.95 139: 11.36 140: 11.34 141: 10.71 142: 10.84 143: 11.56 144: 11.73
 145: 11.71 146: 11.20 147: 11.36 148: 11.57 149: 11.53 150: 11.78 151: 11.15 152: 11.16
 153: 11.19 154: 11.24 155: 11.88 156: 12.21 157: 12.72 158: 11.81 159: 10.58 160:  9.54
 161:  9.52 162: 11.30 163: 10.45 164: 11.18 165: 12.07 166: 11.88 167: 11.08 168: 11.39
 169: 11.30 170: 11.55 171: 10.14 172: 10.20 173: 10.28 174: 10.33 175: 10.89 176: 11.05
 177: 10.93 178: 11.02 179: 11.55 180: 12.23 181: 12.53 182: 11.98 183: 11.73 184: 12.47
 185: 12.53 186: 11.82 187: 10.98 188: 11.41 189: 11.40 190: 11.57 191: 11.27 192: 11.40
 193: 11.25 194: 11.22 195: 11.04 196: 11.47 197: 11.50 198: 11.63 199: 11.68 200: 11.46
 201: 11.41 202: 11.40 203: 11.92 204: 11.87 205: 11.34 206: 11.94 207: 11.23 208: 11.25
 209: 11.25 210: 12.20 211: 10.60 212: 10.62 213: 10.72 214: 10.64 215: 10.61 216: 10.68
 217: 10.80 218: 11.02 219: 10.90 220: 11.00 221: 11.06 222: 11.08 223:  3.83 224:  4.48
 225:  3.87 226:  3.78 227:  3.71 228:  4.55 229:  4.21 230:  4.49 231: 10.93 232: 10.94
 233: 11.39 234: 11.04 235: 10.72 236: 11.43 237: 11.53 238: 11.51 239:  4.98 240:  4.92
 241:  4.91 242:  4.70 243:  4.21 244:  5.54 245:  4.25 246:  4.62 247:  4.37 248:  8.32
 249:  7.09 250:  8.73 251: 10.62 252:  6.58 253:  8.05 254:  4.57 255:  4.40 256:  3.36
 257:  3.33 258:  3.34 259:  3.33 260:  4.86 261:  4.51 262:  4.27 263:  4.35 264:  4.27
 265:  4.83 266:  4.49 267:  9.65 268:  8.90 269: 10.75 270: 10.69 271:  9.40 272:  9.85
 273:  5.44 274:  7.11 275:  4.97 276:  8.01 277:  4.99 278:  3.99 279:  4.18 280:  4.07
 281:  4.36 282:  4.49 283:  4.22 284:  4.26 285:  3.79 286:  3.72 287:  3.89 288:  4.80
 289:  3.64 290:  4.92 291:  3.28 292:  3.12 293:  3.12 294:  5.00 295:  3.81 296:  3.77
 297:  3.73 298:  3.78 299:  3.67 300:  3.71 301:  3.69 302:  3.71 303:  3.69 304:  3.70
 305:  3.69 306:  3.69 307:  9.96 308: 10.03 309: 10.04 310: 10.08 311: 10.01 312:  9.96
 313: 10.06 314: 10.11 315:  9.10 316:  9.10 317:  9.18 318:  9.11 319:  7.66 320:  7.40
 321:  7.51 322:  7.28 323:  7.39 324:  7.14 325:  7.37 326:  7.09 327:  6.03 328:  5.96
 329:  6.00 330:  6.03 331:  6.11 332:  6.10 333:  6.10 334:  6.10 335:  3.20 336:  3.20
 337:  3.23 338:  3.23 339:  3.34 340:  3.66 341:  3.45 342:  3.92 343:  3.81 344:  4.42
 345:  4.34 346:  3.50 347:  3.18 348:  2.88 349:  4.98 350:  3.77 351:  3.74 352:  3.81
 353:  2.55 354:  2.27 355:  2.51 356:  2.54 357:  2.69 358:  3.13 359:  4.28 360:  4.18
 361:  4.03 362:  3.79 363:  4.73 364:  4.88 365:  4.89 366:  4.65 367:  4.94 368:  4.77
 369:  4.78 370:  4.37 371:  4.71 372:  5.00 373:  4.67 374:  6.80 375:  6.61 376:  6.68
 377:  7.19 378:  5.84 379:  7.31 380:  7.42 381:  7.13 382:  6.30 383:  3.23 384:  3.21
 385:  3.19 386:  3.18 387:  6.91 388:  6.97 389:  6.94 390:  6.81 391:  8.31 392:  8.12
 393:  8.24 394:  8.54 395: 10.74 396: 11.11 397: 10.99 398: 10.90 399:  9.97 400:  9.64
 401:  9.68 402:  9.63 403: 10.05 404: 10.01 405: 10.18 406: 10.43 407:  9.86 408:  9.74
 409:  9.84 410:  9.79 411: 10.43 412: 10.43 413: 10.38 414: 10.25 415:  9.84 416:  9.94
 417:  9.75 418:  9.80 419: 10.14 420: 10.27 421: 10.40 422: 10.31 423: 11.52 424: 10.22
 425: 10.27 426: 10.33 427: 10.32 428: 10.55 429: 10.57 430: 10.74 431: 11.37 432: 10.73
 433: 11.33 434: 11.45 435: 10.29 436: 10.30 437: 10.32 438: 10.22 439: 10.89 440: 10.98
 441: 11.04 442: 10.97 443: 11.31 444: 11.32 445: 11.32 446: 11.02 447: 11.05 448: 11.02
 449: 11.00 450: 11.25 451: 10.56 452: 10.63 453: 10.67 454: 10.83 455: 11.71 456: 11.72
 457: 11.75 458: 11.76 459: 11.60 460: 11.61 461: 11.62 462: 11.63 463: 11.75 464: 11.72
 465: 11.74 466: 11.79 467: 11.66 468: 11.66 469: 11.67 470: 11.44 471: 11.45 472: 11.47
 473: 11.47 474: 11.41 475: 11.49 476: 11.49 477: 11.50 478: 11.47 479: 11.51 480: 11.53
 481: 11.55 482: 11.49 483: 11.48 484: 11.48 485: 11.49 486: 11.68 487: 12.01 488: 12.01
 489: 12.01 490: 12.01 491: 12.01 492: 12.01 493: 12.01 494: 12.01 495:  1.85 496:  1.84
 497:  1.85 498:  1.84 499:  1.84 500:  1.85 501:  1.84 502:  1.84 503:  1.84 504:  1.84
 505:  1.84 506:  1.84 507:  1.84 508:  1.84 509:  1.84 510:  1.83 511:  1.78 512:  1.79
 513:  1.78 514:  1.78 515:  1.78 516:  1.78 517:  1.78 518:  1.78 519:  1.78 520:  1.78
 521:  1.78 522:  1.78 523:  1.86 524:  1.81 525:  1.88 526:  1.88 527:  1.88 528:  1.79
 529:  1.79 530:  1.79 531:  1.84 532:  1.84 533:  1.83 534:  1.83 535:  1.84 536:  1.84
 537:  1.84 538:  1.84 539:  1.90 540:  1.88 541:  1.89 542:  1.90 543:  1.90 544:  1.90
 545:  1.89 546:  1.87 547:  1.86 548:  1.86 549:  1.86 550:  1.89 551:  1.90 552:  1.88
 553:  1.86 554:  1.88 555:  1.87 556:  1.85 557:  1.85 558:  1.85
 IR intensities (amu)
   1:  0.45   2:  0.16   3:  0.60   4:  0.31   5:  0.56   6:  0.65   7:  0.22   8:  0.17
   9:  0.29  10:  0.40  11:  0.27  12:  0.10  13:  0.10  14:  0.16  15:  0.22  16:  0.11
  17:  0.12  18:  0.15  19:  0.09  20:  0.13  21:  0.10  22:  0.11  23:  0.09  24:  0.23
  25:  0.09  26:  0.07  27:  0.17  28:  0.11  29:  0.08  30:  0.06  31:  0.10  32:  0.04
  33:  0.18  34:  0.14  35:  0.05  36:  0.15  37:  0.06  38:  0.25  39:  0.07  40:  0.09
  41:  0.18  42:  0.12  43:  0.14  44:  0.17  45:  0.12  46:  0.20  47:  0.10  48:  0.01
  49:  0.17  50:  0.05  51:  0.11  52:  0.07  53:  0.11  54:  0.17  55:  0.12  56:  0.05
  57:  0.17  58:  0.18  59:  0.09  60:  0.17  61:  0.25  62:  0.20  63:  0.13  64:  0.10
  65:  0.07  66:  0.15  67:  0.21  68:  0.05  69:  0.37  70:  0.05  71:  0.04  72:  0.13
  73:  0.10  74:  0.21  75:  0.52  76:  0.11  77:  0.13  78:  0.43  79:  0.77  80:  0.81
  81:  0.64  82:  0.18  83:  0.23  84:  0.28  85:  0.36  86:  0.81  87:  1.00  88:  0.50
  89:  0.44  90:  0.34  91:  0.99  92:  0.75  93:  0.50  94:  0.34  95:  0.49  96:  0.38
  97:  0.27  98:  0.08  99:  0.16 100:  0.19 101:  0.30 102:  0.39 103:  0.18 104:  0.28
 105:  0.46 106:  0.29 107:  0.19 108:  0.33 109:  0.27 110:  0.06 111:  0.07 112:  0.08
 113:  0.11 114:  0.06 115:  0.15 116:  0.03 117:  0.04 118:  0.17 119:  0.07 120:  0.10
 121:  0.07 122:  0.07 123:  0.01 124:  0.05 125:  0.08 126:  0.12 127:  0.13 128:  0.13
 129:  0.15 130:  0.18 131:  0.04 132:  0.09 133:  0.34 134:  0.20 135:  0.02 136:  0.31
 137:  0.06 138:  0.23 139:  0.17 140:  0.16 141:  0.10 142:  0.20 143:  0.07 144:  0.12
 145:  0.15 146:  0.05 147:  0.14 148:  0.21 149:  0.21 150:  0.23 151:  0.04 152:  0.09
 153:  0.09 154:  0.11 155:  0.20 156:  0.30 157:  0.34 158:  0.31 159:  0.14 160:  0.10
 161:  0.08 162:  0.10 163:  0.22 164:  0.38 165:  0.32 166:  0.31 167:  0.04 168:  0.04
 169:  0.09 170:  0.13 171:  0.03 172:  0.12 173:  0.13 174:  0.11 175:  0.10 176:  0.14
 177:  0.13 178:  0.06 179:  0.12 180:  0.36 181:  0.32 182:  0.21 183:  0.05 184:  0.81
 185:  0.84 186:  0.76 187:  0.30 188:  0.18 189:  0.14 190:  0.50 191:  0.22 192:  0.06
 193:  0.36 194:  0.10 195:  0.30 196:  0.18 197:  0.27 198:  0.17 199:  0.18 200:  0.22
 201:  0.24 202:  0.06 203:  0.17 204:  0.16 205:  0.06 206:  0.16 207:  0.11 208:  0.22
 209:  0.16 210:  0.22 211:  0.07 212:  0.06 213:  0.08 214:  0.14 215:  0.12 216:  0.09
 217:  0.15 218:  0.23 219:  0.22 220:  0.17 221:  0.17 222:  0.25 223:  0.06 224:  0.05
 225:  0.01 226:  0.05 227:  0.04 228:  0.10 229:  0.03 230:  0.04 231:  0.13 232:  0.10
 233:  0.07 234:  0.09 235:  0.07 236:  0.33 237:  0.51 238:  0.51 239:  0.19 240:  0.16
 241:  0.26 242:  0.35 243:  0.24 244:  0.57 245:  0.27 246:  0.23 247:  0.31 248:  0.10
 249:  0.09 250:  0.28 251:  0.31 252:  0.30 253:  0.09 254:  0.14 255:  0.11 256:  0.03
 257:  0.03 258:  0.06 259:  0.03 260:  0.17 261:  0.07 262:  0.06 263:  0.04 264:  0.05
 265:  0.14 266:  0.05 267:  0.14 268:  0.36 269:  0.35 270:  0.39 271:  0.19 272:  0.13
 273:  0.11 274:  0.18 275:  0.11 276:  0.17 277:  0.07 278:  0.03 279:  0.04 280:  0.03
 281:  0.07 282:  0.07 283:  0.04 284:  0.08 285:  0.06 286:  0.03 287:  0.08 288:  0.09
 289:  0.02 290:  0.08 291:  0.06 292:  0.02 293:  0.04 294:  0.24 295:  0.06 296:  0.07
 297:  0.01 298:  0.02 299:  0.02 300:  0.03 301:  0.02 302:  0.02 303:  0.02 304:  0.02
 305:  0.02 306:  0.02 307:  0.15 308:  0.09 309:  0.16 310:  0.13 311:  0.09 312:  0.34
 313:  0.32 314:  0.27 315:  0.18 316:  0.70 317:  0.29 318:  0.31 319:  0.41 320:  0.65
 321:  0.59 322:  0.50 323:  0.76 324:  0.25 325:  0.43 326:  0.35 327:  0.31 328:  0.32
 329:  0.27 330:  0.48 331:  0.33 332:  0.39 333:  0.34 334:  0.37 335:  0.06 336:  0.08
 337:  0.08 338:  0.09 339:  0.36 340:  0.21 341:  0.13 342:  0.58 343:  0.20 344:  0.63
 345:  0.31 346:  0.47 347:  0.29 348:  0.33 349:  0.91 350:  0.27 351:  0.28 352:  0.32
 353:  0.78 354:  0.10 355:  0.13 356:  0.26 357:  0.29 358:  0.32 359:  0.22 360:  0.23
 361:  0.19 362:  0.48 363:  0.21 364:  0.31 365:  0.21 366:  0.09 367:  0.11 368:  0.06
 369:  0.06 370:  0.07 371:  0.11 372:  0.08 373:  0.13 374:  0.12 375:  0.13 376:  0.11
 377:  0.10 378:  0.08 379:  0.11 380:  0.16 381:  0.40 382:  0.24 383:  0.09 384:  0.04
 385:  0.07 386:  0.05 387:  0.12 388:  0.18 389:  0.08 390:  0.22 391:  0.12 392:  0.10
 393:  0.08 394:  0.26 395:  0.11 396:  0.06 397:  0.08 398:  0.09 399:  0.11 400:  0.07
 401:  0.12 402:  0.12 403:  0.59 404:  0.42 405:  0.40 406:  1.20 407:  0.46 408:  0.44
 409:  0.53 410:  1.58 411:  0.69 412:  1.09 413:  0.91 414:  1.80 415:  0.57 416:  0.90
 417:  0.46 418:  0.84 419:  0.42 420:  0.48 421:  1.03 422:  0.99 423:  1.25 424:  0.08
 425:  0.09 426:  0.09 427:  0.06 428:  0.95 429:  1.52 430:  1.58 431:  0.88 432:  1.25
 433:  1.31 434:  0.79 435:  0.72 436:  0.20 437:  0.80 438:  1.59 439:  0.51 440:  0.41
 441:  0.42 442:  0.35 443:  0.47 444:  0.49 445:  0.45 446:  0.50 447:  0.33 448:  0.40
 449:  0.32 450:  0.92 451:  0.19 452:  0.19 453:  0.13 454:  0.46 455:  1.46 456:  1.11
 457:  2.19 458:  0.46 459:  0.25 460:  0.06 461:  0.06 462:  0.39 463:  0.28 464:  0.71
 465:  0.72 466:  0.89 467:  1.19 468:  0.60 469:  0.58 470:  1.05 471:  1.02 472:  0.94
 473:  1.00 474:  0.36 475:  0.34 476:  0.26 477:  0.53 478:  0.43 479:  0.29 480:  0.82
 481:  0.80 482:  0.23 483:  0.33 484:  0.26 485:  0.24 486:  1.15 487:  0.96 488:  1.71
 489:  0.97 490:  0.77 491:  2.66 492:  1.63 493:  1.36 494:  3.02 495:  0.11 496:  0.06
 497:  0.11 498:  0.05 499:  0.05 500:  0.03 501:  0.06 502:  0.13 503:  0.11 504:  0.08
 505:  0.17 506:  0.06 507:  0.13 508:  0.05 509:  0.15 510:  0.05 511:  0.14 512:  0.15
 513:  0.14 514:  0.14 515:  0.15 516:  0.17 517:  0.13 518:  0.15 519:  0.12 520:  0.13
 521:  0.15 522:  0.13 523:  0.35 524:  0.17 525:  0.34 526:  0.34 527:  0.41 528:  0.12
 529:  0.09 530:  0.12 531:  0.19 532:  0.22 533:  0.16 534:  0.18 535:  0.18 536:  0.19
 537:  0.19 538:  0.20 539:  0.29 540:  0.27 541:  0.22 542:  0.29 543:  0.32 544:  0.32
 545:  0.22 546:  0.30 547:  0.09 548:  0.14 549:  0.13 550:  0.15 551:  0.35 552:  0.11
 553:  0.13 554:  0.17 555:  0.16 556:  0.04 557:  0.08 558:  0.05
 Raman intensities (amu)
   1:  0.00   2:  0.00   3:  0.00   4:  0.00   5:  0.00   6:  0.00   7:  0.00   8:  0.00
   9:  0.00  10:  0.00  11:  0.00  12:  0.00  13:  0.00  14:  0.00  15:  0.00  16:  0.00
  17:  0.00  18:  0.00  19:  0.00  20:  0.00  21:  0.00  22:  0.00  23:  0.00  24:  0.00
  25:  0.00  26:  0.00  27:  0.00  28:  0.00  29:  0.00  30:  0.00  31:  0.00  32:  0.00
  33:  0.00  34:  0.00  35:  0.00  36:  0.00  37:  0.00  38:  0.00  39:  0.00  40:  0.00
  41:  0.00  42:  0.00  43:  0.00  44:  0.00  45:  0.00  46:  0.00  47:  0.00  48:  0.00
  49:  0.00  50:  0.00  51:  0.00  52:  0.00  53:  0.00  54:  0.00  55:  0.00  56:  0.00
  57:  0.00  58:  0.00  59:  0.00  60:  0.00  61:  0.00  62:  0.00  63:  0.00  64:  0.00
  65:  0.00  66:  0.00  67:  0.00  68:  0.00  69:  0.00  70:  0.00  71:  0.00  72:  0.00
  73:  0.00  74:  0.00  75:  0.00  76:  0.00  77:  0.00  78:  0.00  79:  0.00  80:  0.00
  81:  0.00  82:  0.00  83:  0.00  84:  0.00  85:  0.00  86:  0.00  87:  0.00  88:  0.00
  89:  0.00  90:  0.00  91:  0.00  92:  0.00  93:  0.00  94:  0.00  95:  0.00  96:  0.00
  97:  0.00  98:  0.00  99:  0.00 100:  0.00 101:  0.00 102:  0.00 103:  0.00 104:  0.00
 105:  0.00 106:  0.00 107:  0.00 108:  0.00 109:  0.00 110:  0.00 111:  0.00 112:  0.00
 113:  0.00 114:  0.00 115:  0.00 116:  0.00 117:  0.00 118:  0.00 119:  0.00 120:  0.00
 121:  0.00 122:  0.00 123:  0.00 124:  0.00 125:  0.00 126:  0.00 127:  0.00 128:  0.00
 129:  0.00 130:  0.00 131:  0.00 132:  0.00 133:  0.00 134:  0.00 135:  0.00 136:  0.00
 137:  0.00 138:  0.00 139:  0.00 140:  0.00 141:  0.00 142:  0.00 143:  0.00 144:  0.00
 145:  0.00 146:  0.00 147:  0.00 148:  0.00 149:  0.00 150:  0.00 151:  0.00 152:  0.00
 153:  0.00 154:  0.00 155:  0.00 156:  0.00 157:  0.00 158:  0.00 159:  0.00 160:  0.00
 161:  0.00 162:  0.00 163:  0.00 164:  0.00 165:  0.00 166:  0.00 167:  0.00 168:  0.00
 169:  0.00 170:  0.00 171:  0.00 172:  0.00 173:  0.00 174:  0.00 175:  0.00 176:  0.00
 177:  0.00 178:  0.00 179:  0.00 180:  0.00 181:  0.00 182:  0.00 183:  0.00 184:  0.00
 185:  0.00 186:  0.00 187:  0.00 188:  0.00 189:  0.00 190:  0.00 191:  0.00 192:  0.00
 193:  0.00 194:  0.00 195:  0.00 196:  0.00 197:  0.00 198:  0.00 199:  0.00 200:  0.00
 201:  0.00 202:  0.00 203:  0.00 204:  0.00 205:  0.00 206:  0.00 207:  0.00 208:  0.00
 209:  0.00 210:  0.00 211:  0.00 212:  0.00 213:  0.00 214:  0.00 215:  0.00 216:  0.00
 217:  0.00 218:  0.00 219:  0.00 220:  0.00 221:  0.00 222:  0.00 223:  0.00 224:  0.00
 225:  0.00 226:  0.00 227:  0.00 228:  0.00 229:  0.00 230:  0.00 231:  0.00 232:  0.00
 233:  0.00 234:  0.00 235:  0.00 236:  0.00 237:  0.00 238:  0.00 239:  0.00 240:  0.00
 241:  0.00 242:  0.00 243:  0.00 244:  0.00 245:  0.00 246:  0.00 247:  0.00 248:  0.00
 249:  0.00 250:  0.00 251:  0.00 252:  0.00 253:  0.00 254:  0.00 255:  0.00 256:  0.00
 257:  0.00 258:  0.00 259:  0.00 260:  0.00 261:  0.00 262:  0.00 263:  0.00 264:  0.00
 265:  0.00 266:  0.00 267:  0.00 268:  0.00 269:  0.00 270:  0.00 271:  0.00 272:  0.00
 273:  0.00 274:  0.00 275:  0.00 276:  0.00 277:  0.00 278:  0.00 279:  0.00 280:  0.00
 281:  0.00 282:  0.00 283:  0.00 284:  0.00 285:  0.00 286:  0.00 287:  0.00 288:  0.00
 289:  0.00 290:  0.00 291:  0.00 292:  0.00 293:  0.00 294:  0.00 295:  0.00 296:  0.00
 297:  0.00 298:  0.00 299:  0.00 300:  0.00 301:  0.00 302:  0.00 303:  0.00 304:  0.00
 305:  0.00 306:  0.00 307:  0.00 308:  0.00 309:  0.00 310:  0.00 311:  0.00 312:  0.00
 313:  0.00 314:  0.00 315:  0.00 316:  0.00 317:  0.00 318:  0.00 319:  0.00 320:  0.00
 321:  0.00 322:  0.00 323:  0.00 324:  0.00 325:  0.00 326:  0.00 327:  0.00 328:  0.00
 329:  0.00 330:  0.00 331:  0.00 332:  0.00 333:  0.00 334:  0.00 335:  0.00 336:  0.00
 337:  0.00 338:  0.00 339:  0.00 340:  0.00 341:  0.00 342:  0.00 343:  0.00 344:  0.00
 345:  0.00 346:  0.00 347:  0.00 348:  0.00 349:  0.00 350:  0.00 351:  0.00 352:  0.00
 353:  0.00 354:  0.00 355:  0.00 356:  0.00 357:  0.00 358:  0.00 359:  0.00 360:  0.00
 361:  0.00 362:  0.00 363:  0.00 364:  0.00 365:  0.00 366:  0.00 367:  0.00 368:  0.00
 369:  0.00 370:  0.00 371:  0.00 372:  0.00 373:  0.00 374:  0.00 375:  0.00 376:  0.00
 377:  0.00 378:  0.00 379:  0.00 380:  0.00 381:  0.00 382:  0.00 383:  0.00 384:  0.00
 385:  0.00 386:  0.00 387:  0.00 388:  0.00 389:  0.00 390:  0.00 391:  0.00 392:  0.00
 393:  0.00 394:  0.00 395:  0.00 396:  0.00 397:  0.00 398:  0.00 399:  0.00 400:  0.00
 401:  0.00 402:  0.00 403:  0.00 404:  0.00 405:  0.00 406:  0.00 407:  0.00 408:  0.00
 409:  0.00 410:  0.00 411:  0.00 412:  0.00 413:  0.00 414:  0.00 415:  0.00 416:  0.00
 417:  0.00 418:  0.00 419:  0.00 420:  0.00 421:  0.00 422:  0.00 423:  0.00 424:  0.00
 425:  0.00 426:  0.00 427:  0.00 428:  0.00 429:  0.00 430:  0.00 431:  0.00 432:  0.00
 433:  0.00 434:  0.00 435:  0.00 436:  0.00 437:  0.00 438:  0.00 439:  0.00 440:  0.00
 441:  0.00 442:  0.00 443:  0.00 444:  0.00 445:  0.00 446:  0.00 447:  0.00 448:  0.00
 449:  0.00 450:  0.00 451:  0.00 452:  0.00 453:  0.00 454:  0.00 455:  0.00 456:  0.00
 457:  0.00 458:  0.00 459:  0.00 460:  0.00 461:  0.00 462:  0.00 463:  0.00 464:  0.00
 465:  0.00 466:  0.00 467:  0.00 468:  0.00 469:  0.00 470:  0.00 471:  0.00 472:  0.00
 473:  0.00 474:  0.00 475:  0.00 476:  0.00 477:  0.00 478:  0.00 479:  0.00 480:  0.00
 481:  0.00 482:  0.00 483:  0.00 484:  0.00 485:  0.00 486:  0.00 487:  0.00 488:  0.00
 489:  0.00 490:  0.00 491:  0.00 492:  0.00 493:  0.00 494:  0.00 495:  0.00 496:  0.00
 497:  0.00 498:  0.00 499:  0.00 500:  0.00 501:  0.00 502:  0.00 503:  0.00 504:  0.00
 505:  0.00 506:  0.00 507:  0.00 508:  0.00 509:  0.00 510:  0.00 511:  0.00 512:  0.00
 513:  0.00 514:  0.00 515:  0.00 516:  0.00 517:  0.00 518:  0.00 519:  0.00 520:  0.00
 521:  0.00 522:  0.00 523:  0.00 524:  0.00 525:  0.00 526:  0.00 527:  0.00 528:  0.00
 529:  0.00 530:  0.00 531:  0.00 532:  0.00 533:  0.00 534:  0.00 535:  0.00 536:  0.00
 537:  0.00 538:  0.00 539:  0.00 540:  0.00 541:  0.00 542:  0.00 543:  0.00 544:  0.00
 545:  0.00 546:  0.00 547:  0.00 548:  0.00 549:  0.00 550:  0.00 551:  0.00 552:  0.00
 553:  0.00 554:  0.00 555:  0.00 556:  0.00 557:  0.00 558:  0.00
 output can be read by thermo (or use thermo option).
 writing <g98.out> molden fake output.
 recommended (thermochemical) frequency scaling factor: 1.0
           -------------------------------------------------
          |             Thermodynamic Functions             |
           -------------------------------------------------

Molecule has no symmetry elements
It seems to be the C1 point group
c1  symmetry found (for desy threshold:  0.10E+00) used in thermo

          ...................................................
          :                      SETUP                      :
          :.................................................:
          :  # frequencies                         552      :
          :  # imaginary freq.                       0      :
          :  linear?                             false      :
          :  only rotor calc.                    false      :
          :  symmetry                               c1      :
          :  rotational number                       1      :
          :  scaling factor                  1.0000000      :
          :  rotor cutoff                   50.0000000 cm⁻¹ :
          :  imag. cutoff                  -20.0000000 cm⁻¹ :
          :.................................................:

    mode    ω/cm⁻¹     T·S(HO)/kcal·mol⁻¹    T·S(FR)/kcal·mol⁻¹   T·S(vib)
   ------------------------------------------------------------------------
       1      4.66    -2.84142 (  0.01%)    -1.75980 ( 99.99%)    -1.75989
       2      5.39    -2.75491 (  0.01%)    -1.71655 ( 99.99%)    -1.71669
       3      7.21    -2.58210 (  0.04%)    -1.63014 ( 99.96%)    -1.63055
       4      8.84    -2.46128 (  0.10%)    -1.56973 ( 99.90%)    -1.57060
       5     10.00    -2.38861 (  0.16%)    -1.53339 ( 99.84%)    -1.53475
       6     10.37    -2.36710 (  0.18%)    -1.52263 ( 99.82%)    -1.52419
       7     11.58    -2.30162 (  0.29%)    -1.48988 ( 99.71%)    -1.49221
       8     12.98    -2.23418 (  0.45%)    -1.45615 ( 99.55%)    -1.45967
       9     16.52    -2.09123 (  1.18%)    -1.38465 ( 98.82%)    -1.39297
      10     16.83    -2.08018 (  1.27%)    -1.37912 ( 98.73%)    -1.38801
      11     17.38    -2.06121 (  1.44%)    -1.36963 ( 98.56%)    -1.37958
      12     18.92    -2.01093 (  2.01%)    -1.34447 ( 97.99%)    -1.35786
      13     22.60    -1.90551 (  4.01%)    -1.29172 ( 95.99%)    -1.31634
      14     25.12    -1.84295 (  5.99%)    -1.26041 ( 94.01%)    -1.29533
      15     25.88    -1.82545 (  6.70%)    -1.25165 ( 93.30%)    -1.29007
      16     28.76    -1.76296 (  9.87%)    -1.22036 ( 90.13%)    -1.27391
      17     31.29    -1.71318 ( 13.29%)    -1.19543 ( 86.71%)    -1.26426
      18     32.53    -1.69008 ( 15.20%)    -1.18385 ( 84.80%)    -1.26080
      19     35.14    -1.64458 ( 19.61%)    -1.16105 ( 80.39%)    -1.25586
      20     38.82    -1.58573 ( 26.65%)    -1.13155 ( 73.35%)    -1.25257
      21     41.03    -1.55292 ( 31.21%)    -1.11509 ( 68.79%)    -1.25172
      22     46.28    -1.48191 ( 42.33%)    -1.07946 ( 57.67%)    -1.24981
      23     47.10    -1.47155 ( 44.05%)    -1.07426 ( 55.95%)    -1.24927
      24     50.98    -1.42481 ( 51.95%)    -1.05077 ( 48.05%)    -1.24508
      25     52.16    -1.41135 ( 54.22%)    -1.04401 ( 45.78%)    -1.24319
      26     54.09    -1.39001 ( 57.79%)    -1.03328 ( 42.21%)    -1.23944
      27     58.30    -1.34579 ( 64.90%)    -1.01104 ( 35.10%)    -1.22828
      28     60.74    -1.32174 ( 68.53%)    -0.99893 ( 31.47%)    -1.22014
      29     63.12    -1.29908 ( 71.75%)    -0.98751 ( 28.25%)    -1.21107
      30     69.64    -1.24136 ( 79.00%)    -0.95841 ( 21.00%)    -1.18195
      31     72.93    -1.21427 ( 81.90%)    -0.94473 ( 18.10%)    -1.16550
      32     73.89    -1.20659 ( 82.67%)    -0.94085 ( 17.33%)    -1.16053
      33     77.52    -1.17852 ( 85.24%)    -0.92666 ( 14.76%)    -1.14136
      34     79.00    -1.16742 ( 86.17%)    -0.92104 ( 13.83%)    -1.13335
      35     81.51    -1.14910 ( 87.60%)    -0.91177 ( 12.40%)    -1.11967
      36     83.69    -1.13367 ( 88.70%)    -0.90395 ( 11.30%)    -1.10771
      37     88.61    -1.10033 ( 90.80%)    -0.88703 (  9.20%)    -1.08069
      38     93.23    -1.07069 ( 92.36%)    -0.87197 (  7.64%)    -1.05550
      39     99.50    -1.03283 ( 94.01%)    -0.85270 (  5.99%)    -1.02203
      40    101.51    -1.02118 ( 94.44%)    -0.84676 (  5.56%)    -1.01148
      41    102.67    -1.01460 ( 94.67%)    -0.84341 (  5.33%)    -1.00549
      42    106.31    -0.99441 ( 95.33%)    -0.83310 (  4.67%)    -0.98689
      43    111.12    -0.96876 ( 96.06%)    -0.81997 (  3.94%)    -0.96290
      44    112.46    -0.96181 ( 96.24%)    -0.81641 (  3.76%)    -0.95634
      45    113.26    -0.95774 ( 96.34%)    -0.81433 (  3.66%)    -0.95249
      46    115.69    -0.94549 ( 96.63%)    -0.80804 (  3.37%)    -0.94085
      47    118.12    -0.93348 ( 96.89%)    -0.80188 (  3.11%)    -0.92938
      48    120.21    -0.92335 ( 97.09%)    -0.79667 (  2.91%)    -0.91967
      49    124.66    -0.90247 ( 97.48%)    -0.78592 (  2.52%)    -0.89953
      50    128.98    -0.88287 ( 97.79%)    -0.77582 (  2.21%)    -0.88051
      51    130.55    -0.87596 ( 97.89%)    -0.77225 (  2.11%)    -0.87377
      52    133.23    -0.86431 ( 98.05%)    -0.76622 (  1.95%)    -0.86240
      53    139.11    -0.83963 ( 98.36%)    -0.75343 (  1.64%)    -0.83821
      54    143.11    -0.82344 ( 98.53%)    -0.74502 (  1.47%)    -0.82229
      55    144.38    -0.81843 ( 98.58%)    -0.74241 (  1.42%)    -0.81735
      56    147.58    -0.80595 ( 98.70%)    -0.73591 (  1.30%)    -0.80504
      57    154.60    -0.77961 ( 98.92%)    -0.72214 (  1.08%)    -0.77899
      58    156.03    -0.77441 ( 98.96%)    -0.71942 (  1.04%)    -0.77384
      59    157.03    -0.77080 ( 98.98%)    -0.71753 (  1.02%)    -0.77026
      60    158.75    -0.76464 ( 99.03%)    -0.71430 (  0.97%)    -0.76415
      61    159.57    -0.76175 ( 99.05%)    -0.71278 (  0.95%)    -0.76129
      62    162.98    -0.74983 ( 99.12%)    -0.70652 (  0.88%)    -0.74945
      63    164.45    -0.74478 ( 99.15%)    -0.70386 (  0.85%)    -0.74444
      64    166.33    -0.73838 ( 99.19%)    -0.70048 (  0.81%)    -0.73807
      65    168.28    -0.73184 ( 99.23%)    -0.69703 (  0.77%)    -0.73158
      66    171.91    -0.71988 ( 99.29%)    -0.69070 (  0.71%)    -0.71967
      67    172.77    -0.71708 ( 99.30%)    -0.68922 (  0.70%)    -0.71689
      68    179.70    -0.69515 ( 99.40%)    -0.67758 (  0.60%)    -0.69505
      69    182.06    -0.68789 ( 99.43%)    -0.67372 (  0.57%)    -0.68781
      70    182.77    -0.68573 ( 99.44%)    -0.67256 (  0.56%)    -0.68565
      71    188.61    -0.66827 ( 99.51%)    -0.66323 (  0.49%)    -0.66825
      72    193.34    -0.65460 ( 99.55%)    -0.65590 (  0.45%)    -0.65461
      73    195.67    -0.64802 ( 99.58%)    -0.65236 (  0.42%)    -0.64804
      74    198.70    -0.63956 ( 99.60%)    -0.64780 (  0.40%)    -0.63960
      75    204.69    -0.62329 ( 99.65%)    -0.63901 (  0.35%)    -0.62335
      76    224.76    -0.57257 ( 99.76%)    -0.61130 (  0.24%)    -0.57267
      77    227.28    -0.56658 ( 99.77%)    -0.60799 (  0.23%)    -0.56668
      78    241.64    -0.53392 ( 99.82%)    -0.58984 (  0.18%)    -0.53402
      79    247.56    -0.52113 ( 99.83%)    -0.58267 (  0.17%)    -0.52124
      80    249.89    -0.51621 ( 99.84%)    -0.57990 (  0.16%)    -0.51631
      81    254.59    -0.50643 ( 99.85%)    -0.57438 (  0.15%)    -0.50653
      82    255.79    -0.50397 ( 99.85%)    -0.57298 (  0.15%)    -0.50407
      83    262.27    -0.49093 ( 99.87%)    -0.56557 (  0.13%)    -0.49103
      84    270.11    -0.47569 ( 99.88%)    -0.55684 (  0.12%)    -0.47579
      85    271.07    -0.47388 ( 99.88%)    -0.55580 (  0.12%)    -0.47397
      86    275.50    -0.46554 ( 99.89%)    -0.55099 (  0.11%)    -0.46563
      87    277.97    -0.46097 ( 99.90%)    -0.54835 (  0.10%)    -0.46106
      88    290.18    -0.43915 ( 99.91%)    -0.53562 (  0.09%)    -0.43924
      89    294.13    -0.43235 ( 99.92%)    -0.53161 (  0.08%)    -0.43243
      90    297.21    -0.42711 ( 99.92%)    -0.52852 (  0.08%)    -0.42719
      91    298.60    -0.42478 ( 99.92%)    -0.52714 (  0.08%)    -0.42486
   ------------------------------------------------------------------------

   temp. (K)  partition function   enthalpy   heat capacity  entropy
                                   cal/mol     cal/K/mol   cal/K/mol   J/K/mol
 298.15  VIB  0.647E+53            62850.217    402.217    399.841
         ROT  0.109E+10              888.752      2.981     44.341
         INT  0.707E+62            63738.970    405.198    444.182
         TR   0.699E+29             1481.254      4.968     48.201
         TOT                       65220.2237   410.1661   492.3833  2060.1317

       T/K    H(0)-H(T)+PV         H(T)/Eh          T*S/Eh         G(T)/Eh
   ------------------------------------------------------------------------
    298.15    0.103935E+00    0.146815E+01    0.233947E+00    0.123420E+01
   ------------------------------------------------------------------------

         :::::::::::::::::::::::::::::::::::::::::::::::::::::
         ::                  THERMODYNAMIC                  ::
         :::::::::::::::::::::::::::::::::::::::::::::::::::::
         :: total free energy        -302.305688816690 Eh   ::
         ::.................................................::
         :: total energy             -303.539889715334 Eh   ::
         :: zero point energy           1.364213050324 Eh   ::
         :: G(RRHO) w/o ZPVE           -0.130012151681 Eh   ::
         :: G(RRHO) contrib.            1.234200898643 Eh   ::
         :::::::::::::::::::::::::::::::::::::::::::::::::::::

           -------------------------------------------------
          | TOTAL ENERGY             -303.539889715334 Eh   |
          | TOTAL ENTHALPY           -302.071741622787 Eh   |
          | TOTAL FREE ENERGY        -302.305688816690 Eh   |
          | GRADIENT NORM               0.000824292663 Eh/α |
          | HOMO-LUMO GAP               1.644718518030 eV   |
           -------------------------------------------------

------------------------------------------------------------------------
 * finished run on 2021/06/21 at 22:16:53.801     
------------------------------------------------------------------------
 total:
 * wall-time:     0 d,  0 h, 12 min, 20.384 sec
 *  cpu-time:     0 d,  1 h, 11 min, 50.561 sec
 * ratio c/w:     5.822 speedup
 SCF:
 * wall-time:     0 d,  0 h,  0 min,  1.557 sec
 *  cpu-time:     0 d,  0 h,  0 min,  7.648 sec
 * ratio c/w:     4.914 speedup
 numerical hessian:
 * wall-time:     0 d,  0 h, 12 min, 17.592 sec
 *  cpu-time:     0 d,  1 h, 11 min, 41.532 sec
 * ratio c/w:     5.832 speedup

