 Entering Gaussian System, Link 0=g16
 Initial command:
 /apps/gaussian/g16-c01-avx/g16/l1.exe "/rds/general/ephemeral/user/atarzia/ephemeral/unsymm/single_point_dft/s_4b1_b/Gau-583990.inp" -scrdir="/rds/general/ephemeral/user/atarzia/ephemeral/unsymm/single_point_dft/s_4b1_b/"
 Entering Link 1 = /apps/gaussian/g16-c01-avx/g16/l1.exe PID=    583991.
  
 Copyright (c) 1988-2019, Gaussian, Inc.  All Rights Reserved.
  
 This is part of the Gaussian(R) 16 program.  It is based on
 the Gaussian(R) 09 system (copyright 2009, Gaussian, Inc.),
 the Gaussian(R) 03 system (copyright 2003, Gaussian, Inc.),
 the Gaussian(R) 98 system (copyright 1998, Gaussian, Inc.),
 the Gaussian(R) 94 system (copyright 1995, Gaussian, Inc.),
 the Gaussian 92(TM) system (copyright 1992, Gaussian, Inc.),
 the Gaussian 90(TM) system (copyright 1990, Gaussian, Inc.),
 the Gaussian 88(TM) system (copyright 1988, Gaussian, Inc.),
 the Gaussian 86(TM) system (copyright 1986, Carnegie Mellon
 University), and the Gaussian 82(TM) system (copyright 1983,
 Carnegie Mellon University). Gaussian is a federally registered
 trademark of Gaussian, Inc.
  
 This software contains proprietary and confidential information,
 including trade secrets, belonging to Gaussian, Inc.
  
 This software is provided under written license and may be
 used, copied, transmitted, or stored only in accord with that
 written license.
  
 The following legend is applicable only to US Government
 contracts under FAR:
  
                    RESTRICTED RIGHTS LEGEND
  
 Use, reproduction and disclosure by the US Government is
 subject to restrictions as set forth in subparagraphs (a)
 and (c) of the Commercial Computer Software - Restricted
 Rights clause in FAR 52.227-19.
  
 Gaussian, Inc.
 340 Quinnipiac St., Bldg. 40, Wallingford CT 06492
  
  
 ---------------------------------------------------------------
 Warning -- This program may not be used in any manner that
 competes with the business of Gaussian, Inc. or will provide
 assistance to any competitor of Gaussian, Inc.  The licensee
 of this program is prohibited from giving any competitor of
 Gaussian, Inc. access to this program.  By using this program,
 the user acknowledges that Gaussian, Inc. is engaged in the
 business of creating and licensing software in the field of
 computational chemistry and represents and warrants to the
 licensee that it is not a competitor of Gaussian, Inc. and that
 it will not use this program in any manner prohibited above.
 ---------------------------------------------------------------
  

 Cite this work as:
 Gaussian 16, Revision C.01,
 M. J. Frisch, G. W. Trucks, H. B. Schlegel, G. E. Scuseria, 
 M. A. Robb, J. R. Cheeseman, G. Scalmani, V. Barone, 
 G. A. Petersson, H. Nakatsuji, X. Li, M. Caricato, A. V. Marenich, 
 J. Bloino, B. G. Janesko, R. Gomperts, B. Mennucci, H. P. Hratchian, 
 J. V. Ortiz, A. F. Izmaylov, J. L. Sonnenberg, D. Williams-Young, 
 F. Ding, F. Lipparini, F. Egidi, J. Goings, B. Peng, A. Petrone, 
 T. Henderson, D. Ranasinghe, V. G. Zakrzewski, J. Gao, N. Rega, 
 G. Zheng, W. Liang, M. Hada, M. Ehara, K. Toyota, R. Fukuda, 
 J. Hasegawa, M. Ishida, T. Nakajima, Y. Honda, O. Kitao, H. Nakai, 
 T. Vreven, K. Throssell, J. A. Montgomery, Jr., J. E. Peralta, 
 F. Ogliaro, M. J. Bearpark, J. J. Heyd, E. N. Brothers, K. N. Kudin, 
 V. N. Staroverov, T. A. Keith, R. Kobayashi, J. Normand, 
 K. Raghavachari, A. P. Rendell, J. C. Burant, S. S. Iyengar, 
 J. Tomasi, M. Cossi, J. M. Millam, M. Klene, C. Adamo, R. Cammi, 
 J. W. Ochterski, R. L. Martin, K. Morokuma, O. Farkas, 
 J. B. Foresman, and D. J. Fox, Gaussian, Inc., Wallingford CT, 2019.
 
 ******************************************
 Gaussian 16:  ES64L-G16RevC.01  3-Jul-2019
                26-Feb-2021 
 ******************************************
 %chk=_s_4b1_b.chk
 %mem=60000mb
 %nprocshared=32
 Will use up to   32 processors via shared memory.
 ----------------------------------------------------------------------
 #P PBE1PBE/Def2SVP SP SCF=(YQC,MaxCycle=900) int=(Grid=Superfinegrid) 
 EmpiricalDispersion=GD3BJ SCRF=(PCM,Solvent=DiMethylSulfoxide)
 ----------------------------------------------------------------------
 1/38=1,172=1/1;
 2/12=2,17=6,18=5,40=1/2;
 3/5=43,7=101,11=2,25=1,30=1,70=2201,72=21,74=-13,75=-7,124=41/1,2,3;
 4//1;
 5/5=2,7=900,8=4,13=1,38=1,53=21/8,2,8;
 6/7=2,8=2,9=2,10=2,28=1/1;
 99/5=1,9=1/99;
 Leave Link    1 at Fri Feb 26 10:21:31 2021, MaxMem=  7864320000 cpu:               4.0 elap:               0.1
 (Enter /apps/gaussian/g16-c01-avx/g16/l101.exe)
 --------
 _s_4b1_b
 --------
 Symbolic Z-matrix:
 Charge =  4 Multiplicity = 1
 Pd                   -0.919     7.0949    0.5696 
 Pd                   -0.2152   -4.2489   -0.2822 
 C                     4.204    -0.2927   -1.0601 
 C                     4.482    -1.4593   -1.2189 
 C                     4.8494   -2.807    -1.4082 
 C                     6.1567   -3.1356   -1.7133 
 C                     6.5379   -4.4685   -1.9064 
 C                     5.6281   -5.4897   -1.7916 
 C                     4.2873   -5.2044   -1.474 
 C                     3.3021   -6.2076   -1.3263 
 C                     2.0208   -5.8627   -1.0037 
 N                     1.6533   -4.5703   -0.8234 
 C                     2.5404   -3.6053   -0.9583 
 C                     3.8837   -3.851    -1.2818 
 H                     6.8931   -2.3523   -1.8082 
 H                     7.5666   -4.688    -2.1479 
 H                     5.928    -6.5153   -1.9393 
 H                     3.5757   -7.2413   -1.4663 
 H                     1.2348   -6.6065   -0.8753 
 H                     2.197    -2.5837   -0.8078 
 C                     3.8465    1.0572   -0.8542 
 C                     4.636     1.8801   -0.0456 
 C                     4.2718    3.1935    0.1697 
 C                     3.1099    3.7126   -0.4051 
 C                     2.3306    2.8904   -1.2213 
 C                     2.6943    1.5797   -1.4489 
 H                     5.5295    1.4823    0.4104 
 H                     4.8798    3.8131    0.8107 
 H                     1.4581    3.2925   -1.7101 
 H                     2.1046    0.9583   -2.1034 
 C                     2.7197    5.1094   -0.1657 
 C                     3.6663    6.1391   -0.1556 
 C                     3.2567    7.443     0.0626 
 C                     1.9112    7.7007    0.2666 
 N                     1.0073    6.7203    0.263 
 C                     1.3878    5.4574    0.056 
 H                     4.7068    5.9185   -0.3366 
 H                     3.9692    8.2518    0.0693 
 H                     1.5451    8.7088    0.4385 
 H                     0.5973    4.7062    0.0868 
 C                    -0.2158    2.6997    5.0193 
 C                    -0.3222    3.8765    5.2772 
 C                    -0.3778    5.2174    5.7064 
 C                    -0.3257    5.4892    7.0618 
 C                    -0.3123    6.8051    7.5352 
 C                    -0.3392    7.8655    6.6645 
 C                    -0.4063    7.6348    5.2788 
 C                    -0.4304    8.685     4.3337 
 C                    -0.524     8.3984    3.0044 
 N                    -0.6174    7.123     2.5434 
 C                    -0.5696    6.1156    3.3913 
 C                    -0.4465    6.3       4.7799 
 H                    -0.2815    4.6705    7.7636 
 H                    -0.2684    6.9796    8.5993 
 H                    -0.3104    8.8805    7.0283 
 H                    -0.3751    9.7062    4.6754 
 H                    -0.5288    9.1892    2.2527 
 H                    -0.6351    5.1157    2.9739 
 C                    -0.0755    1.3379    4.679 
 C                    -0.8852    0.3704    5.28 
 C                    -0.7524   -0.9574    4.928 
 C                     0.1858   -1.3461    3.9699 
 C                     1.0157   -0.3796    3.3966 
 C                     0.8894    0.9482    3.7454 
 H                    -1.6211    0.6673    6.0109 
 H                    -1.4021   -1.6936    5.3752 
 H                     1.7833   -0.6749    2.6991 
 H                     1.5372    1.6908    3.3083 
 C                     0.2341   -2.7424    3.5132 
 C                     0.0954   -3.837     4.3736 
 C                     0.0651   -5.1169    3.8467 
 C                     0.1256   -5.2885    2.4714 
 N                     0.2577   -4.247     1.6515 
 C                     0.3412   -3.0111    2.1521 
 H                     0.0254   -3.6823    5.4391 
 H                    -0.0256   -5.9754    4.4921 
 H                     0.0695   -6.2678    2.0089 
 H                     0.4824   -2.2021    1.4308 
 C                    -5.2635    2.9727    1.5816 
 C                    -5.5319    4.152     1.5978 
 C                    -5.9568    5.4943    1.639 
 C                    -7.2848    5.7711    1.9089 
 C                    -7.7527    7.0882    1.9637 
 C                    -6.9051    8.1453    1.7478 
 C                    -5.5472    7.9109    1.4636 
 C                    -4.6282    8.9567    1.2269 
 C                    -3.3236    8.6657    0.9541 
 N                    -2.8653    7.392     0.8958 
 C                    -3.6929    6.3858    1.1098 
 C                    -5.0535    6.5746    1.4042 
 H                    -7.9696    4.9556    2.0848 
 H                    -8.795     7.2661    2.1797 
 H                    -7.2657    9.161     1.7908 
 H                    -4.9674    9.9795    1.2643 
 H                    -2.5973    9.4514    0.7675 
 H                    -3.2769    5.3816    1.0468 
 C                    -4.9315    1.6041    1.5082 
 C                    -3.7064    1.1388    1.9946 
 C                    -3.3672   -0.1897    1.852 
 C                    -4.2425   -1.0839    1.23 
 C                    -5.4859   -0.6261    0.7912 
 C                    -5.8278    0.7038    0.9238 
 H                    -3.0307    1.8225    2.4822 
 H                    -2.4278   -0.5429    2.2498 
 H                    -6.1717   -1.3065    0.3107 
 H                    -6.7813    1.0578    0.5638 
 C                    -3.8347   -2.4746    0.9899 
 C                    -4.6956   -3.5652    1.145 
 C                    -4.2331   -4.8419    0.8713 
 C                    -2.9264   -5.0147    0.4444 
 N                    -2.1063   -3.9729    0.2914 
 C                    -2.54     -2.7403    0.5545 
 H                    -5.7061   -3.4123    1.4907 
 H                    -4.8783   -5.6975    0.9892 
 H                    -2.5139   -5.9937    0.2149 
 H                    -1.8302   -1.9312    0.3957 
 C                    -2.0626    3.3128   -4.3733 
 C                    -2.043     4.5196   -4.4563 
 C                    -1.9939    5.9044   -4.7053 
 C                    -2.2035    6.3579   -5.9963 
 C                    -2.1191    7.7176   -6.3093 
 C                    -1.805     8.6417   -5.3443 
 C                    -1.5827    8.2255   -4.0196 
 C                    -1.2342    9.1284   -2.9899 
 C                    -1.0369    8.6674   -1.7226 
 N                    -1.1868    7.3561   -1.3957 
 C                    -1.4982    6.4821   -2.3314 
 C                    -1.6944    6.8465   -3.6756 
 H                    -2.4336    5.646    -6.7742 
 H                    -2.2936    8.0346   -7.326 
 H                    -1.7224    9.6891   -5.5879 
 H                    -1.1231    10.176   -3.22 
 H                    -0.7445    9.3412   -0.9147 
 H                    -1.6068    5.4472   -2.0239 
 C                    -2.0206    1.9124   -4.2186 
 C                    -2.3093    1.3316   -2.9802 
 C                    -2.188    -0.0306   -2.8146 
 C                    -1.7854   -0.8452   -3.8765 
 C                    -1.5487   -0.2693   -5.1245 
 C                    -1.6599    1.0961   -5.2953 
 H                    -2.6249    1.9565   -2.1607 
 H                    -2.4328   -0.4751   -1.8623 
 H                    -1.2428   -0.8879   -5.954 
 H                    -1.4544    1.5406   -6.2569 
 C                    -1.5938   -2.2839   -3.6454 
 C                    -2.0467   -3.2747   -4.5221 
 C                    -1.8657   -4.6072   -4.1914 
 C                    -1.2571   -4.9355   -2.9885 
 N                    -0.8058   -3.9923   -2.1637 
 C                    -0.9484   -2.7038   -2.4859 
 H                    -2.5507   -2.9998   -5.4357 
 H                    -2.2091   -5.3886   -4.85 
 H                    -1.1205   -5.9647   -2.6752 
 H                    -0.5099   -1.9763   -1.7985 
 
 ITRead=  0  0  0  0  0  0  0  0  0  0  0  0  0  0  0  0  0  0  0  0
 ITRead=  0  0  0  0  0  0  0  0  0  0  0  0  0  0  0  0  0  0  0  0
 ITRead=  0  0  0  0  0  0  0  0  0  0  0  0  0  0  0  0  0  0  0  0
 ITRead=  0  0  0  0  0  0  0  0  0  0  0  0  0  0  0  0  0  0  0  0
 ITRead=  0  0  0  0  0  0  0  0  0  0  0  0  0  0  0  0  0  0  0  0
 ITRead=  0  0  0  0  0  0  0  0  0  0  0  0  0  0  0  0  0  0  0  0
 ITRead=  0  0  0  0  0  0  0  0  0  0  0  0  0  0  0  0  0  0  0  0
 ITRead=  0  0  0  0  0  0  0  0  0  0  0  0  0  0
 MicOpt= -1 -1 -1 -1 -1 -1 -1 -1 -1 -1 -1 -1 -1 -1 -1 -1 -1 -1 -1 -1
 MicOpt= -1 -1 -1 -1 -1 -1 -1 -1 -1 -1 -1 -1 -1 -1 -1 -1 -1 -1 -1 -1
 MicOpt= -1 -1 -1 -1 -1 -1 -1 -1 -1 -1 -1 -1 -1 -1 -1 -1 -1 -1 -1 -1
 MicOpt= -1 -1 -1 -1 -1 -1 -1 -1 -1 -1 -1 -1 -1 -1 -1 -1 -1 -1 -1 -1
 MicOpt= -1 -1 -1 -1 -1 -1 -1 -1 -1 -1 -1 -1 -1 -1 -1 -1 -1 -1 -1 -1
 MicOpt= -1 -1 -1 -1 -1 -1 -1 -1 -1 -1 -1 -1 -1 -1 -1 -1 -1 -1 -1 -1
 MicOpt= -1 -1 -1 -1 -1 -1 -1 -1 -1 -1 -1 -1 -1 -1 -1 -1 -1 -1 -1 -1
 MicOpt= -1 -1 -1 -1 -1 -1 -1 -1 -1 -1 -1 -1 -1 -1
 NAtoms=    154 NQM=      154 NQMF=       0 NMMI=      0 NMMIF=      0
                NMic=       0 NMicF=      0.
                    Isotopes and Nuclear Properties:
 (Nuclear quadrupole moments (NQMom) in fm**2, nuclear magnetic moments (NMagM)
  in nuclear magnetons)

  Atom         1           2           3           4           5           6           7           8           9          10
 IAtWgt=         106         106          12          12          12          12          12          12          12          12
 AtmWgt= 105.9032000 105.9032000  12.0000000  12.0000000  12.0000000  12.0000000  12.0000000  12.0000000  12.0000000  12.0000000
 NucSpn=           0           0           0           0           0           0           0           0           0           0
 AtZEff=  -0.0000000  -0.0000000  -0.0000000  -0.0000000  -0.0000000  -0.0000000  -0.0000000  -0.0000000  -0.0000000  -0.0000000
 NQMom=    0.0000000   0.0000000   0.0000000   0.0000000   0.0000000   0.0000000   0.0000000   0.0000000   0.0000000   0.0000000
 NMagM=    0.0000000   0.0000000   0.0000000   0.0000000   0.0000000   0.0000000   0.0000000   0.0000000   0.0000000   0.0000000
 AtZNuc=  46.0000000  46.0000000   6.0000000   6.0000000   6.0000000   6.0000000   6.0000000   6.0000000   6.0000000   6.0000000

  Atom        11          12          13          14          15          16          17          18          19          20
 IAtWgt=          12          14          12          12           1           1           1           1           1           1
 AtmWgt=  12.0000000  14.0030740  12.0000000  12.0000000   1.0078250   1.0078250   1.0078250   1.0078250   1.0078250   1.0078250
 NucSpn=           0           2           0           0           1           1           1           1           1           1
 AtZEff=  -0.0000000  -0.0000000  -0.0000000  -0.0000000  -0.0000000  -0.0000000  -0.0000000  -0.0000000  -0.0000000  -0.0000000
 NQMom=    0.0000000   2.0440000   0.0000000   0.0000000   0.0000000   0.0000000   0.0000000   0.0000000   0.0000000   0.0000000
 NMagM=    0.0000000   0.4037610   0.0000000   0.0000000   2.7928460   2.7928460   2.7928460   2.7928460   2.7928460   2.7928460
 AtZNuc=   6.0000000   7.0000000   6.0000000   6.0000000   1.0000000   1.0000000   1.0000000   1.0000000   1.0000000   1.0000000

  Atom        21          22          23          24          25          26          27          28          29          30
 IAtWgt=          12          12          12          12          12          12           1           1           1           1
 AtmWgt=  12.0000000  12.0000000  12.0000000  12.0000000  12.0000000  12.0000000   1.0078250   1.0078250   1.0078250   1.0078250
 NucSpn=           0           0           0           0           0           0           1           1           1           1
 AtZEff=  -0.0000000  -0.0000000  -0.0000000  -0.0000000  -0.0000000  -0.0000000  -0.0000000  -0.0000000  -0.0000000  -0.0000000
 NQMom=    0.0000000   0.0000000   0.0000000   0.0000000   0.0000000   0.0000000   0.0000000   0.0000000   0.0000000   0.0000000
 NMagM=    0.0000000   0.0000000   0.0000000   0.0000000   0.0000000   0.0000000   2.7928460   2.7928460   2.7928460   2.7928460
 AtZNuc=   6.0000000   6.0000000   6.0000000   6.0000000   6.0000000   6.0000000   1.0000000   1.0000000   1.0000000   1.0000000

  Atom        31          32          33          34          35          36          37          38          39          40
 IAtWgt=          12          12          12          12          14          12           1           1           1           1
 AtmWgt=  12.0000000  12.0000000  12.0000000  12.0000000  14.0030740  12.0000000   1.0078250   1.0078250   1.0078250   1.0078250
 NucSpn=           0           0           0           0           2           0           1           1           1           1
 AtZEff=  -0.0000000  -0.0000000  -0.0000000  -0.0000000  -0.0000000  -0.0000000  -0.0000000  -0.0000000  -0.0000000  -0.0000000
 NQMom=    0.0000000   0.0000000   0.0000000   0.0000000   2.0440000   0.0000000   0.0000000   0.0000000   0.0000000   0.0000000
 NMagM=    0.0000000   0.0000000   0.0000000   0.0000000   0.4037610   0.0000000   2.7928460   2.7928460   2.7928460   2.7928460
 AtZNuc=   6.0000000   6.0000000   6.0000000   6.0000000   7.0000000   6.0000000   1.0000000   1.0000000   1.0000000   1.0000000

  Atom        41          42          43          44          45          46          47          48          49          50
 IAtWgt=          12          12          12          12          12          12          12          12          12          14
 AtmWgt=  12.0000000  12.0000000  12.0000000  12.0000000  12.0000000  12.0000000  12.0000000  12.0000000  12.0000000  14.0030740
 NucSpn=           0           0           0           0           0           0           0           0           0           2
 AtZEff=  -0.0000000  -0.0000000  -0.0000000  -0.0000000  -0.0000000  -0.0000000  -0.0000000  -0.0000000  -0.0000000  -0.0000000
 NQMom=    0.0000000   0.0000000   0.0000000   0.0000000   0.0000000   0.0000000   0.0000000   0.0000000   0.0000000   2.0440000
 NMagM=    0.0000000   0.0000000   0.0000000   0.0000000   0.0000000   0.0000000   0.0000000   0.0000000   0.0000000   0.4037610
 AtZNuc=   6.0000000   6.0000000   6.0000000   6.0000000   6.0000000   6.0000000   6.0000000   6.0000000   6.0000000   7.0000000

  Atom        51          52          53          54          55          56          57          58          59          60
 IAtWgt=          12          12           1           1           1           1           1           1          12          12
 AtmWgt=  12.0000000  12.0000000   1.0078250   1.0078250   1.0078250   1.0078250   1.0078250   1.0078250  12.0000000  12.0000000
 NucSpn=           0           0           1           1           1           1           1           1           0           0
 AtZEff=  -0.0000000  -0.0000000  -0.0000000  -0.0000000  -0.0000000  -0.0000000  -0.0000000  -0.0000000  -0.0000000  -0.0000000
 NQMom=    0.0000000   0.0000000   0.0000000   0.0000000   0.0000000   0.0000000   0.0000000   0.0000000   0.0000000   0.0000000
 NMagM=    0.0000000   0.0000000   2.7928460   2.7928460   2.7928460   2.7928460   2.7928460   2.7928460   0.0000000   0.0000000
 AtZNuc=   6.0000000   6.0000000   1.0000000   1.0000000   1.0000000   1.0000000   1.0000000   1.0000000   6.0000000   6.0000000

  Atom        61          62          63          64          65          66          67          68          69          70
 IAtWgt=          12          12          12          12           1           1           1           1          12          12
 AtmWgt=  12.0000000  12.0000000  12.0000000  12.0000000   1.0078250   1.0078250   1.0078250   1.0078250  12.0000000  12.0000000
 NucSpn=           0           0           0           0           1           1           1           1           0           0
 AtZEff=  -0.0000000  -0.0000000  -0.0000000  -0.0000000  -0.0000000  -0.0000000  -0.0000000  -0.0000000  -0.0000000  -0.0000000
 NQMom=    0.0000000   0.0000000   0.0000000   0.0000000   0.0000000   0.0000000   0.0000000   0.0000000   0.0000000   0.0000000
 NMagM=    0.0000000   0.0000000   0.0000000   0.0000000   2.7928460   2.7928460   2.7928460   2.7928460   0.0000000   0.0000000
 AtZNuc=   6.0000000   6.0000000   6.0000000   6.0000000   1.0000000   1.0000000   1.0000000   1.0000000   6.0000000   6.0000000

  Atom        71          72          73          74          75          76          77          78          79          80
 IAtWgt=          12          12          14          12           1           1           1           1          12          12
 AtmWgt=  12.0000000  12.0000000  14.0030740  12.0000000   1.0078250   1.0078250   1.0078250   1.0078250  12.0000000  12.0000000
 NucSpn=           0           0           2           0           1           1           1           1           0           0
 AtZEff=  -0.0000000  -0.0000000  -0.0000000  -0.0000000  -0.0000000  -0.0000000  -0.0000000  -0.0000000  -0.0000000  -0.0000000
 NQMom=    0.0000000   0.0000000   2.0440000   0.0000000   0.0000000   0.0000000   0.0000000   0.0000000   0.0000000   0.0000000
 NMagM=    0.0000000   0.0000000   0.4037610   0.0000000   2.7928460   2.7928460   2.7928460   2.7928460   0.0000000   0.0000000
 AtZNuc=   6.0000000   6.0000000   7.0000000   6.0000000   1.0000000   1.0000000   1.0000000   1.0000000   6.0000000   6.0000000

  Atom        81          82          83          84          85          86          87          88          89          90
 IAtWgt=          12          12          12          12          12          12          12          14          12          12
 AtmWgt=  12.0000000  12.0000000  12.0000000  12.0000000  12.0000000  12.0000000  12.0000000  14.0030740  12.0000000  12.0000000
 NucSpn=           0           0           0           0           0           0           0           2           0           0
 AtZEff=  -0.0000000  -0.0000000  -0.0000000  -0.0000000  -0.0000000  -0.0000000  -0.0000000  -0.0000000  -0.0000000  -0.0000000
 NQMom=    0.0000000   0.0000000   0.0000000   0.0000000   0.0000000   0.0000000   0.0000000   2.0440000   0.0000000   0.0000000
 NMagM=    0.0000000   0.0000000   0.0000000   0.0000000   0.0000000   0.0000000   0.0000000   0.4037610   0.0000000   0.0000000
 AtZNuc=   6.0000000   6.0000000   6.0000000   6.0000000   6.0000000   6.0000000   6.0000000   7.0000000   6.0000000   6.0000000

  Atom        91          92          93          94          95          96          97          98          99         100
 IAtWgt=           1           1           1           1           1           1          12          12          12          12
 AtmWgt=   1.0078250   1.0078250   1.0078250   1.0078250   1.0078250   1.0078250  12.0000000  12.0000000  12.0000000  12.0000000
 NucSpn=           1           1           1           1           1           1           0           0           0           0
 AtZEff=  -0.0000000  -0.0000000  -0.0000000  -0.0000000  -0.0000000  -0.0000000  -0.0000000  -0.0000000  -0.0000000  -0.0000000
 NQMom=    0.0000000   0.0000000   0.0000000   0.0000000   0.0000000   0.0000000   0.0000000   0.0000000   0.0000000   0.0000000
 NMagM=    2.7928460   2.7928460   2.7928460   2.7928460   2.7928460   2.7928460   0.0000000   0.0000000   0.0000000   0.0000000
 AtZNuc=   1.0000000   1.0000000   1.0000000   1.0000000   1.0000000   1.0000000   6.0000000   6.0000000   6.0000000   6.0000000

  Atom       101         102         103         104         105         106         107         108         109         110
 IAtWgt=          12          12           1           1           1           1          12          12          12          12
 AtmWgt=  12.0000000  12.0000000   1.0078250   1.0078250   1.0078250   1.0078250  12.0000000  12.0000000  12.0000000  12.0000000
 NucSpn=           0           0           1           1           1           1           0           0           0           0
 AtZEff=  -0.0000000  -0.0000000  -0.0000000  -0.0000000  -0.0000000  -0.0000000  -0.0000000  -0.0000000  -0.0000000  -0.0000000
 NQMom=    0.0000000   0.0000000   0.0000000   0.0000000   0.0000000   0.0000000   0.0000000   0.0000000   0.0000000   0.0000000
 NMagM=    0.0000000   0.0000000   2.7928460   2.7928460   2.7928460   2.7928460   0.0000000   0.0000000   0.0000000   0.0000000
 AtZNuc=   6.0000000   6.0000000   1.0000000   1.0000000   1.0000000   1.0000000   6.0000000   6.0000000   6.0000000   6.0000000

  Atom       111         112         113         114         115         116         117         118         119         120
 IAtWgt=          14          12           1           1           1           1          12          12          12          12
 AtmWgt=  14.0030740  12.0000000   1.0078250   1.0078250   1.0078250   1.0078250  12.0000000  12.0000000  12.0000000  12.0000000
 NucSpn=           2           0           1           1           1           1           0           0           0           0
 AtZEff=  -0.0000000  -0.0000000  -0.0000000  -0.0000000  -0.0000000  -0.0000000  -0.0000000  -0.0000000  -0.0000000  -0.0000000
 NQMom=    2.0440000   0.0000000   0.0000000   0.0000000   0.0000000   0.0000000   0.0000000   0.0000000   0.0000000   0.0000000
 NMagM=    0.4037610   0.0000000   2.7928460   2.7928460   2.7928460   2.7928460   0.0000000   0.0000000   0.0000000   0.0000000
 AtZNuc=   7.0000000   6.0000000   1.0000000   1.0000000   1.0000000   1.0000000   6.0000000   6.0000000   6.0000000   6.0000000

  Atom       121         122         123         124         125         126         127         128         129         130
 IAtWgt=          12          12          12          12          12          14          12          12           1           1
 AtmWgt=  12.0000000  12.0000000  12.0000000  12.0000000  12.0000000  14.0030740  12.0000000  12.0000000   1.0078250   1.0078250
 NucSpn=           0           0           0           0           0           2           0           0           1           1
 AtZEff=  -0.0000000  -0.0000000  -0.0000000  -0.0000000  -0.0000000  -0.0000000  -0.0000000  -0.0000000  -0.0000000  -0.0000000
 NQMom=    0.0000000   0.0000000   0.0000000   0.0000000   0.0000000   2.0440000   0.0000000   0.0000000   0.0000000   0.0000000
 NMagM=    0.0000000   0.0000000   0.0000000   0.0000000   0.0000000   0.4037610   0.0000000   0.0000000   2.7928460   2.7928460
 AtZNuc=   6.0000000   6.0000000   6.0000000   6.0000000   6.0000000   7.0000000   6.0000000   6.0000000   1.0000000   1.0000000

  Atom       131         132         133         134         135         136         137         138         139         140
 IAtWgt=           1           1           1           1          12          12          12          12          12          12
 AtmWgt=   1.0078250   1.0078250   1.0078250   1.0078250  12.0000000  12.0000000  12.0000000  12.0000000  12.0000000  12.0000000
 NucSpn=           1           1           1           1           0           0           0           0           0           0
 AtZEff=  -0.0000000  -0.0000000  -0.0000000  -0.0000000  -0.0000000  -0.0000000  -0.0000000  -0.0000000  -0.0000000  -0.0000000
 NQMom=    0.0000000   0.0000000   0.0000000   0.0000000   0.0000000   0.0000000   0.0000000   0.0000000   0.0000000   0.0000000
 NMagM=    2.7928460   2.7928460   2.7928460   2.7928460   0.0000000   0.0000000   0.0000000   0.0000000   0.0000000   0.0000000
 AtZNuc=   1.0000000   1.0000000   1.0000000   1.0000000   6.0000000   6.0000000   6.0000000   6.0000000   6.0000000   6.0000000

  Atom       141         142         143         144         145         146         147         148         149         150
 IAtWgt=           1           1           1           1          12          12          12          12          14          12
 AtmWgt=   1.0078250   1.0078250   1.0078250   1.0078250  12.0000000  12.0000000  12.0000000  12.0000000  14.0030740  12.0000000
 NucSpn=           1           1           1           1           0           0           0           0           2           0
 AtZEff=  -0.0000000  -0.0000000  -0.0000000  -0.0000000  -0.0000000  -0.0000000  -0.0000000  -0.0000000  -0.0000000  -0.0000000
 NQMom=    0.0000000   0.0000000   0.0000000   0.0000000   0.0000000   0.0000000   0.0000000   0.0000000   2.0440000   0.0000000
 NMagM=    2.7928460   2.7928460   2.7928460   2.7928460   0.0000000   0.0000000   0.0000000   0.0000000   0.4037610   0.0000000
 AtZNuc=   1.0000000   1.0000000   1.0000000   1.0000000   6.0000000   6.0000000   6.0000000   6.0000000   7.0000000   6.0000000

  Atom       151         152         153         154
 IAtWgt=           1           1           1           1
 AtmWgt=   1.0078250   1.0078250   1.0078250   1.0078250
 NucSpn=           1           1           1           1
 AtZEff=  -0.0000000  -0.0000000  -0.0000000  -0.0000000
 NQMom=    0.0000000   0.0000000   0.0000000   0.0000000
 NMagM=    2.7928460   2.7928460   2.7928460   2.7928460
 AtZNuc=   1.0000000   1.0000000   1.0000000   1.0000000
 Leave Link  101 at Fri Feb 26 10:21:32 2021, MaxMem=  7864320000 cpu:               8.4 elap:               0.3
 (Enter /apps/gaussian/g16-c01-avx/g16/l202.exe)
 Stoichiometry    C88H56N8Pd2(4+)
 Framework group  C1[X(C88H56N8Pd2)]
 Deg. of freedom   456
 Full point group                 C1      NOp   1
 Largest Abelian subgroup         C1      NOp   1
 Largest concise Abelian subgroup C1      NOp   1
                         Standard orientation:                         
 ---------------------------------------------------------------------
 Center     Atomic      Atomic             Coordinates (Angstroms)
 Number     Number       Type             X           Y           Z
 ---------------------------------------------------------------------
      1         46           0       -5.190280    0.508713    0.934467
      2         46           0        6.030490   -0.400243   -0.846217
      3          6           0        3.317043    1.995241    3.916644
      4          6           0        4.526577    2.016253    3.910017
      5          6           0        5.935226    2.056515    3.944649
      6          6           0        6.589455    2.588107    5.039861
      7          6           0        7.987422    2.637572    5.089497
      8          6           0        8.750942    2.153604    4.056745
      9          6           0        8.129396    1.595301    2.924495
     10          6           0        8.854370    1.065820    1.832292
     11          6           0        8.188418    0.525963    0.769363
     12          7           0        6.834201    0.485133    0.721471
     13          6           0        6.122018    0.973973    1.716558
     14          6           0        6.706544    1.545082    2.857453
     15          1           0        6.013491    2.974547    5.866771
     16          1           0        8.464634    3.063732    5.958626
     17          1           0        9.828030    2.192297    4.101397
     18          1           0        9.932335    1.089874    1.852418
     19          1           0        8.710956    0.102793   -0.088193
     20          1           0        5.038423    0.922171    1.630652
     21          6           0        1.906677    1.941624    3.896052
     22          6           0        1.202434    1.478964    5.011532
     23          6           0       -0.175274    1.408754    4.979822
     24          6           0       -0.880366    1.786353    3.835209
     25          6           0       -0.173581    2.258715    2.727585
     26          6           0        1.202795    2.341073    2.756214
     27          1           0        1.741725    1.175398    5.895577
     28          1           0       -0.706042    1.032545    5.840752
     29          1           0       -0.708461    2.599203    1.855897
     30          1           0        1.741060    2.734050    1.908810
     31          6           0       -2.347403    1.701026    3.801426
     32          6           0       -3.124770    2.074724    4.902555
     33          6           0       -4.504120    1.989969    4.826736
     34          6           0       -5.087221    1.535110    3.655629
     35          7           0       -4.348360    1.172939    2.606273
     36          6           0       -3.016622    1.247225    2.665458
     37          1           0       -2.650618    2.445252    5.798074
     38          1           0       -5.121752    2.277723    5.661953
     39          1           0       -6.165440    1.455424    3.551039
     40          1           0       -2.476924    0.915537    1.777287
     41          6           0       -1.284361   -4.336666    1.871592
     42          6           0       -2.475308   -4.412656    2.067965
     43          6           0       -3.832478   -4.614479    2.388390
     44          6           0       -4.236526   -5.859163    2.836950
     45          6           0       -5.558595   -6.092107    3.229062
     46          6           0       -6.490919   -5.085863    3.189872
     47          6           0       -6.126623   -3.808619    2.727459
     48          6           0       -7.040020   -2.731999    2.669933
     49          6           0       -6.634218   -1.524144    2.185834
     50          7           0       -5.371179   -1.314322    1.729109
     51          6           0       -4.482658   -2.285179    1.792685
     52          6           0       -4.789598   -3.560340    2.299754
     53          1           0       -3.514641   -6.659182    2.896932
     54          1           0       -5.837537   -7.075074    3.576412
     55          1           0       -7.506256   -5.260103    3.509457
     56          1           0       -8.052722   -2.878043    3.010186
     57          1           0       -7.314387   -0.672007    2.144937
     58          1           0       -3.484326   -2.065191    1.427648
     59          6           0        0.102518   -4.204684    1.649928
     60          6           0        0.782240   -5.124154    0.846544
     61          6           0        2.135855   -4.976971    0.621477
     62          6           0        2.836776   -3.911104    1.188839
     63          6           0        2.159553   -3.013869    2.018217
     64          6           0        0.807803   -3.156521    2.248622
     65          1           0        0.242506   -5.941730    0.394691
     66          1           0        2.646461   -5.674437   -0.024210
     67          1           0        2.701287   -2.220990    2.508916
     68          1           0        0.289430   -2.468117    2.896344
     69          6           0        4.248906   -3.693716    0.843597
     70          6           0        5.177168   -4.732894    0.716661
     71          6           0        6.466600   -4.446386    0.301976
     72          6           0        6.802102   -3.140689   -0.025366
     73          7           0        5.919040   -2.150704    0.095218
     74          6           0        4.687400   -2.407336    0.544910
     75          1           0        4.890874   -5.746042    0.952646
     76          1           0        7.202150   -5.229116    0.212033
     77          1           0        7.787806   -2.871864   -0.388962
     78          1           0        4.019947   -1.548621    0.653567
     79          6           0       -2.325662   -2.122392   -3.730574
     80          6           0       -3.529105   -2.002209   -3.748745
     81          6           0       -4.929060   -1.914051   -3.876660
     82          6           0       -5.534033   -2.425092   -5.010632
     83          6           0       -6.921115   -2.363825   -5.180740
     84          6           0       -7.722256   -1.790761   -4.225611
     85          6           0       -7.149724   -1.252238   -3.058647
     86          6           0       -7.921088   -0.645065   -2.043450
     87          6           0       -7.307473   -0.138847   -0.935162
     88          7           0       -5.964152   -0.191696   -0.766506
     89          6           0       -5.207359   -0.749992   -1.693181
     90          6           0       -5.737605   -1.306491   -2.869062
     91          1           0       -4.924197   -2.883089   -5.774354
     92          1           0       -7.358384   -2.775460   -6.077426
     93          1           0       -8.791954   -1.744174   -4.356387
     94          1           0       -8.992067   -0.587121   -2.154000
     95          1           0       -7.877709    0.333781   -0.140739
     96          1           0       -4.133704   -0.763037   -1.512799
     97          6           0       -0.918120   -2.204836   -3.703994
     98          6           0       -0.240401   -2.474434   -2.511529
     99          6           0        1.137890   -2.482151   -2.487906
    100          6           0        1.870075   -2.229765   -3.651020
    101          6           0        1.189985   -2.011225   -4.850139
    102          6           0       -0.189151   -1.994279   -4.878595
    103          1           0       -0.800096   -2.677505   -1.613045
    104          1           0        1.651281   -2.712126   -1.566489
    105          1           0        1.743352   -1.816689   -5.755725
    106          1           0       -0.710854   -1.803632   -5.803558
    107          6           0        3.335364   -2.138805   -3.599553
    108          6           0        4.172686   -2.662034   -4.589370
    109          6           0        5.544262   -2.507600   -4.472284
    110          6           0        6.061590   -1.833297   -3.378092
    111          7           0        5.261757   -1.329344   -2.435957
    112          6           0        3.940651   -1.474467   -2.537150
    113          1           0        3.752241   -3.195235   -5.427773
    114          1           0        6.208566   -2.907683   -5.221195
    115          1           0        7.128934   -1.683058   -3.238551
    116          1           0        3.340842   -1.028346   -1.746656
    117          6           0       -1.240318    4.370265   -2.152698
    118          6           0       -2.392539    4.654870   -1.918119
    119          6           0       -3.691152    5.135069   -1.662978
    120          6           0       -4.031665    6.403095   -2.101655
    121          6           0       -5.290619    6.948497   -1.834357
    122          6           0       -6.220239    6.245839   -1.109152
    123          6           0       -5.916649    4.954499   -0.642522
    124          6           0       -6.825157    4.193906    0.127591
    125          6           0       -6.477556    2.944633    0.547103
    126          7           0       -5.282085    2.379234    0.230855
    127          6           0       -4.403570    3.062686   -0.474472
    128          6           0       -4.648865    4.369999   -0.931549
    129          1           0       -3.308863    6.980186   -2.657892
    130          1           0       -5.522171    7.938318   -2.196650
    131          1           0       -7.185686    6.672307   -0.887235
    132          1           0       -7.785739    4.613836    0.379973
    133          1           0       -7.152538    2.346377    1.162485
    134          1           0       -3.463445    2.571103   -0.702243
    135          6           0        0.105101    3.998459   -2.348719
    136          6           0        0.459408    2.648029   -2.420232
    137          6           0        1.785008    2.289889   -2.530889
    138          6           0        2.785439    3.264538   -2.580783
    139          6           0        2.424935    4.611710   -2.561912
    140          6           0        1.099165    4.977640   -2.442391
    141          1           0       -0.310163    1.894140   -2.387105
    142          1           0        2.050143    1.246680   -2.607046
    143          1           0        3.187308    5.374072   -2.605535
    144          1           0        0.826000    6.020965   -2.405813
    145          6           0        4.193796    2.846559   -2.623211
    146          6           0        5.145792    3.422213   -3.470402
    147          6           0        6.437800    2.923861   -3.476579
    148          6           0        6.759527    1.850727   -2.658031
    149          7           0        5.859033    1.316643   -1.834952
    150          6           0        4.617456    1.808136   -1.798901
    151          1           0        4.867091    4.232133   -4.126608
    152          1           0        7.188068    3.349434   -4.123301
    153          1           0        7.750160    1.409517   -2.651068
    154          1           0        3.937993    1.367281   -1.065392
 ---------------------------------------------------------------------
 Rotational constants (GHZ):           0.0221791           0.0106954           0.0103764
 Leave Link  202 at Fri Feb 26 10:21:32 2021, MaxMem=  7864320000 cpu:               1.2 elap:               0.0
 (Enter /apps/gaussian/g16-c01-avx/g16/l301.exe)
 Standard basis: def2SVP (5D, 7F)
 Ernie: Thresh=  0.10000D-02 Tol=  0.10000D-05 Strict=F.
 There are  1792 symmetry adapted cartesian basis functions of A   symmetry.
 There are  1686 symmetry adapted basis functions of A   symmetry.
  1686 basis functions,  2922 primitive gaussians,  1792 cartesian basis functions
   336 alpha electrons      336 beta electrons
       nuclear repulsion energy     18186.7227765116 Hartrees.
 IExCor= 1009 DFT=T Ex+Corr=PBE1PBE ExCW=0 ScaHFX=  0.250000
 ScaDFX=  0.750000  0.750000  1.000000  1.000000 ScalE2=  1.000000  1.000000
 IRadAn=      7 IRanWt=     -1 IRanGd=            0 ICorTp=0 IEmpDi=141
 NAtoms=  154 NActive=  154 NUniq=  154 SFac= 1.00D+00 NAtFMM=   60 NAOKFM=T Big=T
 Integral buffers will be    131072 words long.
 Raffenetti 2 integral format.
 Two-electron integral symmetry is turned on.
 R6Disp:  Grimme-D3(BJ) Dispersion energy=       -0.2552028469 Hartrees.
 Nuclear repulsion after empirical dispersion term =    18186.4675736647 Hartrees.
 ------------------------------------------------------------------------------
 Polarizable Continuum Model (PCM)
 =================================
 Model                : PCM.
 Atomic radii         : UFF (Universal Force Field).
 Polarization charges : Total charges.
 Charge compensation  : None.
 Solution method      : On-the-fly selection.
 Cavity type          : Scaled VdW (van der Waals Surface) (Alpha=1.100).
 Cavity algorithm     : GePol (No added spheres)
                        Default sphere list used, NSphG=  154.
                        Lebedev-Laikov grids with approx.  5.0 points / Ang**2.
                        Smoothing algorithm: York/Karplus (Gamma=1.0000).
                        Polarization charges: spherical gaussians, with
                                              point-specific exponents (IZeta= 3).
                        Self-potential: point-specific (ISelfS= 7).
                        Self-field    : sphere-specific E.n sum rule (ISelfD= 2).
 Solvent              : DiMethylSulfoxide, Eps=  46.826000 Eps(inf)=   2.007889
 ------------------------------------------------------------------------------
 GePol: Number of generator spheres                  =     154
 GePol: Total number of spheres                      =     154
 GePol: Number of exposed spheres                    =     154 (100.00%)
 GePol: Number of points                             =   11075
 GePol: Average weight of points                     =       0.12
 GePol: Minimum weight of points                     =   0.28D-10
 GePol: Maximum weight of points                     =    0.20577
 GePol: Number of points with low weight             =     852
 GePol: Fraction of low-weight points (<1% of avg)   =       7.69%
 GePol: Cavity surface area                          =   1377.247 Ang**2
 GePol: Cavity volume                                =   1676.843 Ang**3
 Leave Link  301 at Fri Feb 26 10:21:33 2021, MaxMem=  7864320000 cpu:               5.2 elap:               0.2
 (Enter /apps/gaussian/g16-c01-avx/g16/l302.exe)
 NPDir=0 NMtPBC=     1 NCelOv=     1 NCel=       1 NClECP=     1 NCelD=      1
         NCelK=      1 NCelE2=     1 NClLst=     1 CellRange=     0.0.
 One-electron integrals computed using PRISM.
 One-electron integral symmetry used in STVInt
   1 Symmetry operations used in ECPInt.
 ECPInt:  NShTT=  293761 NPrTT= 1082631 LenC2=  177065 LenP2D=  373870.
 LDataN:  DoStor=T MaxTD1= 7 Len=  274
 NBasis=  1686 RedAO= T EigKep=  2.44D-04  NBF=  1686
 NBsUse=  1686 1.00D-06 EigRej= -1.00D+00 NBFU=  1686
 Precomputing XC quadrature grid using
 IXCGrd= 4 IRadAn=           7 IRanWt=          -1 IRanGd=           0 AccXCQ= 0.00D+00.
 Generated NRdTot=       0 NPtTot=           0 NUsed=           0 NTot=          32
 NSgBfM=  1551  1519  1535  1541  1551 MxSgAt=   154 MxSgA2=   154.
 Leave Link  302 at Fri Feb 26 10:21:48 2021, MaxMem=  7864320000 cpu:             459.5 elap:              14.6
 (Enter /apps/gaussian/g16-c01-avx/g16/l303.exe)
 DipDrv:  MaxL=1.
 Leave Link  303 at Fri Feb 26 10:21:50 2021, MaxMem=  7864320000 cpu:              19.5 elap:               0.7
 (Enter /apps/gaussian/g16-c01-avx/g16/l401.exe)
 ExpMin= 3.70D-02 ExpMax= 1.71D+03 ExpMxC= 2.58D+02 IAcc=3 IRadAn=         7 AccDes= 0.00D+00
 Harris functional with IExCor= 1009 and IRadAn=       7 diagonalized for initial guess.
 HarFok:  IExCor= 1009 AccDes= 0.00D+00 IRadAn=         7 IDoV= 1 UseB2=F ITyADJ=14
 ICtDFT=  3500011 ScaDFX=  1.000000  1.000000  1.000000  1.000000
 FoFCou: FMM=F IPFlag=           0 FMFlag=      100000 FMFlg1=        2001
         NFxFlg=           0 DoJE=T BraDBF=F KetDBF=T FulRan=T
         wScrn=  0.000000 ICntrl=       500 IOpCl=  0 I1Cent=   200000004 NGrid=           0
         NMat0=    1 NMatS0=      1 NMatT0=    0 NMatD0=    1 NMtDS0=    0 NMtDT0=    0
 Petite list used in FoFCou.
 Harris En= -4075.14637289182    
 JPrj=0 DoOrth=F DoCkMO=F.
 Leave Link  401 at Fri Feb 26 10:22:23 2021, MaxMem=  7864320000 cpu:            1044.6 elap:              33.1
 (Enter /apps/gaussian/g16-c01-avx/g16/l508.exe)
 Integral symmetry usage will be decided dynamically.
 Tight linear equation convergence will be used.
 RPBE1PBE wavefunction.
 Linear searches until partial convergence.
 Full line searches.
 Fock matrices will be formed incrementally for  20 cycles.
 Inv3:  Mode=1 IEnd=   367966875.
 Iteration    1 A*A^-1 deviation from unit magnitude is 2.25D-14 for  11060.
 Iteration    1 A*A^-1 deviation from orthogonality  is 6.77D-15 for  11060   9005.
 Iteration    1 A^-1*A deviation from unit magnitude is 2.25D-14 for  11060.
 Iteration    1 A^-1*A deviation from orthogonality  is 2.96D-13 for  10676  10674.
 FoFJK:  IHMeth= 1 ICntrl=       0 DoSepK=F KAlg= 0 I1Cent=           0 FoldK=F
 IRaf= 610000000 NMat=       1 IRICut=       1 DoRegI=T DoRafI=F ISym2E= 1 IDoP0=0 IntGTp=1.
 Iteration   1 EE= -4046.43203365406                                    Grad=5.614D+00 Max rot=   41.3186 deg.
 Gradient too large for Newton-Raphson -- use scaled steepest descent instead.
 Alpha Gap=    -0.026 HL deriv= 4.52D-02
     ILin= 1 X=0.000D+00 Y=-4.046432033654D+03 DE= 0.00D+00 F= -8.60D+01
 RMSU=  1.91D-03    CP:  9.72D-01
     ILin= 2 X=2.000D-01 Y=-4.058509774907D+03 DE=-1.21D+01 F= -2.68D+01 OKLS=F
 RMSU=  7.94D-04    CP:  9.58D-01  1.41D+00
     ILin= 3 X=3.000D-01 Y=-4.059763005937D+03 DE=-1.33D+01 F= -8.81D-01
 RMSU=  4.56D-04    CP:  9.46D-01  1.60D+00  2.14D+00
     ILin= 4 X=4.000D-01 Y=-4.059261732871D+03 DE=-1.28D+01 F=  8.12D+00
     An  expanding polynomial of degree  4 produced  0.3116
     Minimum is close to point  3 DX=  1.16D-02 DF= -1.13D-02 DXR=  3.73D-02 DFR=  8.45D-04 which will be used.
 Iteration   2 EE= -4059.76300593660     Delta-E=      -13.330972282540 Grad=3.980D+00 Max rot=   25.9493 deg.
 Gradient too large for Newton-Raphson -- use scaled steepest descent instead.
 Alpha Gap=     0.194 HL deriv= 1.93D-01
     ILin= 1 X=0.000D+00 Y=-4.059763005937D+03 DE= 0.00D+00 F= -5.83D+01
 RMSU=  2.22D-03    CP:  9.40D-01  1.17D+00  1.01D+00  2.17D+00
     ILin= 2 X=3.000D-01 Y=-4.066387738918D+03 DE=-6.62D+00 F=  7.62D+00 OKLS=T
     Accept linear search using points  1 and  2.
     An  expanding polynomial of degree  2 produced  0.1322
 RMSU=  5.79D-04    CP:  9.50D-01  1.31D+00  6.93D-01  1.19D+00  3.90D-01
 Iteration   3 EE= -4065.31525917317     Delta-E=       -5.552253236565 Grad=2.453D+00 Max rot=   22.6405 deg.
 Gradient too large for Newton-Raphson -- use scaled steepest descent instead.
 Alpha Gap=     0.257 HL deriv= 9.75D-02
     ILin= 1 X=0.000D+00 Y=-4.065315259173D+03 DE= 0.00D+00 F= -2.56D+01
 RMSU=  1.37D-03    CP:  9.35D-01  1.17D+00  6.77D-01  1.92D+00  5.14D-01
                    CP:  7.44D-01
     ILin= 2 X=3.000D-01 Y=-4.068622174146D+03 DE=-3.31D+00 F=  6.23D-01 OKLS=F
 RMSU=  3.66D-04    CP:  9.30D-01  1.11D+00  7.87D-01  1.97D+00  5.43D-01
                    CP:  5.85D-01  1.23D+00
     ILin= 3 X=4.000D-01 Y=-4.068405992178D+03 DE=-3.09D+00 F=  3.26D+00
     An  expanding polynomial of degree  3 produced  0.3172
     Minimum is close to point  2 DX=  1.72D-02 DF= -9.76D-03 DXR=  5.42D-02 DFR=  2.95D-03 which will be used.
 Iteration   4 EE= -4068.62217414557     Delta-E=       -3.306914972403 Grad=1.307D+00 Max rot=   11.4069 deg.
 Gradient too large for Newton-Raphson -- use scaled steepest descent instead.
 Alpha Gap=     0.207 HL deriv= 9.06D-02
     ILin= 1 X=0.000D+00 Y=-4.068622174146D+03 DE= 0.00D+00 F= -1.00D+01
 RMSU=  6.63D-04    CP:  9.29D-01  1.06D+00  4.83D-01  1.91D+00  5.16D-01
                    CP:  7.95D-01  9.47D-01  6.02D-02
     ILin= 2 X=2.000D-01 Y=-4.069927955672D+03 DE=-1.31D+00 F= -3.30D+00 OKLS=F
 RMSU=  1.15D-04    CP:  9.27D-01  1.00D+00  4.13D-01  1.87D+00  5.10D-01
                    CP:  7.93D-01  8.99D-01  1.86D-01  1.45D+00
     ILin= 3 X=3.000D-01 Y=-4.070137738827D+03 DE=-1.52D+00 F= -1.08D+00
 RMSU=  2.00D-05    CP:  9.24D-01  9.42D-01  3.64D-01  1.80D+00  5.00D-01
                    CP:  7.74D-01  8.42D-01  3.64D-01  1.84D+00  2.57D+00
     ILin= 4 X=4.000D-01 Y=-4.070177939935D+03 DE=-1.56D+00 F=  1.25D-01
 RMSU=  4.46D-04    CP:  9.19D-01  8.21D-01  3.29D-01  1.59D+00  4.68D-01
                    CP:  6.93D-01  7.11D-01  8.14D-01  2.30D+00  3.00D+00
                    CP:  3.00D+00
     ILin= 5 X=6.000D-01 Y=-4.070038072706D+03 DE=-1.42D+00 F=  1.27D+00
     Reject polynomial IMin12=  3  4 Big=T Turn=T Min= 1.403D+00 FVal=-4.070593141727D+03 Lims=  3.00D-01  6.00D-01
 RMSU=  1.95D-04    CP:  9.15D-01  7.14D-01  3.72D-01  1.33D+00  4.27D-01
                    CP:  5.71D-01  5.92D-01  1.29D+00  2.32D+00  3.00D+00
                    CP:  3.00D+00  2.24D+00
     ILin= 6 X=8.000D-01 Y=-4.069528566985D+03 DE=-9.06D-01 F=  4.35D+00
     An  expanding polynomial of degree  6 produced  0.3837
     Minimum is close to point  4 DX= -1.63D-02 DF= -1.23D-03 DXR=  4.26D-02 DFR=  7.88D-04 which will be used.
 Iteration   5 EE= -4070.17793993454     Delta-E=       -1.555765788966 Grad=1.176D+00 Max rot=    7.1383 deg.
 Gradient too large for Newton-Raphson -- use scaled steepest descent instead.
 Alpha Gap=     0.135 HL deriv= 3.91D-02
     ILin= 1 X=0.000D+00 Y=-4.070177939935D+03 DE= 0.00D+00 F= -6.21D+00
 RMSU=  7.40D-04    CP:  9.20D-01  8.10D-01  2.04D-01  1.54D+00  4.32D-01
                    CP:  6.62D-01  7.85D-01  4.13D-01  1.62D+00  2.30D+00
                    CP:  3.00D+00  1.84D-02  2.55D-01
     ILin= 2 X=3.000D-01 Y=-4.071229854887D+03 DE=-1.05D+00 F= -7.24D-01 OKLS=F
 RMSU=  2.19D-04    CP:  9.18D-01  7.17D-01  1.15D-01  1.33D+00  3.82D-01
                    CP:  5.40D-01  7.14D-01  4.74D-01  1.39D+00  2.90D+00
                    CP:  3.00D+00  5.74D-02  7.13D-01  1.51D+00
     ILin= 3 X=5.000D-01 Y=-4.071042650284D+03 DE=-8.65D-01 F=  2.45D+00
     An  expanding polynomial of degree  3 produced  0.3473
 RMSU=  3.72D-06    CP:  9.20D-01  7.88D-01  1.82D-01  1.49D+00  4.20D-01
                    CP:  6.36D-01  7.70D-01  4.26D-01  1.57D+00  2.39D+00
                    CP:  3.00D+00  2.69D-02  3.54D-01  1.14D+00  1.70D-01
 Iteration   6 EE= -4071.24438906185     Delta-E=       -1.066449127309 Grad=8.607D-01 Max rot=    8.9139 deg.
 Gradient too large for Newton-Raphson -- use scaled steepest descent instead.
 Alpha Gap=     0.291 HL deriv= 5.97D-02
     ILin= 1 X=0.000D+00 Y=-4.071244389062D+03 DE= 0.00D+00 F= -4.58D+00
 RMSU=  7.82D-04    CP:  9.14D-01  6.85D-01  1.07D-01  1.36D+00  3.99D-01
                    CP:  6.08D-01  7.15D-01  4.11D-01  1.71D+00  3.00D+00
                    CP:  3.00D+00  1.86D-01  1.10D+00  9.09D-01  2.17D-01
                    CP: -3.00D+00
     ILin= 2 X=4.000D-01 Y=-4.071930323129D+03 DE=-6.86D-01 F=  3.34D-01 OKLS=F
 RMSU=  1.55D-04    CP:  9.13D-01  6.61D-01  9.69D-02  1.31D+00  3.92D-01
                    CP:  5.94D-01  6.95D-01  4.16D-01  1.70D+00  3.00D+00
                    CP:  3.00D+00  3.12D-01  1.34D+00  8.37D-01  2.73D-01
                    CP: -3.00D+00  1.16D+00
     ILin= 3 X=5.000D-01 Y=-4.071870543094D+03 DE=-6.26D-01 F=  8.48D-01
     An  expanding polynomial of degree  3 produced  0.3854
     Minimum is close to point  2 DX= -1.46D-02 DF= -9.89D-04 DXR=  3.79D-02 DFR=  1.44D-03 which will be used.
 Iteration   7 EE= -4071.93032312947     Delta-E=       -0.685934067624 Grad=7.144D-01 Max rot=    4.8398 deg.
 Gradient too large for Newton-Raphson -- use scaled steepest descent instead.
 Alpha Gap=     0.287 HL deriv= 4.01D-02
     ILin= 1 X=0.000D+00 Y=-4.071930323129D+03 DE= 0.00D+00 F= -1.84D+00
 RMSU=  3.36D-04    CP:  9.12D-01  6.17D-01  2.29D-02  1.15D+00  3.56D-01
                    CP:  5.22D-01  6.82D-01  3.55D-01  1.53D+00  3.00D+00
                    CP:  3.00D+00  2.30D-01  1.15D+00  1.27D+00  6.18D-01
                    CP: -3.00D+00  9.32D-01 -3.35D-02
     ILin= 2 X=4.000D-01 Y=-4.072306332936D+03 DE=-3.76D-01 F= -2.09D-02 OKLS=F
 RMSU=  1.88D-05    CP:  9.12D-01  6.00D-01  7.00D-03  1.09D+00  3.46D-01
                    CP:  4.98D-01  6.72D-01  3.47D-01  1.49D+00  3.00D+00
                    CP:  3.00D+00  2.49D-01  1.15D+00  1.34D+00  7.58D-01
                    CP: -3.00D+00  9.08D-01 -2.36D-02  1.24D+00
     ILin= 3 X=5.000D-01 Y=-4.072285641340D+03 DE=-3.55D-01 F=  4.33D-01
     An  expanding polynomial of degree  3 produced  0.4049
     Minimum is close to point  2 DX=  4.90D-03 DF= -5.50D-05 DXR=  1.21D-02 DFR=  1.46D-04 which will be used.
 Iteration   8 EE= -4072.30633293586     Delta-E=       -0.376009806387 Grad=3.680D-01 Max rot=    2.3954 deg.
 Gradient too large for Newton-Raphson -- use scaled steepest descent instead.
 Alpha Gap=     0.374 HL deriv= 3.23D-02
     ILin= 1 X=0.000D+00 Y=-4.072306332936D+03 DE= 0.00D+00 F= -5.30D-01
 Restarting incremental Fock formation.
     ILin= 2 X=4.000D-01 Y=-4.072437179192D+03 DE=-1.31D-01 F= -1.27D-01 OKLS=F
 RMSU=  1.24D-04    CP:  9.99D-01
     ILin= 3 X=6.000D-01 Y=-4.072443438674D+03 DE=-1.37D-01 F=  6.31D-02
     Accept linear search using points  2 and  3.
     An  expanding polynomial of degree  3 produced  0.4928
 RMSU=  1.43D-06    CP:  1.00D+00  4.64D-01
 Iteration   9 EE= -4072.44482272197     Delta-E=       -0.138489786110 Grad=2.655D-01 Max rot=    1.4914 deg.
 Gradient too large for Newton-Raphson -- use scaled steepest descent instead.
 Alpha Gap=     0.362 HL deriv= 1.94D-02
     ILin= 1 X=0.000D+00 Y=-4.072444822722D+03 DE= 0.00D+00 F= -2.61D-01
 RMSU=  1.75D-04    CP:  9.98D-01  5.09D-01 -3.00D+00
     ILin= 2 X=4.000D-01 Y=-4.072510954853D+03 DE=-6.61D-02 F= -6.83D-02 OKLS=F
 RMSU=  1.71D-05    CP:  9.97D-01  5.47D-01 -3.00D+00  1.74D+00
     ILin= 3 X=7.000D-01 Y=-4.072509479934D+03 DE=-6.47D-02 F=  7.79D-02
     An  expanding polynomial of degree  3 produced  0.5399
 RMSU=  3.53D-07    CP:  9.98D-01  5.26D-01 -3.00D+00  1.35D+00  3.78D-01
 Iteration  10 EE= -4072.51572772715     Delta-E=       -0.070905005188 Grad=2.138D-01 Max rot=    1.4118 deg.
 Gradient too large for Newton-Raphson -- use scaled steepest descent instead.
 Alpha Gap=     0.385 HL deriv= 1.17D-02
     ILin= 1 X=0.000D+00 Y=-4.072515727727D+03 DE= 0.00D+00 F= -1.88D-01
 RMSU=  1.16D-04    CP:  9.97D-01  1.82D+00 -3.00D+00  1.27D+00  1.12D+00
                    CP:  3.00D+00
     ILin= 2 X=5.000D-01 Y=-4.072565815150D+03 DE=-5.01D-02 F= -1.13D-02 OKLS=T
     Reject lnstep IMin12=  1  2 Big=T Turn=F Min= 6.107D-01 FVal=-4.072567416485D+03 Lims=  0.00D+00  5.00D-01
 RMSU=  1.34D-05    CP:  9.97D-01  2.59D+00 -3.00D+00  1.21D+00  2.26D+00
                    CP:  3.00D+00  1.59D+00
     ILin= 3 X=8.000D-01 Y=-4.072553210323D+03 DE=-3.75D-02 F=  9.49D-02
     An  expanding polynomial of degree  3 produced  0.5318
     Minimum is close to point  2 DX=  3.18D-02 DF= -1.80D-04 DXR=  5.98D-02 DFR=  3.59D-03 which will be used.
 Iteration  11 EE= -4072.56581514954     Delta-E=       -0.050087422384 Grad=1.841D-01 Max rot=    1.4021 deg.
 Gradient too large for Newton-Raphson -- use scaled steepest descent instead.
 Alpha Gap=     0.358 HL deriv= 9.33D-03
     ILin= 1 X=0.000D+00 Y=-4.072565815150D+03 DE= 0.00D+00 F= -1.67D-01
 RMSU=  8.79D-05    CP:  9.96D-01  1.71D+00 -3.00D+00  2.16D+00  3.00D+00
                    CP:  3.00D+00  1.53D+00  1.87D-01
     ILin= 2 X=5.000D-01 Y=-4.072625127059D+03 DE=-5.93D-02 F= -6.65D-02 OKLS=F
 RMSU=  3.72D-05    CP:  9.95D-01  1.63D+00 -3.00D+00  2.66D+00  3.00D+00
                    CP: -3.00D+00  1.80D+00  6.17D-01  1.65D+00
     ILin= 3 X=8.000D-01 Y=-4.072634917785D+03 DE=-6.91D-02 F=  1.86D-03
 RMSU=  2.40D-05    CP:  9.94D-01  1.54D+00 -3.00D+00  3.00D+00  3.00D+00
                    CP: -3.00D+00  2.02D+00  1.13D+00  2.30D+00  2.38D+00
     ILin= 4 X=1.100D+00 Y=-4.072623759197D+03 DE=-5.79D-02 F=  7.27D-02
     An  expanding polynomial of degree  4 produced  0.7933
     Minimum is close to point  3 DX= -6.67D-03 DF= -5.17D-06 DXR=  8.41D-03 DFR=  7.49D-05 which will be used.
 Iteration  12 EE= -4072.63491778450     Delta-E=       -0.069102634963 Grad=2.988D-01 Max rot=    1.7109 deg.
 Gradient too large for Newton-Raphson -- use scaled steepest descent instead.
 Alpha Gap=     0.375 HL deriv= 2.86D-03
     ILin= 1 X=0.000D+00 Y=-4.072634917785D+03 DE= 0.00D+00 F= -3.89D-01
 RMSU=  1.57D-04    CP:  9.94D-01  3.00D+00 -3.00D+00  1.98D+00  3.00D+00
                    CP:  3.00D+00  3.00D+00  3.00D+00  2.05D+00  3.00D+00
                    CP:  3.42D-01
     ILin= 2 X=6.000D-01 Y=-4.072709621832D+03 DE=-7.47D-02 F=  1.43D-01 OKLS=T
     Accept linear search using points  1 and  2.
     An  expanding polynomial of degree  2 produced  0.3619
 RMSU=  4.43D-05    CP:  9.95D-01  2.64D+00 -3.00D+00  2.26D+00  3.00D+00
                    CP:  3.00D+00  2.97D+00  3.00D+00  1.92D+00  2.25D+00
                    CP:  2.33D-01  3.73D-01
 Iteration  13 EE= -4072.71857437272     Delta-E=       -0.083656588220 Grad=1.858D-01 Max rot=    1.8544 deg.
 Gradient too large for Newton-Raphson -- use scaled steepest descent instead.
 Alpha Gap=     0.334 HL deriv= 4.79D-03
     ILin= 1 X=0.000D+00 Y=-4.072718574373D+03 DE= 0.00D+00 F= -2.13D-01
 RMSU=  1.05D-04    CP:  9.93D-01  2.46D+00 -3.00D+00  2.74D+00  3.00D+00
                    CP: -3.00D+00  3.00D+00  3.00D+00  3.00D+00  3.00D+00
                    CP:  9.98D-01  8.88D-01  7.82D-01
     ILin= 2 X=5.000D-01 Y=-4.072810037855D+03 DE=-9.15D-02 F= -1.48D-01 OKLS=F
 RMSU=  3.80D-05    CP:  9.92D-01  2.32D+00 -3.00D+00  2.95D+00  3.00D+00
                    CP: -3.00D+00  3.00D+00  3.00D+00  3.00D+00  3.00D+00
                    CP:  1.69D+00  1.16D+00  7.45D-01  2.04D+00
     ILin= 3 X=8.000D-01 Y=-4.072847154671D+03 DE=-1.29D-01 F= -9.81D-02
 RMSU=  2.71D-05    CP:  9.91D-01  2.17D+00 -3.00D+00  3.00D+00  3.00D+00
                    CP: -3.00D+00  3.00D+00  3.00D+00  3.00D+00  3.00D+00
                    CP:  3.00D+00  1.35D+00  8.06D-01  3.00D+00  1.94D+00
     ILin= 4 X=1.100D+00 Y=-4.072868363936D+03 DE=-1.50D-01 F= -4.26D-02
 RMSU=  1.28D-04    CP:  9.90D-01  1.95D+00 -3.00D+00  3.00D+00  3.00D+00
                    CP: -3.00D+00  2.85D+00  3.00D+00  3.00D+00  3.00D+00
                    CP:  3.00D+00  1.52D+00  8.19D-01  3.00D+00  2.90D+00
                    CP:  3.00D+00
     ILin= 5 X=1.500D+00 Y=-4.072869825058D+03 DE=-1.51D-01 F=  3.60D-02
     Accept linear search using points  4 and  5.
     An  expanding polynomial of degree  5 produced  1.3027
 RMSU=  2.58D-05    CP:  9.90D-01  2.06D+00 -3.00D+00  3.00D+00  3.00D+00
                    CP: -3.00D+00  3.00D+00  3.00D+00  3.00D+00  3.00D+00
                    CP:  3.00D+00  1.43D+00  9.11D-01  3.00D+00  2.51D+00
                    CP:  3.00D+00  4.20D-01
 Iteration  14 EE= -4072.87303977367     Delta-E=       -0.154465400945 Grad=3.692D-01 Max rot=    2.3560 deg.
 Gradient too large for Newton-Raphson -- use scaled steepest descent instead.
 Alpha Gap=     0.366 HL deriv= 4.42D-03
     ILin= 1 X=0.000D+00 Y=-4.072873039774D+03 DE= 0.00D+00 F= -5.94D-01
 RMSU=  3.10D-04    CP:  9.90D-01  3.00D+00 -3.00D+00  1.69D+00  3.00D+00
                    CP:  3.00D+00  3.00D+00  3.00D+00  3.00D+00  3.00D+00
                    CP:  2.75D+00  3.00D+00 -1.60D+00  3.00D+00  2.85D+00
                    CP:  3.00D+00  1.90D-01 -3.00D+00
     ILin= 2 X=7.000D-01 Y=-4.072804336606D+03 DE= 6.87D-02 F=  6.86D-01 OKLS=T
     Reject lnstep IMin12=  1  2 Big=F Turn=F Min= 3.065D-01 FVal=-4.073001127165D+03 Lims=  0.00D+00  7.00D-01
 RMSU=  7.11D-05    CP:  9.90D-01  2.87D+00 -3.00D+00  2.56D+00  3.00D+00
                    CP: -3.00D+00  3.00D+00  3.00D+00  3.00D+00  3.00D+00
                    CP:  3.00D+00  2.26D+00  3.58D-01  3.00D+00  2.11D+00
                    CP:  3.00D+00  4.29D-01 -1.92D+00  3.43D-01
     ILin= 3 X=3.000D-01 Y=-4.072957773448D+03 DE=-8.47D-02 F=  2.68D-02
     A contracting polynomial of degree  3 produced  0.2984
     Minimum is close to point  3 DX= -1.58D-03 DF= -2.36D-06 DXR=  5.28D-03 DFR=  2.79D-05 which will be used.
 Iteration  15 EE= -4072.95777344780     Delta-E=       -0.084733674139 Grad=1.476D-01 Max rot=    1.1314 deg.
 Gradient too large for Newton-Raphson -- use scaled steepest descent instead.
 Alpha Gap=     0.300 HL deriv= 3.67D-03
     ILin= 1 X=0.000D+00 Y=-4.072957773448D+03 DE= 0.00D+00 F= -1.04D-01
 Restarting incremental Fock formation.
     ILin= 2 X=1.300D+00 Y=-4.072949816811D+03 DE= 7.96D-03 F=  1.22D-01 OKLS=T
     Reject lnstep IMin12=  1  2 Big=F Turn=F Min= 6.061D-01 FVal=-4.072982179306D+03 Lims=  0.00D+00  1.30D+00
 RMSU=  2.19D-04    CP:  1.00D+00
     ILin= 3 X=6.000D-01 Y=-4.072990783154D+03 DE=-3.30D-02 F= -3.92D-03
     A contracting polynomial of degree  3 produced  0.6150
     Minimum is close to point  3 DX=  1.50D-02 DF= -1.95D-05 DXR=  2.43D-02 DFR=  5.92D-04 which will be used.
 Iteration  16 EE= -4072.99078315436     Delta-E=       -0.033009706556 Grad=1.421D-01 Max rot=    0.7849 deg.
 Gradient too large for Newton-Raphson -- use scaled steepest descent instead.
 Alpha Gap=     0.344 HL deriv= 3.13D-03
     ILin= 1 X=0.000D+00 Y=-4.072990783154D+03 DE= 0.00D+00 F= -1.06D-01
 RMSU=  1.34D-04    CP:  1.00D+00  9.67D-01
     ILin= 2 X=4.000D-01 Y=-4.073010707717D+03 DE=-1.99D-02 F=  5.92D-03 OKLS=T
     Accept linear search using points  1 and  2.
     An  expanding polynomial of degree  2 produced  0.2307
 RMSU=  3.09D-06    CP:  1.00D+00  9.82D-01  5.77D-01
 Iteration  17 EE= -4073.00775164604     Delta-E=       -0.016968491680 Grad=7.239D-02 Max rot=    0.8700 deg.
 Gradient too large for Newton-Raphson -- use scaled steepest descent instead.
 Alpha Gap=     0.317 HL deriv= 4.39D-04
     ILin= 1 X=0.000D+00 Y=-4.073007751646D+03 DE= 0.00D+00 F= -3.65D-02
 RMSU=  3.50D-05    CP:  1.00D+00  5.94D-01  1.14D+00 -1.41D+00
     ILin= 2 X=6.000D-01 Y=-4.073028390834D+03 DE=-2.06D-02 F= -3.20D-02 OKLS=F
 RMSU=  7.70D-06    CP:  1.00D+00  4.02D-01  1.42D+00 -3.00D+00  1.50D+00
     ILin= 3 X=9.000D-01 Y=-4.073037586063D+03 DE=-2.98D-02 F= -2.92D-02
 RMSU=  9.57D-06    CP:  1.00D+00  1.49D-01  1.77D+00 -3.00D+00  2.16D+00
                    CP:  3.00D+00
     ILin= 4 X=1.300D+00 Y=-4.073048404519D+03 DE=-4.07D-02 F= -2.48D-02
 RMSU=  4.79D-05    CP:  1.00D+00 -2.69D-01  2.33D+00 -3.00D+00  3.00D+00
                    CP:  3.00D+00  3.00D+00
     ILin= 5 X=2.000D+00 Y=-4.073062594182D+03 DE=-5.48D-02 F= -1.54D-02
 RMSU=  3.68D-05    CP:  9.99D-01 -7.40D-01  2.90D+00 -3.00D+00  3.00D+00
                    CP:  3.00D+00  3.00D+00  3.00D+00
     ILin= 6 X=2.900D+00 Y=-4.073070105214D+03 DE=-6.24D-02 F= -8.19D-04
     Reject lnstep IMin12=  5  6 Big=T Turn=F Min= 2.968D+00 FVal=-4.073070135976D+03 Lims=  2.00D+00  2.90D+00
 RMSU=  2.20D-04    CP:  9.97D-01 -1.28D+00  3.00D+00 -3.00D+00  3.00D+00
                    CP:  3.00D+00  3.00D+00  3.00D+00  3.00D+00
     ILin= 7 X=4.400D+00 Y=-4.073050167520D+03 DE=-4.24D-02 F=  2.82D-02
     An  expanding polynomial of degree  7 produced  2.9463
     Minimum is close to point  6 DX=  4.63D-02 DF= -1.90D-05 DXR=  1.57D-02 DFR=  3.05D-04 which will be used.
 Iteration  18 EE= -4073.07010521381     Delta-E=       -0.062353567766 Grad=1.493D-01 Max rot=    3.2448 deg.
 Gradient too large for Newton-Raphson -- use scaled steepest descent instead.
 Alpha Gap=     0.285 HL deriv= 3.49D-03
     ILin= 1 X=0.000D+00 Y=-4.073070105214D+03 DE= 0.00D+00 F= -8.14D-02
 RMSU=  1.57D-04    CP:  9.98D-01 -8.42D-01  2.20D+00 -3.00D+00  3.00D+00
                    CP:  3.00D+00  3.00D+00  3.00D+00  2.91D+00 -1.22D-01
     ILin= 2 X=8.000D-01 Y=-4.073099286824D+03 DE=-2.92D-02 F=  8.21D-03 OKLS=T
     Accept linear search using points  1 and  2.
     An  expanding polynomial of degree  2 produced  0.6785
 RMSU=  2.44D-06    CP:  9.98D-01 -8.31D-01  2.31D+00 -3.00D+00  3.00D+00
                    CP:  3.00D+00  3.00D+00  3.00D+00  2.62D+00 -1.08D-01
                    CP:  8.50D-01
 Iteration  19 EE= -4073.09946734877     Delta-E=       -0.029362134963 Grad=1.617D-01 Max rot=    3.4300 deg.
 Gradient too large for Newton-Raphson -- use scaled steepest descent instead.
 Alpha Gap=     0.317 HL deriv= 1.99D-03
     ILin= 1 X=0.000D+00 Y=-4.073099467349D+03 DE= 0.00D+00 F= -2.23D-01
 RMSU=  5.48D-04    CP:  9.95D-01  2.05D-01  2.32D+00 -3.00D+00  3.00D+00
                    CP:  3.00D+00  3.00D+00  3.00D+00  3.00D+00  9.60D-01
                    CP:  6.60D-01 -3.00D+00
     ILin= 2 X=1.300D+00 Y=-4.073232900394D+03 DE=-1.33D-01 F=  4.94D-02 OKLS=T
     Accept linear search using points  1 and  2.
     An  expanding polynomial of degree  2 produced  1.1866
     Minimum is close to point  2 DX= -1.13D-01 DF= -2.11D-03 DXR=  9.56D-02 DFR=  1.58D-02 which will be used.
 Iteration  20 EE= -4073.23290039440     Delta-E=       -0.133433045627 Grad=3.700D-01 Max rot=    2.4449 deg.
 Gradient too large for Newton-Raphson -- use scaled steepest descent instead.
 Alpha Gap=     0.239 HL deriv= 1.13D-02
     ILin= 1 X=0.000D+00 Y=-4.073232900394D+03 DE= 0.00D+00 F= -4.35D-01
 RMSU=  3.76D-04    CP:  9.94D-01 -5.47D-01  5.50D-01 -3.00D+00  3.00D+00
                    CP:  3.00D+00  3.00D+00  3.00D+00  3.00D+00  9.30D-01
                    CP:  1.71D+00 -3.00D+00  8.49D-01
     ILin= 2 X=9.000D-01 Y=-4.073180453160D+03 DE= 5.24D-02 F=  5.49D-01 OKLS=T
     Reject lnstep IMin12=  1  2 Big=F Turn=F Min= 4.041D-01 FVal=-4.073330906150D+03 Lims=  0.00D+00  9.00D-01
 RMSU=  2.19D-05    CP:  9.95D-01 -1.44D-01  1.50D+00 -3.00D+00  3.00D+00
                    CP:  3.00D+00  3.00D+00  3.00D+00  3.00D+00  9.64D-01
                    CP:  1.17D+00 -3.00D+00  9.49D-01  4.35D-01
     ILin= 3 X=4.000D-01 Y=-4.073319795961D+03 DE=-8.69D-02 F=  3.36D-03
     A contracting polynomial of degree  3 produced  0.3971
     Minimum is close to point  3 DX= -2.88D-03 DF= -4.56D-06 DXR=  7.25D-03 DFR=  5.25D-05 which will be used.
 Iteration  21 EE= -4073.31979596070     Delta-E=       -0.086895566306 Grad=1.119D-01 Max rot=    0.9865 deg.
 Gradient too large for Newton-Raphson -- use scaled steepest descent instead.
 Alpha Gap=     0.303 HL deriv= 1.73D-04
     ILin= 1 X=0.000D+00 Y=-4.073319795961D+03 DE= 0.00D+00 F= -5.50D-02
 RMSU=  1.38D-04    CP:  9.95D-01 -6.34D-03  1.51D+00 -3.00D+00  3.00D+00
                    CP:  3.00D+00  3.00D+00  3.00D+00  3.00D+00  1.06D+00
                    CP:  1.19D+00 -3.00D+00  9.31D-01  4.27D-01  8.14D-01
     ILin= 2 X=7.000D-01 Y=-4.073340402949D+03 DE=-2.06D-02 F= -4.01D-03 OKLS=T
     Reject lnstep IMin12=  1  2 Big=T Turn=F Min= 1.320D+00 FVal=-4.073342792035D+03 Lims=  0.00D+00  7.00D-01
 RMSU=  1.23D-05    CP:  9.95D-01  9.21D-02  1.52D+00 -3.00D+00  3.00D+00
                    CP:  3.00D+00  3.00D+00  3.00D+00  3.00D+00  1.12D+00
                    CP:  1.18D+00 -3.00D+00  9.05D-01  4.17D-01  3.75D-01
                    CP:  1.70D+00
     ILin= 3 X=1.200D+00 Y=-4.073333469642D+03 DE=-1.37D-02 F=  3.16D-02
     An  expanding polynomial of degree  3 produced  0.7579
     Minimum is close to point  2 DX=  5.79D-02 DF= -1.21D-04 DXR=  7.64D-02 DFR=  5.87D-03 which will be used.
 Iteration  22 EE= -4073.34040294864     Delta-E=       -0.020606987942 Grad=9.058D-02 Max rot=    0.5284 deg.
 Gradient too large for Newton-Raphson -- use scaled steepest descent instead.
 Alpha Gap=     0.283 HL deriv= 3.74D-03
     ILin= 1 X=0.000D+00 Y=-4.073340402949D+03 DE= 0.00D+00 F= -2.88D-02
 RMSU=  2.68D-05    CP:  9.94D-01 -8.24D-02  1.26D+00 -3.00D+00  3.00D+00
                    CP:  3.00D+00  3.00D+00  3.00D+00  3.00D+00  1.07D+00
                    CP:  1.28D+00 -3.00D+00  9.12D-01  5.53D-01  6.45D-01
                    CP:  1.05D+00  3.93D-01
     ILin= 2 X=5.000D-01 Y=-4.073347458441D+03 DE=-7.06D-03 F=  6.21D-04 OKLS=T
     Accept linear search using points  1 and  2.
     An  expanding polynomial of degree  2 produced  0.3773
 RMSU=  1.86D-07    CP:  9.95D-01 -6.39D-02  1.32D+00 -3.00D+00  3.00D+00
                    CP:  3.00D+00  3.00D+00  3.00D+00  3.00D+00  1.07D+00
                    CP:  1.26D+00 -3.00D+00  9.17D-01  5.22D-01  6.99D-01
                    CP:  1.04D+00  2.87D-01  7.54D-01
 Iteration  23 EE= -4073.34709058850     Delta-E=       -0.006687639852 Grad=3.541D-02 Max rot=    0.3706 deg.
 Gradient too large for Newton-Raphson -- use scaled steepest descent instead.
 Alpha Gap=     0.295 HL deriv= 1.14D-03
     ILin= 1 X=0.000D+00 Y=-4.073347090588D+03 DE= 0.00D+00 F= -6.87D-03
 RMSU=  9.39D-06    CP:  9.94D-01 -3.64D-02  1.28D+00 -3.00D+00  3.00D+00
                    CP:  3.00D+00  3.00D+00  3.00D+00  3.00D+00  1.08D+00
                    CP:  1.26D+00 -3.00D+00  9.12D-01  5.40D-01  5.13D-01
                    CP:  1.23D+00  7.15D-01  1.16D+00 -4.98D-01
     ILin= 2 X=5.000D-01 Y=-4.073349910167D+03 DE=-2.82D-03 F= -4.40D-03 OKLS=F
 Restarting incremental Fock formation.
     ILin= 3 X=1.000D+00 Y=-4.073351487583D+03 DE=-4.40D-03 F= -1.90D-03
 RMSU=  5.91D-05    CP:  1.00D+00
     ILin= 4 X=1.900D+00 Y=-4.073351156830D+03 DE=-4.07D-03 F=  2.64D-03
     An  expanding polynomial of degree  4 produced  1.3780
 RMSU=  9.65D-07    CP:  1.00D+00  4.20D-01
 Iteration  24 EE= -4073.35184715507     Delta-E=       -0.004756566570 Grad=3.342D-02 Max rot=    0.1343 deg.
 Gradient too large for Newton-Raphson -- use scaled steepest descent instead.
 Alpha Gap=     0.290 HL deriv= 1.25D-03
     ILin= 1 X=0.000D+00 Y=-4.073351847155D+03 DE= 0.00D+00 F= -3.35D-03
 RMSU=  3.18D-05    CP:  1.00D+00  4.04D-01  1.04D+00
     ILin= 2 X=7.000D-01 Y=-4.073351836739D+03 DE= 1.04D-05 F=  3.38D-03 OKLS=T
     Reject lnstep IMin12=  1  2 Big=F Turn=F Min= 3.492D-01 FVal=-4.073352683545D+03 Lims=  0.00D+00  7.00D-01
 RMSU=  6.38D-08    CP:  1.00D+00  4.13D-01  1.04D+00  4.29D-01
     ILin= 3 X=3.000D-01 Y=-4.073352419746D+03 DE=-5.73D-04 F= -4.67D-04
     A contracting polynomial of degree  3 produced  0.3485
 RMSU=  1.94D-11    CP:  1.00D+00  4.12D-01  1.04D+00  4.98D-01  1.02D+00
 Iteration  25 EE= -4073.35243108184     Delta-E=       -0.000583926769 Grad=6.467D-03 Max rot=    0.0464 deg.
 SCF Done:  E(RPBE1PBE) =  -4073.35243108     a.u. after   25 cycles
            Convg  =    0.6467D-02                    66 Fock formations.
              S**2 =  0.0000                  -V/T =  2.0509
 Leave Link  508 at Fri Feb 26 12:02:51 2021, MaxMem=  7864320000 cpu:          188987.2 elap:            6027.3
 (Enter /apps/gaussian/g16-c01-avx/g16/l502.exe)
 Integral symmetry usage will be decided dynamically.
 Closed shell SCF:
 Using DIIS extrapolation, IDIIS=  1040.
 NGot=  7864320000 LenX=  7857818442 LenY=  7854605386
 Requested convergence on RMS density matrix=1.00D-08 within 128 cycles.
 Requested convergence on MAX density matrix=1.00D-06.
 Requested convergence on             energy=1.00D-06.
 No special actions if energy rises.
 Fock matrices will be formed incrementally for  20 cycles.

 Cycle   1  Pass 1  IDiag  1:
 FoFJK:  IHMeth= 1 ICntrl=       0 DoSepK=F KAlg= 0 I1Cent=           0 FoldK=F
 IRaf= 610000000 NMat=       1 IRICut=       1 DoRegI=T DoRafI=F ISym2E= 0 IDoP0=0 IntGTp=1.
 FoFCou: FMM=T IPFlag=           0 FMFlag=      100000 FMFlg1=        2001
         NFxFlg=           0 DoJE=F BraDBF=F KetDBF=F FulRan=T
         wScrn=  0.000000 ICntrl=         0 IOpCl=  0 I1Cent=           0 NGrid=           0
         NMat0=    1 NMatS0=      1 NMatT0=    0 NMatD0=    1 NMtDS0=    0 NMtDT0=    0
 Symmetry not used in FoFCou.
 FMM levels:  10  Number of levels for PrismC:   9
 E= -4073.35243108178    
 DIIS: error= 1.95D-04 at cycle   1 NSaved=   1.
 NSaved= 1 IEnMin= 1 EnMin= -4073.35243108178     IErMin= 1 ErrMin= 1.95D-04
 ErrMax= 1.95D-04  0.00D+00 EMaxC= 1.00D-01 BMatC= 2.09D-05 BMatP= 2.09D-05
 IDIUse=3 WtCom= 9.98D-01 WtEn= 1.95D-03
 Coeff-Com:  0.100D+01
 Coeff-En:   0.100D+01
 Coeff:      0.100D+01
 Gap=     0.294 Goal=   None    Shift=    0.000
 RMSDP=1.59D-05 MaxDP=3.24D-03              OVMax= 8.03D-03

 Cycle   2  Pass 1  IDiag  1:
 RMSU=  1.59D-05    CP:  1.00D+00
 E= -4073.35255595036     Delta-E=       -0.000124868584 Rises=F Damp=F
 DIIS: error= 7.11D-05 at cycle   2 NSaved=   2.
 NSaved= 2 IEnMin= 2 EnMin= -4073.35255595036     IErMin= 2 ErrMin= 7.11D-05
 ErrMax= 7.11D-05  0.00D+00 EMaxC= 1.00D-01 BMatC= 1.72D-05 BMatP= 2.09D-05
 IDIUse=1 WtCom= 1.00D+00 WtEn= 0.00D+00
 Coeff-Com:  0.460D+00 0.540D+00
 Coeff:      0.460D+00 0.540D+00
 Gap=     0.145 Goal=   None    Shift=    0.000
 RMSDP=4.22D-06 MaxDP=6.87D-04 DE=-1.25D-04 OVMax= 8.83D-04

 Cycle   3  Pass 1  IDiag  1:
 RMSU=  4.20D-06    CP:  1.00D+00  1.02D+00
 E= -4073.35256746984     Delta-E=       -0.000011519478 Rises=F Damp=F
 DIIS: error= 5.02D-05 at cycle   3 NSaved=   3.
 NSaved= 3 IEnMin= 3 EnMin= -4073.35256746984     IErMin= 3 ErrMin= 5.02D-05
 ErrMax= 5.02D-05  0.00D+00 EMaxC= 1.00D-01 BMatC= 7.97D-06 BMatP= 1.72D-05
 IDIUse=1 WtCom= 1.00D+00 WtEn= 0.00D+00
 Coeff-Com: -0.994D-01 0.417D+00 0.683D+00
 Coeff:     -0.994D-01 0.417D+00 0.683D+00
 Gap=     0.145 Goal=   None    Shift=    0.000
 RMSDP=2.56D-06 MaxDP=7.49D-04 DE=-1.15D-05 OVMax= 9.73D-04

 Cycle   4  Pass 1  IDiag  1:
 RMSU=  1.47D-06    CP:  1.00D+00  1.13D+00  7.39D-01
 E= -4073.35257689046     Delta-E=       -0.000009420619 Rises=F Damp=F
 DIIS: error= 1.12D-05 at cycle   4 NSaved=   4.
 NSaved= 4 IEnMin= 4 EnMin= -4073.35257689046     IErMin= 4 ErrMin= 1.12D-05
 ErrMax= 1.12D-05  0.00D+00 EMaxC= 1.00D-01 BMatC= 2.75D-07 BMatP= 7.97D-06
 IDIUse=1 WtCom= 1.00D+00 WtEn= 0.00D+00
 Coeff-Com: -0.535D-01 0.152D+00 0.294D+00 0.608D+00
 Coeff:     -0.535D-01 0.152D+00 0.294D+00 0.608D+00
 Gap=     0.145 Goal=   None    Shift=    0.000
 RMSDP=5.80D-07 MaxDP=1.11D-04 DE=-9.42D-06 OVMax= 2.00D-04

 Cycle   5  Pass 1  IDiag  1:
 RMSU=  5.35D-07    CP:  1.00D+00  1.14D+00  7.80D-01  1.02D+00
 E= -4073.35257713120     Delta-E=       -0.000000240743 Rises=F Damp=F
 DIIS: error= 7.10D-06 at cycle   5 NSaved=   5.
 NSaved= 5 IEnMin= 5 EnMin= -4073.35257713120     IErMin= 5 ErrMin= 7.10D-06
 ErrMax= 7.10D-06  0.00D+00 EMaxC= 1.00D-01 BMatC= 1.36D-07 BMatP= 2.75D-07
 IDIUse=1 WtCom= 1.00D+00 WtEn= 0.00D+00
 Coeff-Com: -0.382D-02-0.305D-01-0.157D-01 0.426D+00 0.624D+00
 Coeff:     -0.382D-02-0.305D-01-0.157D-01 0.426D+00 0.624D+00
 Gap=     0.145 Goal=   None    Shift=    0.000
 RMSDP=3.32D-07 MaxDP=1.18D-04 DE=-2.41D-07 OVMax= 1.39D-04

 Cycle   6  Pass 1  IDiag  1:
 RMSU=  2.01D-07    CP:  1.00D+00  1.15D+00  7.95D-01  1.16D+00  7.86D-01
 E= -4073.35257727366     Delta-E=       -0.000000142460 Rises=F Damp=F
 DIIS: error= 1.76D-06 at cycle   6 NSaved=   6.
 NSaved= 6 IEnMin= 6 EnMin= -4073.35257727366     IErMin= 6 ErrMin= 1.76D-06
 ErrMax= 1.76D-06  0.00D+00 EMaxC= 1.00D-01 BMatC= 1.33D-08 BMatP= 1.36D-07
 IDIUse=1 WtCom= 1.00D+00 WtEn= 0.00D+00
 Coeff-Com:  0.460D-02-0.413D-01-0.528D-01 0.169D+00 0.357D+00 0.563D+00
 Coeff:      0.460D-02-0.413D-01-0.528D-01 0.169D+00 0.357D+00 0.563D+00
 Gap=     0.145 Goal=   None    Shift=    0.000
 RMSDP=1.16D-07 MaxDP=3.08D-05 DE=-1.42D-07 OVMax= 5.03D-05

 Cycle   7  Pass 1  IDiag  1:
 RMSU=  7.27D-08    CP:  1.00D+00  1.15D+00  7.99D-01  1.21D+00  8.35D-01
                    CP:  7.58D-01
 E= -4073.35257728876     Delta-E=       -0.000000015094 Rises=F Damp=F
 DIIS: error= 5.49D-07 at cycle   7 NSaved=   7.
 NSaved= 7 IEnMin= 7 EnMin= -4073.35257728876     IErMin= 7 ErrMin= 5.49D-07
 ErrMax= 5.49D-07  0.00D+00 EMaxC= 1.00D-01 BMatC= 1.02D-09 BMatP= 1.33D-08
 IDIUse=1 WtCom= 1.00D+00 WtEn= 0.00D+00
 Coeff-Com:  0.310D-02-0.185D-01-0.260D-01 0.504D-01 0.130D+00 0.289D+00
 Coeff-Com:  0.572D+00
 Coeff:      0.310D-02-0.185D-01-0.260D-01 0.504D-01 0.130D+00 0.289D+00
 Coeff:      0.572D+00
 Gap=     0.145 Goal=   None    Shift=    0.000
 RMSDP=3.23D-08 MaxDP=6.27D-06 DE=-1.51D-08 OVMax= 1.24D-05

 Cycle   8  Pass 1  IDiag  1:
 RMSU=  2.73D-08    CP:  1.00D+00  1.15D+00  8.00D-01  1.22D+00  8.48D-01
                    CP:  8.04D-01  9.24D-01
 E= -4073.35257728955     Delta-E=       -0.000000000793 Rises=F Damp=F
 DIIS: error= 2.56D-07 at cycle   8 NSaved=   8.
 NSaved= 8 IEnMin= 8 EnMin= -4073.35257728955     IErMin= 8 ErrMin= 2.56D-07
 ErrMax= 2.56D-07  0.00D+00 EMaxC= 1.00D-01 BMatC= 1.66D-10 BMatP= 1.02D-09
 IDIUse=1 WtCom= 1.00D+00 WtEn= 0.00D+00
 Coeff-Com:  0.925D-03-0.323D-02-0.575D-02-0.633D-02 0.492D-02 0.567D-01
 Coeff-Com:  0.298D+00 0.654D+00
 Coeff:      0.925D-03-0.323D-02-0.575D-02-0.633D-02 0.492D-02 0.567D-01
 Coeff:      0.298D+00 0.654D+00
 Gap=     0.145 Goal=   None    Shift=    0.000
 RMSDP=1.57D-08 MaxDP=5.79D-06 DE=-7.93D-10 OVMax= 7.47D-06

 Cycle   9  Pass 1  IDiag  1:
 RMSU=  9.67D-09    CP:  1.00D+00  1.15D+00  8.00D-01  1.22D+00  8.54D-01
                    CP:  8.29D-01  1.03D+00  8.80D-01
 E= -4073.35257729012     Delta-E=       -0.000000000571 Rises=F Damp=F
 DIIS: error= 1.31D-07 at cycle   9 NSaved=   9.
 NSaved= 9 IEnMin= 9 EnMin= -4073.35257729012     IErMin= 9 ErrMin= 1.31D-07
 ErrMax= 1.31D-07  0.00D+00 EMaxC= 1.00D-01 BMatC= 3.19D-11 BMatP= 1.66D-10
 IDIUse=1 WtCom= 1.00D+00 WtEn= 0.00D+00
 Coeff-Com:  0.209D-04 0.964D-03 0.656D-03-0.110D-01-0.159D-01-0.109D-01
 Coeff-Com:  0.546D-01 0.355D+00 0.626D+00
 Coeff:      0.209D-04 0.964D-03 0.656D-03-0.110D-01-0.159D-01-0.109D-01
 Coeff:      0.546D-01 0.355D+00 0.626D+00
 Gap=     0.145 Goal=   None    Shift=    0.000
 RMSDP=5.86D-09 MaxDP=1.45D-06 DE=-5.71D-10 OVMax= 2.72D-06

[...]
 Alpha virt. eigenvalues --    1.82540   1.82830   1.82936   1.83052   1.83479
 Alpha virt. eigenvalues --    1.83609   1.83938   1.84002   1.84326   1.84689
 Alpha virt. eigenvalues --    1.84997   1.85109   1.85470   1.85882   1.86189
 Alpha virt. eigenvalues --    1.86437   1.86842   1.86929   1.87068   1.87311
 Alpha virt. eigenvalues --    1.87717   1.87926   1.88063   1.88253   1.88427
 Alpha virt. eigenvalues --    1.88820   1.89087   1.89353   1.89734   1.90181
 Alpha virt. eigenvalues --    1.90239   1.91056   1.91475   1.91939   1.92294
 Alpha virt. eigenvalues --    1.92418   1.92571   1.92732   1.92889   1.93013
 Alpha virt. eigenvalues --    1.93250   1.93494   1.93683   1.93771   1.93847
 Alpha virt. eigenvalues --    1.94021   1.94082   1.94454   1.94683   1.94750
 Alpha virt. eigenvalues --    1.94988   1.95201   1.95310   1.95470   1.95902
 Alpha virt. eigenvalues --    1.96012   1.96060   1.96284   1.96587   1.96774
 Alpha virt. eigenvalues --    1.96947   1.97159   1.97217   1.97490   1.97569
 Alpha virt. eigenvalues --    1.97636   1.97801   1.97960   1.98090   1.98199
 Alpha virt. eigenvalues --    1.98292   1.98318   1.98579   1.98769   1.98854
 Alpha virt. eigenvalues --    1.99121   1.99420   1.99576   1.99847   1.99902
 Alpha virt. eigenvalues --    1.99973   2.00283   2.00511   2.00645   2.00713
 Alpha virt. eigenvalues --    2.01118   2.01333   2.01521   2.01866   2.02364
 Alpha virt. eigenvalues --    2.02787   2.02900   2.03065   2.03239   2.03392
 Alpha virt. eigenvalues --    2.03582   2.03923   2.04079   2.04685   2.04862
 Alpha virt. eigenvalues --    2.05091   2.05494   2.05693   2.06329   2.06377
 Alpha virt. eigenvalues --    2.06803   2.07098   2.07228   2.07872   2.07950
 Alpha virt. eigenvalues --    2.08114   2.08152   2.08684   2.09124   2.09702
 Alpha virt. eigenvalues --    2.09989   2.10080   2.10196   2.10376   2.10677
 Alpha virt. eigenvalues --    2.10761   2.11162   2.11611   2.11751   2.11891
 Alpha virt. eigenvalues --    2.12227   2.12483   2.12519   2.12732   2.12804
 Alpha virt. eigenvalues --    2.12848   2.12892   2.13013   2.13167   2.13378
 Alpha virt. eigenvalues --    2.13700   2.13891   2.14011   2.14552   2.14933
 Alpha virt. eigenvalues --    2.15378   2.16106   2.16597   2.16783   2.17125
 Alpha virt. eigenvalues --    2.17398   2.17436   2.17939   2.18300   2.18395
 Alpha virt. eigenvalues --    2.18883   2.19111   2.19496   2.20134   2.20492
 Alpha virt. eigenvalues --    2.20641   2.20989   2.21308   2.21525   2.22032
 Alpha virt. eigenvalues --    2.22372   2.22762   2.23074   2.23334   2.23435
 Alpha virt. eigenvalues --    2.23552   2.23647   2.24409   2.24461   2.24549
 Alpha virt. eigenvalues --    2.24747   2.24876   2.25093   2.25178   2.25429
 Alpha virt. eigenvalues --    2.25563   2.25994   2.26470   2.26743   2.27039
 Alpha virt. eigenvalues --    2.27171   2.27303   2.27460   2.27691   2.27868
 Alpha virt. eigenvalues --    2.28060   2.28272   2.28516   2.28726   2.28996
 Alpha virt. eigenvalues --    2.29069   2.29175   2.29318   2.29564   2.29709
 Alpha virt. eigenvalues --    2.29788   2.29985   2.30059   2.30525   2.30623
 Alpha virt. eigenvalues --    2.30915   2.31116   2.32150   2.32543   2.32634
 Alpha virt. eigenvalues --    2.32875   2.33153   2.33455   2.33498   2.33760
 Alpha virt. eigenvalues --    2.34113   2.34306   2.34602   2.34899   2.35183
 Alpha virt. eigenvalues --    2.35292   2.35503   2.35550   2.35726   2.35754
 Alpha virt. eigenvalues --    2.36157   2.36298   2.36471   2.36569   2.36726
 Alpha virt. eigenvalues --    2.36852   2.37031   2.37190   2.37350   2.37556
 Alpha virt. eigenvalues --    2.37804   2.38162   2.38255   2.38638   2.38870
 Alpha virt. eigenvalues --    2.38994   2.39026   2.39298   2.39440   2.39548
 Alpha virt. eigenvalues --    2.39662   2.39856   2.40368   2.40446   2.41133
 Alpha virt. eigenvalues --    2.41382   2.43059   2.43195   2.43597   2.43812
 Alpha virt. eigenvalues --    2.44125   2.44901   2.45007   2.45551   2.45645
 Alpha virt. eigenvalues --    2.46257   2.47029   2.47458   2.47931   2.48008
 Alpha virt. eigenvalues --    2.48537   2.48780   2.48951   2.49255   2.50376
 Alpha virt. eigenvalues --    2.51176   2.51662   2.52252   2.52803   2.53076
 Alpha virt. eigenvalues --    2.53361   2.54383   2.54944   2.55193   2.55292
 Alpha virt. eigenvalues --    2.55838   2.56005   2.56039   2.56639   2.56853
 Alpha virt. eigenvalues --    2.57395   2.57549   2.58229   2.58564   2.59295
 Alpha virt. eigenvalues --    2.59510   2.59800   2.59982   2.60178   2.60507
 Alpha virt. eigenvalues --    2.60633   2.60916   2.61157   2.61256   2.61674
 Alpha virt. eigenvalues --    2.61752   2.63722   2.64057   2.64198   2.64450
 Alpha virt. eigenvalues --    2.64504   2.64621   2.64670   2.64737   2.64966
 Alpha virt. eigenvalues --    2.65102   2.65276   2.65409   2.65537   2.65745
 Alpha virt. eigenvalues --    2.65953   2.66415   2.66713   2.66914   2.67063
 Alpha virt. eigenvalues --    2.67600   2.68188   2.68258   2.68481   2.68649
 Alpha virt. eigenvalues --    2.69284   2.70158   2.71044   2.71687   2.71881
 Alpha virt. eigenvalues --    2.72091   2.72682   2.72847   2.73287   2.73544
 Alpha virt. eigenvalues --    2.73726   2.73819   2.74168   2.74468   2.74953
 Alpha virt. eigenvalues --    2.75216   2.75303   2.75787   2.75960   2.76093
 Alpha virt. eigenvalues --    2.76228   2.76256   2.76443   2.76549   2.76566
 Alpha virt. eigenvalues --    2.76908   2.77008   2.77104   2.77142   2.77258
 Alpha virt. eigenvalues --    2.77371   2.77504   2.77597   2.77723   2.77863
 Alpha virt. eigenvalues --    2.78267   2.78621   2.79036   2.81007   2.81741
 Alpha virt. eigenvalues --    2.81917   2.82278   2.82615   2.82937   2.83220
 Alpha virt. eigenvalues --    2.83252   2.85300   2.85855   2.87253   2.88271
 Alpha virt. eigenvalues --    2.88345   2.88565   2.88696   2.88974   2.89146
 Alpha virt. eigenvalues --    2.90035   2.90474   2.90565   2.90648   2.90788
 Alpha virt. eigenvalues --    2.91331   2.92445   2.92571   2.93759   2.95043
 Alpha virt. eigenvalues --    2.95999   2.96405   2.96496   2.96640   2.96909
 Alpha virt. eigenvalues --    2.97371   2.98054   2.98077   2.98270   2.98574
 Alpha virt. eigenvalues --    2.98726   2.99519   2.99811   2.99967   3.00106
 Alpha virt. eigenvalues --    3.00825   3.01682   3.02257   3.02446   3.03090
 Alpha virt. eigenvalues --    3.04244   3.05226   3.05975   3.06071   3.07563
 Alpha virt. eigenvalues --    3.07635   3.07940   3.08833   3.09358   3.10251
 Alpha virt. eigenvalues --    3.11007   3.11031   3.11821   3.12217   3.12667
 Alpha virt. eigenvalues --    3.12788   3.13713   3.13804   3.14299   3.14352
 Alpha virt. eigenvalues --    3.14578   3.14866   3.15235   3.16198   3.16834
 Alpha virt. eigenvalues --    3.16931   3.17307   3.19346   3.19552   3.19770
 Alpha virt. eigenvalues --    3.21182   3.25079   3.25646   3.26053   3.28574
 Alpha virt. eigenvalues --    3.31555   3.31830   3.32052   3.33933   3.38117
 Alpha virt. eigenvalues --    3.38424   3.38946   3.39346   3.48048   3.48176
 Alpha virt. eigenvalues --    3.48388   3.48478   3.56225   3.56426   3.56485
 Alpha virt. eigenvalues --    3.56775   3.61955   3.62275   3.62371   3.62954
 Alpha virt. eigenvalues --    3.67293   3.67435   3.67598   3.67902   3.80123
 Alpha virt. eigenvalues --    3.80248   3.80376   3.80500  51.70723  51.70924
          Condensed to atoms (all electrons):
 Mulliken charges:
               1
     1  Pd   0.507239
     2  Pd   0.496999
     3  C    0.006479
     4  C   -0.056327
     5  C   -0.011909
     6  C    0.007466
     7  C    0.014221
     8  C    0.007558
     9  C    0.031487
    10  C   -0.015722
    11  C    0.146443
    12  N   -0.314667
    13  C    0.181694
    14  C   -0.014546
    15  H    0.042196
    16  H    0.056157
    17  H    0.041733
    18  H    0.053906
    19  H    0.107380
    20  H    0.080642
    21  C   -0.078078
    22  C    0.017075
    23  C   -0.018179
    24  C    0.020908
    25  C   -0.019348
    26  C    0.013945
    27  H    0.037252
    28  H    0.040290
    29  H    0.036188
    30  H    0.033867
    31  C   -0.036096
    32  C    0.069726
    33  C   -0.034326
    34  C    0.152011
    35  N   -0.309979
    36  C    0.153589
    37  H    0.063385
    38  H    0.068077
    39  H    0.100224
    40  H    0.096132
    41  C    0.020634
    42  C   -0.065952
    43  C   -0.018351
    44  C    0.009051
    45  C    0.014399
    46  C    0.008457
    47  C    0.027949
    48  C   -0.011653
    49  C    0.134951
    50  N   -0.323714
    51  C    0.180986
    52  C   -0.008290
    53  H    0.042303
    54  H    0.056283
    55  H    0.042052
    56  H    0.053925
    57  H    0.105000
    58  H    0.078770
    59  C   -0.081899
    60  C    0.019622
    61  C   -0.017172
    62  C    0.008754
    63  C   -0.021942
    64  C    0.018383
    65  H    0.037473
    66  H    0.040428
    67  H    0.040334
    68  H    0.032813
    69  C   -0.023222
    70  C    0.072128
    71  C   -0.036999
    72  C    0.156226
    73  N   -0.316344
    74  C    0.130972
    75  H    0.062782
    76  H    0.068938
    77  H    0.102170
    78  H    0.100263
    79  C    0.012560
    80  C   -0.063832
    81  C   -0.014180
    82  C    0.005867
    83  C    0.015350
    84  C    0.007987
    85  C    0.028761
    86  C   -0.017006
    87  C    0.144571
    88  N   -0.317198
    89  C    0.179258
    90  C   -0.003841
    91  H    0.042222
    92  H    0.056143
    93  H    0.041861
    94  H    0.053675
    95  H    0.085396
    96  H    0.089662
    97  C   -0.074474
    98  C    0.016266
    99  C   -0.027469
   100  C    0.021805
   101  C   -0.013466
   102  C    0.015658
   103  H    0.031699
   104  H    0.042761
   105  H    0.039734
   106  H    0.037631
   107  C   -0.029782
   108  C    0.071315
   109  C   -0.030810
   110  C    0.152032
   111  N   -0.314580
   112  C    0.140794
   113  H    0.063138
   114  H    0.068313
   115  H    0.113829
   116  H    0.077125
   117  C    0.012304
   118  C   -0.065351
   119  C   -0.012412
   120  C    0.005340
   121  C    0.015608
   122  C    0.007385
   123  C    0.028283
   124  C   -0.011078
   125  C    0.129557
   126  N   -0.321742
   127  C    0.183291
   128  C   -0.010903
   129  H    0.042325
   130  H    0.056045
   131  H    0.041969
   132  H    0.053776
   133  H    0.106921
   134  H    0.077254
   135  C   -0.072003
   136  C    0.013943
   137  C   -0.022132
   138  C    0.019544
   139  C   -0.009984
   140  C    0.015108
   141  H    0.032465
   142  H    0.030928
   143  H    0.039266
   144  H    0.038037
   145  C   -0.033055
   146  C    0.080865
   147  C   -0.039945
   148  C    0.157237
   149  N   -0.313081
   150  C    0.127671
   151  H    0.062261
   152  H    0.069357
   153  H    0.100240
   154  H    0.100329
 Sum of Mulliken charges =   4.00000
 Mulliken charges with hydrogens summed into heavy atoms:
               1
     1  Pd   0.507239
     2  Pd   0.496999
     3  C    0.006479
     4  C   -0.056327
     5  C   -0.011909
     6  C    0.049662
     7  C    0.070378
     8  C    0.049291
     9  C    0.031487
    10  C    0.038183
    11  C    0.253823
    12  N   -0.314667
    13  C    0.262337
    14  C   -0.014546
    21  C   -0.078078
    22  C    0.054327
    23  C    0.022111
    24  C    0.020908
    25  C    0.016840
    26  C    0.047812
    31  C   -0.036096
    32  C    0.133111
    33  C    0.033751
    34  C    0.252235
    35  N   -0.309979
    36  C    0.249721
    41  C    0.020634
    42  C   -0.065952
    43  C   -0.018351
    44  C    0.051353
    45  C    0.070682
    46  C    0.050509
    47  C    0.027949
    48  C    0.042273
    49  C    0.239951
    50  N   -0.323714
    51  C    0.259756
    52  C   -0.008290
    59  C   -0.081899
    60  C    0.057094
    61  C    0.023257
    62  C    0.008754
    63  C    0.018392
    64  C    0.051197
    69  C   -0.023222
    70  C    0.134910
    71  C    0.031938
    72  C    0.258396
    73  N   -0.316344
    74  C    0.231235
    79  C    0.012560
    80  C   -0.063832
    81  C   -0.014180
    82  C    0.048090
    83  C    0.071493
    84  C    0.049847
    85  C    0.028761
    86  C    0.036669
    87  C    0.229967
    88  N   -0.317198
    89  C    0.268920
    90  C   -0.003841
    97  C   -0.074474
    98  C    0.047964
    99  C    0.015292
   100  C    0.021805
   101  C    0.026268
   102  C    0.053289
   107  C   -0.029782
   108  C    0.134453
   109  C    0.037503
   110  C    0.265861
   111  N   -0.314580
   112  C    0.217919
   117  C    0.012304
   118  C   -0.065351
   119  C   -0.012412
   120  C    0.047665
   121  C    0.071653
   122  C    0.049354
   123  C    0.028283
   124  C    0.042698
   125  C    0.236478
   126  N   -0.321742
   127  C    0.260546
   128  C   -0.010903
   135  C   -0.072003
   136  C    0.046407
   137  C    0.008796
   138  C    0.019544
   139  C    0.029282
   140  C    0.053146
   145  C   -0.033055
   146  C    0.143127
   147  C    0.029412
   148  C    0.257477
   149  N   -0.313081
   150  C    0.228000
 Electronic spatial extent (au):  <R**2>=         103674.9619
 Charge=              4.0000 electrons
 Dipole moment (field-independent basis, Debye):
    X=              5.3231    Y=             -0.5810    Z=             -1.0011  Tot=              5.4475
 Quadrupole moment (field-independent basis, Debye-Ang):
   XX=            172.0465   YY=           -371.4855   ZZ=           -377.3036
   XY=            -30.8175   XZ=            -67.0156   YZ=              9.3471
 Traceless Quadrupole moment (field-independent basis, Debye-Ang):
   XX=            364.2940   YY=           -179.2380   ZZ=           -185.0561
   XY=            -30.8175   XZ=            -67.0156   YZ=              9.3471
 Octapole moment (field-independent basis, Debye-Ang**2):
  XXX=            520.2632  YYY=             31.4299  ZZZ=              4.3639  XYY=           -179.0423
  XXY=             34.3187  XXZ=             14.3978  XZZ=             87.6786  YZZ=              8.8288
  YYZ=            -70.3066  XYZ=            137.7951
 Hexadecapole moment (field-independent basis, Debye-Ang**3):
 XXXX=         -42882.2556 YYYY=         -25625.5673 ZZZZ=         -23269.8925 XXXY=           -215.7272
 XXXZ=           -848.1310 YYYX=          -2110.1838 YYYZ=          -2036.1100 ZZZX=           -919.3965
 ZZZY=           1900.8785 XXYY=         -12868.7483 XXZZ=         -11989.1583 YYZZ=          -8482.6751
 XXYZ=            744.9020 YYXZ=          -1024.8738 ZZXY=           1160.5044
 N-N= 1.818646757366D+04 E-N=-4.555798829976D+04  KE= 3.876094393842D+03
 Leave Link  601 at Fri Feb 26 12:16:41 2021, MaxMem=  7864320000 cpu:              64.7 elap:               2.5
 (Enter /apps/gaussian/g16-c01-avx/g16/l9999.exe)
 Unable to Open any file for archive entry.
 1\1\GINC-CX3-2-15\SP\RPBE1PBE\def2SVP\C88H56N8Pd2(4+)\ATARZIA\26-Feb-2
 021\0\\#P PBE1PBE/Def2SVP SP SCF=(YQC,MaxCycle=900) int=(Grid=Superfin
 egrid) EmpiricalDispersion=GD3BJ SCRF=(PCM,Solvent=DiMethylSulfoxide)\
 \_s_4b1_b\\4,1\Pd,0,-0.919,7.0949,0.5696\Pd,0,-0.2152,-4.2489,-0.2822\
 C,0,4.204,-0.2927,-1.0601\C,0,4.482,-1.4593,-1.2189\C,0,4.8494,-2.807,
 -1.4082\C,0,6.1567,-3.1356,-1.7133\C,0,6.5379,-4.4685,-1.9064\C,0,5.62
 81,-5.4897,-1.7916\C,0,4.2873,-5.2044,-1.474\C,0,3.3021,-6.2076,-1.326
 3\C,0,2.0208,-5.8627,-1.0037\N,0,1.6533,-4.5703,-0.8234\C,0,2.5404,-3.
 6053,-0.9583\C,0,3.8837,-3.851,-1.2818\H,0,6.8931,-2.3523,-1.8082\H,0,
 7.5666,-4.688,-2.1479\H,0,5.928,-6.5153,-1.9393\H,0,3.5757,-7.2413,-1.
 4663\H,0,1.2348,-6.6065,-0.8753\H,0,2.197,-2.5837,-0.8078\C,0,3.8465,1
 .0572,-0.8542\C,0,4.636,1.8801,-0.0456\C,0,4.2718,3.1935,0.1697\C,0,3.
 1099,3.7126,-0.4051\C,0,2.3306,2.8904,-1.2213\C,0,2.6943,1.5797,-1.448
 9\H,0,5.5295,1.4823,0.4104\H,0,4.8798,3.8131,0.8107\H,0,1.4581,3.2925,
 -1.7101\H,0,2.1046,0.9583,-2.1034\C,0,2.7197,5.1094,-0.1657\C,0,3.6663
 ,6.1391,-0.1556\C,0,3.2567,7.443,0.0626\C,0,1.9112,7.7007,0.2666\N,0,1
 .0073,6.7203,0.263\C,0,1.3878,5.4574,0.056\H,0,4.7068,5.9185,-0.3366\H
 ,0,3.9692,8.2518,0.0693\H,0,1.5451,8.7088,0.4385\H,0,0.5973,4.7062,0.0
 868\C,0,-0.2158,2.6997,5.0193\C,0,-0.3222,3.8765,5.2772\C,0,-0.3778,5.
 2174,5.7064\C,0,-0.3257,5.4892,7.0618\C,0,-0.3123,6.8051,7.5352\C,0,-0
 .3392,7.8655,6.6645\C,0,-0.4063,7.6348,5.2788\C,0,-0.4304,8.685,4.3337
 \C,0,-0.524,8.3984,3.0044\N,0,-0.6174,7.123,2.5434\C,0,-0.5696,6.1156,
 3.3913\C,0,-0.4465,6.3,4.7799\H,0,-0.2815,4.6705,7.7636\H,0,-0.2684,6.
 9796,8.5993\H,0,-0.3104,8.8805,7.0283\H,0,-0.3751,9.7062,4.6754\H,0,-0
 .5288,9.1892,2.2527\H,0,-0.6351,5.1157,2.9739\C,0,-0.0755,1.3379,4.679
 \C,0,-0.8852,0.3704,5.28\C,0,-0.7524,-0.9574,4.928\C,0,0.1858,-1.3461,
 3.9699\C,0,1.0157,-0.3796,3.3966\C,0,0.8894,0.9482,3.7454\H,0,-1.6211,
 0.6673,6.0109\H,0,-1.4021,-1.6936,5.3752\H,0,1.7833,-0.6749,2.6991\H,0
 ,1.5372,1.6908,3.3083\C,0,0.2341,-2.7424,3.5132\C,0,0.0954,-3.837,4.37
 36\C,0,0.0651,-5.1169,3.8467\C,0,0.1256,-5.2885,2.4714\N,0,0.2577,-4.2
 47,1.6515\C,0,0.3412,-3.0111,2.1521\H,0,0.0254,-3.6823,5.4391\H,0,-0.0
 256,-5.9754,4.4921\H,0,0.0695,-6.2678,2.0089\H,0,0.4824,-2.2021,1.4308
 \C,0,-5.2635,2.9727,1.5816\C,0,-5.5319,4.152,1.5978\C,0,-5.9568,5.4943
 ,1.639\C,0,-7.2848,5.7711,1.9089\C,0,-7.7527,7.0882,1.9637\C,0,-6.9051
 ,8.1453,1.7478\C,0,-5.5472,7.9109,1.4636\C,0,-4.6282,8.9567,1.2269\C,0
 ,-3.3236,8.6657,0.9541\N,0,-2.8653,7.392,0.8958\C,0,-3.6929,6.3858,1.1
 098\C,0,-5.0535,6.5746,1.4042\H,0,-7.9696,4.9556,2.0848\H,0,-8.795,7.2
 661,2.1797\H,0,-7.2657,9.161,1.7908\H,0,-4.9674,9.9795,1.2643\H,0,-2.5
 973,9.4514,0.7675\H,0,-3.2769,5.3816,1.0468\C,0,-4.9315,1.6041,1.5082\
 C,0,-3.7064,1.1388,1.9946\C,0,-3.3672,-0.1897,1.852\C,0,-4.2425,-1.083
 9,1.23\C,0,-5.4859,-0.6261,0.7912\C,0,-5.8278,0.7038,0.9238\H,0,-3.030
 7,1.8225,2.4822\H,0,-2.4278,-0.5429,2.2498\H,0,-6.1717,-1.3065,0.3107\
 H,0,-6.7813,1.0578,0.5638\C,0,-3.8347,-2.4746,0.9899\C,0,-4.6956,-3.56
 52,1.145\C,0,-4.2331,-4.8419,0.8713\C,0,-2.9264,-5.0147,0.4444\N,0,-2.
 1063,-3.9729,0.2914\C,0,-2.54,-2.7403,0.5545\H,0,-5.7061,-3.4123,1.490
 7\H,0,-4.8783,-5.6975,0.9892\H,0,-2.5139,-5.9937,0.2149\H,0,-1.8302,-1
 .9312,0.3957\C,0,-2.0626,3.3128,-4.3733\C,0,-2.043,4.5196,-4.4563\C,0,
 -1.9939,5.9044,-4.7053\C,0,-2.2035,6.3579,-5.9963\C,0,-2.1191,7.7176,-
 6.3093\C,0,-1.805,8.6417,-5.3443\C,0,-1.5827,8.2255,-4.0196\C,0,-1.234
 2,9.1284,-2.9899\C,0,-1.0369,8.6674,-1.7226\N,0,-1.1868,7.3561,-1.3957
 \C,0,-1.4982,6.4821,-2.3314\C,0,-1.6944,6.8465,-3.6756\H,0,-2.4336,5.6
 46,-6.7742\H,0,-2.2936,8.0346,-7.326\H,0,-1.7224,9.6891,-5.5879\H,0,-1
 .1231,10.176,-3.22\H,0,-0.7445,9.3412,-0.9147\H,0,-1.6068,5.4472,-2.02
 39\C,0,-2.0206,1.9124,-4.2186\C,0,-2.3093,1.3316,-2.9802\C,0,-2.188,-0
 .0306,-2.8146\C,0,-1.7854,-0.8452,-3.8765\C,0,-1.5487,-0.2693,-5.1245\
 C,0,-1.6599,1.0961,-5.2953\H,0,-2.6249,1.9565,-2.1607\H,0,-2.4328,-0.4
 751,-1.8623\H,0,-1.2428,-0.8879,-5.954\H,0,-1.4544,1.5406,-6.2569\C,0,
 -1.5938,-2.2839,-3.6454\C,0,-2.0467,-3.2747,-4.5221\C,0,-1.8657,-4.607
 2,-4.1914\C,0,-1.2571,-4.9355,-2.9885\N,0,-0.8058,-3.9923,-2.1637\C,0,
 -0.9484,-2.7038,-2.4859\H,0,-2.5507,-2.9998,-5.4357\H,0,-2.2091,-5.388
 6,-4.85\H,0,-1.1205,-5.9647,-2.6752\H,0,-0.5099,-1.9763,-1.7985\\Versi
 on=ES64L-G16RevC.01\State=1-A\HF=-4073.3525773\RMSD=2.141e-09\Dipole=0
 .0599035,-2.139103,-0.1180645\Quadrupole=-136.7771974,270.6469665,-133
 .8697691,-42.2568013,-9.4697122,35.5369663\PG=C01 [X(C88H56N8Pd2)]\\@
 The archive entry for this job was punched.


 ONLY A FOOL KNOWS EVERYTHING.

               -- THE CHEMIST ANALYST, SEPTEMBER 1946
 Job cpu time:       2 days 12 hours 11 minutes 13.1 seconds.
 Elapsed time:       0 days  1 hours 55 minutes  5.4 seconds.
 File lengths (MBytes):  RWF=   3669 Int=      0 D2E=      0 Chk=    169 Scr=      2
 Normal termination of Gaussian 16 at Fri Feb 26 12:16:42 2021.
