 Entering Gaussian System
 *********************************************
 Gaussian 98:
 frequency output generated by the xtb code
 *********************************************
                         Standard orientation:
 --------------------------------------------------------------------
  Center     Atomic     Atomic              Coordinates (Angstroms)
  Number     Number      Type              X           Y           Z
 --------------------------------------------------------------------
    1         46             0        0.179736    6.477200    0.493888
    2         46             0        0.865371   -5.870104    0.485407
    3          6             0        4.988593   -1.591525    0.497585
    4          6             0        4.902193   -2.254323    1.506187
    5          6             0        4.934493   -3.103521    2.631688
    6          6             0        5.809098   -2.862624    3.673685
    7          6             0        5.961897   -3.788523    4.712486
    8          6             0        5.277290   -4.978619    4.709190
    9          6             0        4.360885   -5.256816    3.678994
   10          6             0        3.637479   -6.467313    3.587599
   11          6             0        2.731074   -6.646110    2.582502
   12          7             0        2.452976   -5.672710    1.679401
   13          6             0        3.142182   -4.547713    1.705397
   14          6             0        4.144487   -4.292117    2.653593
   15          1             0        6.401403   -1.960527    3.671681
   16          1             0        6.655601   -3.569925    5.510083
   17          1             0        5.434289   -5.709519    5.486791
   18          1             0        3.809477   -7.244412    4.314999
   19          1             0        2.187669   -7.578407    2.467706
   20          1             0        2.904983   -3.792214    0.959096
   21          6             0        5.189293   -0.889928   -0.712217
   22          6             0        5.950786   -1.530534   -1.707418
   23          6             0        6.255985   -0.899438   -2.892220
   24          6             0        5.778491    0.389964   -3.080821
   25          7             0        5.938692    1.229562   -4.153623
   26          6             0        5.298499    2.408465   -3.902223
   27          6             0        5.181002    3.546465   -4.688524
   28          6             0        4.466710    4.610369   -4.185724
   29          6             0        3.876514    4.578875   -2.908822
   30          6             0        3.987911    3.427875   -2.129620
   31          6             0        4.684003    2.340771   -2.627120
   32          6             0        4.992098    1.037970   -2.098319
   33          6             0        4.697599    0.396874   -0.904417
   34          1             0        6.316181   -2.528636   -1.521518
   35          1             0        6.856380   -1.389242   -3.642122
   36          1             0        6.537888    1.049257   -4.941925
   37          1             0        5.638399    3.602461   -5.664126
   38          1             0        4.343612    5.482669   -4.807125
   39          1             0        3.581114    3.381179   -1.133318
   40          1             0        4.115104    0.882278   -0.138516
   41          6             0        3.162822    5.757279   -2.411321
   42          6             0        3.466627    7.053477   -2.851624
   43          6             0        2.743534    8.135281   -2.382624
   44          6             0        1.742436    7.924888   -1.449020
   45          7             0        1.475832    6.698591   -0.994117
   46          6             0        2.144424    5.646086   -1.461517
   47          1             0        4.275525    7.215871   -3.545528
   48          1             0        2.960738    9.133280   -2.727526
   49          1             0        1.139742    8.738392   -1.050519
   50          1             0        1.844821    4.680588   -1.059615
   51          6             0        0.937531    2.684903    4.774392
   52          6             0        1.942433    3.325398    4.566987
   53          6             0        3.045137    4.185692    4.391682
   54          6             0        4.190739    4.059287    5.152278
   55          6             0        5.215744    5.009682    5.067373
   56          6             0        5.099647    6.111381    4.256072
   57          6             0        3.957445    6.271485    3.450475
   58          6             0        3.743048    7.388385    2.611974
   59          6             0        2.619845    7.456589    1.838378
   60          7             0        1.707340    6.452794    1.797883
   61          6             0        1.859237    5.408195    2.591384
   62          6             0        2.938140    5.277291    3.477481
   63          1             0        4.285237    3.231888    5.838379
   64          1             0        6.097445    4.882678    5.676870
   65          1             0        5.872751    6.862977    4.229868
   66          1             0        4.468252    8.186081    2.593970
   67          1             0        2.412348    8.318989    1.214777
   68          1             0        1.108733    4.621699    2.538088
   69          6             0       -0.254972    1.982610    5.053497
   70          6             0       -1.297066    2.676717    5.695200
   71          6             0       -2.480868    2.051423    6.019205
   72          6             0       -2.623476    0.712624    5.679208
   73          7             0       -3.688380   -0.128670    5.868013
   74          6             0       -3.380488   -1.363973    5.373814
   75          6             0       -4.140495   -2.526169    5.340819
   76          6             0       -3.575202   -3.651373    4.783019
   77          6             0       -2.271804   -3.645581    4.254514
   78          6             0       -1.517998   -2.474685    4.275710
   79          6             0       -2.070490   -1.334181    4.832610
   80          6             0       -1.583782    0.005117    5.026206
   81          6             0       -0.391980    0.640010    4.715400
   82          1             0       -1.151860    3.715416    5.950398
   83          1             0       -3.267864    2.585529    6.527807
   84          1             0       -4.540577    0.107535    6.349216
   85          1             0       -5.141793   -2.551663    5.741322
   86          1             0       -4.163407   -4.553770    4.728922
   87          1             0       -0.504399   -2.456291    3.909706
   88          1             0        0.413315    0.113805    4.229298
   89          6             0       -1.716613   -4.878685    3.692815
   90          6             0       -2.041817   -6.136282    4.216118
   91          6             0       -1.518025   -7.279886    3.640918
   92          6             0       -0.663829   -7.156892    2.558715
   93          7             0       -0.330824   -5.959095    2.070912
   94          6             0       -0.839116   -4.851891    2.607411
   95          1             0       -2.687615   -6.212577    5.076420
   96          1             0       -1.764029   -8.254984    4.029021
   97          1             0       -0.232835   -8.027095    2.068215
   98          1             0       -0.538913   -3.916493    2.140709
   99          6             0       -4.054184    2.433423    0.981210
  100          6             0       -3.901177    3.118724    1.966408
  101          6             0       -3.808168    3.978225    3.080206
  102          6             0       -4.676065    3.852732    4.146910
  103          6             0       -4.660857    4.775333    5.199708
  104          6             0       -3.802451    5.846229    5.194203
  105          6             0       -2.901254    6.016222    4.127700
  106          6             0       -2.018949    7.115918    4.026795
  107          6             0       -1.176252    7.219411    2.957592
  108          7             0       -1.121460    6.267709    1.991893
  109          6             0       -1.934165    5.229314    2.048098
  110          6             0       -2.875563    5.058520    3.073301
  111          1             0       -5.391070    3.044835    4.153214
  112          1             0       -5.355955    4.650039    6.016411
  113          1             0       -3.815945    6.570730    5.993302
  114          1             0       -2.026742    7.874119    4.793493
  115          1             0       -0.505348    8.064808    2.831888
  116          1             0       -1.853972    4.484412    1.258599
  117          6             0       -4.299192    1.722522   -0.214888
  118          6             0       -5.022492    2.387024   -1.222887
  119          6             0       -5.332699    1.762824   -2.410084
  120          6             0       -4.898707    0.456321   -2.590084
  121          7             0       -5.064415   -0.372980   -3.667182
  122          6             0       -4.477120   -1.576482   -3.403382
  123          6             0       -4.400029   -2.716684   -4.192580
  124          6             0       -3.753833   -3.816587   -3.674980
  125          6             0       -3.175228   -3.802088   -2.393482
  126          6             0       -3.239320   -2.651486   -1.610984
  127          6             0       -3.892715   -1.536883   -2.111484
  128          6             0       -4.163007   -0.223281   -1.586985
  129          6             0       -3.864299    0.412420   -0.390587
  130          1             0       -5.349086    3.400726   -1.047687
  131          1             0       -5.903399    2.271225   -3.171083
  132          1             0       -5.583316   -0.150779   -4.500680
  133          1             0       -4.836232   -2.744484   -5.178878
  134          1             0       -3.667640   -4.703388   -4.282979
  135          1             0       -2.832716   -2.634286   -0.613086
  136          1             0       -3.317499   -0.090682    0.390412
  137          6             0       -2.517333   -5.014390   -1.898082
  138          6             0       -3.011741   -6.290088   -2.198579
  139          6             0       -2.351645   -7.413591   -1.734879
  140          6             0       -1.209241   -7.254095   -0.968883
  141          7             0       -0.742434   -6.041097   -0.668387
  142          6             0       -1.366130   -4.950995   -1.113187
  143          1             0       -3.916443   -6.394784   -2.776375
  144          1             0       -2.719851   -8.401589   -1.958576
  145          1             0       -0.651744   -8.104798   -0.585684
  146          1             0       -0.916824   -3.997797   -0.841690
  147          6             0       -0.602400    2.649596   -3.954803
  148          6             0       -1.546995    3.352402   -3.674100
  149          6             0       -2.640390    4.216708   -3.456598
  150          6             0       -3.777193    4.116212   -4.234894
  151          6             0       -4.820688    5.040618   -4.110592
  152          6             0       -4.738679    6.091219   -3.231294
  153          6             0       -3.599576    6.237115   -2.419098
  154          6             0       -3.423367    7.311915   -1.518201
  155          6             0       -2.292564    7.387211   -0.756305
  156          7             0       -1.330269    6.433506   -0.806307
  157          6             0       -1.452177    5.422205   -1.645504
  158          6             0       -2.550181    5.276809   -2.505300
  159          1             0       -3.847400    3.325211   -4.965092
  160          1             0       -5.693891    4.933222   -4.736489
  161          1             0       -5.533275    6.817223   -3.160193
  162          1             0       -4.184763    8.071919   -1.444299
  163          1             0       -2.113457    8.209911   -0.070507
  164          1             0       -0.659981    4.675701   -1.656506
  165          6             0        0.545895    1.965789   -4.417005
  166          6             0        1.340195    2.656084   -5.352309
  167          6             0        2.451290    2.071877   -5.914412
  168          6             0        2.769485    0.779276   -5.523211
  169          7             0        3.808379   -0.013430   -5.934513
  170          6             0        3.732175   -1.218429   -5.299811
  171          6             0        4.563869   -2.324433   -5.403712
  172          6             0        4.256266   -3.435330   -4.653409
  173          6             0        3.133369   -3.475623   -3.806905
  174          6             0        2.316175   -2.352219   -3.687904
  175          6             0        2.615078   -1.218121   -4.426607
  176          6             0        1.993784    0.075682   -4.569607
  177          6             0        0.870490    0.674388   -4.013804
  178          1             0        1.054499    3.655885   -5.640210
  179          1             0        3.047090    2.597972   -6.643215
  180          1             0        4.447178    0.213065   -6.678616
  181          1             0        5.421767   -2.319639   -6.058015
  182          1             0        4.913861   -4.288334   -4.703910
  183          1             0        1.434277   -2.366213   -3.069401
  184          1             0        0.254789    0.152693   -3.299501
  185          6             0        2.847265   -4.717020   -3.080902
  186          6             0        3.196956   -5.967623   -3.610001
  187          6             0        2.963453   -7.120921   -2.883298
  188          6             0        2.356557   -7.023315   -1.642696
  189          7             0        1.983265   -5.840112   -1.150897
  190          6             0        2.219369   -4.720615   -1.834100
  191          1             0        3.633752   -6.036527   -4.593402
  192          1             0        3.239546   -8.085423   -3.277497
  193          1             0        2.160555   -7.898113   -1.025294
  194          1             0        1.904175   -3.794712   -1.358800
 --------------------------------------------------------------------
     1 basis functions        1 primitive gaussians
     1 alpha electrons        1 beta electrons
 
 Harmonic frequencies (cm**-1), IR intensities (KM/Mole),
 Raman scattering activities (A**4/amu), Raman depolarization ratios,
 reduced masses (AMU), force constants (mDyne/A) and normal coordinates:
                      1                      2                      3
                        a                      a                      a 
 Frequencies --     5.7183                 8.3158                 9.4681
 Red. masses --    14.0697                17.6327                13.8900
 Frc consts  --     0.0000                 0.0000                 0.0000
 IR Inten    --     0.3618                 0.2850                 0.2284
 Raman Activ --     0.0000                 0.0000                 0.0000
 Depolar     --     0.0000                 0.0000                 0.0000
 Atom AN      X      Y      Z        X      Y      Z        X      Y      Z
   1  46    -0.09   0.02  -0.07    -0.07   0.16   0.08     0.01   0.08  -0.06
   2  46    -0.05  -0.03  -0.11    -0.10  -0.13   0.03    -0.04  -0.09  -0.06
   3   6    -0.06   0.03   0.10    -0.09   0.02  -0.05     0.01   0.00  -0.04
   4   6    -0.09   0.03   0.10    -0.08   0.02  -0.05     0.01  -0.02  -0.06
   5   6    -0.12   0.03   0.10    -0.06   0.02  -0.05     0.02  -0.04  -0.07
   6   6    -0.17   0.04   0.13    -0.05   0.04  -0.05     0.04  -0.05  -0.08
   7   6    -0.19   0.04   0.14    -0.03   0.05  -0.05     0.06  -0.06  -0.10
   8   6    -0.17   0.03   0.10    -0.00   0.03  -0.04     0.06  -0.06  -0.10
   9   6    -0.12   0.01   0.06    -0.01   0.01  -0.04     0.04  -0.05  -0.08
  10   6    -0.09   0.00   0.03     0.02  -0.00  -0.03     0.05  -0.05  -0.08
  11   6    -0.05  -0.01  -0.01     0.01  -0.02  -0.02     0.03  -0.04  -0.07
  12   7    -0.04  -0.01  -0.01    -0.02  -0.03  -0.02     0.01  -0.03  -0.06
  13   6    -0.06   0.00   0.02    -0.04  -0.01  -0.03     0.01  -0.03  -0.05
  14   6    -0.10   0.01   0.06    -0.03   0.01  -0.04     0.02  -0.04  -0.07
  15   1    -0.05   0.02   0.05    -0.02   0.02  -0.02     0.01  -0.01  -0.02
  16   1    -0.07   0.01   0.05    -0.01   0.02  -0.02     0.02  -0.02  -0.03
  17   1    -0.05   0.01   0.03     0.00   0.01  -0.01     0.02  -0.02  -0.03
  18   1    -0.03  -0.00   0.01     0.01   0.00  -0.01     0.02  -0.02  -0.03
  19   1    -0.01  -0.01  -0.01     0.01  -0.01  -0.00     0.01  -0.01  -0.02
  20   1    -0.01   0.00   0.00    -0.02  -0.01  -0.01    -0.00  -0.01  -0.01
  21   6    -0.03   0.02   0.10    -0.09   0.03  -0.04     0.03   0.02  -0.03
  22   6    -0.01   0.02   0.12    -0.11   0.03  -0.05     0.06   0.04  -0.02
  23   6     0.02   0.01   0.12    -0.10   0.04  -0.05     0.09   0.07   0.00
  24   6     0.02   0.01   0.10    -0.07   0.06  -0.02     0.09   0.07   0.01
  25   7     0.05  -0.00   0.11    -0.06   0.08  -0.01     0.13   0.10   0.04
  26   6     0.03  -0.00   0.08    -0.03   0.08   0.01     0.11   0.08   0.04
  27   6     0.05  -0.01   0.07    -0.01   0.10   0.03     0.13   0.10   0.05
  28   6     0.03  -0.01   0.04     0.01   0.10   0.04     0.12   0.09   0.05
  29   6     0.01   0.00   0.03     0.00   0.09   0.04     0.08   0.06   0.03
  30   6    -0.01   0.01   0.04    -0.02   0.07   0.02     0.06   0.05   0.02
  31   6     0.01   0.01   0.07    -0.03   0.07   0.01     0.07   0.06   0.02
  32   6    -0.00   0.01   0.08    -0.06   0.06  -0.01     0.06   0.05   0.00
  33   6    -0.03   0.02   0.08    -0.06   0.04  -0.02     0.03   0.03  -0.02
  34   1    -0.00   0.01   0.04    -0.04   0.01  -0.02     0.01   0.01  -0.01
  35   1     0.01   0.00   0.04    -0.03   0.01  -0.02     0.03   0.02   0.00
  36   1     0.02  -0.00   0.03    -0.02   0.02  -0.00     0.04   0.03   0.01
  37   1     0.02  -0.00   0.02    -0.00   0.03   0.01     0.05   0.03   0.02
  38   1     0.01  -0.00   0.01     0.01   0.03   0.02     0.04   0.03   0.02
  39   1    -0.01   0.00   0.01    -0.01   0.02   0.01     0.01   0.01   0.00
  40   1    -0.01   0.01   0.02    -0.02   0.01  -0.00     0.00   0.00  -0.01
  41   6    -0.01   0.00   0.00     0.01   0.09   0.05     0.06   0.05   0.03
  42   6    -0.01   0.00  -0.00     0.02   0.09   0.07     0.07   0.06   0.05
  43   6    -0.02   0.00  -0.02     0.01   0.09   0.08     0.05   0.05   0.04
  44   6    -0.03   0.01  -0.04     0.00   0.08   0.06     0.02   0.04   0.01
  45   7    -0.04   0.01  -0.03    -0.00   0.08   0.05     0.02   0.03  -0.01
  46   6    -0.02   0.01  -0.01    -0.00   0.08   0.04     0.03   0.04  -0.00
  47   1     0.00   0.00   0.00     0.01   0.03   0.02     0.02   0.02   0.02
  48   1    -0.01   0.00  -0.01     0.01   0.03   0.03     0.02   0.02   0.02
  49   1    -0.01   0.00  -0.01    -0.00   0.02   0.02     0.00   0.01   0.00
  50   1    -0.01   0.00  -0.00    -0.00   0.02   0.01     0.01   0.01  -0.01
  51   6     0.10  -0.03  -0.08     0.04  -0.00  -0.03    -0.01   0.01  -0.05
  52   6     0.10  -0.03  -0.11     0.03   0.01  -0.03    -0.01   0.00  -0.04
  53   6     0.09  -0.03  -0.13     0.02   0.02  -0.03    -0.01   0.00  -0.03
  54   6     0.12  -0.04  -0.18     0.03   0.01  -0.05    -0.01  -0.00  -0.03
  55   6     0.11  -0.04  -0.20     0.02   0.03  -0.04    -0.01  -0.00  -0.02
  56   6     0.08  -0.02  -0.17    -0.00   0.05  -0.01    -0.01   0.01  -0.01
  57   6     0.05  -0.01  -0.13    -0.02   0.06   0.01    -0.01   0.01  -0.01
  58   6     0.01   0.01  -0.09    -0.04   0.08   0.05    -0.01   0.02  -0.00
  59   6    -0.02   0.02  -0.05    -0.05   0.08   0.06    -0.01   0.03  -0.00
  60   7    -0.01   0.02  -0.04    -0.04   0.07   0.05    -0.00   0.03  -0.01
  61   6     0.02   0.00  -0.07    -0.02   0.05   0.02    -0.00   0.02  -0.02
  62   6     0.05  -0.01  -0.11    -0.00   0.04   0.00    -0.01   0.01  -0.02
  63   1     0.04  -0.02  -0.06     0.02  -0.00  -0.02    -0.00  -0.00  -0.01
  64   1     0.04  -0.01  -0.07     0.01   0.01  -0.02    -0.00  -0.00  -0.01
  65   1     0.02  -0.00  -0.05    -0.00   0.02   0.00    -0.00   0.00  -0.00
  66   1     0.00   0.00  -0.03    -0.02   0.02   0.02    -0.00   0.01   0.00
  67   1    -0.01   0.01  -0.01    -0.02   0.03   0.03    -0.00   0.01   0.00
  68   1     0.01   0.00  -0.02    -0.00   0.01   0.00    -0.00   0.01  -0.01
  69   6     0.10  -0.02  -0.05     0.05  -0.01  -0.01    -0.01   0.01  -0.06
  70   6     0.13  -0.02  -0.02     0.05  -0.01  -0.00    -0.02   0.01  -0.08
  71   6     0.13  -0.01   0.01     0.06  -0.01   0.02    -0.03   0.02  -0.09
  72   6     0.11  -0.00   0.02     0.06  -0.01   0.04    -0.02   0.01  -0.08
  73   7     0.12   0.00   0.05     0.08  -0.02   0.08    -0.03   0.02  -0.09
  74   6     0.08   0.00   0.03     0.07  -0.02   0.08    -0.02   0.01  -0.07
  75   6     0.07   0.01   0.05     0.07  -0.02   0.11    -0.02   0.01  -0.07
  76   6     0.05   0.01   0.03     0.07  -0.03   0.10    -0.01   0.01  -0.05
  77   6     0.03  -0.01   0.00     0.05  -0.03   0.08    -0.00   0.00  -0.03
  78   6     0.05  -0.01  -0.01     0.05  -0.02   0.05    -0.01   0.00  -0.04
  79   6     0.07  -0.01   0.00     0.06  -0.02   0.05    -0.01   0.01  -0.05
  80   6     0.09  -0.01  -0.01     0.05  -0.01   0.03    -0.01   0.01  -0.06
  81   6     0.09  -0.02  -0.04     0.05  -0.01   0.00    -0.01   0.01  -0.05
  82   1     0.04  -0.00  -0.01     0.01  -0.00  -0.00    -0.01   0.00  -0.02
  83   1     0.04   0.00   0.01     0.02  -0.00   0.01    -0.01   0.01  -0.03
  84   1     0.04   0.00   0.02     0.02  -0.00   0.02    -0.01   0.01  -0.03
  85   1     0.02   0.01   0.02     0.02  -0.01   0.04    -0.01   0.00  -0.02
  86   1     0.01   0.00   0.01     0.02  -0.01   0.04    -0.00   0.00  -0.01
  87   1     0.01  -0.01  -0.01     0.01  -0.01   0.01    -0.00  -0.00  -0.01
  88   1     0.02  -0.01  -0.02     0.01  -0.00  -0.00    -0.00   0.00  -0.01
  89   6     0.01  -0.01  -0.02     0.04  -0.03   0.07     0.00  -0.00  -0.02
  90   6     0.00  -0.01  -0.02     0.06  -0.02   0.09     0.01   0.00  -0.00
  91   6    -0.02  -0.01  -0.04     0.05  -0.03   0.08     0.01  -0.00   0.01
  92   6    -0.03  -0.02  -0.05     0.02  -0.03   0.05     0.01  -0.01   0.01
  93   7    -0.03  -0.02  -0.05    -0.00  -0.04   0.04     0.01  -0.02  -0.00
  94   6    -0.01  -0.01  -0.03     0.01  -0.03   0.04     0.01  -0.01  -0.01
  95   1     0.01  -0.00  -0.00     0.03  -0.01   0.03     0.00   0.00  -0.00
  96   1    -0.01  -0.00  -0.01     0.02  -0.01   0.03     0.00   0.00   0.01
  97   1    -0.01  -0.00  -0.02     0.00  -0.01   0.01     0.00  -0.01   0.01
  98   1    -0.00  -0.00  -0.01    -0.00  -0.01   0.01     0.00  -0.01  -0.01
  99   6     0.01  -0.02   0.02     0.04  -0.01  -0.05    -0.02   0.00   0.02
 100   6     0.02  -0.03   0.02     0.02  -0.03  -0.04    -0.01   0.03  -0.00
 101   6     0.03  -0.04   0.02     0.00  -0.04  -0.03    -0.01   0.04  -0.01
 102   6     0.05  -0.06   0.04     0.01  -0.08  -0.03    -0.02   0.06  -0.02
 103   6     0.06  -0.06   0.04    -0.01  -0.09  -0.02    -0.03   0.07  -0.03
 104   6     0.05  -0.05   0.03    -0.04  -0.07  -0.00    -0.03   0.07  -0.04
 105   6     0.03  -0.03   0.02    -0.04  -0.04  -0.00    -0.02   0.06  -0.04
 106   6     0.01  -0.02   0.01    -0.06  -0.02   0.01    -0.02   0.06  -0.04
 107   6    -0.01  -0.01  -0.00    -0.06   0.01   0.02    -0.01   0.04  -0.04
 108   7    -0.01  -0.00  -0.01    -0.04   0.03   0.01    -0.01   0.03  -0.03
 109   6    -0.00  -0.01  -0.00    -0.02   0.01  -0.01    -0.00   0.03  -0.02
 110   6     0.02  -0.03   0.01    -0.02  -0.02  -0.01    -0.01   0.04  -0.02
 111   1     0.02  -0.02   0.01     0.01  -0.03  -0.01    -0.01   0.02  -0.00
 112   1     0.02  -0.02   0.02    -0.00  -0.03  -0.00    -0.01   0.02  -0.01
 113   1     0.02  -0.02   0.01    -0.02  -0.02   0.00    -0.01   0.02  -0.01
 114   1     0.00  -0.01   0.00    -0.02  -0.01   0.01    -0.01   0.02  -0.02
 115   1    -0.01   0.00  -0.00    -0.02   0.01   0.01    -0.00   0.01  -0.01
 116   1    -0.00  -0.00  -0.00    -0.00   0.01  -0.00     0.00   0.01  -0.00
 117   6    -0.00  -0.02   0.01     0.06  -0.01  -0.06    -0.04  -0.02   0.03
 118   6    -0.01  -0.01   0.03     0.09   0.00  -0.08    -0.06  -0.03   0.04
 119   6    -0.03  -0.01   0.03     0.11   0.01  -0.08    -0.10  -0.05   0.06
 120   6    -0.03  -0.01   0.01     0.09  -0.00  -0.07    -0.10  -0.05   0.07
 121   7    -0.04  -0.00   0.01     0.10  -0.00  -0.08    -0.14  -0.07   0.09
 122   6    -0.03  -0.00  -0.00     0.06  -0.02  -0.05    -0.12  -0.06   0.08
 123   6    -0.04   0.00  -0.01     0.05  -0.02  -0.04    -0.15  -0.07   0.10
 124   6    -0.03   0.00  -0.02     0.02  -0.03  -0.02    -0.13  -0.06   0.09
 125   6    -0.02  -0.00  -0.03    -0.00  -0.04  -0.01    -0.10  -0.05   0.08
 126   6    -0.01  -0.01  -0.02     0.01  -0.03  -0.02    -0.07  -0.04   0.06
 127   6    -0.02  -0.01  -0.01     0.04  -0.02  -0.04    -0.08  -0.04   0.07
 128   6    -0.02  -0.01   0.00     0.05  -0.01  -0.05    -0.07  -0.03   0.06
 129   6    -0.00  -0.02   0.00     0.03  -0.02  -0.05    -0.04  -0.02   0.04
 130   1    -0.00  -0.00   0.01     0.03   0.00  -0.03    -0.02  -0.01   0.01
 131   1    -0.01  -0.00   0.01     0.04   0.00  -0.03    -0.03  -0.02   0.02
 132   1    -0.01   0.00   0.01     0.03   0.00  -0.02    -0.04  -0.02   0.03
 133   1    -0.01   0.00  -0.00     0.02  -0.01  -0.01    -0.05  -0.02   0.03
 134   1    -0.01   0.00  -0.01     0.00  -0.01  -0.00    -0.04  -0.02   0.03
 135   1    -0.00  -0.00  -0.01    -0.00  -0.01  -0.00    -0.01  -0.01   0.01
 136   1     0.00  -0.01  -0.00     0.00  -0.01  -0.01    -0.01  -0.00   0.01
 137   6    -0.01  -0.01  -0.04    -0.03  -0.04   0.01    -0.08  -0.04   0.07
 138   6    -0.01  -0.01  -0.05    -0.04  -0.04   0.02    -0.10  -0.04   0.10
 139   6    -0.00  -0.01  -0.06    -0.06  -0.04   0.04    -0.08  -0.04   0.09
 140   6     0.00  -0.01  -0.06    -0.07  -0.05   0.05    -0.05  -0.04   0.04
 141   7    -0.01  -0.01  -0.06    -0.06  -0.06   0.04    -0.04  -0.04   0.02
 142   6    -0.01  -0.01  -0.04    -0.03  -0.05   0.02    -0.05  -0.04   0.03
 143   1    -0.00  -0.00  -0.01    -0.01  -0.01   0.00    -0.03  -0.01   0.04
 144   1     0.00  -0.00  -0.02    -0.02  -0.01   0.01    -0.03  -0.01   0.03
 145   1     0.00  -0.00  -0.02    -0.02  -0.02   0.02    -0.01  -0.01   0.01
 146   1    -0.00  -0.00  -0.01    -0.01  -0.01   0.00    -0.01  -0.01   0.00
 147   6    -0.02   0.00   0.00     0.08   0.01   0.01     0.03  -0.02   0.05
 148   6    -0.03  -0.01  -0.00     0.08   0.02  -0.00     0.01  -0.04   0.04
 149   6    -0.03  -0.01  -0.00     0.08   0.03  -0.03    -0.00  -0.05   0.04
 150   6    -0.04  -0.02   0.00     0.11   0.03  -0.07    -0.02  -0.09   0.06
 151   6    -0.04  -0.03   0.00     0.10   0.03  -0.10    -0.03  -0.10   0.06
 152   6    -0.05  -0.03   0.00     0.07   0.03  -0.10    -0.03  -0.08   0.04
 153   6    -0.04  -0.02  -0.00     0.05   0.03  -0.07    -0.02  -0.04   0.01
 154   6    -0.05  -0.02  -0.00     0.02   0.03  -0.06    -0.02  -0.02  -0.01
 155   6    -0.04  -0.01  -0.01    -0.00   0.03  -0.03    -0.01   0.00  -0.03
 156   7    -0.04  -0.00  -0.01     0.00   0.03   0.00     0.01   0.02  -0.03
 157   6    -0.03  -0.00  -0.01     0.03   0.03  -0.00     0.01   0.00  -0.01
 158   6    -0.04  -0.01  -0.00     0.05   0.03  -0.03    -0.00  -0.03   0.01
 159   1    -0.01  -0.01   0.00     0.04   0.01  -0.02    -0.01  -0.03   0.02
 160   1    -0.01  -0.01   0.00     0.04   0.01  -0.04    -0.01  -0.04   0.02
 161   1    -0.01  -0.01   0.00     0.02   0.01  -0.04    -0.01  -0.03   0.01
 162   1    -0.02  -0.01   0.00     0.00   0.01  -0.02    -0.01  -0.01  -0.00
 163   1    -0.01  -0.00  -0.00    -0.01   0.01  -0.01    -0.00   0.01  -0.01
 164   1    -0.01   0.00  -0.00     0.01   0.01   0.01     0.01   0.00  -0.00
 165   6    -0.01   0.02   0.01     0.07  -0.01   0.02     0.04  -0.00   0.07
 166   6     0.00   0.03   0.03     0.09  -0.02   0.03     0.08   0.03   0.11
 167   6     0.02   0.05   0.05     0.08  -0.04   0.03     0.10   0.04   0.13
 168   6     0.03   0.05   0.05     0.04  -0.05   0.01     0.08   0.03   0.11
 169   7     0.05   0.07   0.07     0.02  -0.08   0.00     0.09   0.04   0.13
 170   6     0.04   0.05   0.05    -0.01  -0.08  -0.01     0.06   0.02   0.08
 171   6     0.05   0.06   0.06    -0.03  -0.10  -0.02     0.06   0.01   0.08
 172   6     0.05   0.05   0.04    -0.06  -0.10  -0.03     0.04  -0.00   0.04
 173   6     0.03   0.04   0.02    -0.05  -0.08  -0.02     0.02  -0.02   0.01
 174   6     0.02   0.03   0.01    -0.03  -0.06  -0.01     0.01  -0.02   0.02
 175   6     0.02   0.04   0.03    -0.00  -0.06  -0.00     0.04  -0.00   0.05
 176   6     0.01   0.03   0.03     0.03  -0.04   0.01     0.04   0.00   0.06
 177   6    -0.00   0.02   0.01     0.04  -0.02   0.01     0.03  -0.01   0.04
 178   1     0.00   0.01   0.01     0.03  -0.00   0.01     0.03   0.01   0.04
 179   1     0.01   0.02   0.02     0.03  -0.01   0.01     0.04   0.02   0.05
 180   1     0.02   0.02   0.02     0.01  -0.03   0.00     0.03   0.01   0.04
 181   1     0.02   0.02   0.02    -0.01  -0.03  -0.01     0.02   0.01   0.03
 182   1     0.02   0.02   0.01    -0.02  -0.03  -0.01     0.01  -0.00   0.01
 183   1     0.00   0.00  -0.00    -0.01  -0.01  -0.00    -0.00  -0.01  -0.00
 184   1    -0.00   0.00  -0.00     0.01  -0.00   0.00    -0.00  -0.01   0.00
 185   6     0.03   0.03   0.00    -0.07  -0.07  -0.02    -0.00  -0.03  -0.01
 186   6     0.05   0.04  -0.00    -0.10  -0.08  -0.03    -0.00  -0.02  -0.02
 187   6     0.04   0.03  -0.02    -0.11  -0.07  -0.03    -0.02  -0.03  -0.04
 188   6     0.02   0.01  -0.03    -0.09  -0.07  -0.02    -0.04  -0.04  -0.04
 189   7     0.00   0.01  -0.02    -0.07  -0.06  -0.01    -0.04  -0.04  -0.04
 190   6     0.01   0.01  -0.01    -0.05  -0.06  -0.01    -0.02  -0.04  -0.02
 191   1     0.02   0.01   0.00    -0.03  -0.02  -0.01     0.00  -0.00  -0.00
 192   1     0.02   0.01  -0.01    -0.04  -0.02  -0.01    -0.01  -0.01  -0.01
 193   1     0.00   0.00  -0.01    -0.03  -0.02  -0.00    -0.02  -0.01  -0.02
 194   1    -0.00   0.00  -0.00    -0.01  -0.02  -0.00    -0.01  -0.01  -0.00
                      4                      5                      6
                        a                      a                      a 
 Frequencies --    11.7612                11.9303                13.0338
 Red. masses --    16.8662                17.4892                15.7456
 Frc consts  --     0.0000                 0.0000                 0.0000
 IR Inten    --     0.1815                 0.4829                 0.3247
 Raman Activ --     0.0000                 0.0000                 0.0000
 Depolar     --     0.0000                 0.0000                 0.0000
 Atom AN      X      Y      Z        X      Y      Z        X      Y      Z
   1  46    -0.04  -0.15   0.10    -0.12  -0.08  -0.14    -0.03   0.07  -0.06
   2  46    -0.11   0.09  -0.03    -0.14   0.06   0.02     0.06  -0.06  -0.17
   3   6     0.02  -0.01  -0.07     0.05  -0.03  -0.02    -0.03  -0.02   0.08
   4   6     0.02  -0.01  -0.07     0.05  -0.06  -0.03    -0.02  -0.03   0.08
   5   6     0.01   0.00  -0.06     0.06  -0.08  -0.05    -0.04  -0.05   0.06
   6   6     0.04  -0.00  -0.08     0.11  -0.12  -0.08    -0.07  -0.06   0.09
   7   6     0.03   0.01  -0.06     0.12  -0.15  -0.10    -0.08  -0.08   0.07
   8   6    -0.00   0.03  -0.03     0.09  -0.13  -0.09    -0.06  -0.10   0.02
   9   6    -0.03   0.04  -0.02     0.05  -0.08  -0.07    -0.02  -0.09  -0.01
  10   6    -0.06   0.05   0.02     0.01  -0.06  -0.06    -0.00  -0.10  -0.06
  11   6    -0.07   0.06   0.03    -0.02  -0.03  -0.04     0.02  -0.08  -0.09
  12   7    -0.06   0.05   0.01    -0.03  -0.00  -0.01     0.03  -0.06  -0.07
  13   6    -0.03   0.03  -0.02    -0.01  -0.02  -0.01     0.01  -0.05  -0.02
  14   6    -0.01   0.02  -0.03     0.03  -0.06  -0.04    -0.02  -0.06   0.01
  15   1     0.02  -0.00  -0.03     0.04  -0.04  -0.02    -0.02  -0.01   0.04
  16   1     0.01   0.00  -0.02     0.05  -0.05  -0.03    -0.03  -0.03   0.03
  17   1    -0.00   0.01  -0.01     0.03  -0.04  -0.03    -0.02  -0.03   0.00
  18   1    -0.02   0.02   0.01     0.01  -0.02  -0.02    -0.00  -0.03  -0.02
  19   1    -0.03   0.02   0.02    -0.01  -0.00  -0.01     0.01  -0.03  -0.04
  20   1    -0.01   0.01  -0.01    -0.00   0.00   0.00     0.00  -0.01  -0.00
  21   6     0.02   0.00  -0.06     0.07  -0.02  -0.00    -0.03  -0.03   0.08
  22   6     0.03   0.02  -0.06     0.11   0.01   0.02    -0.05  -0.05   0.07
  23   6     0.04   0.04  -0.06     0.13   0.02   0.03    -0.06  -0.07   0.06
  24   6     0.03   0.04  -0.04     0.10   0.01   0.02    -0.05  -0.06   0.06
  25   7     0.03   0.06  -0.04     0.12   0.02   0.03    -0.05  -0.09   0.05
  26   6     0.01   0.04  -0.02     0.08   0.00   0.02    -0.03  -0.07   0.04
  27   6     0.01   0.05  -0.01     0.08   0.00   0.02    -0.03  -0.08   0.03
  28   6    -0.01   0.04  -0.00     0.04  -0.01   0.00    -0.01  -0.06   0.02
  29   6    -0.01   0.02  -0.01     0.01  -0.03  -0.01    -0.00  -0.04   0.03
  30   6    -0.01   0.01  -0.02     0.01  -0.03  -0.01    -0.00  -0.03   0.04
  31   6     0.01   0.02  -0.03     0.05  -0.02   0.00    -0.02  -0.05   0.05
  32   6     0.01   0.02  -0.04     0.06  -0.01   0.00    -0.02  -0.04   0.06
  33   6     0.01   0.00  -0.05     0.04  -0.03  -0.01    -0.01  -0.03   0.07
  34   1     0.01   0.01  -0.02     0.04   0.00   0.01    -0.02  -0.02   0.02
  35   1     0.01   0.02  -0.02     0.05   0.01   0.01    -0.02  -0.02   0.02
  36   1     0.01   0.02  -0.01     0.04   0.01   0.01    -0.02  -0.03   0.01
  37   1     0.00   0.02  -0.00     0.03   0.00   0.01    -0.01  -0.03   0.01
  38   1    -0.00   0.01   0.00     0.01  -0.00   0.00    -0.00  -0.02   0.00
  39   1    -0.00  -0.00  -0.01    -0.00  -0.01  -0.01     0.00  -0.00   0.01
  40   1     0.00  -0.00  -0.01     0.00  -0.01  -0.01     0.00  -0.00   0.02
  41   6    -0.03   0.01   0.00    -0.01  -0.04  -0.02     0.01  -0.03   0.01
  42   6    -0.06   0.01   0.00    -0.01  -0.04  -0.02     0.02  -0.04  -0.00
  43   6    -0.07  -0.00   0.01    -0.03  -0.04  -0.04     0.02  -0.03  -0.02
  44   6    -0.06  -0.02   0.02    -0.04  -0.05  -0.05     0.01  -0.01  -0.03
  45   7    -0.03  -0.03   0.02    -0.04  -0.05  -0.05     0.00  -0.01  -0.01
  46   6    -0.02  -0.01   0.01    -0.02  -0.04  -0.04     0.00  -0.02   0.01
  47   1    -0.02   0.01  -0.00    -0.00  -0.01  -0.00     0.01  -0.02  -0.00
  48   1    -0.03   0.00   0.00    -0.01  -0.01  -0.01     0.01  -0.01  -0.01
  49   1    -0.02  -0.01   0.01    -0.02  -0.01  -0.02     0.00  -0.00  -0.01
  50   1     0.00  -0.01   0.01    -0.01  -0.01  -0.01    -0.00  -0.00   0.01
  51   6     0.08   0.04   0.07    -0.04   0.01   0.03     0.01   0.05   0.02
  52   6     0.07   0.05   0.07    -0.05   0.02   0.01    -0.01   0.09   0.04
  53   6     0.06   0.06   0.05    -0.05   0.02  -0.00    -0.04   0.13   0.07
  54   6     0.06   0.10   0.05    -0.06   0.03   0.01    -0.07   0.19   0.12
  55   6     0.04   0.12   0.03    -0.06   0.03   0.00    -0.10   0.23   0.15
  56   6     0.02   0.10   0.01    -0.05   0.02  -0.02    -0.11   0.21   0.13
  57   6     0.01   0.07   0.01    -0.05   0.00  -0.03    -0.08   0.16   0.08
  58   6    -0.01   0.05  -0.00    -0.04  -0.01  -0.05    -0.09   0.14   0.06
  59   6    -0.02   0.02   0.00    -0.04  -0.02  -0.06    -0.07   0.09   0.02
  60   7     0.00  -0.00   0.02    -0.04  -0.03  -0.05    -0.03   0.06   0.00
  61   6     0.03   0.01   0.03    -0.04  -0.01  -0.03    -0.02   0.07   0.02
  62   6     0.03   0.05   0.03    -0.05   0.00  -0.02    -0.05   0.12   0.06
  63   1     0.02   0.03   0.02    -0.02   0.01   0.01    -0.02   0.06   0.04
  64   1     0.01   0.04   0.01    -0.02   0.01   0.00    -0.03   0.08   0.05
  65   1     0.00   0.03  -0.00    -0.02   0.01  -0.01    -0.04   0.07   0.04
  66   1    -0.01   0.02  -0.01    -0.01  -0.00  -0.02    -0.03   0.05   0.02
  67   1    -0.01   0.00  -0.00    -0.01  -0.01  -0.02    -0.02   0.02  -0.00
  68   1     0.01  -0.00   0.01    -0.01  -0.00  -0.01     0.00   0.01  -0.00
  69   6     0.07   0.05   0.07    -0.02  -0.01   0.07     0.02   0.02   0.01
  70   6     0.09   0.06   0.09    -0.01  -0.02   0.10     0.02   0.01   0.02
  71   6     0.08   0.07   0.08     0.01  -0.04   0.14     0.02  -0.01   0.02
  72   6     0.05   0.09   0.05     0.01  -0.04   0.14     0.04  -0.01   0.01
  73   7     0.03   0.12   0.03     0.04  -0.06   0.19     0.05  -0.02   0.00
  74   6    -0.00   0.11  -0.01     0.03  -0.05   0.16     0.05  -0.01  -0.01
  75   6    -0.03   0.13  -0.03     0.05  -0.06   0.18     0.06  -0.01  -0.01
  76   6    -0.05   0.13  -0.05     0.04  -0.05   0.15     0.07  -0.01  -0.02
  77   6    -0.05   0.11  -0.05     0.02  -0.03   0.11     0.07   0.01  -0.02
  78   6    -0.03   0.09  -0.03     0.01  -0.02   0.09     0.06   0.01  -0.02
  79   6    -0.00   0.10  -0.01     0.01  -0.03   0.12     0.05   0.01  -0.01
  80   6     0.03   0.08   0.02     0.00  -0.02   0.10     0.04   0.01  -0.01
  81   6     0.04   0.06   0.03    -0.02  -0.01   0.07     0.03   0.03  -0.00
  82   1     0.03   0.01   0.03    -0.01  -0.01   0.03     0.00   0.00   0.01
  83   1     0.03   0.02   0.03     0.00  -0.01   0.05     0.01  -0.01   0.01
  84   1     0.01   0.03   0.01     0.01  -0.02   0.06     0.01  -0.01   0.00
  85   1    -0.01   0.04  -0.01     0.02  -0.02   0.06     0.02  -0.01  -0.00
  86   1    -0.02   0.04  -0.02     0.01  -0.02   0.05     0.02  -0.00  -0.01
  87   1    -0.01   0.02  -0.01    -0.00  -0.00   0.02     0.02   0.01  -0.01
  88   1     0.01   0.02   0.00    -0.01   0.00   0.01     0.01   0.01  -0.00
  89   6    -0.07   0.10  -0.05     0.01  -0.02   0.07     0.07   0.01  -0.03
  90   6    -0.10   0.11  -0.05     0.03  -0.03   0.07     0.07   0.01  -0.02
  91   6    -0.11   0.10  -0.05     0.02  -0.02   0.04     0.06   0.01  -0.02
  92   6    -0.10   0.08  -0.03    -0.02  -0.00   0.01     0.04   0.00  -0.04
  93   7    -0.08   0.08  -0.03    -0.04   0.01   0.02     0.04  -0.00  -0.05
  94   6    -0.06   0.09  -0.04    -0.02  -0.00   0.05     0.05   0.00  -0.04
  95   1    -0.03   0.03  -0.02     0.02  -0.01   0.03     0.03   0.00  -0.00
  96   1    -0.04   0.03  -0.01     0.01  -0.01   0.01     0.02   0.00  -0.00
  97   1    -0.03   0.02  -0.01    -0.01   0.00  -0.01     0.01  -0.00  -0.01
  98   1    -0.01   0.02  -0.01    -0.01   0.00   0.01     0.01   0.00  -0.01
  99   6    -0.03  -0.04   0.01    -0.03   0.02   0.00     0.01   0.02   0.06
 100   6    -0.02  -0.05   0.02    -0.02  -0.00   0.02     0.02   0.02   0.06
 101   6    -0.00  -0.07   0.03     0.00  -0.01   0.02     0.03   0.03   0.05
 102   6    -0.00  -0.08   0.03     0.04  -0.03   0.05     0.05   0.03   0.07
 103   6     0.01  -0.09   0.04     0.07  -0.04   0.06     0.05   0.05   0.05
 104   6     0.01  -0.10   0.05     0.06  -0.03   0.04     0.04   0.06   0.03
 105   6     0.01  -0.09   0.05     0.03  -0.02   0.01     0.02   0.06   0.01
 106   6     0.01  -0.09   0.06     0.02  -0.01  -0.01    -0.00   0.07  -0.02
 107   6     0.01  -0.08   0.06    -0.01  -0.01  -0.03    -0.02   0.06  -0.04
 108   7     0.00  -0.08   0.05    -0.03  -0.00  -0.04    -0.02   0.05  -0.02
 109   6    -0.00  -0.07   0.04    -0.03  -0.00  -0.02    -0.01   0.04   0.00
 110   6     0.00  -0.08   0.04    -0.00  -0.01   0.00     0.01   0.04   0.02
 111   1    -0.00  -0.02   0.01     0.01  -0.01   0.02     0.02   0.01   0.03
 112   1     0.00  -0.03   0.01     0.03  -0.01   0.02     0.02   0.01   0.02
 113   1     0.00  -0.03   0.02     0.02  -0.01   0.01     0.01   0.02   0.00
 114   1     0.00  -0.03   0.02     0.01  -0.01  -0.00    -0.00   0.02  -0.01
 115   1     0.00  -0.02   0.02    -0.00  -0.00  -0.01    -0.01   0.02  -0.02
 116   1    -0.00  -0.02   0.01    -0.01   0.00  -0.01    -0.00   0.01   0.00
 117   6    -0.03  -0.02   0.00    -0.02   0.03  -0.01     0.00   0.02   0.06
 118   6    -0.04  -0.02   0.01     0.00   0.05  -0.01    -0.01   0.02   0.08
 119   6    -0.05  -0.01   0.01     0.02   0.06  -0.02    -0.02   0.03   0.08
 120   6    -0.04  -0.00  -0.01     0.01   0.06  -0.03    -0.02   0.03   0.06
 121   7    -0.05   0.01  -0.01     0.03   0.07  -0.04    -0.04   0.04   0.07
 122   6    -0.03   0.01  -0.03     0.01   0.06  -0.03    -0.03   0.04   0.05
 123   6    -0.03   0.01  -0.04     0.02   0.06  -0.04    -0.04   0.04   0.04
 124   6    -0.02   0.01  -0.05     0.01   0.06  -0.04    -0.03   0.04   0.02
 125   6    -0.02   0.00  -0.05    -0.01   0.05  -0.03    -0.01   0.03   0.01
 126   6    -0.02  -0.00  -0.04    -0.02   0.04  -0.02    -0.00   0.03   0.02
 127   6    -0.03  -0.00  -0.03    -0.01   0.05  -0.02    -0.01   0.03   0.04
 128   6    -0.03  -0.01  -0.02    -0.01   0.04  -0.02    -0.01   0.03   0.05
 129   6    -0.03  -0.02  -0.01    -0.03   0.03  -0.01     0.00   0.02   0.05
 130   1    -0.01  -0.01   0.01     0.00   0.01  -0.00    -0.00   0.01   0.02
 131   1    -0.02  -0.00   0.00     0.01   0.02  -0.01    -0.01   0.01   0.02
 132   1    -0.01   0.00  -0.00     0.01   0.02  -0.01    -0.01   0.01   0.02
 133   1    -0.01   0.01  -0.01     0.01   0.02  -0.01    -0.02   0.01   0.01
 134   1    -0.01   0.01  -0.02     0.00   0.02  -0.01    -0.01   0.01   0.00
 135   1    -0.01  -0.00  -0.01    -0.01   0.01  -0.00     0.00   0.01   0.00
 136   1    -0.01  -0.01  -0.01    -0.01   0.01  -0.00     0.00   0.01   0.01
 137   6    -0.01   0.01  -0.06    -0.03   0.04  -0.02    -0.01   0.03  -0.00
 138   6     0.00   0.00  -0.07    -0.02   0.04  -0.03    -0.02   0.03  -0.00
 139   6     0.01   0.01  -0.06    -0.04   0.04  -0.02    -0.02   0.03  -0.02
 140   6    -0.01   0.01  -0.05    -0.05   0.04  -0.00    -0.01   0.02  -0.04
 141   7    -0.02   0.02  -0.04    -0.05   0.04   0.01     0.01   0.01  -0.05
 142   6    -0.02   0.01  -0.05    -0.04   0.04   0.00     0.01   0.02  -0.02
 143   1     0.00  -0.00  -0.02    -0.00   0.01  -0.01    -0.01   0.01   0.00
 144   1     0.00   0.00  -0.02    -0.01   0.01  -0.01    -0.01   0.01  -0.01
 145   1    -0.00   0.00  -0.01    -0.02   0.01   0.00    -0.00   0.00  -0.02
 146   1    -0.01   0.00  -0.01    -0.01   0.01   0.00     0.00   0.00  -0.01
 147   6     0.07  -0.04  -0.01    -0.01   0.02  -0.06     0.03  -0.03  -0.02
 148   6     0.06  -0.06   0.00    -0.02   0.02  -0.08     0.03  -0.03  -0.01
 149   6     0.04  -0.08   0.00    -0.02   0.02  -0.09     0.02  -0.04  -0.01
 150   6     0.05  -0.09  -0.01    -0.01   0.04  -0.10     0.02  -0.06  -0.01
 151   6     0.03  -0.12  -0.00    -0.01   0.04  -0.11     0.01  -0.07  -0.02
 152   6     0.00  -0.13   0.02    -0.01   0.03  -0.09     0.00  -0.06  -0.03
 153   6    -0.01  -0.12   0.03    -0.02   0.01  -0.08     0.00  -0.04  -0.03
 154   6    -0.04  -0.13   0.04    -0.03   0.00  -0.06    -0.01  -0.03  -0.04
 155   6    -0.04  -0.11   0.05    -0.04  -0.01  -0.05    -0.01  -0.01  -0.04
 156   7    -0.02  -0.10   0.05    -0.04  -0.02  -0.05    -0.00  -0.01  -0.03
 157   6     0.01  -0.08   0.03    -0.04  -0.01  -0.06     0.01  -0.02  -0.02
 158   6     0.01  -0.09   0.02    -0.03   0.01  -0.07     0.01  -0.03  -0.02
 159   1     0.02  -0.03  -0.00    -0.00   0.01  -0.03     0.01  -0.02  -0.00
 160   1     0.01  -0.04  -0.00     0.00   0.02  -0.03     0.00  -0.02  -0.01
 161   1    -0.00  -0.04   0.01    -0.00   0.01  -0.03    -0.00  -0.02  -0.01
 162   1    -0.02  -0.04   0.01    -0.01   0.00  -0.02    -0.00  -0.01  -0.02
 163   1    -0.02  -0.03   0.02    -0.01  -0.01  -0.01    -0.00  -0.00  -0.02
 164   1     0.01  -0.02   0.01    -0.01  -0.00  -0.02     0.00  -0.00  -0.00
 165   6     0.07  -0.04  -0.01     0.00   0.03  -0.03     0.03  -0.03  -0.03
 166   6     0.07  -0.05  -0.01     0.02   0.03  -0.01     0.02  -0.03  -0.04
 167   6     0.07  -0.05  -0.01     0.04   0.04   0.03     0.01  -0.03  -0.05
 168   6     0.07  -0.05  -0.01     0.04   0.04   0.04     0.01  -0.03  -0.05
 169   7     0.07  -0.06  -0.01     0.07   0.05   0.08     0.01  -0.04  -0.07
 170   6     0.06  -0.06  -0.00     0.05   0.05   0.07     0.01  -0.03  -0.06
 171   6     0.05  -0.06  -0.00     0.06   0.05   0.09     0.01  -0.04  -0.07
 172   6     0.05  -0.06   0.00     0.04   0.05   0.08     0.01  -0.04  -0.07
 173   6     0.05  -0.05   0.00     0.02   0.04   0.05     0.01  -0.03  -0.06
 174   6     0.05  -0.04  -0.00     0.01   0.04   0.02     0.02  -0.03  -0.05
 175   6     0.06  -0.05  -0.01     0.02   0.04   0.03     0.02  -0.03  -0.05
 176   6     0.06  -0.05  -0.01     0.02   0.04   0.01     0.02  -0.03  -0.05
 177   6     0.07  -0.04  -0.01    -0.00   0.03  -0.02     0.03  -0.03  -0.04
 178   1     0.02  -0.01  -0.00     0.01   0.01  -0.01     0.01  -0.01  -0.01
 179   1     0.02  -0.02  -0.00     0.02   0.01   0.01     0.00  -0.01  -0.02
 180   1     0.02  -0.02  -0.00     0.02   0.02   0.03     0.00  -0.01  -0.02
 181   1     0.02  -0.02   0.00     0.02   0.02   0.04     0.00  -0.01  -0.02
 182   1     0.01  -0.02   0.00     0.01   0.02   0.03     0.00  -0.01  -0.02
 183   1     0.01  -0.01  -0.00    -0.00   0.01  -0.00     0.01  -0.01  -0.01
 184   1     0.02  -0.01  -0.00    -0.01   0.01  -0.01     0.01  -0.01  -0.01
 185   6     0.04  -0.04   0.01    -0.00   0.04   0.03     0.01  -0.04  -0.06
 186   6     0.05  -0.05   0.04     0.01   0.04   0.03    -0.00  -0.04  -0.07
 187   6     0.03  -0.04   0.05    -0.01   0.04   0.02    -0.01  -0.04  -0.08
 188   6     0.01  -0.02   0.04    -0.04   0.03   0.00    -0.01  -0.04  -0.07
 189   7    -0.00  -0.01   0.01    -0.05   0.03   0.01     0.01  -0.04  -0.07
 190   6     0.01  -0.02   0.00    -0.03   0.03   0.02     0.02  -0.03  -0.06
 191   1     0.02  -0.02   0.01     0.01   0.01   0.01    -0.00  -0.01  -0.02
 192   1     0.01  -0.01   0.02    -0.00   0.01   0.00    -0.01  -0.01  -0.02
 193   1    -0.00  -0.00   0.01    -0.02   0.01  -0.00    -0.00  -0.01  -0.02
 194   1     0.00  -0.00  -0.00    -0.01   0.01   0.01     0.01  -0.01  -0.02
                      7                      8                      9
                        a                      a                      a 
 Frequencies --    13.8771                15.5625                21.5912
 Red. masses --    15.3475                12.8474                14.6809
 Frc consts  --     0.0000                 0.0000                 0.0000
 IR Inten    --     0.3795                 0.1005                 0.1700
 Raman Activ --     0.0000                 0.0000                 0.0000
 Depolar     --     0.0000                 0.0000                 0.0000
 Atom AN      X      Y      Z        X      Y      Z        X      Y      Z
   1  46    -0.14   0.01   0.12    -0.11   0.01   0.02    -0.07   0.03  -0.07
   2  46     0.03  -0.02   0.07     0.03   0.00  -0.00    -0.02  -0.15   0.03
   3   6     0.03  -0.04   0.07    -0.02   0.01  -0.04    -0.01  -0.02  -0.05
   4   6     0.06  -0.07   0.05    -0.02   0.02  -0.03    -0.01  -0.02  -0.05
   5   6     0.09  -0.11   0.02    -0.01   0.03  -0.02    -0.00  -0.01  -0.04
   6   6     0.13  -0.16  -0.01    -0.02   0.05  -0.02     0.01   0.00  -0.06
   7   6     0.16  -0.20  -0.05    -0.02   0.07  -0.01     0.01   0.02  -0.04
   8   6     0.14  -0.19  -0.07    -0.01   0.07   0.01     0.00   0.03  -0.01
   9   6     0.10  -0.14  -0.04    -0.01   0.04   0.01    -0.01   0.01   0.00
  10   6     0.08  -0.13  -0.06     0.00   0.04   0.03    -0.02   0.02   0.03
  11   6     0.04  -0.08  -0.03     0.00   0.02   0.03    -0.02   0.00   0.04
  12   7     0.03  -0.05   0.01     0.01   0.00   0.01    -0.02  -0.02   0.02
  13   6     0.04  -0.05   0.02    -0.00   0.01  -0.01    -0.01  -0.02  -0.00
  14   6     0.07  -0.10   0.00    -0.01   0.03  -0.01    -0.01  -0.00  -0.01
  15   1     0.04  -0.05   0.00    -0.01   0.02  -0.01     0.00   0.00  -0.02
  16   1     0.06  -0.07  -0.02    -0.01   0.03  -0.00     0.01   0.01  -0.01
  17   1     0.05  -0.07  -0.03    -0.00   0.02   0.01     0.00   0.01   0.00
  18   1     0.03  -0.04  -0.03     0.00   0.02   0.01    -0.01   0.01   0.01
  19   1     0.00  -0.02  -0.01     0.00   0.00   0.01    -0.01   0.00   0.02
  20   1     0.01  -0.01   0.02    -0.00  -0.00  -0.01    -0.00  -0.01  -0.01
  21   6     0.01  -0.03   0.07    -0.02   0.01  -0.04    -0.00  -0.01  -0.04
  22   6    -0.00  -0.02   0.06    -0.02   0.02  -0.04     0.03   0.01  -0.03
  23   6    -0.02  -0.03   0.05    -0.02   0.02  -0.04     0.05   0.02  -0.02
  24   6    -0.03  -0.03   0.06    -0.02   0.02  -0.03     0.03   0.02  -0.02
  25   7    -0.05  -0.04   0.06    -0.02   0.04  -0.03     0.05   0.03  -0.01
  26   6    -0.05  -0.04   0.06    -0.02   0.03  -0.02     0.02   0.02  -0.02
  27   6    -0.07  -0.04   0.05    -0.02   0.04  -0.01     0.02   0.02  -0.01
  28   6    -0.06  -0.04   0.05    -0.02   0.03  -0.00     0.00   0.01  -0.02
  29   6    -0.05  -0.04   0.06    -0.03   0.02  -0.01    -0.02  -0.00  -0.03
  30   6    -0.04  -0.03   0.07    -0.03   0.02  -0.02    -0.02  -0.01  -0.04
  31   6    -0.04  -0.03   0.06    -0.02   0.02  -0.02    -0.01  -0.00  -0.03
  32   6    -0.02  -0.03   0.07    -0.02   0.02  -0.03     0.00  -0.00  -0.03
  33   6    -0.00  -0.03   0.07    -0.03   0.01  -0.03    -0.02  -0.02  -0.05
  34   1     0.00  -0.01   0.02    -0.01   0.00  -0.01     0.01   0.00  -0.01
  35   1    -0.01  -0.01   0.01    -0.01   0.01  -0.01     0.02   0.01  -0.00
  36   1    -0.02  -0.01   0.01    -0.00   0.01  -0.01     0.02   0.01   0.00
  37   1    -0.02  -0.01   0.01    -0.00   0.01  -0.00     0.01   0.01  -0.00
  38   1    -0.02  -0.01   0.01    -0.01   0.01   0.00     0.00   0.00  -0.00
  39   1    -0.01  -0.01   0.02    -0.01   0.00  -0.00    -0.01  -0.01  -0.01
  40   1     0.00  -0.01   0.02    -0.01   0.00  -0.01    -0.01  -0.01  -0.02
  41   6    -0.04  -0.03   0.06    -0.03   0.01  -0.00    -0.02  -0.01  -0.03
  42   6    -0.04  -0.04   0.04    -0.05   0.02   0.00    -0.02  -0.01  -0.02
  43   6    -0.04  -0.03   0.03    -0.05   0.01   0.01    -0.02  -0.01  -0.02
  44   6    -0.05  -0.02   0.03    -0.05  -0.00   0.01    -0.03  -0.01  -0.03
  45   7    -0.05  -0.02   0.04    -0.04  -0.01   0.00    -0.03  -0.01  -0.03
  46   6    -0.05  -0.02   0.06    -0.03   0.00   0.00    -0.03  -0.01  -0.03
  47   1    -0.01  -0.01   0.01    -0.01   0.01   0.00    -0.01  -0.00  -0.01
  48   1    -0.01  -0.01   0.01    -0.02   0.00   0.00    -0.01  -0.00  -0.01
  49   1    -0.01  -0.00   0.00    -0.02  -0.00   0.00    -0.01  -0.00  -0.01
  50   1    -0.01  -0.00   0.02    -0.01  -0.00  -0.00    -0.01  -0.00  -0.01
  51   6     0.08   0.01  -0.05    -0.06  -0.04  -0.03     0.02  -0.02  -0.03
  52   6     0.09  -0.01  -0.05    -0.05  -0.05  -0.05     0.00   0.01  -0.02
  53   6     0.08  -0.01  -0.07    -0.03  -0.08  -0.06    -0.02   0.03  -0.01
  54   6     0.12  -0.02  -0.13    -0.02  -0.12  -0.10    -0.03   0.06   0.01
  55   6     0.11  -0.01  -0.16     0.01  -0.15  -0.11    -0.05   0.08   0.03
  56   6     0.07   0.01  -0.12     0.02  -0.14  -0.09    -0.06   0.08   0.03
  57   6     0.03   0.02  -0.07     0.00  -0.09  -0.06    -0.05   0.06   0.01
  58   6    -0.02   0.04  -0.03     0.01  -0.07  -0.04    -0.06   0.05   0.01
  59   6    -0.05   0.04   0.01    -0.00  -0.03  -0.01    -0.04   0.03  -0.01
  60   7    -0.04   0.04   0.03    -0.04  -0.01   0.00    -0.02   0.01  -0.03
  61   6    -0.00   0.02   0.00    -0.04  -0.02  -0.01    -0.01   0.01  -0.03
  62   6     0.04   0.01  -0.04    -0.03  -0.06  -0.04    -0.03   0.03  -0.01
  63   1     0.05  -0.01  -0.04    -0.01  -0.04  -0.03    -0.01   0.02   0.00
  64   1     0.04  -0.01  -0.06     0.01  -0.05  -0.04    -0.02   0.03   0.01
  65   1     0.02   0.00  -0.04     0.01  -0.05  -0.03    -0.02   0.03   0.01
  66   1    -0.01   0.01  -0.01     0.01  -0.03  -0.01    -0.02   0.02   0.01
  67   1    -0.02   0.02   0.01     0.00  -0.01   0.00    -0.02   0.01  -0.00
  68   1     0.00   0.01   0.01    -0.02   0.00  -0.00     0.00  -0.00  -0.01
  69   6     0.07   0.03  -0.06    -0.06  -0.04  -0.02     0.02  -0.02  -0.03
  70   6     0.06   0.05  -0.09    -0.06  -0.04  -0.02     0.04  -0.02   0.01
  71   6     0.04   0.07  -0.11    -0.05  -0.04  -0.01     0.03  -0.01   0.00
  72   6     0.03   0.07  -0.10    -0.05  -0.05  -0.01     0.00   0.00  -0.04
  73   7     0.01   0.10  -0.12    -0.05  -0.06  -0.00    -0.02   0.02  -0.07
  74   6     0.01   0.08  -0.09    -0.04  -0.05   0.00    -0.04   0.03  -0.09
  75   6    -0.01   0.09  -0.10    -0.03  -0.06   0.00    -0.07   0.04  -0.12
  76   6    -0.01   0.07  -0.07    -0.03  -0.05   0.00    -0.08   0.04  -0.12
  77   6    -0.00   0.05  -0.04    -0.03  -0.05  -0.00    -0.07   0.02  -0.10
  78   6     0.02   0.04  -0.03    -0.03  -0.04  -0.00    -0.06   0.01  -0.09
  79   6     0.02   0.05  -0.06    -0.04  -0.05  -0.00    -0.04   0.01  -0.09
  80   6     0.04   0.05  -0.06    -0.05  -0.04  -0.01    -0.01   0.00  -0.06
  81   6     0.05   0.02  -0.04    -0.05  -0.04  -0.01    -0.01  -0.01  -0.06
  82   1     0.02   0.01  -0.03    -0.02  -0.01  -0.01     0.02  -0.01   0.01
  83   1     0.01   0.03  -0.04    -0.02  -0.01  -0.00     0.01  -0.00   0.01
  84   1     0.00   0.03  -0.04    -0.01  -0.02  -0.00    -0.00   0.01  -0.02
  85   1    -0.01   0.03  -0.04    -0.01  -0.02   0.00    -0.02   0.02  -0.04
  86   1    -0.01   0.02  -0.02    -0.01  -0.02   0.00    -0.03   0.02  -0.04
  87   1     0.01   0.01  -0.00    -0.01  -0.01  -0.00    -0.01  -0.00  -0.02
  88   1     0.02   0.00  -0.00    -0.01  -0.01  -0.00    -0.01  -0.00  -0.02
  89   6    -0.00   0.04  -0.01    -0.02  -0.04  -0.01    -0.08   0.01  -0.08
  90   6    -0.03   0.05  -0.00    -0.02  -0.05  -0.03    -0.12   0.01  -0.08
  91   6    -0.03   0.03   0.02    -0.00  -0.04  -0.04    -0.11   0.00  -0.04
  92   6    -0.01   0.01   0.03     0.00  -0.02  -0.03    -0.06  -0.02  -0.01
  93   7     0.02   0.01   0.03     0.00  -0.01  -0.01    -0.03  -0.04  -0.01
  94   6     0.02   0.02   0.00    -0.01  -0.02  -0.00    -0.04  -0.02  -0.05
  95   1    -0.01   0.02  -0.01    -0.01  -0.02  -0.01    -0.04   0.01  -0.03
  96   1    -0.01   0.01   0.01    -0.00  -0.01  -0.01    -0.04   0.00  -0.01
  97   1    -0.00   0.00   0.01     0.00  -0.00  -0.01    -0.01  -0.01   0.01
  98   1     0.01   0.00   0.00    -0.00  -0.00   0.00    -0.00  -0.01  -0.01
  99   6    -0.03   0.02   0.00    -0.02   0.04   0.13     0.12  -0.07   0.11
 100   6    -0.06   0.02   0.00    -0.03   0.05   0.13     0.11  -0.06   0.11
 101   6    -0.08   0.03   0.00    -0.02   0.07   0.11     0.10  -0.05   0.10
 102   6    -0.10   0.04  -0.02    -0.01   0.10   0.12     0.13  -0.06   0.12
 103   6    -0.12   0.04  -0.02     0.01   0.13   0.10     0.13  -0.04   0.10
 104   6    -0.11   0.04  -0.01     0.01   0.13   0.06     0.09  -0.01   0.06
 105   6    -0.09   0.03   0.01    -0.00   0.10   0.05     0.06   0.00   0.04
 106   6    -0.08   0.02   0.02    -0.00   0.09   0.01     0.02   0.03  -0.00
 107   6    -0.06   0.01   0.04    -0.02   0.07  -0.01    -0.01   0.04  -0.02
 108   7    -0.05   0.01   0.04    -0.04   0.05   0.02    -0.01   0.03  -0.01
 109   6    -0.05   0.01   0.03    -0.03   0.05   0.05     0.03   0.00   0.02
 110   6    -0.07   0.02   0.02    -0.02   0.07   0.07     0.06  -0.01   0.05
 111   1    -0.03   0.01  -0.01    -0.00   0.03   0.04     0.05  -0.02   0.04
 112   1    -0.04   0.01  -0.01     0.01   0.04   0.03     0.04  -0.01   0.04
 113   1    -0.04   0.01  -0.00     0.01   0.04   0.01     0.02   0.00   0.01
 114   1    -0.03   0.01   0.01     0.00   0.03  -0.00     0.00   0.01  -0.00
 115   1    -0.02   0.00   0.01    -0.00   0.02  -0.01    -0.01   0.02  -0.02
 116   1    -0.01   0.00   0.01    -0.01   0.01   0.02     0.01  -0.00   0.01
 117   6    -0.01   0.02  -0.01    -0.00   0.05   0.12     0.13  -0.05   0.10
 118   6     0.01   0.03  -0.02     0.00   0.07   0.13     0.17  -0.01   0.09
 119   6     0.04   0.03  -0.03     0.02   0.09   0.11     0.17   0.01   0.08
 120   6     0.05   0.03  -0.03     0.03   0.09   0.10     0.14   0.00   0.07
 121   7     0.08   0.04  -0.04     0.04   0.12   0.09     0.14   0.03   0.05
 122   6     0.07   0.04  -0.02     0.04   0.11   0.06     0.10   0.01   0.04
 123   6     0.09   0.04  -0.03     0.05   0.12   0.04     0.08   0.02   0.02
 124   6     0.07   0.04  -0.02     0.05   0.11   0.03     0.05  -0.01   0.01
 125   6     0.04   0.03  -0.00     0.03   0.09   0.03     0.03  -0.04   0.02
 126   6     0.03   0.03  -0.00     0.03   0.08   0.06     0.04  -0.05   0.04
 127   6     0.04   0.03  -0.01     0.03   0.09   0.07     0.07  -0.03   0.05
 128   6     0.03   0.03  -0.01     0.02   0.08   0.09     0.10  -0.03   0.07
 129   6    -0.00   0.03  -0.00     0.00   0.06   0.11     0.09  -0.06   0.09
 130   1     0.00   0.01  -0.01    -0.00   0.02   0.04     0.06  -0.00   0.03
 131   1     0.02   0.01  -0.01     0.01   0.03   0.03     0.06   0.01   0.02
 132   1     0.03   0.01  -0.01     0.01   0.03   0.02     0.04   0.02   0.01
 133   1     0.03   0.01  -0.01     0.02   0.04   0.01     0.03   0.01   0.00
 134   1     0.02   0.01  -0.00     0.02   0.04   0.00     0.01   0.00  -0.00
 135   1     0.00   0.01   0.00     0.01   0.02   0.02     0.01  -0.02   0.01
 136   1    -0.01   0.01   0.00    -0.00   0.01   0.03     0.02  -0.03   0.03
 137   6     0.03   0.03   0.01     0.02   0.08   0.02     0.02  -0.05   0.00
 138   6     0.02   0.03   0.00     0.01   0.09  -0.01     0.02  -0.05  -0.02
 139   6     0.01   0.03   0.01    -0.01   0.07  -0.03     0.01  -0.06  -0.03
 140   6    -0.00   0.02   0.02    -0.00   0.04  -0.03     0.01  -0.07  -0.02
 141   7     0.01   0.02   0.03     0.01   0.03  -0.01     0.01  -0.08  -0.01
 142   6     0.02   0.02   0.02     0.03   0.05   0.01     0.01  -0.07   0.01
 143   1     0.01   0.01  -0.00     0.00   0.03  -0.00     0.01  -0.01  -0.01
 144   1     0.00   0.01   0.00    -0.01   0.02  -0.01     0.00  -0.02  -0.01
 145   1    -0.00   0.00   0.01    -0.00   0.01  -0.01     0.00  -0.02  -0.01
 146   1     0.01   0.01   0.01     0.01   0.01   0.01     0.00  -0.02   0.01
 147   6    -0.01   0.00   0.01     0.10  -0.03  -0.01    -0.08  -0.02   0.05
 148   6    -0.01   0.01   0.00     0.09  -0.04  -0.01    -0.07   0.00   0.01
 149   6    -0.00   0.01  -0.01     0.07  -0.06  -0.03    -0.05   0.04  -0.02
 150   6     0.01   0.03  -0.04     0.09  -0.08  -0.06    -0.03   0.08  -0.05
 151   6     0.01   0.03  -0.05     0.07  -0.10  -0.08    -0.00   0.11  -0.08
 152   6    -0.00   0.02  -0.03     0.03  -0.10  -0.08     0.01   0.12  -0.08
 153   6    -0.02   0.01  -0.01     0.01  -0.08  -0.05    -0.00   0.08  -0.06
 154   6    -0.03  -0.00   0.01    -0.04  -0.07  -0.05     0.02   0.09  -0.06
 155   6    -0.04  -0.01   0.03    -0.05  -0.05  -0.02     0.00   0.05  -0.04
 156   7    -0.05  -0.02   0.04    -0.04  -0.03  -0.00    -0.03   0.02  -0.02
 157   6    -0.03  -0.01   0.03     0.00  -0.03  -0.00    -0.05   0.02  -0.00
 158   6    -0.02   0.00   0.01     0.03  -0.06  -0.03    -0.03   0.04  -0.02
 159   1     0.01   0.01  -0.01     0.04  -0.02  -0.02    -0.01   0.02  -0.01
 160   1     0.01   0.01  -0.02     0.03  -0.03  -0.03     0.00   0.04  -0.03
 161   1     0.00   0.01  -0.01     0.00  -0.03  -0.03     0.01   0.04  -0.03
 162   1    -0.01  -0.00   0.00    -0.02  -0.03  -0.02     0.01   0.03  -0.03
 163   1    -0.02  -0.01   0.01    -0.02  -0.01  -0.01     0.01   0.02  -0.01
 164   1    -0.01  -0.00   0.01     0.00  -0.01   0.01    -0.02  -0.00   0.01
 165   6    -0.01  -0.00   0.00     0.09  -0.03  -0.02    -0.07  -0.02   0.06
 166   6    -0.02  -0.01  -0.01     0.09  -0.04  -0.03    -0.06  -0.00   0.08
 167   6    -0.03  -0.01  -0.01     0.08  -0.05  -0.04    -0.05   0.01   0.09
 168   6    -0.02  -0.01  -0.00     0.07  -0.06  -0.04    -0.04   0.01   0.09
 169   7    -0.02  -0.01  -0.00     0.07  -0.07  -0.05    -0.03   0.03   0.10
 170   6    -0.02  -0.00   0.01     0.06  -0.06  -0.04    -0.03   0.02   0.08
 171   6    -0.01  -0.00   0.01     0.04  -0.07  -0.04    -0.02   0.03   0.08
 172   6    -0.01  -0.00   0.01     0.04  -0.06  -0.03    -0.01   0.02   0.06
 173   6    -0.01   0.00   0.02     0.05  -0.05  -0.01    -0.02  -0.00   0.04
 174   6    -0.01   0.00   0.02     0.06  -0.04  -0.01    -0.04  -0.01   0.05
 175   6    -0.01   0.00   0.01     0.07  -0.05  -0.02    -0.04  -0.00   0.06
 176   6    -0.01  -0.00   0.01     0.08  -0.04  -0.02    -0.05  -0.01   0.07
 177   6    -0.01   0.00   0.01     0.09  -0.03  -0.01    -0.07  -0.02   0.06
 178   1    -0.01  -0.00  -0.00     0.03  -0.01  -0.01    -0.02  -0.00   0.03
 179   1    -0.01  -0.00  -0.01     0.02  -0.02  -0.01    -0.01   0.01   0.03
 180   1    -0.01  -0.00  -0.00     0.02  -0.02  -0.02    -0.01   0.01   0.03
 181   1    -0.01  -0.00   0.00     0.01  -0.02  -0.01    -0.00   0.01   0.02
 182   1    -0.00  -0.00   0.00     0.01  -0.02  -0.01    -0.00   0.01   0.02
 183   1    -0.00   0.00   0.01     0.02  -0.01  -0.00    -0.01  -0.01   0.01
 184   1    -0.00   0.00   0.01     0.03  -0.01  -0.00    -0.02  -0.01   0.01
 185   6    -0.01   0.00   0.02     0.04  -0.04  -0.00    -0.01  -0.01   0.03
 186   6    -0.02   0.00   0.01     0.04  -0.05   0.02     0.01  -0.01   0.02
 187   6    -0.02  -0.00   0.00     0.03  -0.04   0.03     0.02  -0.01   0.01
 188   6    -0.01  -0.00   0.01     0.02  -0.02   0.02     0.02  -0.03   0.01
 189   7     0.00  -0.01   0.02     0.03  -0.01   0.01     0.01  -0.05   0.02
 190   6     0.00  -0.00   0.02     0.04  -0.02  -0.00    -0.01  -0.04   0.03
 191   1    -0.01   0.00   0.00     0.01  -0.02   0.01     0.00   0.00   0.00
 192   1    -0.01  -0.00  -0.00     0.01  -0.01   0.01     0.01  -0.00  -0.00
 193   1    -0.00  -0.00   0.00     0.00  -0.00   0.01     0.01  -0.01   0.00
 194   1     0.00  -0.00   0.01     0.01  -0.00  -0.00    -0.01  -0.01   0.01
                     10                     11                     12
                        a                      a                      a 
 Frequencies --    23.7184                24.8143                27.6064
 Red. masses --    19.0518                12.8953                12.8958
 Frc consts  --     0.0000                 0.0000                 0.0000
 IR Inten    --     0.1432                 0.0510                 0.1054
 Raman Activ --     0.0000                 0.0000                 0.0000
 Depolar     --     0.0000                 0.0000                 0.0000
 Atom AN      X      Y      Z        X      Y      Z        X      Y      Z
   1  46    -0.00  -0.26   0.06     0.04   0.03  -0.05     0.01   0.04  -0.11
   2  46     0.01  -0.09  -0.03    -0.05  -0.08   0.04     0.06   0.00   0.01
   3   6     0.00   0.00  -0.03    -0.02  -0.04  -0.07    -0.05   0.07   0.09
   4   6    -0.03   0.02  -0.02    -0.02  -0.04  -0.06    -0.04   0.05   0.08
   5   6    -0.06   0.05  -0.01    -0.01  -0.02  -0.05    -0.01   0.01   0.05
   6   6    -0.12   0.09   0.03    -0.00   0.00  -0.06    -0.02  -0.00   0.06
   7   6    -0.15   0.12   0.06    -0.00   0.03  -0.04     0.02  -0.04   0.01
   8   6    -0.10   0.10   0.05    -0.01   0.03  -0.00     0.06  -0.07  -0.03
   9   6    -0.05   0.05   0.01    -0.02   0.01   0.01     0.05  -0.05  -0.04
  10   6    -0.00   0.02  -0.01    -0.03   0.02   0.05     0.09  -0.06  -0.08
  11   6     0.04  -0.02  -0.04    -0.04  -0.01   0.06     0.08  -0.04  -0.08
  12   7     0.04  -0.04  -0.06    -0.03  -0.04   0.03     0.05  -0.01  -0.03
  13   6     0.01  -0.02  -0.05    -0.02  -0.04  -0.00     0.01   0.01   0.01
  14   6    -0.03   0.02  -0.02    -0.02  -0.01  -0.01     0.02  -0.01   0.01
  15   1    -0.04   0.03   0.01     0.00  -0.00  -0.03    -0.01   0.00   0.03
  16   1    -0.06   0.05   0.03     0.00   0.01  -0.01     0.00  -0.02   0.01
  17   1    -0.03   0.03   0.02    -0.00   0.02   0.00     0.02  -0.03  -0.02
  18   1    -0.00   0.01   0.00    -0.01   0.01   0.02     0.03  -0.03  -0.03
  19   1     0.02  -0.01  -0.02    -0.01  -0.00   0.03     0.03  -0.01  -0.03
  20   1     0.00  -0.01  -0.02    -0.01  -0.02  -0.01    -0.00   0.01   0.01
  21   6     0.03   0.00  -0.03    -0.02  -0.04  -0.06    -0.05   0.06   0.08
  22   6     0.07   0.02  -0.01    -0.01  -0.02  -0.06    -0.07   0.03   0.08
  23   6     0.10   0.03   0.00     0.01  -0.01  -0.05    -0.06   0.01   0.08
  24   6     0.09   0.02  -0.01     0.01  -0.01  -0.04    -0.03   0.02   0.07
  25   7     0.11   0.03   0.00     0.04   0.01  -0.03    -0.01   0.01   0.06
  26   6     0.07   0.02  -0.01     0.03   0.01  -0.01     0.02   0.02   0.05
  27   6     0.06   0.02  -0.01     0.05   0.02   0.00     0.04   0.02   0.03
  28   6     0.02  -0.00  -0.03     0.05   0.02   0.01     0.04   0.03   0.02
  29   6    -0.02  -0.02  -0.04     0.03   0.00  -0.00     0.03   0.05   0.01
  30   6    -0.01  -0.02  -0.05     0.01  -0.01  -0.02     0.03   0.06   0.03
  31   6     0.03  -0.00  -0.03     0.01  -0.01  -0.03     0.02   0.05   0.05
  32   6     0.04   0.00  -0.03     0.00  -0.02  -0.04    -0.01   0.05   0.07
  33   6     0.02  -0.01  -0.04    -0.02  -0.03  -0.05    -0.01   0.07   0.08
  34   1     0.02   0.01  -0.00    -0.00  -0.01  -0.02    -0.03   0.01   0.03
  35   1     0.04   0.01   0.01     0.01  -0.00  -0.01    -0.02  -0.00   0.02
  36   1     0.04   0.01   0.01     0.01   0.01  -0.00    -0.01  -0.00   0.02
  37   1     0.03   0.01   0.00     0.02   0.01   0.00     0.01  -0.00   0.01
  38   1     0.00  -0.00  -0.01     0.02   0.01   0.01     0.02   0.01   0.00
  39   1    -0.01  -0.01  -0.02    -0.00  -0.01  -0.01     0.01   0.02   0.01
  40   1    -0.01  -0.01  -0.02    -0.01  -0.01  -0.02     0.00   0.03   0.02
  41   6    -0.05  -0.04  -0.05     0.04   0.00   0.00     0.01   0.05  -0.02
  42   6    -0.10  -0.03  -0.07     0.06   0.00   0.03    -0.00   0.05  -0.03
  43   6    -0.13  -0.05  -0.06     0.06   0.01   0.02    -0.03   0.04  -0.06
  44   6    -0.10  -0.07  -0.04     0.04   0.01   0.00    -0.04   0.04  -0.06
  45   7    -0.05  -0.08  -0.02     0.02   0.00  -0.02    -0.02   0.04  -0.06
  46   6    -0.03  -0.06  -0.03     0.02   0.00  -0.01    -0.00   0.05  -0.03
  47   1    -0.04  -0.00  -0.03     0.02   0.00   0.01    -0.00   0.02  -0.01
  48   1    -0.05  -0.01  -0.02     0.02   0.00   0.01    -0.01   0.01  -0.02
  49   1    -0.03  -0.03  -0.01     0.01   0.00  -0.00    -0.01   0.01  -0.02
  50   1     0.00  -0.02  -0.01     0.00   0.00  -0.01     0.00   0.01  -0.01
  51   6     0.03   0.01   0.03     0.02  -0.01  -0.05    -0.11   0.08   0.06
  52   6     0.04   0.01   0.06     0.02   0.00  -0.03    -0.10   0.06   0.03
  53   6     0.03   0.02   0.06     0.01   0.02  -0.01    -0.06   0.01   0.01
  54   6     0.02   0.07   0.09    -0.00   0.04   0.01    -0.07  -0.02   0.01
  55   6     0.01   0.08   0.08    -0.02   0.06   0.03    -0.02  -0.07  -0.03
  56   6     0.01   0.05   0.03    -0.03   0.06   0.04     0.03  -0.10  -0.07
  57   6     0.02   0.01   0.01    -0.02   0.05   0.02     0.04  -0.07  -0.07
  58   6     0.02  -0.03  -0.03    -0.02   0.05   0.03     0.09  -0.09  -0.11
  59   6     0.03  -0.06  -0.05    -0.01   0.03   0.01     0.09  -0.06  -0.10
  60   7     0.04  -0.07  -0.02     0.01   0.02  -0.02     0.03  -0.01  -0.06
  61   6     0.04  -0.04   0.01     0.02   0.01  -0.02    -0.01   0.01  -0.03
  62   6     0.03  -0.01   0.02     0.00   0.03  -0.00    -0.01  -0.02  -0.03
  63   1     0.01   0.03   0.03     0.00   0.01   0.00    -0.03   0.00   0.01
  64   1    -0.00   0.03   0.03    -0.01   0.02   0.01    -0.01  -0.03  -0.01
  65   1     0.00   0.02   0.01    -0.01   0.02   0.02     0.02  -0.04  -0.03
  66   1     0.00  -0.01  -0.02    -0.01   0.02   0.01     0.04  -0.04  -0.04
  67   1     0.01  -0.02  -0.02    -0.00   0.01   0.00     0.04  -0.02  -0.04
  68   1     0.01  -0.02   0.01     0.01  -0.00  -0.01    -0.01   0.01   0.00
  69   6     0.03   0.02  -0.01     0.02  -0.01  -0.05    -0.10   0.07   0.06
  70   6    -0.00   0.03  -0.07     0.02   0.01  -0.08    -0.10   0.04   0.10
  71   6    -0.02   0.03  -0.10     0.02   0.01  -0.06    -0.09   0.02   0.09
  72   6     0.00   0.02  -0.09     0.03  -0.00  -0.02    -0.08   0.03   0.04
  73   7    -0.00   0.02  -0.12     0.04  -0.01   0.01    -0.08   0.02   0.02
  74   6     0.02   0.01  -0.07     0.04  -0.02   0.04    -0.07   0.03  -0.02
  75   6     0.03   0.01  -0.07     0.05  -0.02   0.07    -0.05   0.02  -0.04
  76   6     0.05   0.00  -0.03     0.04  -0.03   0.08    -0.03   0.04  -0.05
  77   6     0.07  -0.00   0.01     0.04  -0.03   0.06    -0.03   0.06  -0.04
  78   6     0.06   0.00   0.01     0.04  -0.03   0.04    -0.05   0.07  -0.04
  79   6     0.04   0.01  -0.03     0.04  -0.02   0.03    -0.07   0.06  -0.02
  80   6     0.03   0.01  -0.03     0.03  -0.02  -0.00    -0.08   0.06   0.01
  81   6     0.04   0.01   0.01     0.03  -0.02  -0.01    -0.09   0.08   0.02
  82   1    -0.00   0.01  -0.02     0.00   0.00  -0.03    -0.03   0.01   0.04
  83   1    -0.01   0.01  -0.04     0.00   0.01  -0.02    -0.02  -0.00   0.04
  84   1    -0.01   0.01  -0.04     0.01   0.00   0.00    -0.02  -0.00   0.01
  85   1     0.00   0.00  -0.03     0.01  -0.01   0.02    -0.02   0.00  -0.01
  86   1     0.02  -0.00  -0.01     0.01  -0.01   0.03    -0.01   0.01  -0.02
  87   1     0.02  -0.00   0.01     0.01  -0.01   0.01    -0.01   0.03  -0.01
  88   1     0.02   0.00   0.01     0.01  -0.01   0.00    -0.03   0.03  -0.00
  89   6     0.08  -0.01   0.04     0.02  -0.03   0.05     0.00   0.06  -0.02
  90   6     0.09  -0.00   0.06     0.02  -0.03   0.04     0.02   0.07   0.01
  91   6     0.10  -0.01   0.08    -0.00  -0.03   0.02     0.05   0.07   0.04
  92   6     0.08  -0.02   0.06    -0.03  -0.03  -0.01     0.06   0.06   0.05
  93   7     0.07  -0.03   0.04    -0.03  -0.03   0.00     0.05   0.05   0.02
  94   6     0.07  -0.02   0.03    -0.01  -0.03   0.03     0.02   0.05  -0.01
  95   1     0.03   0.00   0.02     0.01  -0.01   0.02     0.00   0.02  -0.00
  96   1     0.03  -0.00   0.03    -0.00  -0.01   0.00     0.02   0.02   0.02
  97   1     0.02  -0.01   0.02    -0.02  -0.01  -0.01     0.02   0.01   0.02
  98   1     0.02  -0.01   0.00    -0.00  -0.01   0.01     0.00   0.01  -0.01
  99   6    -0.05   0.03   0.01    -0.03   0.01  -0.00     0.04  -0.01  -0.01
 100   6    -0.07   0.03   0.02    -0.02   0.03  -0.02     0.05  -0.02  -0.00
 101   6    -0.08   0.03   0.01    -0.03   0.05  -0.03     0.07  -0.04   0.01
 102   6    -0.12   0.08  -0.01    -0.05   0.08  -0.04     0.09  -0.06   0.02
 103   6    -0.10   0.09  -0.02    -0.06   0.09  -0.06     0.11  -0.08   0.04
 104   6    -0.05   0.05   0.00    -0.05   0.09  -0.06     0.11  -0.08   0.04
 105   6    -0.02   0.00   0.02    -0.03   0.06  -0.05     0.09  -0.06   0.03
 106   6     0.03  -0.04   0.04    -0.02   0.06  -0.05     0.08  -0.05   0.03
 107   6     0.06  -0.07   0.05    -0.00   0.03  -0.04     0.06  -0.03   0.01
 108   7     0.04  -0.09   0.06     0.01   0.02  -0.02     0.04  -0.01  -0.01
 109   6    -0.00  -0.05   0.05     0.00   0.02  -0.02     0.04  -0.02  -0.01
 110   6    -0.03  -0.01   0.03    -0.02   0.04  -0.03     0.06  -0.04   0.01
 111   1    -0.04   0.03  -0.01    -0.02   0.02  -0.01     0.03  -0.02   0.01
 112   1    -0.04   0.04  -0.01    -0.02   0.03  -0.02     0.04  -0.03   0.01
 113   1    -0.01   0.02  -0.00    -0.02   0.03  -0.02     0.04  -0.03   0.02
 114   1     0.01  -0.01   0.01    -0.01   0.02  -0.02     0.03  -0.02   0.01
 115   1     0.03  -0.03   0.02     0.00   0.01  -0.01     0.01  -0.01   0.00
 116   1    -0.00  -0.02   0.02     0.00   0.00  -0.00     0.01  -0.00  -0.01
 117   6    -0.01   0.04  -0.00    -0.03   0.01   0.00     0.03  -0.00  -0.01
 118   6     0.03   0.05  -0.03    -0.08  -0.00   0.03     0.02  -0.01  -0.00
 119   6     0.07   0.05  -0.04    -0.07   0.01   0.02     0.02  -0.00  -0.01
 120   6     0.07   0.05  -0.03    -0.01   0.03  -0.02     0.05   0.01  -0.02
 121   7     0.11   0.06  -0.04     0.03   0.06  -0.04     0.06   0.02  -0.03
 122   6     0.07   0.04  -0.01     0.08   0.08  -0.07     0.07   0.02  -0.04
 123   6     0.08   0.04  -0.01     0.14   0.10  -0.11     0.09   0.03  -0.05
 124   6     0.04   0.03   0.02     0.16   0.11  -0.13     0.09   0.03  -0.05
 125   6     0.00   0.03   0.04     0.12   0.08  -0.11     0.07   0.02  -0.04
 126   6     0.00   0.03   0.03     0.09   0.06  -0.09     0.07   0.02  -0.04
 127   6     0.03   0.04   0.01     0.07   0.06  -0.07     0.07   0.02  -0.04
 128   6     0.03   0.04  -0.00     0.03   0.04  -0.04     0.05   0.01  -0.03
 129   6    -0.01   0.04   0.01     0.02   0.03  -0.03     0.05   0.00  -0.02
 130   1     0.01   0.01  -0.01    -0.04  -0.01   0.02     0.00  -0.00   0.00
 131   1     0.03   0.02  -0.02    -0.03  -0.00   0.01     0.00  -0.00   0.00
 132   1     0.04   0.02  -0.01     0.01   0.02  -0.01     0.02   0.00  -0.01
 133   1     0.03   0.01  -0.01     0.04   0.03  -0.03     0.03   0.01  -0.02
 134   1     0.01   0.01   0.01     0.06   0.04  -0.04     0.03   0.01  -0.02
 135   1    -0.01   0.01   0.01     0.02   0.01  -0.02     0.02   0.00  -0.01
 136   1    -0.01   0.01   0.01     0.01   0.01  -0.01     0.02   0.00  -0.01
 137   6    -0.03   0.02   0.06     0.10   0.07  -0.11     0.05   0.01  -0.03
 138   6    -0.07   0.03   0.08     0.10   0.08  -0.18     0.04   0.02  -0.03
 139   6    -0.09   0.02   0.09     0.06   0.06  -0.17     0.01   0.01   0.01
 140   6    -0.08  -0.00   0.07     0.01   0.03  -0.09    -0.01   0.01   0.04
 141   7    -0.05  -0.01   0.05     0.01   0.01  -0.03     0.01   0.00   0.03
 142   6    -0.02  -0.00   0.05     0.05   0.03  -0.04     0.03   0.01  -0.00
 143   1    -0.02   0.01   0.02     0.04   0.03  -0.07     0.02   0.01  -0.01
 144   1    -0.04   0.01   0.03     0.02   0.02  -0.06    -0.00   0.00   0.00
 145   1    -0.03  -0.00   0.02    -0.01   0.00  -0.02    -0.01   0.00   0.02
 146   1     0.00  -0.00   0.01     0.01   0.01   0.00     0.01   0.00  -0.00
 147   6    -0.02   0.02  -0.03    -0.07  -0.06   0.10    -0.00  -0.01   0.03
 148   6    -0.02   0.02  -0.04    -0.07  -0.07   0.09    -0.01  -0.02   0.02
 149   6    -0.02   0.02  -0.04    -0.07  -0.07   0.10    -0.02  -0.04   0.03
 150   6     0.00   0.06  -0.07    -0.10  -0.10   0.14    -0.03  -0.07   0.05
 151   6     0.00   0.07  -0.05    -0.10  -0.10   0.15    -0.06  -0.10   0.07
 152   6    -0.01   0.02   0.00    -0.08  -0.08   0.13    -0.07  -0.10   0.08
 153   6    -0.02  -0.02   0.03    -0.05  -0.05   0.08    -0.06  -0.07   0.06
 154   6    -0.03  -0.06   0.08    -0.02  -0.03   0.05    -0.07  -0.06   0.05
 155   6    -0.03  -0.09   0.09     0.00   0.00   0.00    -0.05  -0.03   0.02
 156   7    -0.04  -0.09   0.06     0.01   0.01  -0.01    -0.03   0.01  -0.00
 157   6    -0.03  -0.06   0.02    -0.02  -0.02   0.03    -0.01   0.00  -0.00
 158   6    -0.03  -0.02   0.01    -0.05  -0.05   0.07    -0.03  -0.03   0.03
 159   1     0.00   0.03  -0.03    -0.03  -0.03   0.05    -0.01  -0.02   0.01
 160   1     0.01   0.03  -0.02    -0.03  -0.04   0.05    -0.02  -0.03   0.03
 161   1    -0.00   0.01   0.01    -0.02  -0.02   0.04    -0.03  -0.04   0.03
 162   1    -0.01  -0.02   0.03    -0.01  -0.01   0.02    -0.03  -0.03   0.02
 163   1    -0.01  -0.03   0.03     0.01   0.01  -0.01    -0.02  -0.01   0.01
 164   1    -0.01  -0.02   0.00    -0.00  -0.00   0.00     0.00   0.01  -0.01
 165   6    -0.00   0.02  -0.01    -0.06  -0.05   0.10     0.00  -0.01   0.03
 166   6     0.02   0.03   0.02    -0.05  -0.02   0.13     0.03   0.01   0.07
 167   6     0.04   0.04   0.04    -0.04  -0.01   0.12     0.03   0.01   0.07
 168   6     0.03   0.03   0.04    -0.04  -0.01   0.09     0.01  -0.01   0.04
 169   7     0.04   0.04   0.07    -0.04  -0.00   0.09    -0.00  -0.01   0.04
 170   6     0.02   0.03   0.05    -0.04  -0.02   0.05    -0.03  -0.03   0.00
 171   6     0.02   0.03   0.05    -0.04  -0.01   0.03    -0.05  -0.04  -0.02
 172   6    -0.01   0.01   0.02    -0.03  -0.03   0.02    -0.07  -0.05  -0.05
 173   6    -0.04   0.01  -0.01    -0.03  -0.04   0.02    -0.07  -0.05  -0.05
 174   6    -0.03   0.01  -0.01    -0.04  -0.05   0.03    -0.06  -0.04  -0.03
 175   6    -0.01   0.02   0.01    -0.04  -0.04   0.05    -0.04  -0.03  -0.01
 176   6    -0.00   0.02   0.01    -0.05  -0.04   0.07    -0.02  -0.02   0.01
 177   6    -0.02   0.02  -0.02    -0.06  -0.06   0.08    -0.02  -0.02   0.01
 178   1     0.01   0.01   0.00    -0.01  -0.01   0.04     0.01   0.01   0.02
 179   1     0.02   0.01   0.02    -0.01   0.00   0.04     0.01   0.00   0.03
 180   1     0.02   0.01   0.03    -0.01   0.00   0.03     0.00  -0.00   0.01
 181   1     0.01   0.01   0.02    -0.01   0.00   0.01    -0.01  -0.01  -0.00
 182   1    -0.01   0.00   0.01    -0.01  -0.01   0.00    -0.03  -0.02  -0.02
 183   1    -0.01   0.00  -0.01    -0.01  -0.02   0.01    -0.02  -0.01  -0.01
 184   1    -0.01   0.00  -0.01    -0.02  -0.02   0.02    -0.01  -0.01  -0.00
 185   6    -0.06  -0.00  -0.04    -0.01  -0.05   0.02    -0.08  -0.05  -0.05
 186   6    -0.10   0.00  -0.07    -0.00  -0.05   0.02    -0.14  -0.05  -0.08
 187   6    -0.12  -0.01  -0.10     0.01  -0.04   0.03    -0.14  -0.05  -0.08
 188   6    -0.09  -0.02  -0.09     0.01  -0.04   0.03    -0.08  -0.05  -0.05
 189   7    -0.07  -0.03  -0.06     0.00  -0.05   0.03    -0.02  -0.05  -0.03
 190   6    -0.05  -0.02  -0.03    -0.01  -0.05   0.02    -0.02  -0.04  -0.03
 191   1    -0.03   0.01  -0.02    -0.00  -0.01   0.01    -0.05  -0.02  -0.03
 192   1    -0.04  -0.00  -0.04     0.00  -0.01   0.01    -0.05  -0.02  -0.03
 193   1    -0.03  -0.01  -0.03     0.00  -0.01   0.01    -0.02  -0.01  -0.02
 194   1    -0.01  -0.01  -0.00    -0.00  -0.01   0.00     0.01  -0.01  -0.00
                     13                     14                     15
                        a                      a                      a 
 Frequencies --    30.6797                33.2927                35.4602
 Red. masses --    15.0973                15.1758                13.0135
 Frc consts  --     0.0000                 0.0000                 0.0000
 IR Inten    --     0.0335                 0.1565                 0.1296
 Raman Activ --     0.0000                 0.0000                 0.0000
 Depolar     --     0.0000                 0.0000                 0.0000
 Atom AN      X      Y      Z        X      Y      Z        X      Y      Z
   1  46     0.10   0.10   0.02     0.01   0.02   0.09    -0.02  -0.04  -0.05
   2  46    -0.13  -0.06   0.01     0.05  -0.04  -0.17     0.10  -0.02   0.07
   3   6    -0.13   0.04   0.02    -0.02   0.01  -0.00    -0.05   0.01   0.00
   4   6    -0.11   0.02   0.02    -0.03   0.01  -0.00    -0.03   0.01   0.00
   5   6    -0.06  -0.00  -0.01    -0.03   0.00  -0.01    -0.01   0.02   0.01
   6   6    -0.02  -0.03  -0.04    -0.05   0.00   0.01    -0.01   0.04   0.00
   7   6     0.04  -0.06  -0.08    -0.05  -0.00  -0.00     0.02   0.04  -0.00
   8   6     0.07  -0.07  -0.09    -0.03  -0.02  -0.02     0.05   0.02   0.00
   9   6     0.02  -0.05  -0.06    -0.01  -0.02  -0.04     0.05   0.00   0.01
  10   6     0.04  -0.06  -0.07     0.01  -0.03  -0.06     0.07  -0.01   0.01
  11   6     0.00  -0.04  -0.04     0.02  -0.03  -0.07     0.07  -0.03   0.02
  12   7    -0.05  -0.02   0.00     0.02  -0.03  -0.06     0.05  -0.04   0.02
  13   6    -0.07  -0.00   0.02     0.00  -0.02  -0.04     0.02  -0.02   0.01
  14   6    -0.04  -0.02  -0.01    -0.01  -0.01  -0.03     0.02  -0.00   0.01
  15   1    -0.01  -0.00  -0.01    -0.02   0.00   0.01    -0.01   0.01   0.00
  16   1     0.02  -0.02  -0.03    -0.02   0.00   0.00     0.00   0.02  -0.00
  17   1     0.03  -0.03  -0.04    -0.01  -0.01  -0.01     0.02   0.01  -0.00
  18   1     0.02  -0.02  -0.03     0.00  -0.01  -0.02     0.03  -0.00   0.00
  19   1     0.00  -0.01  -0.02     0.01  -0.01  -0.02     0.02  -0.01   0.01
[...]
 142   6     0.00   0.00   0.00    -0.00  -0.00  -0.00     0.00  -0.00   0.00
 143   1    -0.05  -0.01  -0.03    -0.02  -0.00  -0.01    -0.00  -0.00  -0.00
 144   1    -0.04  -0.10  -0.02    -0.01  -0.03  -0.01    -0.00  -0.00   0.00
 145   1     0.00  -0.00   0.00     0.00  -0.00   0.00    -0.00  -0.00   0.00
 146   1    -0.00  -0.00  -0.00     0.00  -0.00   0.00    -0.00   0.00   0.00
 147   6     0.00   0.00  -0.00    -0.00   0.00   0.00    -0.00   0.00   0.00
 148   6     0.00  -0.00  -0.00    -0.00  -0.00   0.00     0.00  -0.00  -0.00
 149   6     0.00  -0.00  -0.00     0.00  -0.00  -0.00    -0.00   0.00   0.00
 150   6    -0.00  -0.00  -0.00    -0.00  -0.00  -0.00     0.00   0.00   0.00
 151   6    -0.00  -0.00  -0.00    -0.00  -0.00  -0.00     0.00   0.00   0.00
 152   6    -0.00   0.00   0.00    -0.00   0.00   0.00    -0.00  -0.00  -0.00
 153   6    -0.00   0.00   0.00    -0.00   0.00   0.00     0.00  -0.00   0.00
 154   6    -0.00   0.00   0.00    -0.00   0.00   0.00    -0.00   0.00  -0.00
 155   6    -0.00  -0.00  -0.00     0.00   0.00   0.00    -0.00  -0.00  -0.00
 156   7    -0.00  -0.00  -0.00     0.00   0.00   0.00    -0.00  -0.00  -0.00
 157   6     0.00  -0.00   0.00     0.00  -0.00  -0.00     0.00   0.00   0.00
 158   6    -0.00   0.00  -0.00     0.00  -0.00   0.00    -0.00  -0.00  -0.00
 159   1     0.00   0.00   0.00     0.00   0.00   0.00    -0.00  -0.00  -0.00
 160   1     0.00   0.00   0.00     0.00   0.00   0.00    -0.00  -0.00  -0.00
 161   1     0.00  -0.00  -0.00     0.00  -0.00  -0.00    -0.00   0.00  -0.00
 162   1     0.00  -0.00  -0.00     0.00  -0.00  -0.00    -0.00   0.00   0.00
 163   1     0.00   0.00   0.00    -0.00  -0.00  -0.00    -0.00   0.00   0.00
 164   1    -0.00   0.00  -0.00    -0.00   0.00  -0.00    -0.00   0.00  -0.00
 165   6    -0.00   0.00   0.00     0.00  -0.00  -0.00     0.00   0.00  -0.00
 166   6     0.00  -0.00   0.00    -0.00   0.00  -0.00    -0.00  -0.00   0.00
 167   6    -0.00  -0.00   0.00     0.00   0.00  -0.00    -0.00  -0.00   0.00
 168   6    -0.00   0.00   0.00     0.00  -0.00  -0.00    -0.00  -0.00   0.00
 169   7    -0.00  -0.00   0.00    -0.00  -0.00   0.00    -0.00  -0.00   0.00
 170   6     0.00  -0.00  -0.00     0.00  -0.00  -0.00    -0.00  -0.00   0.00
 171   6    -0.00  -0.00   0.00    -0.00  -0.00   0.00    -0.00   0.00   0.00
 172   6    -0.01   0.02   0.00    -0.00   0.00   0.00    -0.00   0.00   0.00
 173   6    -0.00   0.00   0.00    -0.00   0.00   0.00     0.00   0.00  -0.00
 174   6    -0.01   0.00   0.01    -0.00   0.00   0.00     0.00  -0.00  -0.00
 175   6    -0.00   0.00   0.00    -0.00  -0.00   0.00     0.00   0.00  -0.00
 176   6    -0.00  -0.00   0.00    -0.00   0.00  -0.00     0.00  -0.00  -0.00
 177   6    -0.00  -0.00   0.00     0.00   0.00  -0.00     0.00   0.00  -0.00
 178   1    -0.00   0.00  -0.00     0.00  -0.00   0.00    -0.00   0.00  -0.00
 179   1     0.00   0.00  -0.00    -0.00  -0.00   0.00     0.00   0.00  -0.00
 180   1    -0.00  -0.00   0.00     0.00   0.00  -0.00     0.00   0.00  -0.00
 181   1     0.01  -0.00  -0.01     0.00  -0.00  -0.00     0.00  -0.00  -0.00
 182   1     0.04  -0.06  -0.00     0.01  -0.01  -0.00     0.00  -0.00  -0.00
 183   1     0.05   0.00  -0.04     0.00   0.00  -0.00    -0.00  -0.00   0.00
 184   1     0.01   0.01  -0.01    -0.00  -0.00   0.00    -0.00  -0.00   0.00
 185   6    -0.00  -0.00   0.00    -0.00  -0.00   0.00     0.00  -0.00  -0.00
 186   6    -0.06   0.01   0.14    -0.01   0.00   0.03    -0.00   0.00   0.00
 187   6    -0.06   0.20   0.08    -0.01   0.04   0.01    -0.00  -0.00  -0.00
 188   6     0.00   0.01  -0.01     0.00   0.00  -0.00    -0.00   0.00   0.00
 189   7     0.00  -0.00  -0.00     0.00  -0.00  -0.00     0.00   0.00  -0.00
 190   6     0.00   0.00  -0.00     0.00   0.00  -0.00     0.00  -0.00   0.00
 191   1     0.22  -0.03  -0.48     0.04  -0.01  -0.09     0.00  -0.00  -0.00
 192   1     0.20  -0.68  -0.28     0.04  -0.12  -0.05     0.00  -0.00  -0.00
 193   1    -0.00  -0.02   0.01    -0.00  -0.00   0.00     0.00   0.00  -0.00
 194   1     0.00  -0.00  -0.00     0.00  -0.00  -0.00     0.00  -0.00  -0.00
                    574                    575                    576
                        a                      a                      a 
 Frequencies --  3474.9082              3475.1928              3477.6604
 Red. masses --     1.8703                 1.8703                 1.8666
 Frc consts  --     0.0000                 0.0000                 0.0000
 IR Inten    --     0.5878                 0.2559                 0.7376
 Raman Activ --     0.0000                 0.0000                 0.0000
 Depolar     --     0.0000                 0.0000                 0.0000
 Atom AN      X      Y      Z        X      Y      Z        X      Y      Z
   1  46     0.00   0.00   0.00    -0.00  -0.00   0.00     0.00  -0.00  -0.00
   2  46     0.00   0.00   0.00     0.00  -0.00  -0.00     0.00   0.00  -0.00
   3   6     0.00  -0.00   0.00    -0.00  -0.00   0.00     0.00   0.00  -0.00
   4   6     0.00   0.00  -0.00     0.00   0.00  -0.00    -0.00  -0.00   0.00
   5   6     0.00   0.00  -0.00    -0.00  -0.00   0.00    -0.00   0.00  -0.00
   6   6     0.00   0.00  -0.00     0.00   0.00  -0.00    -0.00  -0.00   0.00
   7   6     0.00   0.00   0.00     0.00  -0.00   0.00    -0.00   0.00  -0.00
   8   6    -0.00  -0.00   0.00     0.00   0.00   0.00    -0.00  -0.00  -0.00
   9   6     0.00  -0.00   0.00    -0.00   0.00  -0.00     0.00   0.00   0.00
  10   6    -0.00  -0.00  -0.00     0.00   0.00   0.00    -0.00   0.00  -0.00
  11   6    -0.00  -0.00   0.00    -0.00   0.00  -0.00     0.00   0.00   0.00
  12   7    -0.00  -0.00  -0.00     0.00   0.00   0.00    -0.00  -0.00  -0.00
  13   6     0.00   0.00  -0.00    -0.00  -0.00  -0.00     0.00  -0.00   0.00
  14   6    -0.00  -0.00  -0.00     0.00   0.00   0.00    -0.00  -0.00  -0.00
  15   1    -0.00  -0.00   0.00    -0.00  -0.00   0.00     0.00   0.00  -0.00
  16   1    -0.00  -0.00  -0.00    -0.00  -0.00  -0.00     0.00   0.00   0.00
  17   1    -0.00   0.00  -0.00    -0.00   0.00  -0.00     0.00  -0.00   0.00
  18   1    -0.00   0.00  -0.00    -0.00  -0.00   0.00     0.00  -0.00   0.00
  19   1     0.00   0.00  -0.00     0.00   0.00   0.00    -0.00  -0.00   0.00
  20   1    -0.00   0.00  -0.00    -0.00  -0.00  -0.00    -0.00   0.00  -0.00
  21   6     0.00  -0.00  -0.00     0.00  -0.00  -0.00    -0.00   0.00   0.00
  22   6    -0.00  -0.00   0.00    -0.00  -0.00   0.00     0.00   0.00  -0.00
  23   6     0.00   0.00  -0.00     0.00   0.00  -0.00     0.00  -0.00   0.00
  24   6    -0.00   0.00   0.00    -0.00   0.00   0.00     0.00  -0.00  -0.00
  25   7    -0.00   0.00   0.00    -0.08   0.02   0.11     0.13  -0.04  -0.17
  26   6    -0.00  -0.00   0.00    -0.00  -0.00   0.00     0.00   0.00  -0.00
  27   6     0.00  -0.00  -0.00     0.00  -0.00  -0.00    -0.00   0.00  -0.00
  28   6    -0.00   0.00   0.00    -0.00   0.00   0.00     0.00  -0.00  -0.00
  29   6     0.00  -0.00  -0.00     0.00  -0.00  -0.00    -0.00   0.00   0.00
  30   6    -0.00  -0.00   0.00     0.00  -0.00   0.00     0.00   0.00  -0.00
  31   6     0.00   0.00  -0.00     0.00   0.00  -0.00    -0.00  -0.00   0.00
  32   6     0.00  -0.00  -0.00     0.00  -0.00  -0.00    -0.00   0.00   0.00
  33   6    -0.00   0.00   0.00    -0.00   0.00   0.00     0.00  -0.00  -0.00
  34   1    -0.00   0.00  -0.00    -0.00   0.00  -0.00     0.00  -0.00   0.00
  35   1    -0.00   0.00   0.00     0.00  -0.00   0.00    -0.00   0.00   0.00
  36   1     0.01  -0.00  -0.01     0.30  -0.09  -0.40    -0.49   0.15   0.64
  37   1    -0.00   0.00   0.00    -0.00   0.00   0.00    -0.00  -0.00   0.00
  38   1     0.00  -0.00   0.00     0.00  -0.00   0.00    -0.00   0.00  -0.00
  39   1     0.00   0.00  -0.00    -0.00   0.00  -0.00    -0.00  -0.00   0.00
  40   1     0.00  -0.00  -0.00     0.00  -0.00   0.00    -0.00   0.00   0.00
  41   6    -0.00   0.00   0.00    -0.00   0.00   0.00     0.00  -0.00  -0.00
  42   6     0.00   0.00  -0.00     0.00  -0.00   0.00    -0.00   0.00   0.00
  43   6    -0.00  -0.00   0.00    -0.00   0.00   0.00     0.00  -0.00  -0.00
  44   6    -0.00   0.00   0.00     0.00  -0.00  -0.00    -0.00   0.00   0.00
  45   7    -0.00  -0.00   0.00    -0.00   0.00  -0.00     0.00  -0.00   0.00
  46   6     0.00  -0.00  -0.00     0.00  -0.00  -0.00    -0.00   0.00   0.00
  47   1    -0.00  -0.00   0.00     0.00   0.00  -0.00    -0.00  -0.00  -0.00
  48   1    -0.00  -0.00   0.00     0.00   0.00  -0.00    -0.00  -0.00   0.00
  49   1     0.00  -0.00   0.00    -0.00   0.00   0.00     0.00  -0.00  -0.00
  50   1     0.00   0.00   0.00    -0.00  -0.00  -0.00     0.00  -0.00   0.00
  51   6     0.00   0.00  -0.00    -0.00  -0.00   0.00     0.00   0.00  -0.00
  52   6    -0.00  -0.00   0.00     0.00   0.00  -0.00    -0.00  -0.00  -0.00
  53   6    -0.00  -0.00   0.00    -0.00  -0.00  -0.00     0.00   0.00  -0.00
  54   6    -0.00  -0.00   0.00     0.00  -0.00   0.00    -0.00   0.00  -0.00
  55   6     0.00  -0.00   0.00     0.00  -0.00   0.00    -0.00   0.00  -0.00
  56   6     0.00   0.00  -0.00     0.00   0.00  -0.00     0.00  -0.00   0.00
  57   6     0.00   0.00   0.00     0.00   0.00   0.00    -0.00  -0.00  -0.00
  58   6    -0.00  -0.00  -0.00    -0.00   0.00  -0.00     0.00  -0.00   0.00
  59   6     0.00   0.00  -0.00     0.00   0.00   0.00    -0.00  -0.00   0.00
  60   7    -0.00   0.00  -0.00     0.00  -0.00   0.00     0.00  -0.00   0.00
  61   6     0.00  -0.00   0.00    -0.00  -0.00   0.00    -0.00   0.00  -0.00
  62   6    -0.00   0.00  -0.00    -0.00  -0.00  -0.00     0.00  -0.00   0.00
  63   1    -0.00   0.00  -0.00    -0.00   0.00  -0.00     0.00  -0.00   0.00
  64   1    -0.00   0.00  -0.00    -0.00   0.00  -0.00     0.00  -0.00   0.00
  65   1    -0.00  -0.00  -0.00    -0.00  -0.00   0.00     0.00   0.00  -0.00
  66   1    -0.00  -0.00  -0.00    -0.00  -0.00   0.00     0.00   0.00  -0.00
  67   1    -0.00  -0.00   0.00    -0.00   0.00   0.00     0.00   0.00  -0.00
  68   1    -0.00  -0.00  -0.00     0.00   0.00  -0.00     0.00  -0.00   0.00
  69   6    -0.00  -0.00   0.00     0.00   0.00  -0.00    -0.00  -0.00   0.00
  70   6     0.00   0.00  -0.00    -0.00  -0.00  -0.00     0.00  -0.00  -0.00
  71   6    -0.00   0.00   0.00     0.00   0.00  -0.00     0.00  -0.00  -0.00
  72   6     0.00  -0.00  -0.00    -0.00   0.00   0.00     0.00   0.00  -0.00
  73   7     0.00  -0.00  -0.00    -0.00   0.00   0.00    -0.00   0.00   0.00
  74   6     0.00   0.00  -0.00    -0.00  -0.00  -0.00     0.00  -0.00  -0.00
  75   6    -0.00   0.00   0.00     0.00   0.00  -0.00     0.00   0.00  -0.00
  76   6    -0.00  -0.00  -0.00     0.00   0.00  -0.00     0.00   0.00  -0.00
  77   6    -0.00   0.00   0.00     0.00   0.00   0.00    -0.00   0.00   0.00
  78   6     0.00   0.00  -0.00    -0.00  -0.00   0.00    -0.00  -0.00   0.00
  79   6    -0.00  -0.00   0.00     0.00   0.00  -0.00     0.00   0.00   0.00
  80   6    -0.00   0.00   0.00     0.00  -0.00  -0.00    -0.00  -0.00  -0.00
  81   6     0.00  -0.00  -0.00    -0.00   0.00   0.00    -0.00   0.00   0.00
  82   1    -0.00  -0.00  -0.00    -0.00   0.00   0.00     0.00   0.00   0.00
  83   1     0.00  -0.00  -0.00    -0.00   0.00   0.00    -0.00   0.00   0.00
  84   1    -0.01   0.00   0.00     0.00  -0.00  -0.00     0.00  -0.00  -0.00
  85   1     0.00  -0.00  -0.00    -0.00  -0.00   0.00    -0.00   0.00   0.00
  86   1     0.00   0.00   0.00    -0.00  -0.00  -0.00    -0.00  -0.00  -0.00
  87   1    -0.00   0.00   0.00     0.00  -0.00  -0.00     0.00  -0.00  -0.00
  88   1    -0.00   0.00   0.00     0.00  -0.00  -0.00     0.00  -0.00  -0.00
  89   6     0.00  -0.00  -0.00    -0.00  -0.00   0.00    -0.00  -0.00   0.00
  90   6    -0.00  -0.00   0.00     0.00   0.00  -0.00     0.00   0.00  -0.00
  91   6     0.00   0.00  -0.00    -0.00  -0.00   0.00    -0.00  -0.00   0.00
  92   6    -0.00  -0.00   0.00    -0.00   0.00  -0.00     0.00   0.00  -0.00
  93   7     0.00  -0.00  -0.00    -0.00  -0.00   0.00    -0.00  -0.00   0.00
  94   6    -0.00   0.00   0.00     0.00  -0.00   0.00     0.00  -0.00  -0.00
  95   1     0.00   0.00  -0.00    -0.00  -0.00   0.00    -0.00  -0.00   0.00
  96   1     0.00   0.00  -0.00    -0.00  -0.00   0.00    -0.00  -0.00   0.00
  97   1     0.00   0.00  -0.00    -0.00   0.00   0.00    -0.00  -0.00   0.00
  98   1     0.00   0.00  -0.00    -0.00  -0.00   0.00    -0.00  -0.00   0.00
  99   6     0.00   0.00   0.00    -0.00  -0.00  -0.00    -0.00  -0.00  -0.00
 100   6    -0.00  -0.00  -0.00     0.00   0.00   0.00     0.00  -0.00  -0.00
 101   6     0.00   0.00   0.00     0.00  -0.00  -0.00     0.00   0.00   0.00
 102   6    -0.00  -0.00  -0.00     0.00   0.00   0.00     0.00   0.00  -0.00
 103   6    -0.00   0.00   0.00     0.00  -0.00  -0.00     0.00   0.00  -0.00
 104   6    -0.00  -0.00   0.00     0.00   0.00  -0.00    -0.00  -0.00  -0.00
 105   6     0.00   0.00  -0.00    -0.00  -0.00   0.00     0.00  -0.00  -0.00
 106   6    -0.00  -0.00   0.00     0.00   0.00  -0.00    -0.00   0.00   0.00
 107   6     0.00   0.00  -0.00    -0.00  -0.00  -0.00    -0.00  -0.00  -0.00
 108   7    -0.00  -0.00   0.00     0.00  -0.00  -0.00    -0.00  -0.00   0.00
 109   6     0.00  -0.00  -0.00     0.00  -0.00  -0.00     0.00   0.00   0.00
 110   6    -0.00  -0.00   0.00     0.00   0.00  -0.00    -0.00  -0.00   0.00
 111   1     0.00   0.00  -0.00    -0.00  -0.00  -0.00    -0.00  -0.00   0.00
 112   1     0.00   0.00  -0.00    -0.00  -0.00   0.00    -0.00  -0.00   0.00
 113   1     0.00  -0.00  -0.00    -0.00   0.00   0.00     0.00   0.00   0.00
 114   1     0.00  -0.00  -0.00    -0.00   0.00   0.00    -0.00   0.00   0.00
 115   1    -0.00  -0.00  -0.00     0.00   0.00   0.00     0.00   0.00   0.00
 116   1     0.00   0.00   0.00    -0.00   0.00   0.00    -0.00   0.00   0.00
 117   6    -0.00   0.00  -0.00     0.00  -0.00   0.00     0.00   0.00   0.00
 118   6     0.00   0.00   0.00    -0.00  -0.00  -0.00     0.00  -0.00  -0.00
 119   6     0.00  -0.00  -0.00    -0.00   0.00   0.00     0.00  -0.00   0.00
 120   6     0.00  -0.00   0.00    -0.00   0.00  -0.00     0.00   0.00   0.00
 121   7     0.13  -0.06   0.21    -0.00   0.00  -0.01     0.00  -0.00   0.00
 122   6     0.00   0.00   0.00    -0.00  -0.00  -0.00     0.00  -0.00   0.00
 123   6    -0.00   0.00   0.00     0.00  -0.00  -0.00    -0.00   0.00   0.00
 124   6     0.00  -0.00   0.00    -0.00   0.00  -0.00     0.00   0.00   0.00
 125   6    -0.00   0.00  -0.00     0.00  -0.00   0.00    -0.00  -0.00  -0.00
 126   6     0.00   0.00   0.00    -0.00  -0.00  -0.00    -0.00  -0.00  -0.00
 127   6    -0.00  -0.00  -0.00     0.00   0.00   0.00    -0.00   0.00  -0.00
 128   6    -0.00   0.00  -0.00     0.00  -0.00   0.00     0.00  -0.00   0.00
 129   6     0.00  -0.00   0.00    -0.00   0.00  -0.00    -0.00   0.00  -0.00
 130   1     0.00  -0.00  -0.00    -0.00   0.00   0.00    -0.00   0.00   0.00
 131   1    -0.00   0.00  -0.00     0.00  -0.00   0.00    -0.00   0.00  -0.00
 132   1    -0.50   0.21  -0.80     0.02  -0.01   0.03    -0.00   0.00  -0.00
 133   1    -0.00  -0.00  -0.00     0.00   0.00   0.00    -0.00   0.00  -0.00
 134   1    -0.00   0.00   0.00     0.00  -0.00  -0.00     0.00  -0.00  -0.00
 135   1    -0.00  -0.00  -0.00     0.00  -0.00   0.00     0.00  -0.00   0.00
 136   1    -0.00   0.00  -0.00     0.00  -0.00   0.00     0.00  -0.00   0.00
 137   6     0.00  -0.00   0.00    -0.00   0.00  -0.00    -0.00   0.00  -0.00
 138   6    -0.00   0.00  -0.00     0.00  -0.00   0.00     0.00   0.00   0.00
 139   6     0.00  -0.00   0.00    -0.00   0.00  -0.00    -0.00  -0.00  -0.00
 140   6    -0.00   0.00  -0.00     0.00   0.00   0.00    -0.00   0.00  -0.00
 141   7    -0.00  -0.00  -0.00     0.00   0.00  -0.00    -0.00   0.00  -0.00
 142   6    -0.00   0.00  -0.00     0.00  -0.00   0.00     0.00  -0.00   0.00
 143   1    -0.00  -0.00   0.00    -0.00  -0.00  -0.00    -0.00  -0.00  -0.00
 144   1    -0.00  -0.00  -0.00    -0.00  -0.00  -0.00    -0.00  -0.00  -0.00
 145   1     0.00  -0.00   0.00    -0.00  -0.00  -0.00     0.00  -0.00  -0.00
 146   1     0.00  -0.00  -0.00    -0.00  -0.00  -0.00     0.00   0.00  -0.00
 147   6     0.00  -0.00  -0.00     0.00  -0.00  -0.00     0.00  -0.00  -0.00
 148   6    -0.00   0.00   0.00    -0.00   0.00   0.00    -0.00   0.00   0.00
 149   6     0.00  -0.00   0.00     0.00  -0.00  -0.00     0.00  -0.00  -0.00
 150   6     0.00   0.00   0.00    -0.00   0.00   0.00    -0.00   0.00   0.00
 151   6     0.00   0.00   0.00     0.00  -0.00   0.00     0.00  -0.00   0.00
 152   6    -0.00   0.00   0.00     0.00   0.00   0.00     0.00  -0.00   0.00
 153   6     0.00  -0.00   0.00    -0.00   0.00  -0.00    -0.00  -0.00  -0.00
 154   6    -0.00   0.00   0.00     0.00  -0.00   0.00     0.00  -0.00   0.00
 155   6     0.00   0.00   0.00    -0.00  -0.00  -0.00     0.00  -0.00  -0.00
 156   7    -0.00  -0.00  -0.00     0.00   0.00   0.00     0.00   0.00   0.00
 157   6     0.00  -0.00   0.00    -0.00  -0.00  -0.00    -0.00   0.00  -0.00
 158   6    -0.00   0.00   0.00     0.00   0.00   0.00    -0.00   0.00   0.00
 159   1    -0.00  -0.00  -0.00     0.00  -0.00  -0.00    -0.00  -0.00  -0.00
 160   1    -0.00  -0.00  -0.00    -0.00   0.00  -0.00    -0.00  -0.00  -0.00
 161   1     0.00  -0.00  -0.00    -0.00   0.00   0.00    -0.00   0.00   0.00
 162   1     0.00  -0.00  -0.00    -0.00   0.00  -0.00    -0.00   0.00   0.00
 163   1     0.00  -0.00  -0.00    -0.00   0.00   0.00    -0.00   0.00   0.00
 164   1    -0.00   0.00  -0.00     0.00  -0.00  -0.00     0.00  -0.00  -0.00
 165   6    -0.00  -0.00   0.00    -0.00  -0.00   0.00    -0.00  -0.00   0.00
 166   6     0.00   0.00  -0.00     0.00  -0.00  -0.00     0.00  -0.00  -0.00
 167   6    -0.00   0.00  -0.00    -0.00   0.00   0.00    -0.00   0.00  -0.00
 168   6     0.00   0.00  -0.00     0.00   0.00  -0.00     0.00   0.00  -0.00
 169   7     0.00   0.00  -0.01     0.14   0.05  -0.16     0.09   0.03  -0.10
 170   6     0.00  -0.00  -0.00     0.00  -0.00  -0.00     0.00  -0.00  -0.00
 171   6     0.00  -0.00  -0.00     0.00  -0.00   0.00     0.00  -0.00   0.00
 172   6     0.00   0.00  -0.00     0.00   0.00  -0.00     0.00   0.00  -0.00
 173   6    -0.00  -0.00   0.00    -0.00  -0.00   0.00    -0.00  -0.00   0.00
 174   6     0.00  -0.00   0.00     0.00  -0.00  -0.00     0.00  -0.00  -0.00
 175   6    -0.00   0.00   0.00    -0.00   0.00   0.00    -0.00   0.00   0.00
 176   6    -0.00  -0.00   0.00    -0.00  -0.00   0.00    -0.00  -0.00   0.00
 177   6     0.00   0.00  -0.00    -0.00   0.00  -0.00     0.00   0.00  -0.00
 178   1    -0.00  -0.00   0.00    -0.00   0.00  -0.00    -0.00   0.00  -0.00
 179   1    -0.00  -0.00   0.00    -0.00  -0.00   0.00    -0.00  -0.00   0.00
 180   1    -0.02  -0.01   0.02    -0.52  -0.19   0.61    -0.32  -0.11   0.38
 181   1    -0.00   0.00   0.00    -0.00   0.00   0.00    -0.00   0.00   0.00
 182   1    -0.00   0.00   0.00     0.00  -0.00   0.00     0.00  -0.00   0.00
 183   1     0.00   0.00  -0.00    -0.00   0.00   0.00    -0.00   0.00   0.00
 184   1    -0.00  -0.00   0.00     0.00  -0.00   0.00    -0.00  -0.00   0.00
 185   6    -0.00   0.00   0.00     0.00   0.00  -0.00     0.00   0.00  -0.00
 186   6     0.00  -0.00  -0.00     0.00  -0.00   0.00     0.00  -0.00   0.00
 187   6    -0.00   0.00   0.00     0.00   0.00  -0.00     0.00   0.00  -0.00
 188   6     0.00  -0.00  -0.00    -0.00  -0.00   0.00    -0.00  -0.00   0.00
 189   7     0.00   0.00   0.00    -0.00   0.00   0.00    -0.00   0.00   0.00
 190   6    -0.00   0.00  -0.00    -0.00  -0.00   0.00    -0.00  -0.00   0.00
 191   1    -0.00   0.00   0.00     0.00   0.00   0.00     0.00   0.00   0.00
 192   1    -0.00   0.00   0.00    -0.00   0.00   0.00    -0.00  -0.00   0.00
 193   1     0.00   0.00   0.00     0.00   0.00  -0.00     0.00  -0.00  -0.00
 194   1     0.00  -0.00   0.00    -0.00  -0.00  -0.00    -0.00   0.00   0.00
