 Entering Gaussian System, Link 0=g16
 Input=m12_l1_SP.com
 Output=m12_l1_SP.log
 Initial command:
 /apps/gaussian/g16-c01-avx/g16/l1.exe "/rds/general/user/vposligu/home/work/Pd2L4_cages/New_Cages/opt/PBE0-def2svp-solvent/m12_l1/SP/Gau-3633327.inp" -scrdir="/rds/general/user/vposligu/home/work/Pd2L4_cages/New_Cages/opt/PBE0-def2svp-solvent/m12_l1/SP/"
 Entering Link 1 = /apps/gaussian/g16-c01-avx/g16/l1.exe PID=   3633329.
  
 Copyright (c) 1988-2019, Gaussian, Inc.  All Rights Reserved.
  
 This is part of the Gaussian(R) 16 program.  It is based on
 the Gaussian(R) 09 system (copyright 2009, Gaussian, Inc.),
 the Gaussian(R) 03 system (copyright 2003, Gaussian, Inc.),
 the Gaussian(R) 98 system (copyright 1998, Gaussian, Inc.),
 the Gaussian(R) 94 system (copyright 1995, Gaussian, Inc.),
 the Gaussian 92(TM) system (copyright 1992, Gaussian, Inc.),
 the Gaussian 90(TM) system (copyright 1990, Gaussian, Inc.),
 the Gaussian 88(TM) system (copyright 1988, Gaussian, Inc.),
 the Gaussian 86(TM) system (copyright 1986, Carnegie Mellon
 University), and the Gaussian 82(TM) system (copyright 1983,
 Carnegie Mellon University). Gaussian is a federally registered
 trademark of Gaussian, Inc.
  
 This software contains proprietary and confidential information,
 including trade secrets, belonging to Gaussian, Inc.
  
 This software is provided under written license and may be
 used, copied, transmitted, or stored only in accord with that
 written license.
  
 The following legend is applicable only to US Government
 contracts under FAR:
  
                    RESTRICTED RIGHTS LEGEND
  
 Use, reproduction and disclosure by the US Government is
 subject to restrictions as set forth in subparagraphs (a)
 and (c) of the Commercial Computer Software - Restricted
 Rights clause in FAR 52.227-19.
  
 Gaussian, Inc.
 340 Quinnipiac St., Bldg. 40, Wallingford CT 06492
  
  
 ---------------------------------------------------------------
 Warning -- This program may not be used in any manner that
 competes with the business of Gaussian, Inc. or will provide
 assistance to any competitor of Gaussian, Inc.  The licensee
 of this program is prohibited from giving any competitor of
 Gaussian, Inc. access to this program.  By using this program,
 the user acknowledges that Gaussian, Inc. is engaged in the
 business of creating and licensing software in the field of
 computational chemistry and represents and warrants to the
 licensee that it is not a competitor of Gaussian, Inc. and that
 it will not use this program in any manner prohibited above.
 ---------------------------------------------------------------
  

 Cite this work as:
 Gaussian 16, Revision C.01,
 M. J. Frisch, G. W. Trucks, H. B. Schlegel, G. E. Scuseria, 
 M. A. Robb, J. R. Cheeseman, G. Scalmani, V. Barone, 
 G. A. Petersson, H. Nakatsuji, X. Li, M. Caricato, A. V. Marenich, 
 J. Bloino, B. G. Janesko, R. Gomperts, B. Mennucci, H. P. Hratchian, 
 J. V. Ortiz, A. F. Izmaylov, J. L. Sonnenberg, D. Williams-Young, 
 F. Ding, F. Lipparini, F. Egidi, J. Goings, B. Peng, A. Petrone, 
 T. Henderson, D. Ranasinghe, V. G. Zakrzewski, J. Gao, N. Rega, 
 G. Zheng, W. Liang, M. Hada, M. Ehara, K. Toyota, R. Fukuda, 
 J. Hasegawa, M. Ishida, T. Nakajima, Y. Honda, O. Kitao, H. Nakai, 
 T. Vreven, K. Throssell, J. A. Montgomery, Jr., J. E. Peralta, 
 F. Ogliaro, M. J. Bearpark, J. J. Heyd, E. N. Brothers, K. N. Kudin, 
 V. N. Staroverov, T. A. Keith, R. Kobayashi, J. Normand, 
 K. Raghavachari, A. P. Rendell, J. C. Burant, S. S. Iyengar, 
 J. Tomasi, M. Cossi, J. M. Millam, M. Klene, C. Adamo, R. Cammi, 
 J. W. Ochterski, R. L. Martin, K. Morokuma, O. Farkas, 
 J. B. Foresman, and D. J. Fox, Gaussian, Inc., Wallingford CT, 2019.
 
 ******************************************
 Gaussian 16:  ES64L-G16RevC.01  3-Jul-2019
                16-Nov-2023 
 ******************************************
 %nprocshared=48
 Will use up to   48 processors via shared memory.
 %mem=120GB
 %chk=m12_l1_SP.chk
 ------------------------------------------------------------------
 # SP PBE1PBE/def2svp empiricaldispersion=GD3BJ scrf=(solvent=dmso)
 ------------------------------------------------------------------
 1/38=1,172=1/1;
 2/12=2,17=6,18=5,40=1/2;
 3/5=43,7=101,11=2,25=1,30=1,70=2201,72=21,74=-13,124=41/1,2,3;
 4//1;
 5/5=2,38=5,53=21/2;
 6/7=2,8=2,9=2,10=2,28=1/1;
 99/5=1,9=1/99;
 ------
 m12_l1
 ------
 Symbolic Z-matrix:
 Charge = 24 Multiplicity = 1
 Pd                    15.181   -1.84     -0.328 
 Pd                   -15.86    -1.633    -0.746 
 Pd                   -0.502     13.642   -0.232 
 Pd                   -0.212    -17.425   -0.733 
 Pd                    7.354     5.896     10.745 
 Pd                    7.366    -10.089    10.775 
 Pd                   -8.173     5.965     10.535 
 Pd                   -8.331    -9.6       10.207 
 Pd                    7.456     6.021    -11.312 
 Pd                    7.465    -9.486    -11.66 
 Pd                   -7.94      6.176    -11.536 
 Pd                   -7.984    -9.332    -11.684 
 C                     14.028    0.407     1.134 
 N                     15.169   -0.2       0.797 
 C                     16.329    0.397     1.073 
 C                     16.394    1.634     1.683 
 C                     15.211    2.303     2.017 
 C                     15.249    3.638     2.618 
 C                     16.24     4.547     2.211 
 C                     16.339    5.812     2.753 
 C                     15.422    6.159     3.732 
 O                     15.36     7.34      4.399 
 C                     14.316    7.236     5.261 
 C                     13.885    8.204     6.153 
 C                     12.81     7.889     6.96 
 C                     12.157    6.65      6.876 
 C                     11.031    6.376     7.774 
 C                     9.879     5.708     7.346 
 C                     8.833     5.518     8.229 
 N                     8.887     5.941     9.493 
 C                     9.99      6.554     9.928 
 C                     11.074    6.79      9.109 
 C                     12.584    5.691     5.963 
 C                     13.677    5.982     5.161 
 C                     14.412    5.267     4.15 
 C                     14.32     4.004     3.588 
 C                     14.006    1.646     1.741 
 H                     13.112   -0.131     0.897 
 H                     17.242   -0.124     0.794 
 H                     17.354    2.071     1.903 
 H                     16.937    4.268     1.436 
 H                     17.101    6.507     2.438 
 H                     14.382    9.159     6.216 
 H                     12.454    8.635     7.654 
 H                     9.798     5.373     6.325 
 H                     7.916     5.019     7.927 
 H                     10.013    6.87      10.97 
 H                     11.95     7.281     9.502 
 H                     12.108    4.725     5.906 
 H                     13.57     3.311     3.932 
 H                     13.067    2.121     1.973 
 C                     14.429    0.181    -2.379 
 N                     15.366   -0.653    -1.924 
 C                     16.59    -0.591    -2.451 
 C                     16.921    0.293    -3.456 
 C                     15.964    1.198    -3.932 
 C                     16.3      2.156    -4.988 
 C                     17.632    2.575    -5.153 
 C                     18.021    3.405    -6.185 
 C                     17.04     3.835    -7.062 
 O                     17.216    4.618    -8.157 
 C                     15.984    4.8      -8.697 
 C                     15.678    5.521    -9.839 
 C                     14.347    5.621    -10.19 
 C                     13.323    5.034    -9.426 
 C                     11.922    5.256    -9.794 
 C                     10.902    4.355    -9.461 
 C                     9.597     4.629    -9.819 
 N                     9.259     5.727    -10.5 
 C                     10.216    6.596    -10.832 
 C                     11.538    6.41     -10.486 
 C                     13.649    4.274    -8.304 
 C                     14.982    4.147    -7.948 
 C                     15.685    3.484    -6.88 
 C                     15.316    2.633    -5.852 
 C                     14.687    1.117    -3.361 
 H                     13.443    0.089    -1.934 
 H                     17.341   -1.276    -2.064 
 H                     17.915    0.269    -3.871 
 H                     18.389    2.263    -4.451 
 H                     19.049    3.707    -6.312 
 H                     16.455    5.989    -10.423 
 H                     14.108    6.157    -11.095 
 H                     11.132    3.437    -8.947 
 H                     8.786     3.956    -9.559 
 H                     9.921     7.482    -11.39 
 H                     12.261    7.166    -10.746 
 H                     12.888    3.823    -7.689 
 H                     14.289    2.321    -5.762 
 H                     13.91     1.797    -3.667 
 C                     14.134   -3.838     1.597 
 N                     15.161   -3.057     1.254 
 C                     16.366   -3.314     1.768 
 C                     16.599   -4.384     2.607 
 C                     15.551   -5.254     2.925 
 C                     15.796   -6.471     3.704 
 C                     17.006   -7.16      3.518 
 C                     17.292   -8.333     4.184 
 C                     16.336   -8.814     5.062 
 O                     16.418   -9.95      5.8 
 C                     15.259   -10.035    6.501 
 C                     14.897   -11.047    7.374 
 C                     13.669   -10.94     7.994 
 C                     12.807   -9.856     7.76 
 C                     11.527   -9.798     8.469 
 C                     10.371   -9.261     7.889 
 C                     9.183    -9.275     8.593 
 N                     9.089    -9.789     9.822 
 C                     10.183   -10.286    10.4 
 C                     11.411   -10.299    9.771 
 C                     13.174   -8.853     6.866 
 C                     14.405   -8.943     6.236 
 C                     15.116   -8.136     5.277 
 C                     14.841   -6.964     4.59 
 C                     14.284   -4.933     2.425 
 H                     13.168   -3.573     1.176 
 H                     17.182   -2.644     1.499 
 H                     17.587   -4.544     3.008 
 H                     17.733   -6.787     2.813 
 H                     18.219   -8.863     4.032 
 H                     15.556   -11.88     7.558 
 H                     13.365   -11.735    8.656 
 H                     10.4     -8.868     6.887 
 H                     8.267    -8.867     8.173 
 H                     10.082   -10.698    11.402 
 H                     12.271   -10.689    10.29 
 H                     12.539   -8.        6.692 
 H                     13.921   -6.433     4.771 
 H                     13.438   -5.562     2.647 
 C                     14.084   -4.046    -1.94 
 N                     15.199   -3.479    -1.472 
 C                     16.37    -4.08     -1.686 
 C                     16.472   -5.274    -2.37 
 C                     15.315   -5.903    -2.844 
 C                     15.396   -7.198    -3.525 
 C                     16.376   -8.121    -3.12 
 C                     16.521   -9.349    -3.731 
 C                     15.659   -9.648    -4.773 
 O                     15.643   -10.793   -5.501 
 C                     14.63    -10.661   -6.394 
 C                     14.238   -11.599   -7.335 
 C                     13.171   -11.273   -8.147 
 C                     12.494   -10.047   -8.034 
 C                     11.354   -9.784    -8.916 
 C                     10.226   -9.077    -8.482 
 C                     9.145    -8.929    -9.328 
 N                     9.131    -9.441    -10.562 
 C                     10.209   -10.087   -11.007 
 C                     11.334   -10.27    -10.228 
 C                     12.896   -9.113    -7.082 
 C                     13.971   -9.42     -6.263 
 C                     14.657   -8.745    -5.19 
 C                     14.524   -7.516    -4.562 
 C                     14.099   -5.246    -2.621 
 H                     13.158   -3.509    -1.747 
 H                     17.263   -3.6      -1.293 
 H                     17.444   -5.707    -2.541 
 H                     17.026   -7.885    -2.292 
 H                     17.275   -10.053   -3.418 
 H                     14.751   -12.543   -7.422 
 H                     12.842   -12.003   -8.869 
 H                     10.187   -8.682    -7.48 
 H                     8.249    -8.392    -9.023 
 H                     10.176   -10.484   -12.019 
 H                     12.188   -10.783   -10.639 
 H                     12.41    -8.154    -7.002 
 H                     13.783   -6.812    -4.905 
 H                     13.175   -5.689    -2.955 
 C                    -15.197   -0.264     1.785 
 N                    -16.06    -0.338     0.767 
 C                    -17.211    0.33      0.853 
 C                    -17.541    1.101     1.948 
 C                    -16.669    1.169     3.041 
 C                    -17.012    1.963     4.224 
 C                    -18.363    2.18      4.545 
 C                    -18.749    2.988     5.595 
 C                    -17.748    3.58      6.346 
 O                    -17.913    4.437     7.385 
 C                    -16.667    4.746     7.826 
 C                    -16.346    5.607     8.861 
 C                    -15.011    5.751     9.177 
 C                    -13.998    5.05      8.498 
 C                    -12.607    5.179     8.939 
 C                    -11.519    4.966     8.082 
 C                    -10.229    5.099     8.558 
 N                    -9.966     5.449     9.819 
 C                    -10.987    5.654     10.653 
 C                    -12.303    5.511     10.265 
 C                    -14.334    4.219     7.43 
 C                    -15.668    4.079     7.085 
 C                    -16.384    3.327     6.085 
 C                    -16.014    2.528     5.016 
 C                    -15.465    0.461     2.929 
 H                    -14.266   -0.81      1.666 
 H                    -17.9      0.257     0.014 
 H                    -18.468    1.65      1.945 
 H                    -19.14     1.694     3.977 
 H                    -19.789    3.162     5.824 
 H                    -17.116    6.137     9.399 
 H                    -14.756    6.445     9.962 
 H                    -11.68     4.723     7.045 
 H                    -9.371     4.925     7.917 
 H                    -10.754    5.941     11.677 
 H                    -13.083    5.65      10.994 
 H                    -13.584    3.657     6.898 
 H                    -14.97     2.392     4.788 
 H                    -14.757    0.459     3.74 
 C                    -14.501    0.625    -2.068 
 N                    -15.616   -0.106    -1.998 
 C                    -16.738    0.368    -2.547 
 C                    -16.801    1.615    -3.136 
 C                    -15.656    2.417    -3.174 
 C                    -15.729    3.783    -3.704 
 C                    -16.824    4.583    -3.34 
 C                    -16.961    5.881    -3.788 
 C                    -15.984    6.364    -4.643 
 O                    -15.948    7.596    -5.212 
 C                    -14.839    7.623    -5.995 
 C                    -14.413    8.679    -6.785 
 C                    -13.283    8.482    -7.551 
 C                    -12.572    7.272    -7.527 
 C                    -11.425    7.085    -8.42 
 C                    -10.286    6.371    -8.032 
 C                    -9.263     6.179    -8.938 
 N                    -9.32      6.651    -10.187 
 C                    -10.389    7.349    -10.57 
 C                    -11.452    7.59     -9.724 
 C                    -12.985    6.231    -6.7 
 C                    -14.129    6.405    -5.938 
 C                    -14.883    5.572    -5.035 
 C                    -14.743    4.281    -4.548 
 C                    -14.475    1.875    -2.658 
 H                    -13.611    0.186    -1.624 
 H                    -17.622   -0.266    -2.514 
 H                    -17.728    1.965    -3.562 
 H                    -17.573    4.189    -2.671 
 H                    -17.797    6.497    -3.5 
 H                    -14.96     9.608    -6.808 
 H                    -12.934    9.295    -8.169 
 H                    -10.205    5.987    -7.028 
 H                    -8.36      5.631    -8.674 
 H                    -10.406    7.721    -11.592 
 H                    -12.308    8.139    -10.082 
 H                    -12.463    5.288    -6.687 
 H                    -13.912    3.668    -4.855 
 H                    -13.564    2.45     -2.678 
 C                    -15.168   -3.865     1.017 
 N                    -16.173   -3.118     0.553 
 C                    -17.418   -3.391     0.941 
 C                    -17.709   -4.425     1.81 
 C                    -16.675   -5.234     2.293 
 C                    -16.941   -6.354     3.199 
 C                    -18.14    -7.077     3.087 
 C                    -18.432   -8.145     3.913 
 C                    -17.492   -8.487     4.87 
 O                    -17.575   -9.505     5.765 
 C                    -16.418   -9.486     6.475 
 C                    -16.048   -10.364    7.48 
 C                    -14.808   -10.18     8.059 
 C                    -13.94    -9.15      7.659 
 C                    -12.621   -9.038     8.286 
 C                    -11.496   -8.604     7.573 
 C                    -10.256   -8.608     8.18 
 N                    -10.08    -9.015     9.439 
 C                    -11.146   -9.387     10.151 
 C                    -12.421   -9.4       9.623 
 C                    -14.326   -8.27      6.652 
 C                    -15.567   -8.44      6.061 
 C                    -16.279   -7.777     5. 
 C                    -16.003   -6.708     4.165 
 C                    -15.375   -4.925     1.874 
 H                    -14.171   -3.593     0.676 
 H                    -18.214   -2.761     0.552 
 H                    -18.729   -4.591     2.117 
 H                    -18.853   -6.821     2.319 
 H                    -19.353   -8.697     3.819 
 H                    -16.705   -11.161    7.789 
 H                    -14.499   -10.878    8.822 
 H                    -11.59    -8.309     6.541 
 H                    -9.365    -8.289     7.648 
 H                    -10.981   -9.691     11.183 
 H                    -13.252   -9.693     10.244 
 H                    -13.693   -7.451     6.351 
 H                    -15.092   -6.147     4.294 
 H                    -14.543   -5.527     2.199 
 C                    -14.649   -3.734    -2.395 
 N                    -15.759   -3.026    -2.168 
 C                    -16.925   -3.485    -2.627 
 C                    -17.034   -4.693    -3.286 
 C                    -15.894   -5.482    -3.476 
 C                    -16.001   -6.823    -4.059 
 C                    -17.106   -7.62     -3.716 
 C                    -17.267   -8.899    -4.209 
 C                    -16.297   -9.372    -5.077 
 O                    -16.278   -10.589   -5.678 
 C                    -15.157   -10.619   -6.444 
 C                    -14.735   -11.667   -7.245 
 C                    -13.578   -11.482   -7.975 
 C                    -12.839   -10.291   -7.903 
 C                    -11.649   -10.129   -8.743 
 C                    -10.498   -9.475    -8.289 
 C                    -9.424    -9.317    -9.141 
 N                    -9.443    -9.765    -10.399 
 C                    -10.525   -10.401   -10.847 
 C                    -11.638   -10.607   -10.057 
 C                    -13.256   -9.254    -7.074 
 C                    -14.426   -9.416    -6.349 
 C                    -15.18    -8.589    -5.441 
 C                    -15.025   -7.313    -4.922 
 C                    -14.672   -4.952    -3.046 
 H                    -13.721   -3.301    -2.03 
 H                    -17.809   -2.875    -2.454 
 H                    -17.996   -5.023    -3.643 
 H                    -17.845   -7.242    -3.027 
 H                    -18.113   -9.509    -3.94 
 H                    -15.301   -12.584   -7.3 
 H                    -13.23    -12.292   -8.598 
 H                    -10.449   -9.111    -7.275 
 H                    -8.51     -8.819    -8.824 
 H                    -10.512   -10.754   -11.876 
 H                    -12.501   -11.108   -10.466 
 H                    -12.711   -8.325    -7.027 
 H                    -14.187   -6.704    -5.217 
 H                    -13.763   -5.514    -3.181 
 C                     0.237     12.679    2.47 
 N                     0.106     13.729    1.657 
 C                     0.335     14.953    2.134 
 C                     0.705     15.178    3.444 
 C                     0.841     14.093    4.318 
 C                     1.234     14.3      5.714 
 C                     0.797     15.446    6.399 
 C                     1.166     15.704    7.704 
 C                     1.997     14.786    8.325 
 O                     2.479     14.855    9.593 
 C                     3.232     13.739    9.777 
 C                     3.911     13.379    10.929 
 C                     4.612     12.19     10.907 
 C                     4.641     11.362    9.773 
 C                     5.38      10.098    9.826 
 C                     4.912     8.943     9.188 
 C                     5.596     7.755     9.341 
 N                     6.705     7.662     10.08 
 C                     7.192     8.76      10.658 
 C                     6.572     9.988     10.55 
 C                     3.953     11.732    8.621 
 C                     3.252     12.926    8.623 
 C                     2.438     13.622    7.661 
 C                     2.054     13.375    6.353 
 C                     0.597     12.818    3.796 
 H                     0.042     11.704    2.031 
 H                     0.222     15.791    1.447 
 H                     0.904     16.182    3.78 
 H                     0.134     16.143    5.911 
 H                     0.828     16.586    8.225 
 H                     3.888     14.008    11.804 
 H                     5.127     11.887    11.806 
 H                     4.001     8.974     8.614 
 H                     5.255     6.835     8.87 
 H                     8.11      8.66      11.233 
 H                     7.008     10.852    11.025 
 H                     3.99      11.127    7.73 
 H                     2.424     12.504    5.837 
 H                     0.668     11.95     4.431 
 C                     1.996     12.452   -1.151 
 N                     1.383     13.608   -0.88 
 C                     2.001     14.754   -1.164 
 C                     3.257     14.79    -1.737 
 C                     3.91      13.592   -2.045 
 C                     5.221     13.613   -2.7 
 C                     6.162     14.585   -2.324 
 C                     7.384     14.697   -2.954 
 C                     7.646     13.822   -3.995 
 O                     8.76      13.804   -4.771 
 C                     8.579     12.807   -5.675 
 C                     9.455     12.45    -6.686 
 C                     9.07      11.422   -7.522 
 C                     7.857     10.737   -7.346 
 C                     7.538     9.648    -8.277 
 C                     7.043     8.413    -7.85 
 C                     6.885     7.389    -8.766 
 N                     7.161     7.546    -10.063 
 C                     7.566     8.742    -10.499 
 C                     7.769     9.808    -9.648 
 C                     6.992     11.089   -6.316 
 C                     7.347     12.144   -5.487 
 C                     6.725     12.823   -4.379 
 C                     5.51      12.711   -3.72 
 C                     3.247     12.401   -1.73 
 H                     1.45      11.548   -0.885 
 H                     1.477     15.679   -0.935 
 H                     3.713     15.739   -1.969 
 H                     5.942     15.255   -1.508 
 H                     8.105     15.445   -2.667 
 H                     10.391    12.969   -6.816 
 H                     9.739     11.127   -8.316 
 H                     6.833     8.248    -6.806 
 H                     6.539     6.404    -8.464 
 H                     7.741     8.855    -11.568 
 H                     8.105     10.755   -10.038 
 H                     6.048     10.585   -6.187 
 H                     4.788     11.974   -4.032 
 H                     3.72      11.452   -1.926 
 C                    -2.997     12.477    0.69 
 N                    -2.384     13.632    0.412 
 C                    -3.016     14.78     0.659 
 C                    -4.288     14.819    1.195 
 C                    -4.943     13.624    1.506 
 C                    -6.28      13.637    2.106 
 C                    -7.23      14.569    1.661 
 C                    -8.494     14.642    2.211 
 C                    -8.791     13.767    3.243 
 O                    -9.962     13.691    3.927 
 C                    -9.803     12.706    4.848 
 C                    -10.744    12.281    5.772 
 C                    -10.373    11.271    6.636 
 C                    -9.1       10.68     6.589 
 C                    -8.768     9.62      7.545 
 C                    -7.972     8.523     7.193 
 C                    -7.738     7.525     8.117 
 N                    -8.245     7.565     9.352 
 C                    -8.98      8.615     9.718 
 C                    -9.257     9.657     8.856 
 C                    -8.169     11.101    5.644 
 C                    -8.521     12.121    4.774 
 C                    -7.851     12.822    3.708 
 C                    -6.595     12.748    3.13 
 C                    -4.263     12.43     1.236 
 H                    -2.439     11.572    0.457 
 H                    -2.49      15.703    0.428 
 H                    -4.757     15.769    1.395 
 H                    -6.984     15.237    0.85 
 H                    -9.224     15.356    1.864 
 H                    -11.722    12.732    5.812 
 H                    -11.101    10.918    7.35 
 H                    -7.573     8.443     6.195 
 H                    -7.131     6.653     7.877 
 H                    -9.372     8.626     10.733 
 H                    -9.842     10.494    9.201 
 H                    -7.178     10.679    5.61 
 H                    -5.866     12.045    3.5 
 H                    -4.736     11.483    1.438 
 C                    -1.117     12.649   -2.95 
 N                    -1.082     13.703   -2.133 
 C                    -1.265     14.924   -2.639 
 C                    -1.478     15.141   -3.985 
 C                    -1.494     14.053   -4.864 
 C                    -1.685     14.253   -6.303 
 C                    -1.13      15.382   -6.928 
 C                    -1.291     15.624   -8.278 
 C                    -2.036     14.711   -9.005 
 O                    -2.32      14.766   -10.333 
 C                    -3.066     13.666   -10.611 
 C                    -3.581     13.302   -11.844 
 C                    -4.324     12.14    -11.905 
 C                    -4.551     11.341   -10.773 
 C                    -5.362     10.127   -10.888 
 C                    -5.067     8.97     -10.156 
 C                    -5.856     7.848    -10.307 
 N                    -6.904     7.823    -11.134 
 C                    -7.209     8.917    -11.832 
 C                    -6.473     10.081   -11.737 
 C                    -4.019     11.708   -9.541 
 C                    -3.28      12.877   -9.461 
 C                    -2.599     13.568   -8.399 
 C                    -2.42      13.334   -7.046 
 C                    -1.32      12.78    -4.309 
 H                    -0.973     11.677   -2.486 
 H                    -1.242     15.764   -1.946 
 H                    -1.64      16.143   -4.347 
 H                    -0.537     16.075   -6.353 
 H                    -0.862     16.492   -8.752 
 H                    -3.408     13.91    -12.718 
 H                    -4.717     11.835   -12.863 
 H                    -4.214     8.95     -9.499 
 H                    -5.656     6.931    -9.758 
 H                    -8.074     8.868    -12.491 
 H                    -6.766     10.949   -12.305 
 H                    -4.208     11.125   -8.654 
 H                    -2.879     12.478   -6.579 
 H                    -1.315     11.91    -4.945 
 C                     1.668    -16.588    1.363 
 N                     0.863    -17.565    0.938 
 C                     1.027    -18.796    1.426 
 C                     2.025    -19.107    2.328 
 C                     2.92     -18.112    2.738 
 C                     4.062    -18.432    3.599 
 C                     4.701    -19.674    3.452 
 C                     5.802    -20.026    4.206 
 C                     6.263    -19.104    5.13 
 O                     7.333    -19.247    5.953 
 C                     7.426    -18.094    6.663 
 C                     8.387    -17.782    7.611 
 C                     8.304    -16.544    8.217 
 C                     7.295    -15.623    7.894 
 C                     7.258    -14.323    8.569 
 C                     6.825    -13.164    7.912 
 C                     6.825    -11.959    8.584 
 N                     7.232    -11.851    9.851 
 C                     7.637    -12.943    10.499 
 C                     7.658    -14.188    9.903 
 C                     6.338    -15.944    6.934 
 C                     6.405    -17.183    6.318 
 C                     5.635    -17.851    5.301 
 C                     4.533    -17.512    4.532 
 C                     2.696    -16.817    2.256 
 H                     1.475    -15.597    0.961 
 H                     0.342    -19.569    1.083 
 H                     2.111    -20.113    2.705 
 H                     4.351    -20.374    2.709 
 H                     6.292    -20.979    4.084 
 H                     9.166    -18.484    7.861 
 H                     9.063    -16.28     8.937 
 H                     6.521    -13.209    6.88 
 H                     6.496    -11.039    8.105 
 H                     7.952    -12.824    11.534 
 H                     7.971    -15.047    10.473 
 H                     5.537    -15.266    6.693 
 H                     4.039    -16.567    4.684 
 H                     3.351    -16.012    2.545 
 C                     2.181    -16.534   -2.158 
 N                     1.489    -17.608   -1.77 
 C                     1.898    -18.817   -2.152 
 C                     3.012    -19.      -2.946 
 C                     3.751    -17.89    -3.369 
 C                     4.926    -18.049   -4.229 
 C                     5.756    -19.171   -4.072 
 C                     6.858    -19.383   -4.875 
 C                     7.121    -18.444   -5.859 
 O                     8.143    -18.472   -6.751 
 C                     8.021    -17.352   -7.507 
 C                     8.856    -16.96    -8.54 
 C                     8.563    -15.771   -9.177 
 C                     7.469    -14.972   -8.802 
 C                     7.251    -13.7     -9.497 
 C                     6.764    -12.566   -8.835 
 C                     6.682    -11.363   -9.508 
 N                     7.051    -11.232   -10.784 
 C                     7.469    -12.313   -11.447 
 C                     7.57     -13.554   -10.852 
 C                     6.634    -15.379   -7.764 
 C                     6.909    -16.574   -7.119 
 C                     6.309    -17.301   -6.029 
 C                     5.21     -17.102   -5.21 
 C                     3.309    -16.63    -2.946 
 H                     1.805    -15.572   -1.814 
 H                     1.315    -19.672   -1.818 
 H                     3.291    -19.995   -3.253 
 H                     5.552    -19.884   -3.288 
 H                     7.494    -20.245   -4.75 
 H                     9.701    -17.564   -8.828 
 H                     9.22     -15.447   -9.968 
 H                     6.496    -12.621   -7.793 
 H                     6.322    -10.463   -9.018 
 H                     7.739    -12.188   -12.494 
 H                     7.898    -14.399   -11.434 
 H                     5.77     -14.799   -7.483 
 H                     4.57     -16.249   -5.365 
 H                     3.857    -15.744   -3.221 
 C                    -2.502    -16.08     0.508 
 N                    -1.931    -17.257    0.24 
 C                    -2.604    -18.38     0.498 
 C                    -3.886    -18.371    1.007 
 C                    -4.515    -17.149    1.269 
 C                    -5.897    -17.118    1.757 
 C                    -6.826    -18.018    1.211 
 C                    -8.14     -18.053    1.629 
 C                    -8.511    -17.174    2.633 
 O                    -9.743    -17.066    3.194 
 C                    -9.648    -16.094    4.137 
 C                    -10.666   -15.65     4.964 
 C                    -10.354   -14.666    5.88 
 C                    -9.065    -14.117    5.972 
 C                    -8.799    -13.094    6.988 
 C                    -7.949    -12.007    6.751 
 C                    -7.775    -11.052    7.732 
 N                    -8.391    -11.125    8.916 
 C                    -9.186    -12.164    9.169 
 C                    -9.41     -13.164    8.244 
 C                    -8.056    -14.551    5.118 
 C                    -8.348    -15.549    4.201 
 C                    -7.594    -16.263    3.2 
 C                    -6.283    -16.224    2.751 
 C                    -3.779    -15.984    1.027 
 H                    -1.907    -15.197    0.288 
 H                    -2.107    -19.325    0.289 
 H                    -4.392    -19.301    1.208 
 H                    -6.52     -18.689    0.423 
 H                    -8.854    -18.742    1.206 
 H                    -11.656   -16.071    4.897 
 H                    -11.139   -14.3      6.523 
 H                    -7.458    -11.902    5.798 
 H                    -7.129    -10.188    7.583 
 H                    -9.672    -12.202    10.142 
 H                    -10.046   -13.995    8.501 
 H                    -7.055    -14.159    5.192 
 H                    -5.573    -15.547    3.196 
 H                    -4.221    -15.019    1.213 
 C                    -1.176    -16.351   -3.298 
 N                    -1.168    -17.409   -2.483 
 C                    -1.544    -18.597   -2.96 
 C                    -1.913    -18.781   -4.277 
 C                    -1.883    -17.696   -5.159 
 C                    -2.181    -17.877   -6.582 
 C                    -1.757    -19.051   -7.226 
 C                    -1.991    -19.275   -8.568 
 C                    -2.677    -18.296   -9.267 
 O                    -3.004    -18.321   -10.585 
 C                    -3.659    -17.159   -10.838 
 C                    -4.17     -16.747   -12.057 
 C                    -4.814    -15.527   -12.096 
 C                    -4.951    -14.72    -10.954 
 C                    -5.671    -13.448   -11.051 
 C                    -5.296    -12.321   -10.31 
 C                    -6.003    -11.144   -10.451 
 N                    -7.043    -11.035   -11.279 
 C                    -7.424    -12.1     -11.987 
 C                    -6.776    -13.315   -11.898 
 C                    -4.417    -15.135   -9.738 
 C                    -3.772    -16.36    -9.68 
 C                    -3.118    -17.111   -8.64 
 C                    -2.864    -16.896   -7.295 
 C                    -1.529    -16.45    -4.629 
 H                    -0.881    -15.403   -2.855 
 H                    -1.55     -19.438   -2.268 
 H                    -2.221    -19.757   -4.616 
 H                    -1.205    -19.795   -6.674 
 H                    -1.658    -20.176   -9.059 
 H                    -4.069    -17.363   -12.936 
 H                    -5.199    -15.184   -13.044 
 H                    -4.443    -12.366   -9.652 
 H                    -5.738    -10.25    -9.893 
 H                    -8.28     -11.984   -12.65 
 H                    -7.134    -14.155   -12.472 
 H                    -4.535    -14.544   -8.844 
 H                    -3.225    -16.003   -6.811 
 H                    -1.493    -15.582   -5.266 
 C                     7.223     3.036     11.317 
 N                     7.901     4.163     11.558 
 C                     8.689     4.227     12.632 
 C                     8.793     3.187     13.534 
 C                     8.035     2.026     13.34 
 C                     8.018     0.965     14.35 
 C                     8.075     1.326     15.707 
 C                     8.039     0.386     16.716 
 C                     7.952    -0.945     16.342 
 O                     7.908    -2.014     17.176 
 C                     7.822    -3.112     16.384 
 C                     7.753    -4.428     16.811 
 C                     7.692    -5.405     15.839 
 C                     7.683    -5.093     14.47 
 C                     7.648    -6.192     13.501 
 C                     6.881    -6.151     12.333 
 C                     6.849    -7.251     11.497 
 N                     7.541    -8.362     11.758 
 C                     8.309    -8.405     12.849 
 C                     8.392    -7.353     13.737 
 C                     7.727    -3.767     14.051 
 C                     7.807    -2.772     15.014 
 C                     7.893    -1.334     14.986 
 C                     7.92     -0.375     13.985 
 C                     7.267     1.954     12.172 
 H                     6.624     3.022     10.41 
 H                     9.255     5.143     12.787 
 H                     9.449     3.28      14.384 
 H                     8.121     2.368     15.983 
 H                     8.078     0.666     17.756 
 H                     7.756    -4.669     17.862 
 H                     7.625    -6.435     16.154 
 H                     6.291    -5.278     12.104 
 H                     6.248    -7.261     10.592 
 H                     8.884    -9.312     13.029 
 H                     9.033    -7.427     14.601 
 H                     7.742    -3.515     13.003 
 H                     7.904    -0.671     12.95 
 H                     6.676     1.076     11.967 
 C                    -7.559     3.196     11.279 
 N                    -8.107     4.339     11.7 
 C                    -8.508     4.436     12.968 
 C                    -8.368     3.399     13.868 
 C                    -7.767     2.203     13.459 
 C                    -7.549     1.11      14.411 
 C                    -7.236     1.418     15.745 
 C                    -7.024     0.439     16.693 
 C                    -7.139    -0.879     16.284 
 O                    -6.974    -1.982     17.057 
 C                    -7.168    -3.051     16.244 
 C                    -7.089    -4.386     16.605 
 C                    -7.325    -5.324     15.622 
 C                    -7.626    -4.958     14.3 
 C                    -7.867    -6.006     13.305 
 C                    -7.443    -5.878     11.977 
 C                    -7.654    -6.916     11.091 
 N                    -8.255    -8.052     11.457 
 C                    -8.687    -8.185     12.711 
 C                    -8.52     -7.192     13.656 
 C                    -7.692    -3.613     13.944 
 C                    -7.467    -2.657     14.922 
 C                    -7.448    -1.216     14.948 
 C                    -7.649    -0.219     14.007 
 C                    -7.372     2.116     12.118 
 H                    -7.26      3.166     10.233 
 H                    -8.953     5.376     13.286 
 H                    -8.729     3.517     14.877 
 H                    -7.13      2.448     16.046 
 H                    -6.782     0.681     17.716 
 H                    -6.855    -4.671     17.618 
 H                    -7.246    -6.368     15.883 
 H                    -6.928    -4.988     11.657 
 H                    -7.332    -6.858     10.053 
 H                    -9.176    -9.118     12.978 
 H                    -8.902    -7.336     14.654 
 H                    -7.951    -3.313     12.942 
 H                    -7.918    -0.476     12.995 
 H                    -6.896     1.221     11.752 
 C                     4.648     5.364     11.768 
 N                     5.827     5.93      12.038 
 C                     5.982     6.593     13.184 
 C                     4.96      6.725     14.102 
 C                     3.714     6.144     13.839 
 C                     2.6       6.288     14.779 
 C                     2.851     6.335     16.16 
 C                     1.838     6.501     17.083 
 C                     0.547     6.627     16.597 
 O                    -0.581     6.804     17.331 
 C                    -1.609     6.853     16.445 
 C                    -2.952     7.009     16.745 
 C                    -3.842     7.01      15.691 
 C                    -3.424     6.852     14.359 
 C                    -4.433     6.8       13.296 
 C                    -4.281     5.977     12.174 
 C                    -5.31      5.867     11.261 
 N                    -6.463     6.525     11.403 
 C                    -6.605     7.36      12.435 
 C                    -5.62      7.535     13.386 
 C                    -2.07      6.707     14.068 
 C                    -1.162     6.712     15.114 
 C                     0.268     6.569     15.215 
 C                     1.296     6.399     14.303 
 C                     3.579     5.442     12.635 
 H                     4.578     4.834     10.821 
 H                     6.955     7.04      13.377 
 H                     5.122     7.294     15.002 
 H                     3.858     6.212     16.527 
 H                     2.037     6.536     18.142 
 H                    -3.281     7.12      17.766 
 H                    -4.893     7.106     15.917 
 H                    -3.383     5.394     12.047 
 H                    -5.229     5.224     10.389 
 H                    -7.541     7.91      12.512 
 H                    -5.777     8.23      14.195 
 H                    -1.722     6.623     13.052 
 H                     1.084     6.394     13.246 
 H                     2.65      4.952     12.395 
 C                     4.496    -10.68     11.169 
 N                     5.679    -10.505    11.764 
 C                     5.794    -10.806    13.059 
 C                     4.738    -11.285    13.806 
 C                     3.498    -11.511    13.197 
 C                     2.373    -12.05     13.966 
 C                     2.626    -12.853    15.092 
 C                     1.614    -13.326    15.901 
 C                     0.315    -12.993    15.557 
 O                    -0.812    -13.326    16.236 
 C                    -1.849    -12.813    15.527 
 C                    -3.192    -12.896    15.852 
 C                    -4.095    -12.344    14.967 
 C                    -3.69     -11.725    13.771 
 C                    -4.705    -11.236    12.836 
 C                    -4.478    -10.169    11.958 
 C                    -5.484    -9.749     11.109 
 N                    -6.692    -10.316    11.097 
 C                    -6.926    -11.343    11.917 
 C                    -5.968    -11.839    12.776 
 C                    -2.332    -11.608    13.479 
 C                    -1.41     -12.143    14.364 
 C                     0.028    -12.241    14.399 
 C                     1.058    -11.757    13.609 
 C                     3.398    -11.183    11.838 
 H                     4.441    -10.405    10.119 
 H                     6.764    -10.657    13.528 
 H                     4.881    -11.474    14.857 
 H                     3.637    -13.137    15.338 
 H                     1.819    -13.93     16.771 
 H                    -3.512    -13.383    16.76 
 H                    -5.14     -12.382    15.23 
 H                    -3.532    -9.654     11.96 
 H                    -5.329    -8.929     10.415 
 H                    -7.915    -11.797    11.889 
 H                    -6.201    -12.693    13.39 
 H                    -1.992    -11.151    12.565 
 H                     0.832    -11.133    12.76 
 H                     2.477    -11.345    11.305 
 C                     7.259     3.31     -12.391 
 N                     7.824     4.507    -12.566 
 C                     8.598     4.71     -13.632 
 C                     8.831     3.726    -14.572 
 C                     8.226     2.472    -14.426 
 C                     8.41      1.416    -15.424 
 C                     8.565     1.756    -16.778 
 C                     8.724     0.8      -17.761 
 C                     8.728    -0.527    -17.365 
 O                     8.853    -1.613    -18.17 
 C                     8.769    -2.7      -17.361 
 C                     8.816    -4.028    -17.752 
 C                     8.691    -4.985    -16.767 
 C                     8.521    -4.648    -15.413 
 C                     8.368    -5.716    -14.421 
 C                     7.561    -5.564    -13.286 
 C                     7.389    -6.625    -12.42 
 N                     7.966    -7.812    -12.624 
 C                     8.765    -7.967    -13.681 
 C                     9.002    -6.952    -14.586 
 C                     8.478    -3.309    -15.031 
 C                     8.602    -2.335    -16.008 
 C                     8.575    -0.895    -16.011 
 C                     8.417     0.077    -15.038 
 C                     7.428     2.278    -13.291 
 H                     6.649     3.193    -11.498 
 H                     9.053     5.692    -13.741 
 H                     9.484     3.929    -15.404 
 H                     8.531     2.791    -17.079 
 H                     8.838     1.068    -18.799 
 H                     8.941    -4.295    -18.79 
 H                     8.698    -6.021    -17.067 
 H                     7.045    -4.636    -13.108 
 H                     6.766    -6.54     -11.534 
 H                     9.236    -8.939    -13.818 
 H                     9.674    -7.122    -15.411 
 H                     8.384    -3.025    -13.996 
 H                     8.335    -0.207    -14.002 
 H                     6.926     1.338    -13.136 
 C                    -9.014     3.444    -11.306 
 N                    -9.026     4.581    -12.006 
 C                    -9.902     4.723    -13.002 
 C                    -10.808    3.736    -13.332 
 C                    -10.828    2.544    -12.601 
 C                    -11.793    1.486    -12.912 
 C                    -13.089    1.828    -13.329 
 C                    -14.031    0.871    -13.651 
 C                    -13.648   -0.457    -13.556 
 O                    -14.414   -1.544    -13.832 
 C                    -13.635   -2.631    -13.594 
 C                    -14.001   -3.959    -13.735 
 C                    -13.048   -4.915    -13.444 
 C                    -11.757   -4.572    -13.011 
 C                    -10.785   -5.631    -12.726 
 C                    -9.863    -5.528    -11.678 
 C                    -8.992    -6.571    -11.431 
 N                    -8.994    -7.687    -12.163 
 C                    -9.849    -7.795    -13.181 
 C                    -10.749   -6.798    -13.497 
 C                    -11.403   -3.235    -12.86 
 C                    -12.344   -2.263    -13.159 
 C                    -12.353   -0.824    -13.134 
 C                    -11.423    0.148    -12.806 
 C                    -9.891     2.411    -11.569 
 H                    -8.276     3.378    -10.511 
 H                    -9.882     5.657    -13.56 
 H                    -11.485    3.885    -14.159 
 H                    -13.379    2.866    -13.381 
 H                    -15.025    1.139    -13.97 
 H                    -14.992   -4.229    -14.065 
 H                    -13.325   -5.954    -13.531 
 H                    -9.854    -4.653    -11.05 
 H                    -8.268    -6.529    -10.621 
 H                    -9.818    -8.71     -13.769 
 H                    -11.411   -6.92     -14.34 
 H                    -10.408   -2.95     -12.559 
 H                    -10.424   -0.134    -12.517 
 H                    -9.872     1.517    -10.967 
 C                     4.647     5.532    -12.03 
 N                     5.731     6.273    -12.277 
 C                     5.805     6.949    -13.425 
 C                     4.822     6.875    -14.39 
 C                     3.707     6.055    -14.179 
 C                     2.708     5.862    -15.234 
 C                     3.139     5.774    -16.568 
 C                     2.258     5.571    -17.61 
 C                     0.913     5.47     -17.296 
 O                    -0.11      5.28     -18.169 
 C                    -1.246     5.254    -17.427 
 C                    -2.538     5.091    -17.9 
 C                    -3.563     5.128    -16.976 
 C                    -3.319     5.306    -15.605 
 C                    -4.444     5.4      -14.671 
 C                    -4.388     4.853    -13.384 
 C                    -5.454     5.027    -12.525 
 N                    -6.548     5.706    -12.878 
 C                    -6.63      6.216    -14.106 
 C                    -5.611     6.083    -15.028 
 C                    -2.015     5.44     -15.136 
 C                    -0.976     5.423    -16.052 
 C                     0.455     5.562    -15.964 
 C                     1.355     5.748    -14.927 
 C                     3.619     5.404    -12.944 
 H                     4.622     5.025    -11.069 
 H                     6.686     7.567    -13.589 
 H                     4.92      7.443    -15.301 
 H                     4.191     5.841    -16.795 
 H                     2.594     5.498    -18.632 
 H                    -2.728     4.954    -18.953 
 H                    -4.574     4.994    -17.327 
 H                    -3.523     4.291    -13.073 
 H                    -5.449     4.616    -11.517 
 H                    -7.535     6.761    -14.366 
 H                    -5.707     6.532    -16.003 
 H                    -1.813     5.602    -14.09 
 H                     1.004     5.843    -13.913 
 H                     2.776     4.769    -12.727 
 C                     4.714    -8.834    -12.401 
 N                     5.808    -9.508    -12.769 
 C                     5.881    -9.998    -14.007 
 C                     4.878    -9.808    -14.936 
 C                     3.745    -9.063    -14.589 
 C                     2.709    -8.767    -15.583 
 C                     3.093    -8.523    -16.912 
 C                     2.173    -8.236    -17.899 
 C                     0.837    -8.208    -17.535 
 O                    -0.217    -7.962    -18.354 
 C                    -1.329    -8.04     -17.579 
 C                    -2.638    -7.866    -17.997 
 C                    -3.631    -8.013    -17.051 
 C                    -3.34     -8.307    -15.71 
 C                    -4.44     -8.489    -14.758 
 C                    -4.373    -8.013    -13.444 
 C                    -5.434    -8.231    -12.588 
 N                    -6.531    -8.892    -12.968 
 C                    -6.615    -9.35     -14.217 
 C                    -5.602    -9.167    -15.137 
 C                    -2.02     -8.457    -15.293 
 C                    -1.011    -8.334    -16.235 
 C                     0.425    -8.446    -16.206 
 C                     1.365    -8.72     -15.224 
 C                     3.67     -8.595    -13.272 
 H                     4.696    -8.475    -11.374 
 H                     6.774    -10.558   -14.275 
 H                     4.974    -10.235   -15.921 
 H                     4.138    -8.532    -17.178 
 H                     2.473    -8.047    -18.918 
 H                    -2.863    -7.636    -19.027 
 H                    -4.657    -7.872    -17.357 
 H                    -3.507    -7.466    -13.111 
 H                    -5.425    -7.869    -11.561 
 H                    -7.517    -9.89     -14.495 
 H                    -5.702    -9.57     -16.133 
 H                    -1.784    -8.708    -14.272 
 H                     1.049    -8.933    -14.216 
 H                     2.818    -8.018    -12.951 
 
 Stoichiometry    C528H336N48O24Pd12(24+)
 Framework group  C1[X(C528H336N48O24Pd12)]
 Deg. of freedom  2838
 Full point group                 C1      NOp   1
 Largest Abelian subgroup         C1      NOp   1
 Largest concise Abelian subgroup C1      NOp   1
                         Standard orientation:                         
 ---------------------------------------------------------------------
 Center     Atomic      Atomic             Coordinates (Angstroms)
 Number     Number       Type             X           Y           Z
 ---------------------------------------------------------------------
      1         46           0        8.819977    5.717053  -11.417585
      2         46           0       -8.888832   -5.995671   11.231288
      3         46           0       -6.480475  -10.071795   -9.912104
      4         46           0        6.437433   10.055691    9.924871
      5         46           0       -6.673441    5.129757  -13.241874
      6         46           0       -0.310979   15.626573   -3.001894
      7         46           0      -15.517123   -0.707031   -1.890319
      8         46           0       -9.165358    9.215738    8.287868
      9         46           0        9.047696   -9.516785   -8.255699
     10         46           0       15.487001    0.415540    1.767898
     11         46           0        0.255322  -15.371493    2.948210
     12         46           0        6.521954   -5.325407   12.964564
     13          6           0        6.216362    4.793029  -12.357388
     14          7           0        7.357419    5.382989  -12.723224
     15          6           0        7.592469    5.596871  -14.018288
     16          6           0        6.701997    5.213934  -15.001605
     17          6           0        5.514092    4.566079  -14.644155
     18          6           0        4.575345    4.103149  -15.668519
     19          6           0        5.074873    3.598953  -16.881065
     20          6           0        4.241303    3.165033  -17.891344
     21          6           0        2.875989    3.251964  -17.672025
     22          8           0        1.893920    2.897215  -18.539889
     23          6           0        0.718535    3.155932  -17.911136
     24          6           0       -0.551910    2.955347  -18.425125
     25          6           0       -1.621843    3.304604  -17.625524
     26          6           0       -1.444793    3.823005  -16.333820
     27          6           0       -2.625354    4.187078  -15.544463
     28          6           0       -2.719185    3.921999  -14.174266
     29          6           0       -3.876377    4.250232  -13.493769
     30          7           0       -4.914342    4.829533  -14.099228
     31          6           0       -4.831850    5.117440  -15.399961
     32          6           0       -3.716657    4.815272  -16.152657
     33          6           0       -0.165289    4.002335  -15.817787
     34          6           0        0.921050    3.678664  -16.616310
     35          6           0        2.350873    3.745388  -16.459065
     36          6           0        3.201934    4.167306  -15.450523
     37          6           0        5.276993    4.375123  -13.277711
     38          1           0        6.070886    4.655139  -11.287578
     39          1           0        8.526248    6.085881  -14.286200
     40          1           0        6.925282    5.422759  -16.034806
     41          1           0        6.140707    3.522429  -17.030787
     42          1           0        4.628435    2.778576  -18.820685
     43          1           0       -0.690784    2.552315  -19.415722
     44          1           0       -2.619375    3.145690  -18.005741
     45          1           0       -1.905015    3.436083  -13.662173
     46          1           0       -3.991687    4.043397  -12.433101
     47          1           0       -5.686891    5.608592  -15.862373
     48          1           0       -3.686654    5.072665  -17.199440
     49          1           0       -0.014175    4.424191  -14.836878
     50          1           0        2.800275    4.576019  -14.537994
     51          1           0        4.380031    3.875671  -12.950331
     52          6           0        9.040523    2.761463  -11.686645
     53          7           0        9.590168    3.950182  -11.942356
     54          6           0       10.647611    4.006281  -12.753783
     55          6           0       11.201989    2.882315  -13.328595
     56          6           0       10.627431    1.625897  -13.098926
     57          6           0       11.191504    0.421508  -13.712982
     58          6           0       11.911025    0.522681  -14.916753
     59          6           0       12.539669   -0.562666  -15.493011
     60          6           0       12.426393   -1.782088  -14.847588
     61          8           0       12.995672   -2.955891  -15.223352
     62          6           0       12.596337   -3.881116  -14.313935
     63          6           0       12.945508   -5.220884  -14.286727
     64          6           0       12.387088   -6.003309  -13.296404
     65          6           0       11.485744   -5.485750  -12.349539
     66          6           0       10.850344   -6.384841  -11.382372
     67          6           0       10.383593   -5.945431  -10.136518
     68          6           0        9.775759   -6.837021   -9.275199
     69          7           0        9.627666   -8.130248   -9.573932
     70          6           0       10.070093   -8.570966  -10.753449
     71          6           0       10.661186   -7.738784  -11.680853
     72          6           0       11.177927   -4.126390  -12.361679
     73          6           0       11.744711   -3.322238  -13.337307
     74          6           0       11.654355   -1.924929  -13.674599
     75          6           0       11.048486   -0.821191  -13.098551
     76          6           0        9.515620    1.592080  -12.246832
     77          1           0        8.190888    2.757377  -11.010784
     78          1           0       11.078852    4.984654  -12.953315
     79          1           0       12.081150    2.985171  -13.942870
     80          1           0       11.972542    1.467397  -15.433400
     81          1           0       13.103256   -0.470356  -16.408415
     82          1           0       13.623479   -5.631240  -15.018693
     83          1           0       12.679925   -7.040589  -13.254704
     84          1           0       10.516477   -4.920003   -9.835423
     85          1           0        9.390735   -6.519226   -8.311346
     86          1           0        9.943785   -9.628221  -10.976257
     87          1           0       10.962285   -8.142993  -12.633649
     88          1           0       10.480331   -3.700825  -11.659538
     89          1           0       10.515822   -0.931080  -12.168838
     90          1           0        9.013661    0.661139  -12.043971
     91          6           0        7.641215    7.919241   -9.819234
     92          7           0        8.167004    7.554378  -10.990883
     93          6           0        8.599188    8.501698  -11.826390
     94          6           0        8.562931    9.842952  -11.505715
     95          6           0        8.078329   10.241929  -10.255792
     96          6           0        8.150384   11.644138   -9.835590
     97          6           0        9.256433   12.412902  -10.234434
     98          6           0        9.415104   13.726405   -9.846086
     99          6           0        8.429531   14.274742   -9.043493
    100          8           0        8.404358   15.537403   -8.546585
    101          6           0        7.269675   15.635223   -7.808457
    102          6           0        6.842489   16.744379   -7.098102
    103          6           0        5.649069   16.637669   -6.413855
    104          6           0        4.885572   15.458768   -6.424859
    105          6           0        3.618274   15.424148   -5.691917
    106          6           0        3.149698   14.267532   -5.056480
    107          6           0        1.967809   14.310266   -4.343411
    108          7           0        1.243114   15.426394   -4.231390
    109          6           0        1.661357   16.532909   -4.846716
    110          6           0        2.823689   16.572076   -5.589174
    111          6           0        5.334194   14.343427   -7.128198
    112          6           0        6.529688   14.433471   -7.823214
    113          6           0        7.301439   13.528742   -8.637042
    114          6           0        7.164478   12.205997   -9.027893
    115          6           0        7.574840    9.239376   -9.419301
    116          1           0        7.277597    7.115253   -9.185193
    117          1           0        8.994707    8.181731  -12.789875
    118          1           0        8.911611   10.572918  -12.218539
    119          1           0       10.029623   11.966482  -10.840708
    120          1           0       10.270090   14.310483  -10.148055
    121          1           0        7.424254   17.651835   -7.088134
    122          1           0        5.319110   17.486089   -5.835932
    123          1           0        3.723430   13.357289   -5.096275
    124          1           0        1.575303   13.431456   -3.837888
    125          1           0        1.053630   17.429388   -4.742114
    126          1           0        3.106156   17.484245   -6.088395
    127          1           0        4.751186   13.438225   -7.170868
    128          1           0        6.292477   11.643010   -8.738440
    129          1           0        7.179122    9.490447   -8.449243
    130          6           0       10.214871    5.695809   -8.824863
    131          7           0       10.299136    6.040068  -10.112544
    132          6           0       11.367504    6.718444  -10.532821
    133          6           0       12.389966    7.085018   -9.681886
    134          6           0       12.310457    6.762116   -8.322335
    135          6           0       13.358948    7.189201   -7.391952
    136          6           0       14.004544    8.418782   -7.610331
    137          6           0       15.013398    8.871611   -6.786020
    138          6           0       15.377193    8.063887   -5.721387
    139          8           0       16.343314    8.326272   -4.805402
    140          6           0       16.341839    7.279844   -3.941672
    141          6           0       17.159997    7.128726   -2.834075
    142          6           0       16.992249    5.989162   -2.074230
    143          6           0       16.031746    5.014293   -2.392410
    144          6           0       15.896842    3.843089   -1.522483
    145          6           0       14.654302    3.256561   -1.252913
    146          6           0       14.573700    2.206010   -0.360710
    147          7           0       15.648897    1.719440    0.265626
    148          6           0       16.846067    2.240519   -0.003977
    149          6           0       17.013765    3.285665   -0.890263
    150          6           0       15.213123    5.178955   -3.507312
    151          6           0       15.372924    6.313617   -4.286826
    152          6           0       14.735421    6.831455   -5.471302
    153          6           0       13.720987    6.393594   -6.308986
    154          6           0       11.187354    6.036627   -7.907199
    155          1           0        9.328464    5.134651   -8.537672
    156          1           0       11.411712    6.989233  -11.584970
    157          1           0       13.245775    7.609350  -10.074545
    158          1           0       13.695907    9.048935   -8.429740
    159          1           0       15.506664    9.814536   -6.958307
    160          1           0       17.894782    7.876350   -2.583033
    161          1           0       17.607804    5.869685   -1.197165
    162          1           0       13.760439    3.646905   -1.711379
    163          1           0       13.624833    1.729918   -0.121547
    164          1           0       17.706276    1.818654    0.510719
    165          1           0       18.004314    3.660571   -1.089426
    166          1           0       14.492931    4.426699   -3.786078
    167          1           0       13.256598    5.435542   -6.139207
    168          1           0       11.068457    5.769370   -6.869886
    169          6           0      -10.855067   -4.975682    9.278538
    170          7           0      -10.598705   -5.915292   10.193951
    171          6           0      -11.591073   -6.715019   10.586459
    172          6           0      -12.869213   -6.615383   10.077740
    173          6           0      -13.171411   -5.618916    9.142118
    174          6           0      -14.528919   -5.480826    8.607632
    175          6           0      -15.624256   -5.902318    9.380880
    176          6           0      -16.917437   -5.877100    8.899834
    177          6           0      -17.110565   -5.403375    7.613462
    178          8           0      -18.287847   -5.337087    6.942039
    179          6           0      -18.005782   -4.793983    5.730447
    180          6           0      -18.901179   -4.556036    4.702229
    181          6           0      -18.412856   -3.955182    3.560593
    182          6           0      -17.064590   -3.576641    3.428318
    183          6           0      -16.626990   -2.862823    2.226248
    184          6           0      -15.303298   -2.894528    1.767557
    185          6           0      -14.950546   -2.196929    0.628572
    186          7           0      -15.836570   -1.495703   -0.082085
    187          6           0      -17.101999   -1.449591    0.338136
    188          6           0      -17.528461   -2.091848    1.482027
    189          6           0      -16.166315   -3.861549    4.455942
    190          6           0      -16.634998   -4.483857    5.601039
    191          6           0      -16.036101   -4.913844    6.839827
    192          6           0      -14.742214   -4.963361    7.331220
    193          6           0      -12.113961   -4.790900    8.742602
    194          1           0      -10.014895   -4.357820    8.976219
    195          1           0      -11.362146   -7.473441   11.332354
    196          1           0      -13.621366   -7.314519   10.403645
    197          1           0      -15.474429   -6.242797   10.392895
    198          1           0      -17.750504   -6.218107    9.494839
    199          1           0      -19.940472   -4.827426    4.799498
    200          1           0      -19.101657   -3.797353    2.746020
    201          1           0      -14.560627   -3.480434    2.282816
    202          1           0      -13.929087   -2.194924    0.262596
    203          1           0      -17.811388   -0.874907   -0.254939
    204          1           0      -18.553604   -1.984271    1.792947
    205          1           0      -15.130079   -3.572504    4.392420
    206          1           0      -13.922710   -4.645132    6.708678
    207          1           0      -12.282051   -3.994961    8.037467
    208          6           0       -8.063175   -7.855428    9.097577
    209          7           0       -8.465255   -7.736085   10.365084
    210          6           0       -8.911149   -8.818527   11.008870
    211          6           0       -9.025424  -10.048355   10.392133
    212          6           0       -8.657140  -10.182108    9.049691
    213          6           0       -8.866691  -11.454481    8.350162
    214          6           0      -10.077413  -12.136264    8.552263
    215          6           0      -10.355203  -13.333102    7.924019
    216          6           0       -9.374687  -13.859877    7.099436
    217          8           0       -9.440059  -15.030597    6.415314
    218          6           0       -8.252698  -15.162905    5.770049
    219          6           0       -7.865234  -16.222642    4.965350
    220          6           0       -6.588497  -16.189298    4.444491
    221          6           0       -5.712335  -15.121839    4.695628
    222          6           0       -4.339302  -15.172932    4.185531
    223          6           0       -3.673162  -14.033647    3.720828
    224          6           0       -2.360476  -14.135212    3.307585
    225          7           0       -1.691971  -15.292035    3.337521
    226          6           0       -2.314870  -16.392043    3.760170
    227          6           0       -3.627460  -16.376863    4.185190
    228          6           0       -6.124632  -14.042703    5.472580
    229          6           0       -7.397430  -14.068724    6.019358
    230          6           0       -8.143746  -13.199686    6.894344
    231          6           0       -7.894797  -11.980525    7.506814
    232          6           0       -8.126544   -9.055483    8.414109
    233          1           0       -7.690412   -6.949886    8.625351
    234          1           0       -9.192182   -8.703133   12.053956
    235          1           0       -9.396870  -10.897142   10.944304
    236          1           0      -10.829285  -11.707927    9.196478
    237          1           0      -11.288830  -13.850362    8.072613
    238          1           0       -8.535311  -17.045637    4.774416
    239          1           0       -6.271077  -17.004000    3.811878
    240          1           0       -4.188392  -13.087931    3.673997
    241          1           0       -1.808502  -13.272686    2.937745
    242          1           0       -1.745076  -17.318514    3.772125
    243          1           0       -4.085735  -17.285162    4.541951
    244          1           0       -5.456283  -13.226257    5.693096
    245          1           0       -6.951720  -11.479629    7.364378
    246          1           0       -7.815644   -9.113788    7.384114
    247          6           0       -8.854695   -3.114343   11.746695
    248          7           0       -9.402487   -4.276778   12.110014
    249          6           0      -10.288867   -4.294303   13.104560
    250          6           0      -10.663429   -3.147535   13.778076
    251          6           0      -10.087693   -1.921346   13.428913
    252          6           0      -10.439868   -0.684640   14.130712
    253          6           0      -10.763997   -0.721602   15.496893
    254          6           0      -11.094943    0.418611   16.202975
    255          6           0      -11.097435    1.618413   15.512409
    256          8           0      -11.376796    2.847632   16.017597
    257          6           0      -11.222051    3.726409   14.994407
    258          6           0      -11.374044    5.101641   15.053090
    259          6           0      -11.143880    5.815811   13.893917
    260          6           0      -10.768634    5.192198   12.691993
    261          6           0      -10.498322    6.014074   11.510095
    262          6           0       -9.513950    5.667284   10.575697
    263          6           0       -9.228733    6.523159    9.530615
    264          7           0       -9.861578    7.687338    9.369683
    265          6           0      -10.835903    8.014326   10.221419
    266          6           0      -11.190823    7.209145   11.284572
    267          6           0      -10.625253    3.808506   12.644186
    268          6           0      -10.853031    3.076856   13.797905
    269          6           0      -10.772858    1.680905   14.140143
    270          6           0      -10.445139    0.528254   13.447209
    271          6           0       -9.161833   -1.927905   12.378303
    272          1           0       -8.144599   -3.155332   10.923070
    273          1           0      -10.722726   -5.254349   13.372731
    274          1           0      -11.404873   -3.206874   14.558425
    275          1           0      -10.730753   -1.657304   16.032696
    276          1           0      -11.339585    0.382738   17.252091
    277          1           0      -11.655581    5.589176   15.972539
    278          1           0      -11.230517    6.890705   13.938096
    279          1           0       -8.950777    4.756608   10.695655
    280          1           0       -8.462537    6.286347    8.798817
    281          1           0      -11.354488    8.956746   10.055349
    282          1           0      -11.996144    7.509685   11.935099
    283          1           0      -10.372049    3.303117   11.726297
    284          1           0      -10.234793    0.577760   12.391469
    285          1           0       -8.672766   -1.015466   12.080776
    286          6           0       -6.176762   -5.269979   12.078619
    287          7           0       -7.261853   -5.987644   12.382638
    288          6           0       -7.425062   -6.415267   13.636201
    289          6           0       -6.536661   -6.099786   14.644487
    290          6           0       -5.428290   -5.293638   14.361888
    291          6           0       -4.539815   -4.839981   15.436330
    292          6           0       -5.104260   -4.493031   16.675245
    293          6           0       -4.335810   -4.040072   17.728395
    294          6           0       -2.968697   -3.951677   17.525313
    295          8           0       -2.044111   -3.545305   18.432315
    296          6           0       -0.839191   -3.624647   17.810888
    297          6           0        0.393148   -3.314685   18.361571
    298          6           0        1.507441   -3.497946   17.567505
    299          6           0        1.407747   -3.961536   16.246547
    300          6           0        2.628627   -4.190536   15.468759
    301          6           0        2.708946   -3.899438   14.102215
    302          6           0        3.872988   -4.175991   13.414562
    303          7           0        4.936863   -4.722198   14.009084
    304          6           0        4.884933   -4.995999   15.312257
    305          6           0        3.761684   -4.743240   16.073658
    306          6           0        0.162737   -4.243936   15.692741
    307          6           0       -0.964676   -4.083785   16.482716
    308          6           0       -2.376779   -4.298988   16.291505
    309          6           0       -3.166018   -4.734955   15.238605
    310          6           0       -5.240411   -4.911341   13.028609
    311          1           0       -6.073648   -4.974193   11.037573
    312          1           0       -8.302092   -7.022201   13.850525
    313          1           0       -6.706195   -6.470134   15.642431
    314          1           0       -6.172579   -4.553590   16.812187
    315          1           0       -4.772588   -3.770335   18.675308
    316          1           0        0.471321   -2.956372   19.376348
    317          1           0        2.475308   -3.253013   17.978082
    318          1           0        1.869715   -3.448804   13.596533
    319          1           0        3.976279   -3.959662   12.353232
    320          1           0        5.766261   -5.441198   15.769070
    321          1           0        3.754574   -4.999941   17.121086
    322          1           0        0.073350   -4.623051   14.687477
    323          1           0       -2.714940   -5.024161   14.304240
    324          1           0       -4.395163   -4.301598   12.756362
    325          6           0       -7.594330   -7.383124  -10.464072
    326          7           0       -7.509717   -8.656931  -10.852515
    327          6           0       -8.205563   -9.059694  -11.916341
    328          6           0       -9.014840   -8.205182  -12.636415
    329          6           0       -9.126056   -6.866243  -12.243388
    330          6           0       -9.976133   -5.934634  -12.988765
    331          6           0      -11.173597   -6.391054  -13.564325
    332          6           0      -11.993055   -5.561837  -14.303675
    333          6           0      -11.589357   -4.246782  -14.466720
    334          8           0      -12.241810   -3.277098  -15.158765
    335          6           0      -11.492870   -2.150013  -15.035921
    336          6           0      -11.777798   -0.904344  -15.569654
    337          6           0      -10.883020    0.115263  -15.313961
    338          6           0       -9.728165   -0.082425  -14.539615
    339          6           0       -8.834951    1.049803  -14.281053
    340          6           0       -8.189950    1.213771  -13.049314
    341          6           0       -7.430047    2.342385  -12.822627
    342          7           0       -7.278997    3.296262  -13.745640
    343          6           0       -7.847547    3.136834  -14.940710
    344          6           0       -8.618507    2.035103  -15.250318
    345          6           0       -9.452424   -1.337922  -14.005721
    346          6           0      -10.334950   -2.374045  -14.259961
    347          6           0      -10.397361   -3.763211  -13.887429
    348          6           0       -9.588816   -4.607081  -13.143476
    349          6           0       -8.386471   -6.465318  -11.125391
    350          1           0       -7.005254   -7.105960   -9.593704
    351          1           0       -8.115738  -10.104643  -12.211289
    352          1           0       -9.539804   -8.568076  -13.504305
    353          1           0      -11.486865   -7.412115  -13.413261
    354          1           0      -12.911212   -5.917825  -14.743980
    355          1           0      -12.665304   -0.745556  -16.160343
    356          1           0      -11.105162    1.096398  -15.705448
    357          1           0       -8.319471    0.481825  -12.269675
    358          1           0       -6.924422    2.509181  -11.873394
    359          1           0       -7.687170    3.917196  -15.681428
    360          1           0       -9.049786    1.942229  -16.233980
    361          1           0       -8.555010   -1.517929  -13.436932
    362          1           0       -8.660131   -4.243340  -12.734779
    363          1           0       -8.451538   -5.450429  -10.768382
    364          6           0       -3.908687   -8.991156  -10.759920
    365          7           0       -4.916859   -9.792268  -11.116785
    366          6           0       -4.814877  -10.506099  -12.237473
    367          6           0       -3.695816  -10.451768  -13.044883
    368          6           0       -2.621435   -9.633071  -12.681679
    369          6           0       -1.406219   -9.603175  -13.500546
    370          6           0       -1.518458   -9.648500  -14.899470
    371          6           0       -0.408745   -9.694073  -15.717509
    372          6           0        0.833153   -9.714580  -15.104957
    373          8           0        2.036366   -9.810952  -15.726636
    374          6           0        2.973542   -9.822109  -14.744005
    375          6           0        4.341965   -9.938599  -14.919488
    376          6           0        5.125272   -9.958695  -13.783736
    377          6           0        4.572745   -9.834994  -12.498831
    378          6           0        5.486170   -9.853990  -11.350033
    379          6           0        5.388852   -8.942407  -10.295459
    380          6           0        6.358627   -8.935445   -9.309516
    381          7           0        7.379272   -9.796444   -9.309645
    382          6           0        7.446591  -10.721198  -10.271328
    383          6           0        6.532347  -10.782324  -11.301953
[...]
 H,0,-17.116,6.137,9.399\H,0,-14.756,6.445,9.962\H,0,-11.68,4.723,7.045
 \H,0,-9.371,4.925,7.917\H,0,-10.754,5.941,11.677\H,0,-13.083,5.65,10.9
 94\H,0,-13.584,3.657,6.898\H,0,-14.97,2.392,4.788\H,0,-14.757,0.459,3.
 74\C,0,-14.501,0.625,-2.068\N,0,-15.616,-0.106,-1.998\C,0,-16.738,0.36
 8,-2.547\C,0,-16.801,1.615,-3.136\C,0,-15.656,2.417,-3.174\C,0,-15.729
 ,3.783,-3.704\C,0,-16.824,4.583,-3.34\C,0,-16.961,5.881,-3.788\C,0,-15
 .984,6.364,-4.643\O,0,-15.948,7.596,-5.212\C,0,-14.839,7.623,-5.995\C,
 0,-14.413,8.679,-6.785\C,0,-13.283,8.482,-7.551\C,0,-12.572,7.272,-7.5
 27\C,0,-11.425,7.085,-8.42\C,0,-10.286,6.371,-8.032\C,0,-9.263,6.179,-
 8.938\N,0,-9.32,6.651,-10.187\C,0,-10.389,7.349,-10.57\C,0,-11.452,7.5
 9,-9.724\C,0,-12.985,6.231,-6.7\C,0,-14.129,6.405,-5.938\C,0,-14.883,5
 .572,-5.035\C,0,-14.743,4.281,-4.548\C,0,-14.475,1.875,-2.658\H,0,-13.
 611,0.186,-1.624\H,0,-17.622,-0.266,-2.514\H,0,-17.728,1.965,-3.562\H,
 0,-17.573,4.189,-2.671\H,0,-17.797,6.497,-3.5\H,0,-14.96,9.608,-6.808\
 H,0,-12.934,9.295,-8.169\H,0,-10.205,5.987,-7.028\H,0,-8.36,5.631,-8.6
 74\H,0,-10.406,7.721,-11.592\H,0,-12.308,8.139,-10.082\H,0,-12.463,5.2
 88,-6.687\H,0,-13.912,3.668,-4.855\H,0,-13.564,2.45,-2.678\C,0,-15.168
 ,-3.865,1.017\N,0,-16.173,-3.118,0.553\C,0,-17.418,-3.391,0.941\C,0,-1
 7.709,-4.425,1.81\C,0,-16.675,-5.234,2.293\C,0,-16.941,-6.354,3.199\C,
 0,-18.14,-7.077,3.087\C,0,-18.432,-8.145,3.913\C,0,-17.492,-8.487,4.87
 \O,0,-17.575,-9.505,5.765\C,0,-16.418,-9.486,6.475\C,0,-16.048,-10.364
 ,7.48\C,0,-14.808,-10.18,8.059\C,0,-13.94,-9.15,7.659\C,0,-12.621,-9.0
 38,8.286\C,0,-11.496,-8.604,7.573\C,0,-10.256,-8.608,8.18\N,0,-10.08,-
 9.015,9.439\C,0,-11.146,-9.387,10.151\C,0,-12.421,-9.4,9.623\C,0,-14.3
 26,-8.27,6.652\C,0,-15.567,-8.44,6.061\C,0,-16.279,-7.777,5.\C,0,-16.0
 03,-6.708,4.165\C,0,-15.375,-4.925,1.874\H,0,-14.171,-3.593,0.676\H,0,
 -18.214,-2.761,0.552\H,0,-18.729,-4.591,2.117\H,0,-18.853,-6.821,2.319
 \H,0,-19.353,-8.697,3.819\H,0,-16.705,-11.161,7.789\H,0,-14.499,-10.87
 8,8.822\H,0,-11.59,-8.309,6.541\H,0,-9.365,-8.289,7.648\H,0,-10.981,-9
 .691,11.183\H,0,-13.252,-9.693,10.244\H,0,-13.693,-7.451,6.351\H,0,-15
 .092,-6.147,4.294\H,0,-14.543,-5.527,2.199\C,0,-14.649,-3.734,-2.395\N
 ,0,-15.759,-3.026,-2.168\C,0,-16.925,-3.485,-2.627\C,0,-17.034,-4.693,
 -3.286\C,0,-15.894,-5.482,-3.476\C,0,-16.001,-6.823,-4.059\C,0,-17.106
 ,-7.62,-3.716\C,0,-17.267,-8.899,-4.209\C,0,-16.297,-9.372,-5.077\O,0,
 -16.278,-10.589,-5.678\C,0,-15.157,-10.619,-6.444\C,0,-14.735,-11.667,
 -7.245\C,0,-13.578,-11.482,-7.975\C,0,-12.839,-10.291,-7.903\C,0,-11.6
 49,-10.129,-8.743\C,0,-10.498,-9.475,-8.289\C,0,-9.424,-9.317,-9.141\N
 ,0,-9.443,-9.765,-10.399\C,0,-10.525,-10.401,-10.847\C,0,-11.638,-10.6
 07,-10.057\C,0,-13.256,-9.254,-7.074\C,0,-14.426,-9.416,-6.349\C,0,-15
 .18,-8.589,-5.441\C,0,-15.025,-7.313,-4.922\C,0,-14.672,-4.952,-3.046\
 H,0,-13.721,-3.301,-2.03\H,0,-17.809,-2.875,-2.454\H,0,-17.996,-5.023,
 -3.643\H,0,-17.845,-7.242,-3.027\H,0,-18.113,-9.509,-3.94\H,0,-15.301,
 -12.584,-7.3\H,0,-13.23,-12.292,-8.598\H,0,-10.449,-9.111,-7.275\H,0,-
 8.51,-8.819,-8.824\H,0,-10.512,-10.754,-11.876\H,0,-12.501,-11.108,-10
 .466\H,0,-12.711,-8.325,-7.027\H,0,-14.187,-6.704,-5.217\H,0,-13.763,-
 5.514,-3.181\C,0,0.237,12.679,2.47\N,0,0.106,13.729,1.657\C,0,0.335,14
 .953,2.134\C,0,0.705,15.178,3.444\C,0,0.841,14.093,4.318\C,0,1.234,14.
 3,5.714\C,0,0.797,15.446,6.399\C,0,1.166,15.704,7.704\C,0,1.997,14.786
 ,8.325\O,0,2.479,14.855,9.593\C,0,3.232,13.739,9.777\C,0,3.911,13.379,
 10.929\C,0,4.612,12.19,10.907\C,0,4.641,11.362,9.773\C,0,5.38,10.098,9
 .826\C,0,4.912,8.943,9.188\C,0,5.596,7.755,9.341\N,0,6.705,7.662,10.08
 \C,0,7.192,8.76,10.658\C,0,6.572,9.988,10.55\C,0,3.953,11.732,8.621\C,
 0,3.252,12.926,8.623\C,0,2.438,13.622,7.661\C,0,2.054,13.375,6.353\C,0
 ,0.597,12.818,3.796\H,0,0.042,11.704,2.031\H,0,0.222,15.791,1.447\H,0,
 0.904,16.182,3.78\H,0,0.134,16.143,5.911\H,0,0.828,16.586,8.225\H,0,3.
 888,14.008,11.804\H,0,5.127,11.887,11.806\H,0,4.001,8.974,8.614\H,0,5.
 255,6.835,8.87\H,0,8.11,8.66,11.233\H,0,7.008,10.852,11.025\H,0,3.99,1
 1.127,7.73\H,0,2.424,12.504,5.837\H,0,0.668,11.95,4.431\C,0,1.996,12.4
 52,-1.151\N,0,1.383,13.608,-0.88\C,0,2.001,14.754,-1.164\C,0,3.257,14.
 79,-1.737\C,0,3.91,13.592,-2.045\C,0,5.221,13.613,-2.7\C,0,6.162,14.58
 5,-2.324\C,0,7.384,14.697,-2.954\C,0,7.646,13.822,-3.995\O,0,8.76,13.8
 04,-4.771\C,0,8.579,12.807,-5.675\C,0,9.455,12.45,-6.686\C,0,9.07,11.4
 22,-7.522\C,0,7.857,10.737,-7.346\C,0,7.538,9.648,-8.277\C,0,7.043,8.4
 13,-7.85\C,0,6.885,7.389,-8.766\N,0,7.161,7.546,-10.063\C,0,7.566,8.74
 2,-10.499\C,0,7.769,9.808,-9.648\C,0,6.992,11.089,-6.316\C,0,7.347,12.
 144,-5.487\C,0,6.725,12.823,-4.379\C,0,5.51,12.711,-3.72\C,0,3.247,12.
 401,-1.73\H,0,1.45,11.548,-0.885\H,0,1.477,15.679,-0.935\H,0,3.713,15.
 739,-1.969\H,0,5.942,15.255,-1.508\H,0,8.105,15.445,-2.667\H,0,10.391,
 12.969,-6.816\H,0,9.739,11.127,-8.316\H,0,6.833,8.248,-6.806\H,0,6.539
 ,6.404,-8.464\H,0,7.741,8.855,-11.568\H,0,8.105,10.755,-10.038\H,0,6.0
 48,10.585,-6.187\H,0,4.788,11.974,-4.032\H,0,3.72,11.452,-1.926\C,0,-2
 .997,12.477,0.69\N,0,-2.384,13.632,0.412\C,0,-3.016,14.78,0.659\C,0,-4
 .288,14.819,1.195\C,0,-4.943,13.624,1.506\C,0,-6.28,13.637,2.106\C,0,-
 7.23,14.569,1.661\C,0,-8.494,14.642,2.211\C,0,-8.791,13.767,3.243\O,0,
 -9.962,13.691,3.927\C,0,-9.803,12.706,4.848\C,0,-10.744,12.281,5.772\C
 ,0,-10.373,11.271,6.636\C,0,-9.1,10.68,6.589\C,0,-8.768,9.62,7.545\C,0
 ,-7.972,8.523,7.193\C,0,-7.738,7.525,8.117\N,0,-8.245,7.565,9.352\C,0,
 -8.98,8.615,9.718\C,0,-9.257,9.657,8.856\C,0,-8.169,11.101,5.644\C,0,-
 8.521,12.121,4.774\C,0,-7.851,12.822,3.708\C,0,-6.595,12.748,3.13\C,0,
 -4.263,12.43,1.236\H,0,-2.439,11.572,0.457\H,0,-2.49,15.703,0.428\H,0,
 -4.757,15.769,1.395\H,0,-6.984,15.237,0.85\H,0,-9.224,15.356,1.864\H,0
 ,-11.722,12.732,5.812\H,0,-11.101,10.918,7.35\H,0,-7.573,8.443,6.195\H
 ,0,-7.131,6.653,7.877\H,0,-9.372,8.626,10.733\H,0,-9.842,10.494,9.201\
 H,0,-7.178,10.679,5.61\H,0,-5.866,12.045,3.5\H,0,-4.736,11.483,1.438\C
 ,0,-1.117,12.649,-2.95\N,0,-1.082,13.703,-2.133\C,0,-1.265,14.924,-2.6
 39\C,0,-1.478,15.141,-3.985\C,0,-1.494,14.053,-4.864\C,0,-1.685,14.253
 ,-6.303\C,0,-1.13,15.382,-6.928\C,0,-1.291,15.624,-8.278\C,0,-2.036,14
 .711,-9.005\O,0,-2.32,14.766,-10.333\C,0,-3.066,13.666,-10.611\C,0,-3.
 581,13.302,-11.844\C,0,-4.324,12.14,-11.905\C,0,-4.551,11.341,-10.773\
 C,0,-5.362,10.127,-10.888\C,0,-5.067,8.97,-10.156\C,0,-5.856,7.848,-10
 .307\N,0,-6.904,7.823,-11.134\C,0,-7.209,8.917,-11.832\C,0,-6.473,10.0
 81,-11.737\C,0,-4.019,11.708,-9.541\C,0,-3.28,12.877,-9.461\C,0,-2.599
 ,13.568,-8.399\C,0,-2.42,13.334,-7.046\C,0,-1.32,12.78,-4.309\H,0,-0.9
 73,11.677,-2.486\H,0,-1.242,15.764,-1.946\H,0,-1.64,16.143,-4.347\H,0,
 -0.537,16.075,-6.353\H,0,-0.862,16.492,-8.752\H,0,-3.408,13.91,-12.718
 \H,0,-4.717,11.835,-12.863\H,0,-4.214,8.95,-9.499\H,0,-5.656,6.931,-9.
 758\H,0,-8.074,8.868,-12.491\H,0,-6.766,10.949,-12.305\H,0,-4.208,11.1
 25,-8.654\H,0,-2.879,12.478,-6.579\H,0,-1.315,11.91,-4.945\C,0,1.668,-
 16.588,1.363\N,0,0.863,-17.565,0.938\C,0,1.027,-18.796,1.426\C,0,2.025
 ,-19.107,2.328\C,0,2.92,-18.112,2.738\C,0,4.062,-18.432,3.599\C,0,4.70
 1,-19.674,3.452\C,0,5.802,-20.026,4.206\C,0,6.263,-19.104,5.13\O,0,7.3
 33,-19.247,5.953\C,0,7.426,-18.094,6.663\C,0,8.387,-17.782,7.611\C,0,8
 .304,-16.544,8.217\C,0,7.295,-15.623,7.894\C,0,7.258,-14.323,8.569\C,0
 ,6.825,-13.164,7.912\C,0,6.825,-11.959,8.584\N,0,7.232,-11.851,9.851\C
 ,0,7.637,-12.943,10.499\C,0,7.658,-14.188,9.903\C,0,6.338,-15.944,6.93
 4\C,0,6.405,-17.183,6.318\C,0,5.635,-17.851,5.301\C,0,4.533,-17.512,4.
 532\C,0,2.696,-16.817,2.256\H,0,1.475,-15.597,0.961\H,0,0.342,-19.569,
 1.083\H,0,2.111,-20.113,2.705\H,0,4.351,-20.374,2.709\H,0,6.292,-20.97
 9,4.084\H,0,9.166,-18.484,7.861\H,0,9.063,-16.28,8.937\H,0,6.521,-13.2
 09,6.88\H,0,6.496,-11.039,8.105\H,0,7.952,-12.824,11.534\H,0,7.971,-15
 .047,10.473\H,0,5.537,-15.266,6.693\H,0,4.039,-16.567,4.684\H,0,3.351,
 -16.012,2.545\C,0,2.181,-16.534,-2.158\N,0,1.489,-17.608,-1.77\C,0,1.8
 98,-18.817,-2.152\C,0,3.012,-19.,-2.946\C,0,3.751,-17.89,-3.369\C,0,4.
 926,-18.049,-4.229\C,0,5.756,-19.171,-4.072\C,0,6.858,-19.383,-4.875\C
 ,0,7.121,-18.444,-5.859\O,0,8.143,-18.472,-6.751\C,0,8.021,-17.352,-7.
 507\C,0,8.856,-16.96,-8.54\C,0,8.563,-15.771,-9.177\C,0,7.469,-14.972,
 -8.802\C,0,7.251,-13.7,-9.497\C,0,6.764,-12.566,-8.835\C,0,6.682,-11.3
 63,-9.508\N,0,7.051,-11.232,-10.784\C,0,7.469,-12.313,-11.447\C,0,7.57
 ,-13.554,-10.852\C,0,6.634,-15.379,-7.764\C,0,6.909,-16.574,-7.119\C,0
 ,6.309,-17.301,-6.029\C,0,5.21,-17.102,-5.21\C,0,3.309,-16.63,-2.946\H
 ,0,1.805,-15.572,-1.814\H,0,1.315,-19.672,-1.818\H,0,3.291,-19.995,-3.
 253\H,0,5.552,-19.884,-3.288\H,0,7.494,-20.245,-4.75\H,0,9.701,-17.564
 ,-8.828\H,0,9.22,-15.447,-9.968\H,0,6.496,-12.621,-7.793\H,0,6.322,-10
 .463,-9.018\H,0,7.739,-12.188,-12.494\H,0,7.898,-14.399,-11.434\H,0,5.
 77,-14.799,-7.483\H,0,4.57,-16.249,-5.365\H,0,3.857,-15.744,-3.221\C,0
 ,-2.502,-16.08,0.508\N,0,-1.931,-17.257,0.24\C,0,-2.604,-18.38,0.498\C
 ,0,-3.886,-18.371,1.007\C,0,-4.515,-17.149,1.269\C,0,-5.897,-17.118,1.
 757\C,0,-6.826,-18.018,1.211\C,0,-8.14,-18.053,1.629\C,0,-8.511,-17.17
 4,2.633\O,0,-9.743,-17.066,3.194\C,0,-9.648,-16.094,4.137\C,0,-10.666,
 -15.65,4.964\C,0,-10.354,-14.666,5.88\C,0,-9.065,-14.117,5.972\C,0,-8.
 799,-13.094,6.988\C,0,-7.949,-12.007,6.751\C,0,-7.775,-11.052,7.732\N,
 0,-8.391,-11.125,8.916\C,0,-9.186,-12.164,9.169\C,0,-9.41,-13.164,8.24
 4\C,0,-8.056,-14.551,5.118\C,0,-8.348,-15.549,4.201\C,0,-7.594,-16.263
 ,3.2\C,0,-6.283,-16.224,2.751\C,0,-3.779,-15.984,1.027\H,0,-1.907,-15.
 197,0.288\H,0,-2.107,-19.325,0.289\H,0,-4.392,-19.301,1.208\H,0,-6.52,
 -18.689,0.423\H,0,-8.854,-18.742,1.206\H,0,-11.656,-16.071,4.897\H,0,-
 11.139,-14.3,6.523\H,0,-7.458,-11.902,5.798\H,0,-7.129,-10.188,7.583\H
 ,0,-9.672,-12.202,10.142\H,0,-10.046,-13.995,8.501\H,0,-7.055,-14.159,
 5.192\H,0,-5.573,-15.547,3.196\H,0,-4.221,-15.019,1.213\C,0,-1.176,-16
 .351,-3.298\N,0,-1.168,-17.409,-2.483\C,0,-1.544,-18.597,-2.96\C,0,-1.
 913,-18.781,-4.277\C,0,-1.883,-17.696,-5.159\C,0,-2.181,-17.877,-6.582
 \C,0,-1.757,-19.051,-7.226\C,0,-1.991,-19.275,-8.568\C,0,-2.677,-18.29
 6,-9.267\O,0,-3.004,-18.321,-10.585\C,0,-3.659,-17.159,-10.838\C,0,-4.
 17,-16.747,-12.057\C,0,-4.814,-15.527,-12.096\C,0,-4.951,-14.72,-10.95
 4\C,0,-5.671,-13.448,-11.051\C,0,-5.296,-12.321,-10.31\C,0,-6.003,-11.
 144,-10.451\N,0,-7.043,-11.035,-11.279\C,0,-7.424,-12.1,-11.987\C,0,-6
 .776,-13.315,-11.898\C,0,-4.417,-15.135,-9.738\C,0,-3.772,-16.36,-9.68
 \C,0,-3.118,-17.111,-8.64\C,0,-2.864,-16.896,-7.295\C,0,-1.529,-16.45,
 -4.629\H,0,-0.881,-15.403,-2.855\H,0,-1.55,-19.438,-2.268\H,0,-2.221,-
 19.757,-4.616\H,0,-1.205,-19.795,-6.674\H,0,-1.658,-20.176,-9.059\H,0,
 -4.069,-17.363,-12.936\H,0,-5.199,-15.184,-13.044\H,0,-4.443,-12.366,-
 9.652\H,0,-5.738,-10.25,-9.893\H,0,-8.28,-11.984,-12.65\H,0,-7.134,-14
 .155,-12.472\H,0,-4.535,-14.544,-8.844\H,0,-3.225,-16.003,-6.811\H,0,-
 1.493,-15.582,-5.266\C,0,7.223,3.036,11.317\N,0,7.901,4.163,11.558\C,0
 ,8.689,4.227,12.632\C,0,8.793,3.187,13.534\C,0,8.035,2.026,13.34\C,0,8
 .018,0.965,14.35\C,0,8.075,1.326,15.707\C,0,8.039,0.386,16.716\C,0,7.9
 52,-0.945,16.342\O,0,7.908,-2.014,17.176\C,0,7.822,-3.112,16.384\C,0,7
 .753,-4.428,16.811\C,0,7.692,-5.405,15.839\C,0,7.683,-5.093,14.47\C,0,
 7.648,-6.192,13.501\C,0,6.881,-6.151,12.333\C,0,6.849,-7.251,11.497\N,
 0,7.541,-8.362,11.758\C,0,8.309,-8.405,12.849\C,0,8.392,-7.353,13.737\
 C,0,7.727,-3.767,14.051\C,0,7.807,-2.772,15.014\C,0,7.893,-1.334,14.98
 6\C,0,7.92,-0.375,13.985\C,0,7.267,1.954,12.172\H,0,6.624,3.022,10.41\
 H,0,9.255,5.143,12.787\H,0,9.449,3.28,14.384\H,0,8.121,2.368,15.983\H,
 0,8.078,0.666,17.756\H,0,7.756,-4.669,17.862\H,0,7.625,-6.435,16.154\H
 ,0,6.291,-5.278,12.104\H,0,6.248,-7.261,10.592\H,0,8.884,-9.312,13.029
 \H,0,9.033,-7.427,14.601\H,0,7.742,-3.515,13.003\H,0,7.904,-0.671,12.9
 5\H,0,6.676,1.076,11.967\C,0,-7.559,3.196,11.279\N,0,-8.107,4.339,11.7
 \C,0,-8.508,4.436,12.968\C,0,-8.368,3.399,13.868\C,0,-7.767,2.203,13.4
 59\C,0,-7.549,1.11,14.411\C,0,-7.236,1.418,15.745\C,0,-7.024,0.439,16.
 693\C,0,-7.139,-0.879,16.284\O,0,-6.974,-1.982,17.057\C,0,-7.168,-3.05
 1,16.244\C,0,-7.089,-4.386,16.605\C,0,-7.325,-5.324,15.622\C,0,-7.626,
 -4.958,14.3\C,0,-7.867,-6.006,13.305\C,0,-7.443,-5.878,11.977\C,0,-7.6
 54,-6.916,11.091\N,0,-8.255,-8.052,11.457\C,0,-8.687,-8.185,12.711\C,0
 ,-8.52,-7.192,13.656\C,0,-7.692,-3.613,13.944\C,0,-7.467,-2.657,14.922
 \C,0,-7.448,-1.216,14.948\C,0,-7.649,-0.219,14.007\C,0,-7.372,2.116,12
 .118\H,0,-7.26,3.166,10.233\H,0,-8.953,5.376,13.286\H,0,-8.729,3.517,1
 4.877\H,0,-7.13,2.448,16.046\H,0,-6.782,0.681,17.716\H,0,-6.855,-4.671
 ,17.618\H,0,-7.246,-6.368,15.883\H,0,-6.928,-4.988,11.657\H,0,-7.332,-
 6.858,10.053\H,0,-9.176,-9.118,12.978\H,0,-8.902,-7.336,14.654\H,0,-7.
 951,-3.313,12.942\H,0,-7.918,-0.476,12.995\H,0,-6.896,1.221,11.752\C,0
 ,4.648,5.364,11.768\N,0,5.827,5.93,12.038\C,0,5.982,6.593,13.184\C,0,4
 .96,6.725,14.102\C,0,3.714,6.144,13.839\C,0,2.6,6.288,14.779\C,0,2.851
 ,6.335,16.16\C,0,1.838,6.501,17.083\C,0,0.547,6.627,16.597\O,0,-0.581,
 6.804,17.331\C,0,-1.609,6.853,16.445\C,0,-2.952,7.009,16.745\C,0,-3.84
 2,7.01,15.691\C,0,-3.424,6.852,14.359\C,0,-4.433,6.8,13.296\C,0,-4.281
 ,5.977,12.174\C,0,-5.31,5.867,11.261\N,0,-6.463,6.525,11.403\C,0,-6.60
 5,7.36,12.435\C,0,-5.62,7.535,13.386\C,0,-2.07,6.707,14.068\C,0,-1.162
 ,6.712,15.114\C,0,0.268,6.569,15.215\C,0,1.296,6.399,14.303\C,0,3.579,
 5.442,12.635\H,0,4.578,4.834,10.821\H,0,6.955,7.04,13.377\H,0,5.122,7.
 294,15.002\H,0,3.858,6.212,16.527\H,0,2.037,6.536,18.142\H,0,-3.281,7.
 12,17.766\H,0,-4.893,7.106,15.917\H,0,-3.383,5.394,12.047\H,0,-5.229,5
 .224,10.389\H,0,-7.541,7.91,12.512\H,0,-5.777,8.23,14.195\H,0,-1.722,6
 .623,13.052\H,0,1.084,6.394,13.246\H,0,2.65,4.952,12.395\C,0,4.496,-10
 .68,11.169\N,0,5.679,-10.505,11.764\C,0,5.794,-10.806,13.059\C,0,4.738
 ,-11.285,13.806\C,0,3.498,-11.511,13.197\C,0,2.373,-12.05,13.966\C,0,2
 .626,-12.853,15.092\C,0,1.614,-13.326,15.901\C,0,0.315,-12.993,15.557\
 O,0,-0.812,-13.326,16.236\C,0,-1.849,-12.813,15.527\C,0,-3.192,-12.896
 ,15.852\C,0,-4.095,-12.344,14.967\C,0,-3.69,-11.725,13.771\C,0,-4.705,
 -11.236,12.836\C,0,-4.478,-10.169,11.958\C,0,-5.484,-9.749,11.109\N,0,
 -6.692,-10.316,11.097\C,0,-6.926,-11.343,11.917\C,0,-5.968,-11.839,12.
 776\C,0,-2.332,-11.608,13.479\C,0,-1.41,-12.143,14.364\C,0,0.028,-12.2
 41,14.399\C,0,1.058,-11.757,13.609\C,0,3.398,-11.183,11.838\H,0,4.441,
 -10.405,10.119\H,0,6.764,-10.657,13.528\H,0,4.881,-11.474,14.857\H,0,3
 .637,-13.137,15.338\H,0,1.819,-13.93,16.771\H,0,-3.512,-13.383,16.76\H
 ,0,-5.14,-12.382,15.23\H,0,-3.532,-9.654,11.96\H,0,-5.329,-8.929,10.41
 5\H,0,-7.915,-11.797,11.889\H,0,-6.201,-12.693,13.39\H,0,-1.992,-11.15
 1,12.565\H,0,0.832,-11.133,12.76\H,0,2.477,-11.345,11.305\C,0,7.259,3.
 31,-12.391\N,0,7.824,4.507,-12.566\C,0,8.598,4.71,-13.632\C,0,8.831,3.
 726,-14.572\C,0,8.226,2.472,-14.426\C,0,8.41,1.416,-15.424\C,0,8.565,1
 .756,-16.778\C,0,8.724,0.8,-17.761\C,0,8.728,-0.527,-17.365\O,0,8.853,
 -1.613,-18.17\C,0,8.769,-2.7,-17.361\C,0,8.816,-4.028,-17.752\C,0,8.69
 1,-4.985,-16.767\C,0,8.521,-4.648,-15.413\C,0,8.368,-5.716,-14.421\C,0
 ,7.561,-5.564,-13.286\C,0,7.389,-6.625,-12.42\N,0,7.966,-7.812,-12.624
 \C,0,8.765,-7.967,-13.681\C,0,9.002,-6.952,-14.586\C,0,8.478,-3.309,-1
 5.031\C,0,8.602,-2.335,-16.008\C,0,8.575,-0.895,-16.011\C,0,8.417,0.07
 7,-15.038\C,0,7.428,2.278,-13.291\H,0,6.649,3.193,-11.498\H,0,9.053,5.
 692,-13.741\H,0,9.484,3.929,-15.404\H,0,8.531,2.791,-17.079\H,0,8.838,
 1.068,-18.799\H,0,8.941,-4.295,-18.79\H,0,8.698,-6.021,-17.067\H,0,7.0
 45,-4.636,-13.108\H,0,6.766,-6.54,-11.534\H,0,9.236,-8.939,-13.818\H,0
 ,9.674,-7.122,-15.411\H,0,8.384,-3.025,-13.996\H,0,8.335,-0.207,-14.00
 2\H,0,6.926,1.338,-13.136\C,0,-9.014,3.444,-11.306\N,0,-9.026,4.581,-1
 2.006\C,0,-9.902,4.723,-13.002\C,0,-10.808,3.736,-13.332\C,0,-10.828,2
 .544,-12.601\C,0,-11.793,1.486,-12.912\C,0,-13.089,1.828,-13.329\C,0,-
 14.031,0.871,-13.651\C,0,-13.648,-0.457,-13.556\O,0,-14.414,-1.544,-13
 .832\C,0,-13.635,-2.631,-13.594\C,0,-14.001,-3.959,-13.735\C,0,-13.048
 ,-4.915,-13.444\C,0,-11.757,-4.572,-13.011\C,0,-10.785,-5.631,-12.726\
 C,0,-9.863,-5.528,-11.678\C,0,-8.992,-6.571,-11.431\N,0,-8.994,-7.687,
 -12.163\C,0,-9.849,-7.795,-13.181\C,0,-10.749,-6.798,-13.497\C,0,-11.4
 03,-3.235,-12.86\C,0,-12.344,-2.263,-13.159\C,0,-12.353,-0.824,-13.134
 \C,0,-11.423,0.148,-12.806\C,0,-9.891,2.411,-11.569\H,0,-8.276,3.378,-
 10.511\H,0,-9.882,5.657,-13.56\H,0,-11.485,3.885,-14.159\H,0,-13.379,2
 .866,-13.381\H,0,-15.025,1.139,-13.97\H,0,-14.992,-4.229,-14.065\H,0,-
 13.325,-5.954,-13.531\H,0,-9.854,-4.653,-11.05\H,0,-8.268,-6.529,-10.6
 21\H,0,-9.818,-8.71,-13.769\H,0,-11.411,-6.92,-14.34\H,0,-10.408,-2.95
 ,-12.559\H,0,-10.424,-0.134,-12.517\H,0,-9.872,1.517,-10.967\C,0,4.647
 ,5.532,-12.03\N,0,5.731,6.273,-12.277\C,0,5.805,6.949,-13.425\C,0,4.82
 2,6.875,-14.39\C,0,3.707,6.055,-14.179\C,0,2.708,5.862,-15.234\C,0,3.1
 39,5.774,-16.568\C,0,2.258,5.571,-17.61\C,0,0.913,5.47,-17.296\O,0,-0.
 11,5.28,-18.169\C,0,-1.246,5.254,-17.427\C,0,-2.538,5.091,-17.9\C,0,-3
 .563,5.128,-16.976\C,0,-3.319,5.306,-15.605\C,0,-4.444,5.4,-14.671\C,0
 ,-4.388,4.853,-13.384\C,0,-5.454,5.027,-12.525\N,0,-6.548,5.706,-12.87
 8\C,0,-6.63,6.216,-14.106\C,0,-5.611,6.083,-15.028\C,0,-2.015,5.44,-15
 .136\C,0,-0.976,5.423,-16.052\C,0,0.455,5.562,-15.964\C,0,1.355,5.748,
 -14.927\C,0,3.619,5.404,-12.944\H,0,4.622,5.025,-11.069\H,0,6.686,7.56
 7,-13.589\H,0,4.92,7.443,-15.301\H,0,4.191,5.841,-16.795\H,0,2.594,5.4
 98,-18.632\H,0,-2.728,4.954,-18.953\H,0,-4.574,4.994,-17.327\H,0,-3.52
 3,4.291,-13.073\H,0,-5.449,4.616,-11.517\H,0,-7.535,6.761,-14.366\H,0,
 -5.707,6.532,-16.003\H,0,-1.813,5.602,-14.09\H,0,1.004,5.843,-13.913\H
 ,0,2.776,4.769,-12.727\C,0,4.714,-8.834,-12.401\N,0,5.808,-9.508,-12.7
 69\C,0,5.881,-9.998,-14.007\C,0,4.878,-9.808,-14.936\C,0,3.745,-9.063,
 -14.589\C,0,2.709,-8.767,-15.583\C,0,3.093,-8.523,-16.912\C,0,2.173,-8
 .236,-17.899\C,0,0.837,-8.208,-17.535\O,0,-0.217,-7.962,-18.354\C,0,-1
 .329,-8.04,-17.579\C,0,-2.638,-7.866,-17.997\C,0,-3.631,-8.013,-17.051
 \C,0,-3.34,-8.307,-15.71\C,0,-4.44,-8.489,-14.758\C,0,-4.373,-8.013,-1
 3.444\C,0,-5.434,-8.231,-12.588\N,0,-6.531,-8.892,-12.968\C,0,-6.615,-
 9.35,-14.217\C,0,-5.602,-9.167,-15.137\C,0,-2.02,-8.457,-15.293\C,0,-1
 .011,-8.334,-16.235\C,0,0.425,-8.446,-16.206\C,0,1.365,-8.72,-15.224\C
 ,0,3.67,-8.595,-13.272\H,0,4.696,-8.475,-11.374\H,0,6.774,-10.558,-14.
 275\H,0,4.974,-10.235,-15.921\H,0,4.138,-8.532,-17.178\H,0,2.473,-8.04
 7,-18.918\H,0,-2.863,-7.636,-19.027\H,0,-4.657,-7.872,-17.357\H,0,-3.5
 07,-7.466,-13.111\H,0,-5.425,-7.869,-11.561\H,0,-7.517,-9.89,-14.495\H
 ,0,-5.702,-9.57,-16.133\H,0,-1.784,-8.708,-14.272\H,0,1.049,-8.933,-14
 .216\H,0,2.818,-8.018,-12.951\\Version=ES64L-G16RevC.01\State=1-A\HF=-
 26243.9848878\RMSD=1.545e-09\Dipole=-0.1684511,1.304293,-0.1080763\Qua
 drupole=-49.7866906,-39.8089244,89.595615,-140.8009697,-77.4553581,31.
 1553582\PG=C01 [X(C528H336N48O24Pd12)]\\@
 The archive entry for this job was punched.


 LET US LEARN TO DREAM, GENTLEMEN, THEN PERHAPS WE SHALL
 DISCOVER THE TRUTH;  BUT LET US BEWARE OF PUBLISHING
 OUR DREAMS ABROAD BEFORE THEY HAVE BEEN SCRUTINIZED
 BY OUR VIGILANT INTELLECT ... LET US ALWAYS ALLOW
 THE FRUIT TO HANG UNTIL IT IS RIPE.  UNRIPE FRUIT
 BRINGS EVEN THE GROWER BUT LITTLE PROFIT; IT DAMAGES
 THE HEALTH OF THOSE WHO CONSUME IT; IT ENDANGERS
 PARTICULARLY THE YOUTH WHO CANNOT YET DISTINGUISH
 BETWEEN RIPE AND UNRIPE FRUIT.

                                  -- KEKULE, 1890
 Job cpu time:      50 days  0 hours 41 minutes 53.0 seconds.
 Elapsed time:       1 days  3 hours 26 minutes 57.9 seconds.
 File lengths (MBytes):  RWF= 134312 Int=      0 D2E=      0 Chk=   6288 Scr=     16
 Normal termination of Gaussian 16 at Sat Nov 18 00:12:21 2023.
