 Entering Gaussian System, Link 0=g16
 Initial command:
 /apps/gaussian/g16-c01-avx/g16/l1.exe "/rds/general/ephemeral/user/atarzia/ephemeral/unsymm/single_point_dft/s_4c3_b/Gau-2109679.inp" -scrdir="/rds/general/ephemeral/user/atarzia/ephemeral/unsymm/single_point_dft/s_4c3_b/"
 Entering Link 1 = /apps/gaussian/g16-c01-avx/g16/l1.exe PID=   2109684.
  
 Copyright (c) 1988-2019, Gaussian, Inc.  All Rights Reserved.
  
 This is part of the Gaussian(R) 16 program.  It is based on
 the Gaussian(R) 09 system (copyright 2009, Gaussian, Inc.),
 the Gaussian(R) 03 system (copyright 2003, Gaussian, Inc.),
 the Gaussian(R) 98 system (copyright 1998, Gaussian, Inc.),
 the Gaussian(R) 94 system (copyright 1995, Gaussian, Inc.),
 the Gaussian 92(TM) system (copyright 1992, Gaussian, Inc.),
 the Gaussian 90(TM) system (copyright 1990, Gaussian, Inc.),
 the Gaussian 88(TM) system (copyright 1988, Gaussian, Inc.),
 the Gaussian 86(TM) system (copyright 1986, Carnegie Mellon
 University), and the Gaussian 82(TM) system (copyright 1983,
 Carnegie Mellon University). Gaussian is a federally registered
 trademark of Gaussian, Inc.
  
 This software contains proprietary and confidential information,
 including trade secrets, belonging to Gaussian, Inc.
  
 This software is provided under written license and may be
 used, copied, transmitted, or stored only in accord with that
 written license.
  
 The following legend is applicable only to US Government
 contracts under FAR:
  
                    RESTRICTED RIGHTS LEGEND
  
 Use, reproduction and disclosure by the US Government is
 subject to restrictions as set forth in subparagraphs (a)
 and (c) of the Commercial Computer Software - Restricted
 Rights clause in FAR 52.227-19.
  
 Gaussian, Inc.
 340 Quinnipiac St., Bldg. 40, Wallingford CT 06492
  
  
 ---------------------------------------------------------------
 Warning -- This program may not be used in any manner that
 competes with the business of Gaussian, Inc. or will provide
 assistance to any competitor of Gaussian, Inc.  The licensee
 of this program is prohibited from giving any competitor of
 Gaussian, Inc. access to this program.  By using this program,
 the user acknowledges that Gaussian, Inc. is engaged in the
 business of creating and licensing software in the field of
 computational chemistry and represents and warrants to the
 licensee that it is not a competitor of Gaussian, Inc. and that
 it will not use this program in any manner prohibited above.
 ---------------------------------------------------------------
  

 Cite this work as:
 Gaussian 16, Revision C.01,
 M. J. Frisch, G. W. Trucks, H. B. Schlegel, G. E. Scuseria, 
 M. A. Robb, J. R. Cheeseman, G. Scalmani, V. Barone, 
 G. A. Petersson, H. Nakatsuji, X. Li, M. Caricato, A. V. Marenich, 
 J. Bloino, B. G. Janesko, R. Gomperts, B. Mennucci, H. P. Hratchian, 
 J. V. Ortiz, A. F. Izmaylov, J. L. Sonnenberg, D. Williams-Young, 
 F. Ding, F. Lipparini, F. Egidi, J. Goings, B. Peng, A. Petrone, 
 T. Henderson, D. Ranasinghe, V. G. Zakrzewski, J. Gao, N. Rega, 
 G. Zheng, W. Liang, M. Hada, M. Ehara, K. Toyota, R. Fukuda, 
 J. Hasegawa, M. Ishida, T. Nakajima, Y. Honda, O. Kitao, H. Nakai, 
 T. Vreven, K. Throssell, J. A. Montgomery, Jr., J. E. Peralta, 
 F. Ogliaro, M. J. Bearpark, J. J. Heyd, E. N. Brothers, K. N. Kudin, 
 V. N. Staroverov, T. A. Keith, R. Kobayashi, J. Normand, 
 K. Raghavachari, A. P. Rendell, J. C. Burant, S. S. Iyengar, 
 J. Tomasi, M. Cossi, J. M. Millam, M. Klene, C. Adamo, R. Cammi, 
 J. W. Ochterski, R. L. Martin, K. Morokuma, O. Farkas, 
 J. B. Foresman, and D. J. Fox, Gaussian, Inc., Wallingford CT, 2019.
 
 ******************************************
 Gaussian 16:  ES64L-G16RevC.01  3-Jul-2019
                26-Feb-2021 
 ******************************************
 %chk=_s_4c3_b.chk
 %mem=60000mb
 %nprocshared=32
 Will use up to   32 processors via shared memory.
 ----------------------------------------------------------------------
 #P PBE1PBE/Def2SVP SP SCF=(YQC,MaxCycle=900) int=(Grid=Superfinegrid) 
 EmpiricalDispersion=GD3BJ SCRF=(PCM,Solvent=DiMethylSulfoxide)
 ----------------------------------------------------------------------
 1/38=1,172=1/1;
 2/12=2,17=6,18=5,40=1/2;
 3/5=43,7=101,11=2,25=1,30=1,70=2201,72=21,74=-13,75=-7,124=41/1,2,3;
 4//1;
 5/5=2,7=900,8=4,13=1,38=1,53=21/8,2,8;
 6/7=2,8=2,9=2,10=2,28=1/1;
 99/5=1,9=1/99;
 Leave Link    1 at Fri Feb 26 10:34:07 2021, MaxMem=  7864320000 cpu:               4.4 elap:               0.1
 (Enter /apps/gaussian/g16-c01-avx/g16/l101.exe)
 --------
 _s_4c3_b
 --------
 Symbolic Z-matrix:
 Charge =  4 Multiplicity = 1
 Pd                   -0.7482    6.8016   -0.2579 
 Pd                    0.6825   -6.8543   -0.1004 
 C                     5.4992   -3.5196   -0.8699 
 C                     5.4661   -4.1653    0.1532 
 C                     5.5209   -4.9932    1.2938 
 C                     6.6398   -4.9882    2.1053 
 C                     6.7655   -5.8958    3.1635 
 C                     5.8027   -6.8443    3.4044 
 C                     4.6458   -6.8856    2.6056 
 C                     3.6302   -7.8563    2.7569 
 C                     2.5342   -7.8314    1.9428 
 N                     2.348    -6.8623    1.0114 
 C                     3.2812   -5.9457    0.8351 
 C                     4.4762   -5.925     1.5677 
 H                     7.4341   -4.2846    1.9084 
 H                     7.6508   -5.8591    3.7801 
 H                     5.9237   -7.567     4.1959 
 H                     3.735    -8.6204    3.5105 
 H                     1.7583   -8.5868    2.0127 
 H                     3.1043   -5.1761    0.0871 
 C                     5.6776   -2.8248   -2.0871 
 C                     6.6431   -3.3381   -2.9736 
 C                     6.9454   -2.6954   -4.1527 
 C                     6.2756   -1.5126   -4.4354 
 N                     6.4309   -0.6615   -5.497 
 C                     5.5994    0.4097   -5.3415 
 C                     5.4513    1.5337   -6.1457 
 C                     4.5419    2.4887   -5.7557 
 C                     3.7806    2.3362   -4.5803 
 C                     3.9268    1.2087   -3.7731 
 C                     4.8431    0.2432   -4.1522 
 C                     5.2861   -0.9946   -3.5641 
 C                     4.9797   -1.6589   -2.3857 
 H                     7.1608   -4.2476   -2.709 
 H                     7.6949   -3.0879   -4.8228 
 H                     7.1016   -0.7762   -6.2386 
 H                     6.0397    1.6564   -7.0422 
 H                     4.409     3.3816   -6.3471 
 H                     3.344     1.1023   -2.8731 
 H                     4.2443   -1.268    -1.7018 
 C                     2.8974    3.3702   -4.2276 
 C                     2.1793    4.304    -3.9507 
 C                     1.4058    5.4316   -3.636 
 C                     1.2382    6.4736   -4.5618 
 C                     0.5093    7.5897   -4.1988 
 C                    -0.04      7.6567   -2.9268 
 N                     0.1133    6.6594   -2.0497 
 C                     0.808     5.5722   -2.3794 
 H                     1.6833    6.3937   -5.5409 
 H                     0.3685    8.4057   -4.8889 
 H                    -0.6146    8.5171   -2.5921 
 H                     0.9       4.7966   -1.6219 
 C                     1.3908    4.044     4.5659 
 C                     2.1788    4.7079    3.932 
 C                     3.1082    5.5545    3.2927 
 C                     4.3884    5.6891    3.7959 
 C                     5.2869    6.6087    3.2428 
 C                     4.9141    7.4287    2.207 
 C                     3.6222    7.3242    1.6609 
 C                     3.1509    8.1594    0.6232 
 C                     1.8855    7.9976    0.138 
 N                     1.0596    7.0169    0.5861 
 C                     1.4595    6.2275    1.5659 
 C                     2.7168    6.3521    2.1764 
 H                     4.6919    5.0861    4.6379 
 H                     6.2799    6.6841    3.6593 
 H                     5.5976    8.1612    1.8076 
 H                     3.7945    8.929     0.228 
 H                     1.4844    8.649    -0.6322 
 H                     0.7734    5.4527    1.9002 
 C                     0.4734    3.3287    5.3673 
 C                    -0.0172    3.9633    6.5232 
 C                    -0.9001    3.3281    7.3687 
 C                    -1.2868    2.0329    7.0498 
 N                    -2.1292    1.1853    7.7206 
 C                    -2.1853   -0.0106    7.0621 
 C                    -2.8842   -1.1676    7.3889 
 C                    -2.7442   -2.26      6.5639 
 C                    -1.9218   -2.2118    5.4211 
 C                    -1.2352   -1.0459    5.0806 
 C                    -1.3665    0.058     5.9047 
 C                    -0.7929    1.3783    5.8943 
 C                     0.0856    2.0319    5.0438 
 H                     0.3144    4.9658    6.7471 
 H                    -1.27      3.8198    8.2552 
 H                    -2.597     1.395     8.5869 
 H                    -3.508    -1.2125    8.2687 
 H                    -3.2633   -3.1779    6.7947 
 H                    -0.6077   -1.0172    4.2045 
 H                     0.4741    1.5472    4.1628 
 C                    -1.776    -3.3749    4.6459 
 C                    -1.6363   -4.3943    4.0087 
 C                    -1.4749   -5.6007    3.3096 
 C                    -2.1375   -6.7695    3.7171 
 C                    -1.9344   -7.9407    3.0124 
 C                    -1.083    -7.9339    1.9175 
 N                    -0.4564   -6.8189    1.5288 
 C                    -0.6363   -5.6797    2.1923 
 H                    -2.7928   -6.7421    4.5735 
 H                    -2.4286   -8.8529    3.3051 
 H                    -0.893    -8.8317    1.3333 
 H                    -0.0926   -4.8076    1.8338 
 C                    -5.1473    3.4636    2.0299 
 C                    -4.5865    4.2267    2.7836 
 C                    -4.073     5.1977    3.6677 
 C                    -4.6109    5.3309    4.9345 
 C                    -4.2272    6.3826    5.7738 
 C                    -3.3302    7.3333    5.3543 
 C                    -2.7525    7.2351    4.0759 
 C                    -1.8601    8.1995    3.5556 
 C                    -1.3442    8.0461    2.3013 
 N                    -1.6177    6.9565    1.538 
 C                    -2.4541    6.0386    1.9868 
 C                    -3.0902    6.1365    3.2333 
 H                    -5.3535    4.6233    5.2698 
 H                    -4.6682    6.455     6.7564 
 H                    -3.0667    8.1646    5.9891 
 H                    -1.6039    9.061     4.1513 
 H                    -0.6886    8.79      1.8577 
 H                    -2.646     5.1785    1.3494 
 C                    -5.9241    2.6735    1.1535 
 C                    -7.2274    3.1334    0.8832 
 C                    -8.0683    2.4455    0.0379 
 C                    -7.595     1.2706   -0.5315 
 N                    -8.2271    0.4069   -1.386 
 C                    -7.4008   -0.647    -1.6548 
 C                    -7.6353   -1.7695   -2.4411 
 C                    -6.6448   -2.7209   -2.5153 
 C                    -5.4279   -2.5642   -1.8219 
 C                    -5.1796   -1.4245   -1.056 
 C                    -6.1711   -0.4614   -0.97 
 C                    -6.2934    0.783    -0.2536 
 C                    -5.4486    1.4951    0.5859 
 H                    -7.5637    4.0462    1.3509 
 H                    -9.065     2.8045   -0.1678 
 H                    -9.1703    0.5079   -1.7229 
 H                    -8.5706   -1.8983   -2.9642 
 H                    -6.7985   -3.6125   -3.1039 
 H                    -4.2455   -1.3124   -0.5297 
 H                    -4.4551    1.1408    0.8085 
 C                    -4.4972   -3.6163   -1.8796 
 C                    -3.7577   -4.5738   -1.9213 
 C                    -2.9547   -5.7256   -1.9215 
 C                    -3.3863   -6.9098   -2.5407 
 C                    -2.5936   -8.0389   -2.4631 
 C                    -1.3935   -7.9797   -1.7694 
 N                    -0.9778   -6.8483   -1.1937 
 C                    -1.719    -5.745    -1.2668 
 H                    -4.3314   -6.9287   -3.0603 
 H                    -2.9028   -8.9619   -2.9261 
 H                    -0.7458   -8.847    -1.6696 
 H                    -1.3288   -4.8515   -0.7836 
 C                    -1.9265    3.216    -4.6292 
 C                    -2.9322    3.6473   -4.1123 
 C                    -4.0812    4.2925   -3.6081 
 C                    -5.3322    4.0502   -4.14 
 C                    -6.4335    4.8295   -3.7641 
 C                    -6.3009    5.8771   -2.8865 
 C                    -5.0501    6.1463   -2.3018 
 C                    -4.8126    7.2203   -1.4146 
 C                    -3.5675    7.4108   -0.886 
 N                    -2.5398    6.5591   -1.1344 
 C                    -2.7238    5.5511   -1.9677 
 C                    -3.9386    5.3175   -2.6252 
 H                    -5.4549    3.2709   -4.8764 
 H                    -7.3963    4.6167   -4.2033 
 H                    -7.1438    6.5032   -2.6401 
 H                    -5.6179    7.894    -1.169 
 H                    -3.3471    8.2496   -0.2349 
 H                    -1.8914    4.8726   -2.1394 
 C                    -0.7933    2.7814   -5.3534 
 C                    -0.3574    3.6029   -6.4097 
 C                     0.6853    3.2271   -7.2267 
 C                     1.299     2.0076   -6.9748 
 N                     2.3138    1.387    -7.654 
 C                     2.5796    0.1826   -7.0681 
 C                     3.5013   -0.7931   -7.4299 
 C                     3.5644   -1.9371   -6.6679 
 C                     2.7276   -2.1144   -5.5505 
 C                     1.8072   -1.1336   -5.1807 
 C                     1.7285    0.0161   -5.9454 
 C                     0.895     1.1884   -5.8925 
 C                    -0.1584    1.5752   -5.0779 
 H                    -0.8733    4.5336   -6.5907 
 H                     0.9998    3.8511   -8.0488 
 H                     2.7498    1.7352   -8.4916 
 H                     4.1388   -0.6617   -8.2907 
 H                     4.2596   -2.7212   -6.9262 
 H                     1.1651   -1.2809   -4.328 
 H                    -0.4946    0.9497   -4.2673 
 C                     2.7845   -3.3185   -4.8292 
 C                     2.7905   -4.3732   -4.2365 
 C                     2.7231   -5.5947   -3.5487 
 C                     3.4224   -6.7355   -3.9717 
 C                     3.2742   -7.9152   -3.267 
 C                     2.4439   -7.946    -2.1551 
 N                     1.7895   -6.856    -1.7481 
 C                     1.9144   -5.7096   -2.4135 
 H                     4.0598   -6.6826   -4.8404 
 H                     3.7945   -8.8083   -3.5732 
 H                     2.2971   -8.8506   -1.5716 
 H                     1.3526   -4.8535   -2.0402 
 
 ITRead=  0  0  0  0  0  0  0  0  0  0  0  0  0  0  0  0  0  0  0  0
 ITRead=  0  0  0  0  0  0  0  0  0  0  0  0  0  0  0  0  0  0  0  0
 ITRead=  0  0  0  0  0  0  0  0  0  0  0  0  0  0  0  0  0  0  0  0
 ITRead=  0  0  0  0  0  0  0  0  0  0  0  0  0  0  0  0  0  0  0  0
 ITRead=  0  0  0  0  0  0  0  0  0  0  0  0  0  0  0  0  0  0  0  0
 ITRead=  0  0  0  0  0  0  0  0  0  0  0  0  0  0  0  0  0  0  0  0
 ITRead=  0  0  0  0  0  0  0  0  0  0  0  0  0  0  0  0  0  0  0  0
 ITRead=  0  0  0  0  0  0  0  0  0  0  0  0  0  0  0  0  0  0  0  0
 ITRead=  0  0  0  0  0  0  0  0  0  0  0  0  0  0  0  0  0  0  0  0
 ITRead=  0  0  0  0  0  0  0  0  0  0  0  0  0  0  0  0  0  0  0  0
 ITRead=  0  0
 MicOpt= -1 -1 -1 -1 -1 -1 -1 -1 -1 -1 -1 -1 -1 -1 -1 -1 -1 -1 -1 -1
 MicOpt= -1 -1 -1 -1 -1 -1 -1 -1 -1 -1 -1 -1 -1 -1 -1 -1 -1 -1 -1 -1
 MicOpt= -1 -1 -1 -1 -1 -1 -1 -1 -1 -1 -1 -1 -1 -1 -1 -1 -1 -1 -1 -1
 MicOpt= -1 -1 -1 -1 -1 -1 -1 -1 -1 -1 -1 -1 -1 -1 -1 -1 -1 -1 -1 -1
 MicOpt= -1 -1 -1 -1 -1 -1 -1 -1 -1 -1 -1 -1 -1 -1 -1 -1 -1 -1 -1 -1
 MicOpt= -1 -1 -1 -1 -1 -1 -1 -1 -1 -1 -1 -1 -1 -1 -1 -1 -1 -1 -1 -1
 MicOpt= -1 -1 -1 -1 -1 -1 -1 -1 -1 -1 -1 -1 -1 -1 -1 -1 -1 -1 -1 -1
 MicOpt= -1 -1 -1 -1 -1 -1 -1 -1 -1 -1 -1 -1 -1 -1 -1 -1 -1 -1 -1 -1
 MicOpt= -1 -1 -1 -1 -1 -1 -1 -1 -1 -1 -1 -1 -1 -1 -1 -1 -1 -1 -1 -1
 MicOpt= -1 -1 -1 -1 -1 -1 -1 -1 -1 -1 -1 -1 -1 -1 -1 -1 -1 -1 -1 -1
 MicOpt= -1 -1
 NAtoms=    202 NQM=      202 NQMF=       0 NMMI=      0 NMMIF=      0
                NMic=       0 NMicF=      0.
                    Isotopes and Nuclear Properties:
 (Nuclear quadrupole moments (NQMom) in fm**2, nuclear magnetic moments (NMagM)
  in nuclear magnetons)

  Atom         1           2           3           4           5           6           7           8           9          10
 IAtWgt=         106         106          12          12          12          12          12          12          12          12
 AtmWgt= 105.9032000 105.9032000  12.0000000  12.0000000  12.0000000  12.0000000  12.0000000  12.0000000  12.0000000  12.0000000
 NucSpn=           0           0           0           0           0           0           0           0           0           0
 AtZEff=  -0.0000000  -0.0000000  -0.0000000  -0.0000000  -0.0000000  -0.0000000  -0.0000000  -0.0000000  -0.0000000  -0.0000000
 NQMom=    0.0000000   0.0000000   0.0000000   0.0000000   0.0000000   0.0000000   0.0000000   0.0000000   0.0000000   0.0000000
 NMagM=    0.0000000   0.0000000   0.0000000   0.0000000   0.0000000   0.0000000   0.0000000   0.0000000   0.0000000   0.0000000
 AtZNuc=  46.0000000  46.0000000   6.0000000   6.0000000   6.0000000   6.0000000   6.0000000   6.0000000   6.0000000   6.0000000

  Atom        11          12          13          14          15          16          17          18          19          20
 IAtWgt=          12          14          12          12           1           1           1           1           1           1
 AtmWgt=  12.0000000  14.0030740  12.0000000  12.0000000   1.0078250   1.0078250   1.0078250   1.0078250   1.0078250   1.0078250
 NucSpn=           0           2           0           0           1           1           1           1           1           1
 AtZEff=  -0.0000000  -0.0000000  -0.0000000  -0.0000000  -0.0000000  -0.0000000  -0.0000000  -0.0000000  -0.0000000  -0.0000000
 NQMom=    0.0000000   2.0440000   0.0000000   0.0000000   0.0000000   0.0000000   0.0000000   0.0000000   0.0000000   0.0000000
 NMagM=    0.0000000   0.4037610   0.0000000   0.0000000   2.7928460   2.7928460   2.7928460   2.7928460   2.7928460   2.7928460
 AtZNuc=   6.0000000   7.0000000   6.0000000   6.0000000   1.0000000   1.0000000   1.0000000   1.0000000   1.0000000   1.0000000

  Atom        21          22          23          24          25          26          27          28          29          30
 IAtWgt=          12          12          12          12          14          12          12          12          12          12
 AtmWgt=  12.0000000  12.0000000  12.0000000  12.0000000  14.0030740  12.0000000  12.0000000  12.0000000  12.0000000  12.0000000
 NucSpn=           0           0           0           0           2           0           0           0           0           0
 AtZEff=  -0.0000000  -0.0000000  -0.0000000  -0.0000000  -0.0000000  -0.0000000  -0.0000000  -0.0000000  -0.0000000  -0.0000000
 NQMom=    0.0000000   0.0000000   0.0000000   0.0000000   2.0440000   0.0000000   0.0000000   0.0000000   0.0000000   0.0000000
 NMagM=    0.0000000   0.0000000   0.0000000   0.0000000   0.4037610   0.0000000   0.0000000   0.0000000   0.0000000   0.0000000
 AtZNuc=   6.0000000   6.0000000   6.0000000   6.0000000   7.0000000   6.0000000   6.0000000   6.0000000   6.0000000   6.0000000

  Atom        31          32          33          34          35          36          37          38          39          40
 IAtWgt=          12          12          12           1           1           1           1           1           1           1
 AtmWgt=  12.0000000  12.0000000  12.0000000   1.0078250   1.0078250   1.0078250   1.0078250   1.0078250   1.0078250   1.0078250
 NucSpn=           0           0           0           1           1           1           1           1           1           1
 AtZEff=  -0.0000000  -0.0000000  -0.0000000  -0.0000000  -0.0000000  -0.0000000  -0.0000000  -0.0000000  -0.0000000  -0.0000000
 NQMom=    0.0000000   0.0000000   0.0000000   0.0000000   0.0000000   0.0000000   0.0000000   0.0000000   0.0000000   0.0000000
 NMagM=    0.0000000   0.0000000   0.0000000   2.7928460   2.7928460   2.7928460   2.7928460   2.7928460   2.7928460   2.7928460
 AtZNuc=   6.0000000   6.0000000   6.0000000   1.0000000   1.0000000   1.0000000   1.0000000   1.0000000   1.0000000   1.0000000

  Atom        41          42          43          44          45          46          47          48          49          50
 IAtWgt=          12          12          12          12          12          12          14          12           1           1
 AtmWgt=  12.0000000  12.0000000  12.0000000  12.0000000  12.0000000  12.0000000  14.0030740  12.0000000   1.0078250   1.0078250
 NucSpn=           0           0           0           0           0           0           2           0           1           1
 AtZEff=  -0.0000000  -0.0000000  -0.0000000  -0.0000000  -0.0000000  -0.0000000  -0.0000000  -0.0000000  -0.0000000  -0.0000000
 NQMom=    0.0000000   0.0000000   0.0000000   0.0000000   0.0000000   0.0000000   2.0440000   0.0000000   0.0000000   0.0000000
 NMagM=    0.0000000   0.0000000   0.0000000   0.0000000   0.0000000   0.0000000   0.4037610   0.0000000   2.7928460   2.7928460
 AtZNuc=   6.0000000   6.0000000   6.0000000   6.0000000   6.0000000   6.0000000   7.0000000   6.0000000   1.0000000   1.0000000

  Atom        51          52          53          54          55          56          57          58          59          60
 IAtWgt=           1           1          12          12          12          12          12          12          12          12
 AtmWgt=   1.0078250   1.0078250  12.0000000  12.0000000  12.0000000  12.0000000  12.0000000  12.0000000  12.0000000  12.0000000
 NucSpn=           1           1           0           0           0           0           0           0           0           0
 AtZEff=  -0.0000000  -0.0000000  -0.0000000  -0.0000000  -0.0000000  -0.0000000  -0.0000000  -0.0000000  -0.0000000  -0.0000000
 NQMom=    0.0000000   0.0000000   0.0000000   0.0000000   0.0000000   0.0000000   0.0000000   0.0000000   0.0000000   0.0000000
 NMagM=    2.7928460   2.7928460   0.0000000   0.0000000   0.0000000   0.0000000   0.0000000   0.0000000   0.0000000   0.0000000
 AtZNuc=   1.0000000   1.0000000   6.0000000   6.0000000   6.0000000   6.0000000   6.0000000   6.0000000   6.0000000   6.0000000

  Atom        61          62          63          64          65          66          67          68          69          70
 IAtWgt=          12          14          12          12           1           1           1           1           1           1
 AtmWgt=  12.0000000  14.0030740  12.0000000  12.0000000   1.0078250   1.0078250   1.0078250   1.0078250   1.0078250   1.0078250
 NucSpn=           0           2           0           0           1           1           1           1           1           1
 AtZEff=  -0.0000000  -0.0000000  -0.0000000  -0.0000000  -0.0000000  -0.0000000  -0.0000000  -0.0000000  -0.0000000  -0.0000000
 NQMom=    0.0000000   2.0440000   0.0000000   0.0000000   0.0000000   0.0000000   0.0000000   0.0000000   0.0000000   0.0000000
 NMagM=    0.0000000   0.4037610   0.0000000   0.0000000   2.7928460   2.7928460   2.7928460   2.7928460   2.7928460   2.7928460
 AtZNuc=   6.0000000   7.0000000   6.0000000   6.0000000   1.0000000   1.0000000   1.0000000   1.0000000   1.0000000   1.0000000

  Atom        71          72          73          74          75          76          77          78          79          80
 IAtWgt=          12          12          12          12          14          12          12          12          12          12
 AtmWgt=  12.0000000  12.0000000  12.0000000  12.0000000  14.0030740  12.0000000  12.0000000  12.0000000  12.0000000  12.0000000
 NucSpn=           0           0           0           0           2           0           0           0           0           0
 AtZEff=  -0.0000000  -0.0000000  -0.0000000  -0.0000000  -0.0000000  -0.0000000  -0.0000000  -0.0000000  -0.0000000  -0.0000000
 NQMom=    0.0000000   0.0000000   0.0000000   0.0000000   2.0440000   0.0000000   0.0000000   0.0000000   0.0000000   0.0000000
 NMagM=    0.0000000   0.0000000   0.0000000   0.0000000   0.4037610   0.0000000   0.0000000   0.0000000   0.0000000   0.0000000
 AtZNuc=   6.0000000   6.0000000   6.0000000   6.0000000   7.0000000   6.0000000   6.0000000   6.0000000   6.0000000   6.0000000

  Atom        81          82          83          84          85          86          87          88          89          90
 IAtWgt=          12          12          12           1           1           1           1           1           1           1
 AtmWgt=  12.0000000  12.0000000  12.0000000   1.0078250   1.0078250   1.0078250   1.0078250   1.0078250   1.0078250   1.0078250
 NucSpn=           0           0           0           1           1           1           1           1           1           1
 AtZEff=  -0.0000000  -0.0000000  -0.0000000  -0.0000000  -0.0000000  -0.0000000  -0.0000000  -0.0000000  -0.0000000  -0.0000000
 NQMom=    0.0000000   0.0000000   0.0000000   0.0000000   0.0000000   0.0000000   0.0000000   0.0000000   0.0000000   0.0000000
 NMagM=    0.0000000   0.0000000   0.0000000   2.7928460   2.7928460   2.7928460   2.7928460   2.7928460   2.7928460   2.7928460
 AtZNuc=   6.0000000   6.0000000   6.0000000   1.0000000   1.0000000   1.0000000   1.0000000   1.0000000   1.0000000   1.0000000

  Atom        91          92          93          94          95          96          97          98          99         100
 IAtWgt=          12          12          12          12          12          12          14          12           1           1
 AtmWgt=  12.0000000  12.0000000  12.0000000  12.0000000  12.0000000  12.0000000  14.0030740  12.0000000   1.0078250   1.0078250
 NucSpn=           0           0           0           0           0           0           2           0           1           1
 AtZEff=  -0.0000000  -0.0000000  -0.0000000  -0.0000000  -0.0000000  -0.0000000  -0.0000000  -0.0000000  -0.0000000  -0.0000000
 NQMom=    0.0000000   0.0000000   0.0000000   0.0000000   0.0000000   0.0000000   2.0440000   0.0000000   0.0000000   0.0000000
 NMagM=    0.0000000   0.0000000   0.0000000   0.0000000   0.0000000   0.0000000   0.4037610   0.0000000   2.7928460   2.7928460
 AtZNuc=   6.0000000   6.0000000   6.0000000   6.0000000   6.0000000   6.0000000   7.0000000   6.0000000   1.0000000   1.0000000

  Atom       101         102         103         104         105         106         107         108         109         110
 IAtWgt=           1           1          12          12          12          12          12          12          12          12
 AtmWgt=   1.0078250   1.0078250  12.0000000  12.0000000  12.0000000  12.0000000  12.0000000  12.0000000  12.0000000  12.0000000
 NucSpn=           1           1           0           0           0           0           0           0           0           0
 AtZEff=  -0.0000000  -0.0000000  -0.0000000  -0.0000000  -0.0000000  -0.0000000  -0.0000000  -0.0000000  -0.0000000  -0.0000000
 NQMom=    0.0000000   0.0000000   0.0000000   0.0000000   0.0000000   0.0000000   0.0000000   0.0000000   0.0000000   0.0000000
 NMagM=    2.7928460   2.7928460   0.0000000   0.0000000   0.0000000   0.0000000   0.0000000   0.0000000   0.0000000   0.0000000
 AtZNuc=   1.0000000   1.0000000   6.0000000   6.0000000   6.0000000   6.0000000   6.0000000   6.0000000   6.0000000   6.0000000

  Atom       111         112         113         114         115         116         117         118         119         120
 IAtWgt=          12          14          12          12           1           1           1           1           1           1
 AtmWgt=  12.0000000  14.0030740  12.0000000  12.0000000   1.0078250   1.0078250   1.0078250   1.0078250   1.0078250   1.0078250
 NucSpn=           0           2           0           0           1           1           1           1           1           1
 AtZEff=  -0.0000000  -0.0000000  -0.0000000  -0.0000000  -0.0000000  -0.0000000  -0.0000000  -0.0000000  -0.0000000  -0.0000000
 NQMom=    0.0000000   2.0440000   0.0000000   0.0000000   0.0000000   0.0000000   0.0000000   0.0000000   0.0000000   0.0000000
 NMagM=    0.0000000   0.4037610   0.0000000   0.0000000   2.7928460   2.7928460   2.7928460   2.7928460   2.7928460   2.7928460
 AtZNuc=   6.0000000   7.0000000   6.0000000   6.0000000   1.0000000   1.0000000   1.0000000   1.0000000   1.0000000   1.0000000

  Atom       121         122         123         124         125         126         127         128         129         130
 IAtWgt=          12          12          12          12          14          12          12          12          12          12
 AtmWgt=  12.0000000  12.0000000  12.0000000  12.0000000  14.0030740  12.0000000  12.0000000  12.0000000  12.0000000  12.0000000
 NucSpn=           0           0           0           0           2           0           0           0           0           0
 AtZEff=  -0.0000000  -0.0000000  -0.0000000  -0.0000000  -0.0000000  -0.0000000  -0.0000000  -0.0000000  -0.0000000  -0.0000000
 NQMom=    0.0000000   0.0000000   0.0000000   0.0000000   2.0440000   0.0000000   0.0000000   0.0000000   0.0000000   0.0000000
 NMagM=    0.0000000   0.0000000   0.0000000   0.0000000   0.4037610   0.0000000   0.0000000   0.0000000   0.0000000   0.0000000
 AtZNuc=   6.0000000   6.0000000   6.0000000   6.0000000   7.0000000   6.0000000   6.0000000   6.0000000   6.0000000   6.0000000

  Atom       131         132         133         134         135         136         137         138         139         140
 IAtWgt=          12          12          12           1           1           1           1           1           1           1
 AtmWgt=  12.0000000  12.0000000  12.0000000   1.0078250   1.0078250   1.0078250   1.0078250   1.0078250   1.0078250   1.0078250
 NucSpn=           0           0           0           1           1           1           1           1           1           1
 AtZEff=  -0.0000000  -0.0000000  -0.0000000  -0.0000000  -0.0000000  -0.0000000  -0.0000000  -0.0000000  -0.0000000  -0.0000000
 NQMom=    0.0000000   0.0000000   0.0000000   0.0000000   0.0000000   0.0000000   0.0000000   0.0000000   0.0000000   0.0000000
 NMagM=    0.0000000   0.0000000   0.0000000   2.7928460   2.7928460   2.7928460   2.7928460   2.7928460   2.7928460   2.7928460
 AtZNuc=   6.0000000   6.0000000   6.0000000   1.0000000   1.0000000   1.0000000   1.0000000   1.0000000   1.0000000   1.0000000

  Atom       141         142         143         144         145         146         147         148         149         150
 IAtWgt=          12          12          12          12          12          12          14          12           1           1
 AtmWgt=  12.0000000  12.0000000  12.0000000  12.0000000  12.0000000  12.0000000  14.0030740  12.0000000   1.0078250   1.0078250
 NucSpn=           0           0           0           0           0           0           2           0           1           1
 AtZEff=  -0.0000000  -0.0000000  -0.0000000  -0.0000000  -0.0000000  -0.0000000  -0.0000000  -0.0000000  -0.0000000  -0.0000000
 NQMom=    0.0000000   0.0000000   0.0000000   0.0000000   0.0000000   0.0000000   2.0440000   0.0000000   0.0000000   0.0000000
 NMagM=    0.0000000   0.0000000   0.0000000   0.0000000   0.0000000   0.0000000   0.4037610   0.0000000   2.7928460   2.7928460
 AtZNuc=   6.0000000   6.0000000   6.0000000   6.0000000   6.0000000   6.0000000   7.0000000   6.0000000   1.0000000   1.0000000

  Atom       151         152         153         154         155         156         157         158         159         160
 IAtWgt=           1           1          12          12          12          12          12          12          12          12
 AtmWgt=   1.0078250   1.0078250  12.0000000  12.0000000  12.0000000  12.0000000  12.0000000  12.0000000  12.0000000  12.0000000
 NucSpn=           1           1           0           0           0           0           0           0           0           0
 AtZEff=  -0.0000000  -0.0000000  -0.0000000  -0.0000000  -0.0000000  -0.0000000  -0.0000000  -0.0000000  -0.0000000  -0.0000000
 NQMom=    0.0000000   0.0000000   0.0000000   0.0000000   0.0000000   0.0000000   0.0000000   0.0000000   0.0000000   0.0000000
 NMagM=    2.7928460   2.7928460   0.0000000   0.0000000   0.0000000   0.0000000   0.0000000   0.0000000   0.0000000   0.0000000
 AtZNuc=   1.0000000   1.0000000   6.0000000   6.0000000   6.0000000   6.0000000   6.0000000   6.0000000   6.0000000   6.0000000

  Atom       161         162         163         164         165         166         167         168         169         170
 IAtWgt=          12          14          12          12           1           1           1           1           1           1
 AtmWgt=  12.0000000  14.0030740  12.0000000  12.0000000   1.0078250   1.0078250   1.0078250   1.0078250   1.0078250   1.0078250
 NucSpn=           0           2           0           0           1           1           1           1           1           1
 AtZEff=  -0.0000000  -0.0000000  -0.0000000  -0.0000000  -0.0000000  -0.0000000  -0.0000000  -0.0000000  -0.0000000  -0.0000000
 NQMom=    0.0000000   2.0440000   0.0000000   0.0000000   0.0000000   0.0000000   0.0000000   0.0000000   0.0000000   0.0000000
 NMagM=    0.0000000   0.4037610   0.0000000   0.0000000   2.7928460   2.7928460   2.7928460   2.7928460   2.7928460   2.7928460
 AtZNuc=   6.0000000   7.0000000   6.0000000   6.0000000   1.0000000   1.0000000   1.0000000   1.0000000   1.0000000   1.0000000

  Atom       171         172         173         174         175         176         177         178         179         180
 IAtWgt=          12          12          12          12          14          12          12          12          12          12
 AtmWgt=  12.0000000  12.0000000  12.0000000  12.0000000  14.0030740  12.0000000  12.0000000  12.0000000  12.0000000  12.0000000
 NucSpn=           0           0           0           0           2           0           0           0           0           0
 AtZEff=  -0.0000000  -0.0000000  -0.0000000  -0.0000000  -0.0000000  -0.0000000  -0.0000000  -0.0000000  -0.0000000  -0.0000000
 NQMom=    0.0000000   0.0000000   0.0000000   0.0000000   2.0440000   0.0000000   0.0000000   0.0000000   0.0000000   0.0000000
 NMagM=    0.0000000   0.0000000   0.0000000   0.0000000   0.4037610   0.0000000   0.0000000   0.0000000   0.0000000   0.0000000
 AtZNuc=   6.0000000   6.0000000   6.0000000   6.0000000   7.0000000   6.0000000   6.0000000   6.0000000   6.0000000   6.0000000

  Atom       181         182         183         184         185         186         187         188         189         190
 IAtWgt=          12          12          12           1           1           1           1           1           1           1
 AtmWgt=  12.0000000  12.0000000  12.0000000   1.0078250   1.0078250   1.0078250   1.0078250   1.0078250   1.0078250   1.0078250
 NucSpn=           0           0           0           1           1           1           1           1           1           1
 AtZEff=  -0.0000000  -0.0000000  -0.0000000  -0.0000000  -0.0000000  -0.0000000  -0.0000000  -0.0000000  -0.0000000  -0.0000000
 NQMom=    0.0000000   0.0000000   0.0000000   0.0000000   0.0000000   0.0000000   0.0000000   0.0000000   0.0000000   0.0000000
 NMagM=    0.0000000   0.0000000   0.0000000   2.7928460   2.7928460   2.7928460   2.7928460   2.7928460   2.7928460   2.7928460
 AtZNuc=   6.0000000   6.0000000   6.0000000   1.0000000   1.0000000   1.0000000   1.0000000   1.0000000   1.0000000   1.0000000

  Atom       191         192         193         194         195         196         197         198         199         200
 IAtWgt=          12          12          12          12          12          12          14          12           1           1
 AtmWgt=  12.0000000  12.0000000  12.0000000  12.0000000  12.0000000  12.0000000  14.0030740  12.0000000   1.0078250   1.0078250
 NucSpn=           0           0           0           0           0           0           2           0           1           1
 AtZEff=  -0.0000000  -0.0000000  -0.0000000  -0.0000000  -0.0000000  -0.0000000  -0.0000000  -0.0000000  -0.0000000  -0.0000000
 NQMom=    0.0000000   0.0000000   0.0000000   0.0000000   0.0000000   0.0000000   2.0440000   0.0000000   0.0000000   0.0000000
 NMagM=    0.0000000   0.0000000   0.0000000   0.0000000   0.0000000   0.0000000   0.4037610   0.0000000   2.7928460   2.7928460
 AtZNuc=   6.0000000   6.0000000   6.0000000   6.0000000   6.0000000   6.0000000   7.0000000   6.0000000   1.0000000   1.0000000

  Atom       201         202
 IAtWgt=           1           1
 AtmWgt=   1.0078250   1.0078250
 NucSpn=           1           1
 AtZEff=  -0.0000000  -0.0000000
 NQMom=    0.0000000   0.0000000
 NMagM=    2.7928460   2.7928460
 AtZNuc=   1.0000000   1.0000000
 Leave Link  101 at Fri Feb 26 10:34:08 2021, MaxMem=  7864320000 cpu:               7.8 elap:               0.3
 (Enter /apps/gaussian/g16-c01-avx/g16/l202.exe)
 Stoichiometry    C120H68N12Pd2(4+)
 Framework group  C1[X(C120H68N12Pd2)]
 Deg. of freedom   600
 Full point group                 C1      NOp   1
 Largest Abelian subgroup         C1      NOp   1
 Largest concise Abelian subgroup C1      NOp   1
                         Standard orientation:                         
 ---------------------------------------------------------------------
 Center     Atomic      Atomic             Coordinates (Angstroms)
 Number     Number       Type             X           Y           Z
 ---------------------------------------------------------------------
      1         46           0        6.254962    1.249816   -0.681170
      2         46           0       -7.094633   -1.747631    0.484555
      3          6           0       -5.471680    2.483443   -3.307144
      4          6           0       -5.961941    1.494324   -3.803172
      5          6           0       -6.638495    0.414455   -4.407778
      6          6           0       -6.882705    0.419073   -5.768232
      7          6           0       -7.665099   -0.577982   -6.362426
      8          6           0       -8.247086   -1.567590   -5.609673
      9          6           0       -8.024423   -1.613443   -4.221680
     10          6           0       -8.621277   -2.569278   -3.369191
     11          6           0       -8.355931   -2.550812   -2.029846
     12          7           0       -7.483237   -1.670131   -1.478360
     13          6           0       -6.915511   -0.756187   -2.242882
     14          6           0       -7.176381   -0.642776   -3.615558
     15          1           0       -6.477112    1.212757   -6.376750
     16          1           0       -7.830081   -0.545666   -7.428744
     17          1           0       -8.881956   -2.309887   -6.067213
     18          1           0       -9.294606   -3.302452   -3.783714
     19          1           0       -8.829966   -3.249229   -1.347907
     20          1           0       -6.214627   -0.066783   -1.777516
     21          6           0       -4.999844    3.719258   -2.810875
     22          6           0       -5.873643    4.818100   -2.913688
     23          6           0       -5.484361    6.080484   -2.526945
     24          6           0       -4.192826    6.239815   -2.043087
     25          7           0       -3.549031    7.383653   -1.652387
     26          6           0       -2.266752    7.080189   -1.296421
     27          6           0       -1.244966    7.925328   -0.879597
     28          6           0       -0.023741    7.363853   -0.588929
     29          6           0        0.189282    5.976322   -0.706306
     30          6           0       -0.834920    5.126827   -1.122925
     31          6           0       -2.066985    5.680900   -1.423811
     32          6           0       -3.308995    5.140455   -1.913288
     33          6           0       -3.717578    3.870458   -2.292723
     34          1           0       -6.862416    4.660355   -3.317002
     35          1           0       -6.155057    6.921043   -2.618969
     36          1           0       -3.940613    8.310139   -1.687786
     37          1           0       -1.403728    8.989740   -0.797108
     38          1           0        0.797724    7.989656   -0.275476
     39          1           0       -0.662025    4.067268   -1.214688
     40          1           0       -3.051146    3.026728   -2.219766
     41          6           0        1.473380    5.480056   -0.426292
     42          6           0        2.604541    5.109368   -0.208603
     43          6           0        3.940094    4.730161   -0.005328
     44          6           0        4.876844    5.636715    0.515842
     45          6           0        6.193317    5.242121    0.657040
     46          6           0        6.560868    3.958934    0.279493
     47          7           0        5.665468    3.094227   -0.208312
     48          6           0        4.390306    3.451314   -0.348895
     49          1           0        4.560376    6.629419    0.794268
     50          1           0        6.933575    5.919478    1.050899
     51          1           0        7.585536    3.604856    0.364126
     52          1           0        3.710366    2.704741   -0.754033
     53          6           0        3.523241   -2.034534   -4.828394
     54          6           0        3.845547   -0.915126   -5.154861
     55          6           0        4.297701    0.338009   -5.617927
     56          6           0        4.094061    0.708983   -6.933659
     57          6           0        4.634064    1.897228   -7.438987
     58          6           0        5.410409    2.713045   -6.654135
     59          6           0        5.641417    2.376940   -5.308097
     60          6           0        6.461647    3.142467   -4.449206
     61          6           0        6.637020    2.758540   -3.151253
     62          7           0        6.005822    1.676679   -2.626047
     63          6           0        5.244196    0.928065   -3.402310
     64          6           0        5.049670    1.199863   -4.765147
     65          1           0        3.523058    0.063225   -7.582995
     66          1           0        4.451487    2.156772   -8.470737
     67          1           0        5.854731    3.609241   -7.057447
     68          1           0        6.953597    4.022778   -4.830947
     69          1           0        7.291109    3.306138   -2.479900
     70          1           0        4.753501    0.069627   -2.949421
     71          6           0        3.209492   -3.371542   -4.497500
     72          6           0        4.084361   -4.377874   -4.946286
     73          6           0        3.840888   -5.708002   -4.682957
     74          6           0        2.695872   -6.028865   -3.965488
     75          7           0        2.219974   -7.257430   -3.588415
     76          6           0        1.032381   -7.099731   -2.931375
     77          6           0        0.182692   -8.062769   -2.397994
     78          6           0       -0.984105   -7.636350   -1.806121
     79          6           0       -1.310795   -6.267682   -1.737718
     80          6           0       -0.450459   -5.298559   -2.254735
     81          6           0        0.724511   -5.716239   -2.854706
     82          6           0        1.801106   -5.026370   -3.516023
     83          6           0        2.062791   -3.689880   -3.776065
     84          1           0        4.958386   -4.093365   -5.512175
     85          1           0        4.514678   -6.474837   -5.032884
     86          1           0        2.653955   -8.140205   -3.802085
     87          1           0        0.424003   -9.113265   -2.456463
     88          1           0       -1.671963   -8.358161   -1.392461
     89          1           0       -0.707828   -4.253217   -2.198591
     90          1           0        1.390623   -2.914885   -3.445006
     91          6           0       -2.540888   -5.895806   -1.168884
     92          6           0       -3.617999   -5.595971   -0.705583
     93          6           0       -4.885525   -5.286146   -0.188304
     94          6           0       -5.748548   -6.294569    0.269369
     95          6           0       -6.995912   -5.947232    0.752070
     96          6           0       -7.365344   -4.610560    0.775766
     97          7           0       -6.540384   -3.651708    0.343350
     98          6           0       -5.334811   -3.962468   -0.126114
     99          1           0       -5.431803   -7.325208    0.237025
    100          1           0       -7.679136   -6.701543    1.107365
    101          1           0       -8.336663   -4.290605    1.146715
    102          1           0       -4.711657   -3.139708   -0.471708
    103          6           0        4.668306   -3.926611    1.851710
    104          6           0        5.304152   -3.988938    0.823752
    105          6           0        6.165386   -4.123432   -0.284555
    106          6           0        6.591641   -5.378235   -0.679061
    107          6           0        7.563569   -5.529713   -1.674116
    108          6           0        8.148030   -4.437872   -2.266324
    109          6           0        7.741667   -3.142019   -1.901191
    110          6           0        8.329516   -1.970661   -2.429878
    111          6           0        7.892119   -0.743515   -2.022754
    112          7           0        6.859345   -0.598894   -1.152628
    113          6           0        6.290876   -1.670304   -0.630659
    114          6           0        6.711087   -2.974543   -0.931246
    115          1           0        6.181743   -6.251358   -0.195100
    116          1           0        7.872078   -6.524839   -1.956553
    117          1           0        8.925155   -4.557913   -3.004653
    118          1           0        9.133191   -2.056268   -3.143641
    119          1           0        8.350838    0.174323   -2.379307
    120          1           0        5.464603   -1.515401    0.059380
    121          6           0        4.058641   -3.898624    3.125789
    122          6           0        4.857738   -4.303425    4.212408
    123          6           0        4.367590   -4.308406    5.498713
    124          6           0        3.049998   -3.914075    5.691264
    125          7           0        2.329379   -3.840919    6.853613
    126          6           0        1.052719   -3.447580    6.568739
    127          6           0       -0.025481   -3.271823    7.428890
    128          6           0       -1.233361   -2.909087    6.880066
    129          6           0       -1.376275   -2.716041    5.491357
    130          6           0       -0.288164   -2.863454    4.630279
    131          6           0        0.932385   -3.232780    5.170547
    132          6           0        2.226003   -3.523629    4.606033
    133          6           0        2.737267   -3.505390    3.316145
    134          1           0        5.874684   -4.611671    4.023068
    135          1           0        4.985717   -4.616798    6.327820
    136          1           0        2.672705   -4.086530    7.767468
    137          1           0        0.077513   -3.430112    8.491597
    138          1           0       -2.095674   -2.778990    7.516080
    139          1           0       -0.406267   -2.712844    3.569398
    140          1           0        2.126397   -3.210694    2.478223
    141          6           0       -2.659718   -2.427247    4.995557
    142          6           0       -3.794171   -2.233818    4.620048
    143          6           0       -5.127298   -2.089112    4.203772
    144          6           0       -6.186331   -2.171825    5.122262
    145          6           0       -7.486379   -2.087367    4.661824
    146          6           0       -7.716553   -1.930403    3.302652
    147          7           0       -6.707477   -1.837116    2.432384
    148          6           0       -5.446903   -1.902829    2.855026
    149          1           0       -5.975900   -2.308729    6.171324
    150          1           0       -8.317885   -2.151674    5.344734
    151          1           0       -8.722484   -1.874792    2.894371
    152          1           0       -4.665560   -1.816257    2.102637
    153          6           0        2.737793    3.014669    3.545885
    154          6           0        3.505795    2.158461    3.922340
    155          6           0        4.518228    1.288593    4.379518
    156          6           0        4.607922    0.927439    5.709236
    157          6           0        5.719032    0.220654    6.186061
    158          6           0        6.766943   -0.104159    5.360464
    159          6           0        6.708538    0.223061    3.993585
    160          6           0        7.750878   -0.042593    3.077091
    161          6           0        7.613536    0.303798    1.762887
    162          7           0        6.469916    0.850088    1.276099
    163          6           0        5.479834    1.121968    2.106839
    164          6           0        5.553181    0.881421    3.485016
    165          1           0        3.826546    1.220434    6.393527
    166          1           0        5.759883   -0.041189    7.232452
    167          1           0        7.640938   -0.604971    5.745840
    168          1           0        8.658541   -0.508605    3.425920
    169          1           0        8.412533    0.148652    1.046210
    170          1           0        4.567502    1.544557    1.692350
    171          6           0        1.905659    4.103600    3.200536
    172          6           0        2.437403    5.394487    3.378017
    173          6           0        1.678145    6.520161    3.149280
    174          6           0        0.365404    6.343067    2.733814
    175          7           0       -0.602325    7.279615    2.483506
    176          6           0       -1.759519    6.649386    2.125426
    177          6           0       -3.000990    7.190308    1.811461
    178          6           0       -4.020691    6.324391    1.489346
    179          6           0       -3.814715    4.932467    1.470001
    180          6           0       -2.567934    4.387434    1.777139
    181          6           0       -1.538425    5.248142    2.111896
    182          6           0       -0.170947    5.050666    2.515401
    183          6           0        0.601695    3.923758    2.751923
    184          1           0        3.454817    5.493929    3.724567
    185          1           0        2.084905    7.506649    3.309036
    186          1           0       -0.495128    8.272628    2.607390
    187          1           0       -3.162425    8.257142    1.832729
    188          1           0       -5.001121    6.708030    1.251832
    189          1           0       -2.421055    3.320001    1.767155
    190          1           0        0.198803    2.933505    2.616172
    191          6           0       -4.893908    4.078476    1.188203
    192          6           0       -5.830240    3.336003    0.999160
    193          6           0       -6.892091    2.432874    0.836358
    194          6           0       -8.229571    2.850694    0.759234
    195          6           0       -9.225630    1.899868    0.640680
    196          6           0       -8.883441    0.555459    0.594442
    197          7           0       -7.609358    0.161842    0.655831
    198          6           0       -6.633540    1.059885    0.773683
    199          1           0       -8.466195    3.902427    0.799031
    200          1           0      -10.261799    2.192144    0.585680
    201          1           0       -9.632531   -0.226008    0.502262
    202          1           0       -5.612602    0.681872    0.825369
 ---------------------------------------------------------------------
 Rotational constants (GHZ):           0.0101865           0.0067801           0.0060350
 Leave Link  202 at Fri Feb 26 10:34:08 2021, MaxMem=  7864320000 cpu:               2.5 elap:               0.1
 (Enter /apps/gaussian/g16-c01-avx/g16/l301.exe)
 Standard basis: def2SVP (5D, 7F)
 Ernie: Thresh=  0.10000D-02 Tol=  0.10000D-05 Strict=F.
 There are  2392 symmetry adapted cartesian basis functions of A   symmetry.
 There are  2250 symmetry adapted basis functions of A   symmetry.
  2250 basis functions,  3906 primitive gaussians,  2392 cartesian basis functions
   452 alpha electrons      452 beta electrons
       nuclear repulsion energy     28524.7451593239 Hartrees.
 IExCor= 1009 DFT=T Ex+Corr=PBE1PBE ExCW=0 ScaHFX=  0.250000
 ScaDFX=  0.750000  0.750000  1.000000  1.000000 ScalE2=  1.000000  1.000000
 IRadAn=      7 IRanWt=     -1 IRanGd=            0 ICorTp=0 IEmpDi=141
 NAtoms=  202 NActive=  202 NUniq=  202 SFac= 1.00D+00 NAtFMM=   60 NAOKFM=T Big=T
 Integral buffers will be    131072 words long.
 Raffenetti 2 integral format.
 Two-electron integral symmetry is turned on.
 R6Disp:  Grimme-D3(BJ) Dispersion energy=       -0.3441311276 Hartrees.
 Nuclear repulsion after empirical dispersion term =    28524.4010281963 Hartrees.
 ------------------------------------------------------------------------------
 Polarizable Continuum Model (PCM)
 =================================
 Model                : PCM.
 Atomic radii         : UFF (Universal Force Field).
 Polarization charges : Total charges.
 Charge compensation  : None.
 Solution method      : On-the-fly selection.
 Cavity type          : Scaled VdW (van der Waals Surface) (Alpha=1.100).
 Cavity algorithm     : GePol (No added spheres)
                        Default sphere list used, NSphG=  202.
                        Lebedev-Laikov grids with approx.  5.0 points / Ang**2.
                        Smoothing algorithm: York/Karplus (Gamma=1.0000).
                        Polarization charges: spherical gaussians, with
                                              point-specific exponents (IZeta= 3).
                        Self-potential: point-specific (ISelfS= 7).
                        Self-field    : sphere-specific E.n sum rule (ISelfD= 2).
 Solvent              : DiMethylSulfoxide, Eps=  46.826000 Eps(inf)=   2.007889
 ------------------------------------------------------------------------------
 GePol: Number of generator spheres                  =     202
 GePol: Total number of spheres                      =     202
 GePol: Number of exposed spheres                    =     202 (100.00%)
 GePol: Number of points                             =   14421
 GePol: Average weight of points                     =       0.12
 GePol: Minimum weight of points                     =   0.23D-11
 GePol: Maximum weight of points                     =    0.20577
 GePol: Number of points with low weight             =    1129
 GePol: Fraction of low-weight points (<1% of avg)   =       7.83%
 GePol: Cavity surface area                          =   1800.948 Ang**2
 GePol: Cavity volume                                =   2218.523 Ang**3
 Leave Link  301 at Fri Feb 26 10:34:09 2021, MaxMem=  7864320000 cpu:               5.4 elap:               0.2
 (Enter /apps/gaussian/g16-c01-avx/g16/l302.exe)
 NPDir=0 NMtPBC=     1 NCelOv=     1 NCel=       1 NClECP=     1 NCelD=      1
         NCelK=      1 NCelE2=     1 NClLst=     1 CellRange=     0.0.
 One-electron integrals computed using PRISM.
 One-electron integral symmetry used in STVInt
   1 Symmetry operations used in ECPInt.
 ECPInt:  NShTT=  518671 NPrTT= 1927653 LenC2=  251775 LenP2D=  513410.
 LDataN:  DoStor=T MaxTD1= 7 Len=  274
 NBasis=  2250 RedAO= T EigKep=  1.74D-04  NBF=  2250
 NBsUse=  2250 1.00D-06 EigRej= -1.00D+00 NBFU=  2250
 Precomputing XC quadrature grid using
 IXCGrd= 4 IRadAn=           7 IRanWt=          -1 IRanGd=           0 AccXCQ= 0.00D+00.
 Generated NRdTot=       0 NPtTot=           0 NUsed=           0 NTot=          32
 NSgBfM=  1701  1638  1664  1675  1701 MxSgAt=   202 MxSgA2=   202.
 Leave Link  302 at Fri Feb 26 10:34:34 2021, MaxMem=  7864320000 cpu:             771.9 elap:              24.4
 (Enter /apps/gaussian/g16-c01-avx/g16/l303.exe)
 DipDrv:  MaxL=1.
 Leave Link  303 at Fri Feb 26 10:34:35 2021, MaxMem=  7864320000 cpu:              29.8 elap:               1.1
 (Enter /apps/gaussian/g16-c01-avx/g16/l401.exe)
 ExpMin= 3.70D-02 ExpMax= 1.71D+03 ExpMxC= 2.58D+02 IAcc=3 IRadAn=         7 AccDes= 0.00D+00
 Harris functional with IExCor= 1009 and IRadAn=       7 diagonalized for initial guess.
 HarFok:  IExCor= 1009 AccDes= 0.00D+00 IRadAn=         7 IDoV= 1 UseB2=F ITyADJ=14
 ICtDFT=  3500011 ScaDFX=  1.000000  1.000000  1.000000  1.000000
 FoFCou: FMM=F IPFlag=           0 FMFlag=      100000 FMFlg1=        2001
         NFxFlg=           0 DoJE=T BraDBF=F KetDBF=T FulRan=T
         wScrn=  0.000000 ICntrl=       500 IOpCl=  0 I1Cent=   200000004 NGrid=           0
         NMat0=    1 NMatS0=      1 NMatT0=    0 NMatD0=    1 NMtDS0=    0 NMtDT0=    0
 Petite list used in FoFCou.
 Harris En= -5518.38215798649    
 JPrj=0 DoOrth=F DoCkMO=F.
 Leave Link  401 at Fri Feb 26 10:35:20 2021, MaxMem=  7864320000 cpu:            1407.4 elap:              44.4
 (Enter /apps/gaussian/g16-c01-avx/g16/l508.exe)
 Integral symmetry usage will be decided dynamically.
 Tight linear equation convergence will be used.
 RPBE1PBE wavefunction.
 Linear searches until partial convergence.
 Full line searches.
 Fock matrices will be formed incrementally for  20 cycles.
 Inv3:  Mode=1 IEnd=   623895723.
 Iteration    1 A*A^-1 deviation from unit magnitude is 1.23D-14 for  14420.
 Iteration    1 A*A^-1 deviation from orthogonality  is 5.34D-15 for  14420  14388.
 Iteration    1 A^-1*A deviation from unit magnitude is 1.27D-14 for  14419.
 Iteration    1 A^-1*A deviation from orthogonality  is 1.37D-13 for  13052  13035.
 FoFJK:  IHMeth= 1 ICntrl=       0 DoSepK=F KAlg= 0 I1Cent=           0 FoldK=F
 IRaf= 450000000 NMat=       1 IRICut=       1 DoRegI=T DoRafI=F ISym2E= 1 IDoP0=0 IntGTp=1.
 Iteration   1 EE= -5489.17930282676                                    Grad=5.694D+00 Max rot=   38.9911 deg.
 Gradient too large for Newton-Raphson -- use scaled steepest descent instead.
 Alpha Gap=    -0.023 HL deriv= 2.56D-02
     ILin= 1 X=0.000D+00 Y=-5.489179302827D+03 DE= 0.00D+00 F= -9.80D+01
 RMSU=  1.33D-03    CP:  9.68D-01
     ILin= 2 X=2.000D-01 Y=-5.502790344671D+03 DE=-1.36D+01 F= -2.32D+01 OKLS=F
 RMSU=  6.00D-04    CP:  9.53D-01  1.34D+00
     ILin= 3 X=3.000D-01 Y=-5.503377733165D+03 DE=-1.42D+01 F=  6.64D+00
     Accept linear search using points  2 and  3.
     An  expanding polynomial of degree  3 produced  0.2382
 RMSU=  3.66D-05    CP:  9.62D-01  1.15D+00  3.28D-01
 Iteration   2 EE= -5503.38285376335     Delta-E=      -14.203550936589 Grad=4.117D+00 Max rot=   29.1422 deg.
 Gradient too large for Newton-Raphson -- use scaled steepest descent instead.
 Alpha Gap=     0.169 HL deriv= 8.14D-02
     ILin= 1 X=0.000D+00 Y=-5.503382853763D+03 DE= 0.00D+00 F= -5.91D+01
 RMSU=  1.46D-03    CP:  9.36D-01  1.21D+00  6.62D-01 -3.00D+00
     ILin= 2 X=3.000D-01 Y=-5.510945482136D+03 DE=-7.56D+00 F=  3.77D+00 OKLS=F
 RMSU=  4.36D-04    CP:  9.28D-01  1.19D+00  9.40D-01 -3.00D+00  1.23D+00
     ILin= 3 X=4.000D-01 Y=-5.510056566557D+03 DE=-6.67D+00 F=  1.31D+01
     An  expanding polynomial of degree  3 produced  0.2979
     Minimum is close to point  2 DX= -2.14D-03 DF= -3.90D-04 DXR=  7.18D-03 DFR=  5.16D-05 which will be used.
 Iteration   3 EE= -5510.94548213596     Delta-E=       -7.562628372616 Grad=1.763D+00 Max rot=   19.1268 deg.
 Gradient too large for Newton-Raphson -- use scaled steepest descent instead.
 Alpha Gap=     0.177 HL deriv= 2.30D-02
     ILin= 1 X=0.000D+00 Y=-5.510945482136D+03 DE= 0.00D+00 F= -1.89D+01
 RMSU=  9.54D-04    CP:  9.23D-01  1.22D+00  5.46D-01 -3.00D+00  9.16D-01
                    CP:  1.04D-01
     ILin= 2 X=3.000D-01 Y=-5.513137815758D+03 DE=-2.19D+00 F=  1.19D+00 OKLS=F
 RMSU=  1.81D-04    CP:  9.18D-01  1.20D+00  5.20D-01 -3.00D+00  8.60D-01
                    CP:  2.56D-01  1.27D+00
     ILin= 3 X=4.000D-01 Y=-5.512918157956D+03 DE=-1.97D+00 F=  2.84D+00
     An  expanding polynomial of degree  3 produced  0.3038
     Minimum is close to point  2 DX=  3.78D-03 DF= -3.39D-04 DXR=  1.24D-02 DFR=  1.55D-04 which will be used.
 Iteration   4 EE= -5513.13781575844     Delta-E=       -2.192333622479 Grad=1.225D+00 Max rot=    8.3281 deg.
 Gradient too large for Newton-Raphson -- use scaled steepest descent instead.
 Alpha Gap=     0.080 HL deriv= 3.86D-02
     ILin= 1 X=0.000D+00 Y=-5.513137815758D+03 DE= 0.00D+00 F= -5.50D+00
 RMSU=  4.97D-04    CP:  9.18D-01  1.07D+00  3.41D-01 -3.00D+00  7.42D-01
                    CP: -9.02D-02  9.63D-01 -6.37D-02
     ILin= 2 X=3.000D-01 Y=-5.514368488424D+03 DE=-1.23D+00 F= -2.39D+00 OKLS=F
 RMSU=  4.35D-05    CP:  9.16D-01  1.02D+00  2.81D-01 -3.00D+00  6.84D-01
                    CP: -1.12D-01  9.42D-01 -1.11D-02  1.30D+00
     ILin= 3 X=4.000D-01 Y=-5.514538548397D+03 DE=-1.40D+00 F= -9.91D-01
 RMSU=  6.21D-05    CP:  9.13D-01  9.15D-01  1.75D-01 -3.00D+00  5.76D-01
                    CP: -9.16D-02  8.90D-01  1.99D-01  1.84D+00  3.00D+00
     ILin= 4 X=6.000D-01 Y=-5.514436178373D+03 DE=-1.30D+00 F=  2.04D+00
     An  expanding polynomial of degree  4 produced  0.4683
 RMSU=  2.16D-06    CP:  9.15D-01  9.87D-01  2.43D-01 -3.00D+00  6.46D-01
                    CP: -1.15D-01  9.25D-01  4.55D-02  1.50D+00  1.96D+00
                    CP:  8.40D-03
 Iteration   5 EE= -5514.57173193631     Delta-E=       -1.433916177863 Grad=7.977D-01 Max rot=    6.4033 deg.
 Gradient too large for Newton-Raphson -- use scaled steepest descent instead.
 Alpha Gap=     0.205 HL deriv= 2.35D-03
     ILin= 1 X=0.000D+00 Y=-5.514571731936D+03 DE= 0.00D+00 F= -3.39D+00
 RMSU=  5.03D-04    CP:  9.09D-01  9.54D-01  2.12D-01 -3.00D+00  6.54D-01
                    CP: -8.31D-02  1.00D+00  6.40D-01  1.47D+00  2.81D+00
                    CP:  4.07D-01  3.00D+00
     ILin= 2 X=4.000D-01 Y=-5.515109386243D+03 DE=-5.38D-01 F=  2.76D-01 OKLS=T
     Accept linear search using points  1 and  2.
     An  expanding polynomial of degree  2 produced  0.2052
 RMSU=  5.21D-05    CP:  9.12D-01  9.71D-01  2.27D-01 -3.00D+00  6.51D-01
                    CP: -1.06D-01  9.73D-01  2.95D-01  1.51D+00  2.16D+00
                    CP:  1.91D-01  3.00D+00  5.17D-01
 Iteration   6 EE= -5515.03314976984     Delta-E=       -0.461417833532 Grad=4.427D-01 Max rot=    3.2357 deg.
 Gradient too large for Newton-Raphson -- use scaled steepest descent instead.
 Alpha Gap=     0.188 HL deriv= 5.32D-03
     ILin= 1 X=0.000D+00 Y=-5.515033149770D+03 DE= 0.00D+00 F= -8.45D-01
 RMSU=  1.47D-04    CP:  9.08D-01  8.94D-01  1.50D-01 -3.00D+00  5.98D-01
                    CP: -1.03D-01  9.70D-01  6.86D-01  1.71D+00  3.00D+00
                    CP:  1.07D+00  3.00D+00  9.09D-01  1.42D-01
     ILin= 2 X=5.000D-01 Y=-5.515366760814D+03 DE=-3.34D-01 F= -4.82D-01 OKLS=F
 RMSU=  1.68D-05    CP:  9.06D-01  8.63D-01  1.24D-01 -3.00D+00  5.76D-01
                    CP: -1.01D-01  9.64D-01  8.55D-01  1.77D+00  3.00D+00
                    CP:  1.71D+00  3.00D+00  1.05D+00 -5.12D-01  1.41D+00
     ILin= 3 X=7.000D-01 Y=-5.515447543244D+03 DE=-4.14D-01 F= -3.25D-01
 RMSU=  4.02D-06    CP:  9.04D-01  8.33D-01  9.89D-02 -3.00D+00  5.54D-01
                    CP: -9.84D-02  9.55D-01  1.03D+00  1.82D+00  3.00D+00
                    CP:  2.38D+00  3.00D+00  1.17D+00 -1.32D+00  1.81D+00
                    CP:  2.55D+00
     ILin= 4 X=9.000D-01 Y=-5.515496152344D+03 DE=-4.63D-01 F= -1.60D-01
 RMSU=  8.68D-05    CP:  9.01D-01  7.75D-01  5.60D-02 -3.00D+00  5.10D-01
                    CP: -9.36D-02  9.32D-01  1.36D+00  1.87D+00  3.00D+00
                    CP:  3.00D+00  3.00D+00  1.38D+00 -3.00D+00  2.59D+00
                    CP:  3.00D+00  3.00D+00
     ILin= 5 X=1.300D+00 Y=-5.515490144288D+03 DE=-4.57D-01 F=  1.96D-01
     An  expanding polynomial of degree  5 produced  1.0849
 RMSU=  1.40D-05    CP:  9.03D-01  8.06D-01  7.80D-02 -3.00D+00  5.34D-01
                    CP: -9.61D-02  9.45D-01  1.18D+00  1.85D+00  3.00D+00
                    CP:  3.00D+00  3.00D+00  1.28D+00 -2.19D+00  2.18D+00
                    CP:  3.00D+00  3.00D+00  2.27D-01
 Iteration   7 EE= -5515.51106563997     Delta-E=       -0.477915870128 Grad=2.697D-01 Max rot=    2.0629 deg.
 Gradient too large for Newton-Raphson -- use scaled steepest descent instead.
 Alpha Gap=     0.239 HL deriv= 1.69D-04
     ILin= 1 X=0.000D+00 Y=-5.515511065640D+03 DE= 0.00D+00 F= -3.90D-01
 RMSU=  1.84D-04    CP:  9.03D-01  7.97D-01  8.37D-02 -3.00D+00  5.25D-01
                    CP: -8.11D-02  9.55D-01  1.17D+00  1.87D+00  3.00D+00
                    CP:  2.91D+00  3.00D+00  1.17D+00 -1.38D+00  2.60D+00
                    CP:  3.00D+00  3.00D+00  3.86D-01  1.30D+00
     ILin= 2 X=5.000D-01 Y=-5.515656924339D+03 DE=-1.46D-01 F= -1.90D-01 OKLS=F
 Restarting incremental Fock formation.
     ILin= 3 X=7.000D-01 Y=-5.515686712002D+03 DE=-1.76D-01 F= -1.07D-01
 RMSU=  1.25D-04    CP:  1.00D+00
     ILin= 4 X=1.000D+00 Y=-5.515700389421D+03 DE=-1.89D-01 F=  1.56D-02
     Accept linear search using points  3 and  4.
     An  expanding polynomial of degree  4 produced  0.8421
 RMSU=  2.88D-06    CP:  1.00D+00  4.74D-01
 Iteration   8 EE= -5515.69779253337     Delta-E=       -0.186726893400 Grad=3.298D-01 Max rot=    1.8127 deg.
 Gradient too large for Newton-Raphson -- use scaled steepest descent instead.
 Alpha Gap=     0.177 HL deriv= 3.51D-03
     ILin= 1 X=0.000D+00 Y=-5.515697792533D+03 DE= 0.00D+00 F= -5.26D-01
 RMSU=  4.94D-04    CP:  9.97D-01  1.15D+00 -3.00D+00
     ILin= 2 X=1.000D+00 Y=-5.515863562859D+03 DE=-1.66D-01 F=  2.31D-01 OKLS=T
     Accept linear search using points  1 and  2.
     An  expanding polynomial of degree  2 produced  0.7243
 RMSU=  4.45D-05    CP:  9.98D-01  1.05D+00 -3.00D+00  7.27D-01
 Iteration   9 EE= -5515.89647714426     Delta-E=       -0.198684610892 Grad=4.129D-01 Max rot=    2.3734 deg.
 Gradient too large for Newton-Raphson -- use scaled steepest descent instead.
 Alpha Gap=     0.279 HL deriv= 1.53D-03
     ILin= 1 X=0.000D+00 Y=-5.515896477144D+03 DE= 0.00D+00 F= -6.77D-01
 RMSU=  3.28D-04    CP:  9.96D-01  2.81D+00 -3.00D+00  6.52D-01 -1.84D+00
     ILin= 2 X=8.000D-01 Y=-5.516036255703D+03 DE=-1.40D-01 F=  2.99D-01 OKLS=T
     Accept linear search using points  1 and  2.
     An  expanding polynomial of degree  2 produced  0.4988
 RMSU=  2.43D-05    CP:  9.97D-01  2.24D+00 -3.00D+00  6.90D-01 -5.61D-01
                    CP:  6.16D-01
 Iteration  10 EE= -5516.07518677708     Delta-E=       -0.178709632819 Grad=2.672D-01 Max rot=    2.3179 deg.
 Gradient too large for Newton-Raphson -- use scaled steepest descent instead.
 Alpha Gap=     0.218 HL deriv= 1.13D-03
     ILin= 1 X=0.000D+00 Y=-5.516075186777D+03 DE= 0.00D+00 F= -3.73D-01
 RMSU=  1.12D-04    CP:  9.95D-01  2.25D+00 -3.00D+00  1.04D+00 -3.00D+00
                    CP:  6.30D-01 -1.44D-01
     ILin= 2 X=6.000D-01 Y=-5.516201384444D+03 DE=-1.26D-01 F= -4.79D-02 OKLS=T
     Reject lnstep IMin12=  1  2 Big=T Turn=F Min= 8.833D-01 FVal=-5.516217919907D+03 Lims=  0.00D+00  6.00D-01
 RMSU=  7.95D-05    CP:  9.94D-01  2.12D+00 -3.00D+00  1.17D+00 -3.00D+00
                    CP:  6.00D-01 -8.89D-01  1.59D+00
     ILin= 3 X=9.000D-01 Y=-5.516193002155D+03 DE=-1.18D-01 F=  1.01D-01
     An  expanding polynomial of degree  3 produced  0.6972
 RMSU=  1.63D-06    CP:  9.94D-01  2.22D+00 -3.00D+00  1.09D+00 -3.00D+00
                    CP:  6.23D-01 -3.74D-01  1.19D+00  3.03D-01
 Iteration  11 EE= -5516.20359433811     Delta-E=       -0.128407561031 Grad=3.003D-01 Max rot=    2.1355 deg.
 Gradient too large for Newton-Raphson -- use scaled steepest descent instead.
 Alpha Gap=     0.271 HL deriv= 5.52D-04
     ILin= 1 X=0.000D+00 Y=-5.516203594338D+03 DE= 0.00D+00 F= -3.02D-01
 RMSU=  7.69D-05    CP:  9.93D-01  2.60D+00 -3.00D+00  9.65D-01 -3.00D+00
                    CP:  1.10D+00 -1.89D+00  1.19D+00  1.18D+00  3.00D+00
     ILin= 2 X=6.000D-01 Y=-5.516267032787D+03 DE=-6.34D-02 F=  9.05D-02 OKLS=T
     Accept linear search using points  1 and  2.
     An  expanding polynomial of degree  2 produced  0.3727
 RMSU=  2.64D-06    CP:  9.94D-01  2.47D+00 -3.00D+00  1.01D+00 -3.00D+00
                    CP:  9.24D-01 -1.18D+00  1.20D+00  8.43D-01  2.86D+00
                    CP:  6.19D-01
 Iteration  12 EE= -5516.27074723743     Delta-E=       -0.067152899326 Grad=1.045D-01 Max rot=    1.0923 deg.
 Gradient too large for Newton-Raphson -- use scaled steepest descent instead.
 Alpha Gap=     0.256 HL deriv= 9.60D-04
     ILin= 1 X=0.000D+00 Y=-5.516270747237D+03 DE= 0.00D+00 F= -6.13D-02
 RMSU=  2.17D-05    CP:  9.93D-01  2.41D+00 -3.00D+00  1.05D+00 -3.00D+00
                    CP:  9.76D-01 -2.11D+00  1.59D+00  1.44D+00 -2.75D+00
                    CP:  7.48D-01  2.70D-01
     ILin= 2 X=5.000D-01 Y=-5.516296150976D+03 DE=-2.54D-02 F= -4.02D-02 OKLS=F
 RMSU=  7.84D-06    CP:  9.92D-01  2.36D+00 -3.00D+00  1.06D+00 -3.00D+00
                    CP:  1.00D+00 -2.73D+00  1.80D+00  1.81D+00 -3.00D+00
                    CP:  8.27D-01  7.60D-01  1.62D+00
     ILin= 3 X=8.000D-01 Y=-5.516306242881D+03 DE=-3.55D-02 F= -2.70D-02
 RMSU=  2.78D-05    CP:  9.92D-01  2.22D+00 -3.00D+00  1.07D+00 -3.00D+00
                    CP:  1.03D+00 -3.00D+00  2.17D+00  2.58D+00 -3.00D+00
                    CP:  9.86D-01  2.23D+00  2.87D+00  3.00D+00
     ILin= 4 X=1.400D+00 Y=-5.516314352796D+03 DE=-4.36D-02 F=  2.56D-04
     Accept linear search using points  3 and  4.
     An  expanding polynomial of degree  4 produced  1.3560
     Minimum is close to point  4 DX= -4.40D-02 DF= -1.02D-05 DXR=  3.24D-02 DFR=  2.33D-04 which will be used.
 Iteration  13 EE= -5516.31435279582     Delta-E=       -0.043605558385 Grad=9.530D-02 Max rot=    0.3656 deg.
 Gradient too large for Newton-Raphson -- use scaled steepest descent instead.
 Alpha Gap=     0.270 HL deriv= 4.00D-04
     ILin= 1 X=0.000D+00 Y=-5.516314352796D+03 DE= 0.00D+00 F= -2.66D-02
 RMSU=  3.68D-05    CP:  9.92D-01  2.31D+00 -3.00D+00  1.00D+00 -3.00D+00
                    CP:  1.12D+00 -3.00D+00  2.04D+00  2.66D+00 -3.00D+00
                    CP:  1.32D+00 -8.05D-01  2.87D+00  2.70D+00  1.00D+00
     ILin= 2 X=7.000D-01 Y=-5.516315107870D+03 DE=-7.55D-04 F=  2.44D-02 OKLS=T
     Accept linear search using points  1 and  2.
     An  expanding polynomial of degree  2 produced  0.3580
 RMSU=  1.15D-06    CP:  9.92D-01  2.27D+00 -3.00D+00  1.04D+00 -3.00D+00
                    CP:  1.08D+00 -3.00D+00  2.10D+00  2.62D+00 -3.00D+00
                    CP:  1.16D+00  7.27D-01  2.87D+00  3.00D+00  9.87D-01
                    CP:  5.19D-01
 Iteration  14 EE= -5516.31920051606     Delta-E=       -0.004847720236 Grad=2.004D-02 Max rot=    0.1343 deg.
 Gradient too large for Newton-Raphson -- use scaled steepest descent instead.
 Alpha Gap=     0.262 HL deriv= 4.00D-05
     ILin= 1 X=0.000D+00 Y=-5.516319200516D+03 DE= 0.00D+00 F= -1.67D-03
 RMSU=  1.32D-05    CP:  9.92D-01  2.24D+00 -3.00D+00  1.03D+00 -3.00D+00
                    CP:  1.07D+00 -3.00D+00  2.14D+00  2.67D+00 -3.00D+00
                    CP:  1.19D+00  8.55D-01  3.00D+00  3.00D+00  1.14D+00
                    CP:  6.64D-01 -1.29D+00
     ILin= 2 X=7.000D-01 Y=-5.516319976516D+03 DE=-7.76D-04 F= -5.45D-04 OKLS=F
 RMSU=  2.77D-06    CP:  9.92D-01  2.22D+00 -3.00D+00  1.03D+00 -3.00D+00
                    CP:  1.07D+00 -3.00D+00  2.18D+00  2.72D+00 -3.00D+00
                    CP:  1.22D+00  9.69D-01  3.00D+00  3.00D+00  1.29D+00
                    CP:  8.08D-01 -3.00D+00  2.08D+00
     ILin= 3 X=1.400D+00 Y=-5.516319963357D+03 DE=-7.63D-04 F=  5.82D-04
     An  expanding polynomial of degree  3 produced  1.0383
 RMSU=  3.89D-07    CP:  9.92D-01  2.23D+00 -3.00D+00  1.03D+00 -3.00D+00
                    CP:  1.07D+00 -3.00D+00  2.16D+00  2.69D+00 -3.00D+00
                    CP:  1.20D+00  9.11D-01  3.00D+00  3.00D+00  1.21D+00
                    CP:  7.34D-01 -2.45D+00  1.52D+00  4.39D-01
 Iteration  15 EE= -5516.32006861221     Delta-E=       -0.000868096155 Grad=2.021D-02 Max rot=    0.0659 deg.
 Gradient too large for Newton-Raphson -- use scaled steepest descent instead.
 Alpha Gap=     0.263 HL deriv= 1.22D-04
     ILin= 1 X=0.000D+00 Y=-5.516320068612D+03 DE= 0.00D+00 F= -1.33D-03
 Restarting incremental Fock formation.
     ILin= 2 X=6.000D-01 Y=-5.516320213625D+03 DE=-1.45D-04 F=  8.51D-04 OKLS=T
     Accept linear search using points  1 and  2.
     An  expanding polynomial of degree  2 produced  0.3270
 RMSU=  5.26D-06    CP:  1.00D+00
 Iteration  16 EE= -5516.32031028704     Delta-E=       -0.000241674825 Grad=5.771D-03 Max rot=    0.0386 deg.
 SCF Done:  E(RPBE1PBE) =  -5516.32031029     a.u. after   16 cycles
            Convg  =    0.5771D-02                    42 Fock formations.
              S**2 =  0.0000                  -V/T =  2.0398
 Leave Link  508 at Fri Feb 26 12:14:08 2021, MaxMem=  7864320000 cpu:          185533.1 elap:            5927.2
 (Enter /apps/gaussian/g16-c01-avx/g16/l502.exe)
 Integral symmetry usage will be decided dynamically.
 Closed shell SCF:
 Using DIIS extrapolation, IDIIS=  1040.
 NGot=  7864320000 LenX=  7852771434 LenY=  7847047378
 Requested convergence on RMS density matrix=1.00D-08 within 128 cycles.
 Requested convergence on MAX density matrix=1.00D-06.
 Requested convergence on             energy=1.00D-06.
 No special actions if energy rises.
 Fock matrices will be formed incrementally for  20 cycles.

 Cycle   1  Pass 1  IDiag  1:
 FoFJK:  IHMeth= 1 ICntrl=       0 DoSepK=F KAlg= 0 I1Cent=           0 FoldK=F
 IRaf= 450000000 NMat=       1 IRICut=       1 DoRegI=T DoRafI=F ISym2E= 0 IDoP0=0 IntGTp=1.
 FoFCou: FMM=T IPFlag=           0 FMFlag=      100000 FMFlg1=        2001
         NFxFlg=           0 DoJE=F BraDBF=F KetDBF=F FulRan=T
         wScrn=  0.000000 ICntrl=         0 IOpCl=  0 I1Cent=           0 NGrid=           0
         NMat0=    1 NMatS0=      1 NMatT0=    0 NMatD0=    1 NMtDS0=    0 NMtDT0=    0
 Symmetry not used in FoFCou.
 FMM levels:  10  Number of levels for PrismC:   9
 E= -5516.32031028702    
 DIIS: error= 1.26D-04 at cycle   1 NSaved=   1.
 NSaved= 1 IEnMin= 1 EnMin= -5516.32031028702     IErMin= 1 ErrMin= 1.26D-04
 ErrMax= 1.26D-04  0.00D+00 EMaxC= 1.00D-01 BMatC= 1.67D-05 BMatP= 1.67D-05
 IDIUse=3 WtCom= 9.99D-01 WtEn= 1.26D-03
 Coeff-Com:  0.100D+01
 Coeff-En:   0.100D+01
 Coeff:      0.100D+01
 Gap=     0.262 Goal=   None    Shift=    0.000
 RMSDP=1.20D-05 MaxDP=2.86D-03              OVMax= 1.03D-02

 Cycle   2  Pass 1  IDiag  1:
 RMSU=  1.20D-05    CP:  1.00D+00
 E= -5516.32043790022     Delta-E=       -0.000127613206 Rises=F Damp=F
 DIIS: error= 4.31D-05 at cycle   2 NSaved=   2.
 NSaved= 2 IEnMin= 2 EnMin= -5516.32043790022     IErMin= 2 ErrMin= 4.31D-05
 ErrMax= 4.31D-05  0.00D+00 EMaxC= 1.00D-01 BMatC= 4.92D-06 BMatP= 1.67D-05
 IDIUse=1 WtCom= 1.00D+00 WtEn= 0.00D+00
 Coeff-Com:  0.232D+00 0.768D+00
 Coeff:      0.232D+00 0.768D+00
 Gap=     0.124 Goal=   None    Shift=    0.000
 RMSDP=2.68D-06 MaxDP=6.69D-04 DE=-1.28D-04 OVMax= 1.25D-03

 Cycle   3  Pass 1  IDiag  1:
 RMSU=  2.49D-06    CP:  1.00D+00  1.08D+00
 E= -5516.32043802202     Delta-E=       -0.000000121800 Rises=F Damp=F
 DIIS: error= 6.55D-05 at cycle   3 NSaved=   3.
 NSaved= 3 IEnMin= 3 EnMin= -5516.32043802202     IErMin= 2 ErrMin= 4.31D-05
 ErrMax= 6.55D-05  0.00D+00 EMaxC= 1.00D-01 BMatC= 7.42D-06 BMatP= 4.92D-06
 IDIUse=1 WtCom= 1.00D+00 WtEn= 0.00D+00
 Coeff-Com: -0.667D-01 0.582D+00 0.485D+00
 Coeff:     -0.667D-01 0.582D+00 0.485D+00
 Gap=     0.124 Goal=   None    Shift=    0.000
 RMSDP=1.59D-06 MaxDP=4.60D-04 DE=-1.22D-07 OVMax= 6.17D-04

 Cycle   4  Pass 1  IDiag  1:
 RMSU=  9.97D-07    CP:  1.00D+00  1.15D+00  6.10D-01
 E= -5516.32044592347     Delta-E=       -0.000007901443 Rises=F Damp=F
 DIIS: error= 1.25D-05 at cycle   4 NSaved=   4.
 NSaved= 4 IEnMin= 4 EnMin= -5516.32044592347     IErMin= 4 ErrMin= 1.25D-05
 ErrMax= 1.25D-05  0.00D+00 EMaxC= 1.00D-01 BMatC= 3.62D-07 BMatP= 4.92D-06
 IDIUse=1 WtCom= 1.00D+00 WtEn= 0.00D+00
 Coeff-Com: -0.537D-01 0.226D+00 0.258D+00 0.569D+00
 Coeff:     -0.537D-01 0.226D+00 0.258D+00 0.569D+00
 Gap=     0.124 Goal=   None    Shift=    0.000
 RMSDP=4.15D-07 MaxDP=7.72D-05 DE=-7.90D-06 OVMax= 1.36D-04

 Cycle   5  Pass 1  IDiag  1:
 RMSU=  3.44D-07    CP:  1.00D+00  1.16D+00  6.49D-01  8.44D-01
 E= -5516.32044633542     Delta-E=       -0.000000411954 Rises=F Damp=F
 DIIS: error= 1.56D-06 at cycle   5 NSaved=   5.
 NSaved= 5 IEnMin= 5 EnMin= -5516.32044633542     IErMin= 5 ErrMin= 1.56D-06
 ErrMax= 1.56D-06  0.00D+00 EMaxC= 1.00D-01 BMatC= 2.15D-08 BMatP= 3.62D-07
 IDIUse=1 WtCom= 1.00D+00 WtEn= 0.00D+00
 Coeff-Com: -0.146D-01 0.268D-01 0.530D-01 0.227D+00 0.707D+00
 Coeff:     -0.146D-01 0.268D-01 0.530D-01 0.227D+00 0.707D+00
 Gap=     0.124 Goal=   None    Shift=    0.000
 RMSDP=1.35D-07 MaxDP=2.10D-05 DE=-4.12D-07 OVMax= 4.76D-05

 Cycle   6  Pass 1  IDiag  1:
 RMSU=  1.12D-07    CP:  1.00D+00  1.16D+00  6.61D-01  9.02D-01  9.39D-01
 E= -5516.32044635713     Delta-E=       -0.000000021708 Rises=F Damp=F
 DIIS: error= 1.04D-06 at cycle   6 NSaved=   6.
 NSaved= 6 IEnMin= 6 EnMin= -5516.32044635713     IErMin= 6 ErrMin= 1.04D-06
 ErrMax= 1.04D-06  0.00D+00 EMaxC= 1.00D-01 BMatC= 6.78D-09 BMatP= 2.15D-08
 IDIUse=1 WtCom= 1.00D+00 WtEn= 0.00D+00
 Coeff-Com:  0.842D-03-0.196D-01-0.864D-02 0.468D-01 0.410D+00 0.571D+00
 Coeff:      0.842D-03-0.196D-01-0.864D-02 0.468D-01 0.410D+00 0.571D+00
 Gap=     0.124 Goal=   None    Shift=    0.000
 RMSDP=6.03D-08 MaxDP=1.23D-05 DE=-2.17D-08 OVMax= 2.31D-05

 Cycle   7  Pass 1  IDiag  1:
 RMSU=  3.91D-08    CP:  1.00D+00  1.16D+00  6.65D-01  9.18D-01  9.97D-01
                    CP:  6.77D-01
 E= -5516.32044636435     Delta-E=       -0.000000007221 Rises=F Damp=F
 DIIS: error= 4.91D-07 at cycle   7 NSaved=   7.
 NSaved= 7 IEnMin= 7 EnMin= -5516.32044636435     IErMin= 7 ErrMin= 4.91D-07
 ErrMax= 4.91D-07  0.00D+00 EMaxC= 1.00D-01 BMatC= 8.35D-10 BMatP= 6.78D-09
 IDIUse=1 WtCom= 1.00D+00 WtEn= 0.00D+00
 Coeff-Com:  0.183D-02-0.144D-01-0.102D-01 0.581D-02 0.161D+00 0.333D+00
 Coeff-Com:  0.524D+00
 Coeff:      0.183D-02-0.144D-01-0.102D-01 0.581D-02 0.161D+00 0.333D+00
 Coeff:      0.524D+00
 Gap=     0.124 Goal=   None    Shift=    0.000
 RMSDP=1.86D-08 MaxDP=4.86D-06 DE=-7.22D-09 OVMax= 5.66D-06

 Cycle   8  Pass 1  IDiag  1:
 RMSU=  1.48D-08    CP:  1.00D+00  1.16D+00  6.66D-01  9.23D-01  1.01D+00
                    CP:  7.15D-01  7.94D-01
 E= -5516.32044636485     Delta-E=       -0.000000000506 Rises=F Damp=F
 DIIS: error= 2.23D-07 at cycle   8 NSaved=   8.
 NSaved= 8 IEnMin= 8 EnMin= -5516.32044636485     IErMin= 8 ErrMin= 2.23D-07
 ErrMax= 2.23D-07  0.00D+00 EMaxC= 1.00D-01 BMatC= 9.83D-11 BMatP= 8.35D-10
 IDIUse=1 WtCom= 1.00D+00 WtEn= 0.00D+00
 Coeff-Com:  0.982D-03-0.598D-02-0.501D-02-0.363D-02 0.299D-01 0.116D+00
 Coeff-Com:  0.297D+00 0.571D+00
 Coeff:      0.982D-03-0.598D-02-0.501D-02-0.363D-02 0.299D-01 0.116D+00
 Coeff:      0.297D+00 0.571D+00
 Gap=     0.124 Goal=   None    Shift=    0.000
[...]
 Alpha virt. eigenvalues --    2.54726   2.54870   2.55244   2.55438   2.56128
 Alpha virt. eigenvalues --    2.56193   2.56342   2.56448   2.56598   2.56831
 Alpha virt. eigenvalues --    2.56933   2.57228   2.57421   2.57672   2.57806
 Alpha virt. eigenvalues --    2.58532   2.58937   2.59201   2.59215   2.60028
 Alpha virt. eigenvalues --    2.60272   2.60474   2.60711   2.60841   2.60879
 Alpha virt. eigenvalues --    2.61220   2.61586   2.61804   2.62127   2.62200
 Alpha virt. eigenvalues --    2.62562   2.62727   2.62843   2.63064   2.63168
 Alpha virt. eigenvalues --    2.63408   2.63726   2.64069   2.64259   2.64621
 Alpha virt. eigenvalues --    2.64752   2.64842   2.65322   2.65852   2.65919
 Alpha virt. eigenvalues --    2.66200   2.66518   2.66710   2.67253   2.67518
 Alpha virt. eigenvalues --    2.67930   2.68675   2.68679   2.69101   2.69259
 Alpha virt. eigenvalues --    2.69327   2.69354   2.69415   2.69641   2.69876
 Alpha virt. eigenvalues --    2.70091   2.70287   2.70517   2.70735   2.71102
 Alpha virt. eigenvalues --    2.71221   2.71417   2.71736   2.71927   2.72078
 Alpha virt. eigenvalues --    2.72406   2.72882   2.73062   2.73136   2.73184
 Alpha virt. eigenvalues --    2.73421   2.73611   2.73724   2.73835   2.73900
 Alpha virt. eigenvalues --    2.73992   2.74322   2.74430   2.74579   2.74729
 Alpha virt. eigenvalues --    2.74849   2.74921   2.75023   2.75246   2.75336
 Alpha virt. eigenvalues --    2.75669   2.75732   2.75829   2.76372   2.76471
 Alpha virt. eigenvalues --    2.76639   2.76687   2.76798   2.76834   2.77025
 Alpha virt. eigenvalues --    2.77222   2.77254   2.77309   2.77367   2.77610
 Alpha virt. eigenvalues --    2.77985   2.78056   2.78113   2.78490   2.78538
 Alpha virt. eigenvalues --    2.78716   2.79207   2.81260   2.81311   2.81803
 Alpha virt. eigenvalues --    2.81899   2.82249   2.82484   2.82566   2.82764
 Alpha virt. eigenvalues --    2.82799   2.82865   2.83117   2.83264   2.83427
 Alpha virt. eigenvalues --    2.83470   2.83516   2.84185   2.85965   2.86219
 Alpha virt. eigenvalues --    2.87940   2.88141   2.88277   2.88356   2.88744
 Alpha virt. eigenvalues --    2.89648   2.90420   2.90836   2.90860   2.90995
 Alpha virt. eigenvalues --    2.91758   2.92113   2.92294   2.92596   2.92931
 Alpha virt. eigenvalues --    2.93828   2.94294   2.94564   2.94838   2.95175
 Alpha virt. eigenvalues --    2.95476   2.95644   2.95726   2.95790   2.95968
 Alpha virt. eigenvalues --    2.96150   2.96256   2.96983   2.97019   2.97331
 Alpha virt. eigenvalues --    2.97558   2.98117   2.98197   2.98485   2.98643
 Alpha virt. eigenvalues --    2.98915   2.99399   2.99505   3.00112   3.00309
 Alpha virt. eigenvalues --    3.00480   3.00510   3.02010   3.02525   3.02861
 Alpha virt. eigenvalues --    3.02955   3.03223   3.03340   3.03623   3.03866
 Alpha virt. eigenvalues --    3.04357   3.05032   3.05249   3.05435   3.06062
 Alpha virt. eigenvalues --    3.06485   3.07052   3.07277   3.08377   3.09469
 Alpha virt. eigenvalues --    3.09581   3.09657   3.10050   3.11016   3.11203
 Alpha virt. eigenvalues --    3.11464   3.11900   3.12437   3.12828   3.13190
 Alpha virt. eigenvalues --    3.13478   3.13956   3.14030   3.14287   3.15256
 Alpha virt. eigenvalues --    3.16077   3.19457   3.20273   3.20326   3.20828
 Alpha virt. eigenvalues --    3.21161   3.21587   3.21961   3.22200   3.24549
 Alpha virt. eigenvalues --    3.24841   3.25055   3.25260   3.28458   3.28643
 Alpha virt. eigenvalues --    3.29313   3.29631   3.32410   3.32614   3.33028
 Alpha virt. eigenvalues --    3.33131   3.36613   3.36875   3.37162   3.37279
 Alpha virt. eigenvalues --    3.44113   3.44199   3.44739   3.44920   3.45191
 Alpha virt. eigenvalues --    3.45331   3.45601   3.45814   3.51741   3.51767
 Alpha virt. eigenvalues --    3.51896   3.52074   3.55536   3.55568   3.55979
 Alpha virt. eigenvalues --    3.56130   3.59169   3.59273   3.59673   3.59764
 Alpha virt. eigenvalues --    3.63945   3.64041   3.64390   3.64520   3.68284
 Alpha virt. eigenvalues --    3.68408   3.68713   3.68804   3.78963   3.79189
 Alpha virt. eigenvalues --    3.79377   3.79563   3.82172   3.82434   3.82845
 Alpha virt. eigenvalues --    3.82992  51.72269  51.73394
          Condensed to atoms (all electrons):
 Mulliken charges:
               1
     1  Pd   0.473818
     2  Pd   0.491261
     3  C    0.028622
     4  C   -0.102389
     5  C   -0.012750
     6  C    0.004560
     7  C    0.013308
     8  C    0.005289
     9  C    0.035704
    10  C   -0.021453
    11  C    0.149316
    12  N   -0.323658
    13  C    0.176804
    14  C   -0.016109
    15  H    0.039607
    16  H    0.054818
    17  H    0.039895
    18  H    0.052465
    19  H    0.092203
    20  H    0.085739
    21  C   -0.080725
    22  C   -0.002729
    23  C   -0.051529
    24  C    0.110035
    25  N   -0.121871
    26  C    0.129997
    27  C   -0.052302
    28  C    0.016678
    29  C   -0.103301
    30  C   -0.015263
    31  C    0.024847
    32  C    0.048533
    33  C   -0.033247
    34  H    0.030004
    35  H    0.022614
    36  H    0.163310
    37  H    0.019577
    38  H    0.026681
    39  H    0.013035
    40  H    0.014774
    41  C    0.041775
    42  C   -0.027178
    43  C   -0.124915
    44  C    0.102231
    45  C   -0.032974
    46  C    0.141532
    47  N   -0.327187
    48  C    0.173183
    49  H    0.057626
    50  H    0.068852
    51  H    0.116794
    52  H    0.099373
    53  C    0.026383
    54  C   -0.097720
    55  C   -0.012944
    56  C    0.006278
    57  C    0.013865
    58  C    0.005858
    59  C    0.035921
    60  C   -0.019250
    61  C    0.143299
    62  N   -0.332500
    63  C    0.178662
    64  C   -0.016203
    65  H    0.040089
    66  H    0.055203
    67  H    0.040314
    68  H    0.053057
    69  H    0.099143
    70  H    0.093399
    71  C   -0.088899
    72  C    0.003001
    73  C   -0.049757
    74  C    0.120770
    75  N   -0.121040
    76  C    0.120008
    77  C   -0.045637
    78  C    0.004104
    79  C   -0.082942
    80  C   -0.032444
    81  C    0.020554
    82  C    0.020858
    83  C   -0.028985
    84  H    0.032311
    85  H    0.025631
    86  H    0.167037
    87  H    0.026869
    88  H    0.033924
    89  H    0.021852
    90  H    0.020167
    91  C    0.012176
    92  C   -0.031625
    93  C   -0.114778
    94  C    0.100923
    95  C   -0.031068
    96  C    0.140396
    97  N   -0.315857
    98  C    0.175559
    99  H    0.061654
   100  H    0.070207
   101  H    0.110663
   102  H    0.099184
   103  C    0.031092
   104  C   -0.101058
   105  C   -0.010431
   106  C    0.004587
   107  C    0.014045
   108  C    0.004437
   109  C    0.036919
   110  C   -0.017055
   111  C    0.141585
   112  N   -0.338283
   113  C    0.176382
   114  C   -0.014667
   115  H    0.040218
   116  H    0.055085
   117  H    0.040495
   118  H    0.053223
   119  H    0.107275
   120  H    0.094595
   121  C   -0.088533
   122  C    0.000554
   123  C   -0.047897
   124  C    0.117046
   125  N   -0.119798
   126  C    0.117328
   127  C   -0.044420
   128  C    0.002888
   129  C   -0.083585
   130  C   -0.029021
   131  C    0.019993
   132  C    0.020493
   133  C   -0.025934
   134  H    0.032986
   135  H    0.025958
   136  H    0.167098
   137  H    0.026935
   138  H    0.034124
   139  H    0.021708
   140  H    0.019784
   141  C    0.013021
   142  C   -0.029982
   143  C   -0.118387
   144  C    0.100688
   145  C   -0.035351
   146  C    0.148895
   147  N   -0.312709
   148  C    0.179249
   149  H    0.061689
   150  H    0.070109
   151  H    0.106516
   152  H    0.089085
   153  C    0.044099
   154  C   -0.113817
   155  C   -0.011183
   156  C    0.007283
   157  C    0.012715
   158  C    0.005718
   159  C    0.039395
   160  C   -0.021325
   161  C    0.143333
   162  N   -0.333012
   163  C    0.177436
   164  C   -0.020873
   165  H    0.039837
   166  H    0.054973
   167  H    0.039931
   168  H    0.052950
   169  H    0.101485
   170  H    0.087883
   171  C   -0.082950
   172  C    0.005437
   173  C   -0.053195
   174  C    0.119574
   175  N   -0.117232
   176  C    0.107154
   177  C   -0.020969
   178  C    0.002398
   179  C   -0.074410
   180  C   -0.048260
   181  C    0.051187
   182  C    0.037479
   183  C   -0.034289
   184  H    0.029656
   185  H    0.021103
   186  H    0.162944
   187  H    0.019272
   188  H    0.026610
   189  H    0.013715
   190  H    0.014534
   191  C    0.031884
   192  C   -0.035166
   193  C   -0.121361
   194  C    0.105528
   195  C   -0.035345
   196  C    0.148294
   197  N   -0.314360
   198  C    0.165869
   199  H    0.059720
   200  H    0.069437
   201  H    0.111883
   202  H    0.095104
 Sum of Mulliken charges =   4.00000
 Mulliken charges with hydrogens summed into heavy atoms:
               1
     1  Pd   0.473818
     2  Pd   0.491261
     3  C    0.028622
     4  C   -0.102389
     5  C   -0.012750
     6  C    0.044167
     7  C    0.068127
     8  C    0.045185
     9  C    0.035704
    10  C    0.031012
    11  C    0.241520
    12  N   -0.323658
    13  C    0.262542
    14  C   -0.016109
    21  C   -0.080725
    22  C    0.027276
    23  C   -0.028915
    24  C    0.110035
    25  N    0.041439
    26  C    0.129997
    27  C   -0.032725
    28  C    0.043359
    29  C   -0.103301
    30  C   -0.002228
    31  C    0.024847
    32  C    0.048533
    33  C   -0.018473
    41  C    0.041775
    42  C   -0.027178
    43  C   -0.124915
    44  C    0.159857
    45  C    0.035878
    46  C    0.258326
    47  N   -0.327187
    48  C    0.272557
    53  C    0.026383
    54  C   -0.097720
    55  C   -0.012944
    56  C    0.046368
    57  C    0.069068
    58  C    0.046172
    59  C    0.035921
    60  C    0.033806
    61  C    0.242442
    62  N   -0.332500
    63  C    0.272061
    64  C   -0.016203
    71  C   -0.088899
    72  C    0.035312
    73  C   -0.024126
    74  C    0.120770
    75  N    0.045997
    76  C    0.120008
    77  C   -0.018767
    78  C    0.038027
    79  C   -0.082942
    80  C   -0.010592
    81  C    0.020554
    82  C    0.020858
    83  C   -0.008818
    91  C    0.012176
    92  C   -0.031625
    93  C   -0.114778
    94  C    0.162577
    95  C    0.039138
    96  C    0.251059
    97  N   -0.315857
    98  C    0.274743
   103  C    0.031092
   104  C   -0.101058
   105  C   -0.010431
   106  C    0.044804
   107  C    0.069130
   108  C    0.044932
   109  C    0.036919
   110  C    0.036168
   111  C    0.248860
   112  N   -0.338283
   113  C    0.270977
   114  C   -0.014667
   121  C   -0.088533
   122  C    0.033540
   123  C   -0.021939
   124  C    0.117046
   125  N    0.047299
   126  C    0.117328
   127  C   -0.017485
   128  C    0.037012
   129  C   -0.083585
   130  C   -0.007312
   131  C    0.019993
   132  C    0.020493
   133  C   -0.006150
   141  C    0.013021
   142  C   -0.029982
   143  C   -0.118387
   144  C    0.162377
   145  C    0.034758
   146  C    0.255411
   147  N   -0.312709
   148  C    0.268334
   153  C    0.044099
   154  C   -0.113817
   155  C   -0.011183
   156  C    0.047120
   157  C    0.067688
   158  C    0.045650
   159  C    0.039395
   160  C    0.031625
   161  C    0.244818
   162  N   -0.333012
   163  C    0.265319
   164  C   -0.020873
   171  C   -0.082950
   172  C    0.035094
   173  C   -0.032093
   174  C    0.119574
   175  N    0.045712
   176  C    0.107154
   177  C   -0.001697
   178  C    0.029008
   179  C   -0.074410
   180  C   -0.034544
   181  C    0.051187
   182  C    0.037479
   183  C   -0.019755
   191  C    0.031884
   192  C   -0.035166
   193  C   -0.121361
   194  C    0.165248
   195  C    0.034093
   196  C    0.260177
   197  N   -0.314360
   198  C    0.260973
 Electronic spatial extent (au):  <R**2>=         182851.7883
 Charge=              4.0000 electrons
 Dipole moment (field-independent basis, Debye):
    X=             -4.6632    Y=             -1.2041    Z=              1.1767  Tot=              4.9578
 Quadrupole moment (field-independent basis, Debye-Ang):
   XX=            148.7543   YY=           -329.7272   ZZ=           -491.1888
   XY=             70.9025   XZ=            -30.7402   YZ=            -13.5672
 Traceless Quadrupole moment (field-independent basis, Debye-Ang):
   XX=            372.8082   YY=           -105.6733   ZZ=           -267.1348
   XY=             70.9025   XZ=            -30.7402   YZ=            -13.5672
 Octapole moment (field-independent basis, Debye-Ang**2):
  XXX=          -1280.8226  YYY=            531.6869  ZZZ=            304.5882  XYY=           -120.1430
  XXY=           -594.4939  XXZ=           -221.5886  XZZ=            314.7513  YZZ=           -429.6412
  YYZ=           -131.3534  XYZ=             94.3788
 Hexadecapole moment (field-independent basis, Debye-Ang**3):
 XXXX=         -69752.8314 YYYY=         -49733.7803 ZZZZ=         -39402.6949 XXXY=           6701.5668
 XXXZ=          -2321.8858 YYYX=          -1271.2307 YYYZ=           3291.2767 ZZZX=            879.8949
 ZZZY=          -3964.3057 XXYY=         -21865.7563 XXZZ=         -19904.1772 YYZZ=         -18212.8040
 XXYZ=           -676.6962 YYXZ=          -1181.7135 ZZXY=            663.2929
 N-N= 2.852440102820D+04 E-N=-6.955406928523D+04  KE= 5.305367837197D+03
 Leave Link  601 at Fri Feb 26 12:35:19 2021, MaxMem=  7864320000 cpu:              81.8 elap:               3.0
 (Enter /apps/gaussian/g16-c01-avx/g16/l9999.exe)
 Unable to Open any file for archive entry.
 1\1\GINC-CX3-4-11\SP\RPBE1PBE\def2SVP\C120H68N12Pd2(4+)\ATARZIA\26-Feb
 -2021\0\\#P PBE1PBE/Def2SVP SP SCF=(YQC,MaxCycle=900) int=(Grid=Superf
 inegrid) EmpiricalDispersion=GD3BJ SCRF=(PCM,Solvent=DiMethylSulfoxide
 )\\_s_4c3_b\\4,1\Pd,0,-0.7482,6.8016,-0.2579\Pd,0,0.6825,-6.8543,-0.10
 04\C,0,5.4992,-3.5196,-0.8699\C,0,5.4661,-4.1653,0.1532\C,0,5.5209,-4.
 9932,1.2938\C,0,6.6398,-4.9882,2.1053\C,0,6.7655,-5.8958,3.1635\C,0,5.
 8027,-6.8443,3.4044\C,0,4.6458,-6.8856,2.6056\C,0,3.6302,-7.8563,2.756
 9\C,0,2.5342,-7.8314,1.9428\N,0,2.348,-6.8623,1.0114\C,0,3.2812,-5.945
 7,0.8351\C,0,4.4762,-5.925,1.5677\H,0,7.4341,-4.2846,1.9084\H,0,7.6508
 ,-5.8591,3.7801\H,0,5.9237,-7.567,4.1959\H,0,3.735,-8.6204,3.5105\H,0,
 1.7583,-8.5868,2.0127\H,0,3.1043,-5.1761,0.0871\C,0,5.6776,-2.8248,-2.
 0871\C,0,6.6431,-3.3381,-2.9736\C,0,6.9454,-2.6954,-4.1527\C,0,6.2756,
 -1.5126,-4.4354\N,0,6.4309,-0.6615,-5.497\C,0,5.5994,0.4097,-5.3415\C,
 0,5.4513,1.5337,-6.1457\C,0,4.5419,2.4887,-5.7557\C,0,3.7806,2.3362,-4
 .5803\C,0,3.9268,1.2087,-3.7731\C,0,4.8431,0.2432,-4.1522\C,0,5.2861,-
 0.9946,-3.5641\C,0,4.9797,-1.6589,-2.3857\H,0,7.1608,-4.2476,-2.709\H,
 0,7.6949,-3.0879,-4.8228\H,0,7.1016,-0.7762,-6.2386\H,0,6.0397,1.6564,
 -7.0422\H,0,4.409,3.3816,-6.3471\H,0,3.344,1.1023,-2.8731\H,0,4.2443,-
 1.268,-1.7018\C,0,2.8974,3.3702,-4.2276\C,0,2.1793,4.304,-3.9507\C,0,1
 .4058,5.4316,-3.636\C,0,1.2382,6.4736,-4.5618\C,0,0.5093,7.5897,-4.198
 8\C,0,-0.04,7.6567,-2.9268\N,0,0.1133,6.6594,-2.0497\C,0,0.808,5.5722,
 -2.3794\H,0,1.6833,6.3937,-5.5409\H,0,0.3685,8.4057,-4.8889\H,0,-0.614
 6,8.5171,-2.5921\H,0,0.9,4.7966,-1.6219\C,0,1.3908,4.044,4.5659\C,0,2.
 1788,4.7079,3.932\C,0,3.1082,5.5545,3.2927\C,0,4.3884,5.6891,3.7959\C,
 0,5.2869,6.6087,3.2428\C,0,4.9141,7.4287,2.207\C,0,3.6222,7.3242,1.660
 9\C,0,3.1509,8.1594,0.6232\C,0,1.8855,7.9976,0.138\N,0,1.0596,7.0169,0
 .5861\C,0,1.4595,6.2275,1.5659\C,0,2.7168,6.3521,2.1764\H,0,4.6919,5.0
 861,4.6379\H,0,6.2799,6.6841,3.6593\H,0,5.5976,8.1612,1.8076\H,0,3.794
 5,8.929,0.228\H,0,1.4844,8.649,-0.6322\H,0,0.7734,5.4527,1.9002\C,0,0.
 4734,3.3287,5.3673\C,0,-0.0172,3.9633,6.5232\C,0,-0.9001,3.3281,7.3687
 \C,0,-1.2868,2.0329,7.0498\N,0,-2.1292,1.1853,7.7206\C,0,-2.1853,-0.01
 06,7.0621\C,0,-2.8842,-1.1676,7.3889\C,0,-2.7442,-2.26,6.5639\C,0,-1.9
 218,-2.2118,5.4211\C,0,-1.2352,-1.0459,5.0806\C,0,-1.3665,0.058,5.9047
 \C,0,-0.7929,1.3783,5.8943\C,0,0.0856,2.0319,5.0438\H,0,0.3144,4.9658,
 6.7471\H,0,-1.27,3.8198,8.2552\H,0,-2.597,1.395,8.5869\H,0,-3.508,-1.2
 125,8.2687\H,0,-3.2633,-3.1779,6.7947\H,0,-0.6077,-1.0172,4.2045\H,0,0
 .4741,1.5472,4.1628\C,0,-1.776,-3.3749,4.6459\C,0,-1.6363,-4.3943,4.00
 87\C,0,-1.4749,-5.6007,3.3096\C,0,-2.1375,-6.7695,3.7171\C,0,-1.9344,-
 7.9407,3.0124\C,0,-1.083,-7.9339,1.9175\N,0,-0.4564,-6.8189,1.5288\C,0
 ,-0.6363,-5.6797,2.1923\H,0,-2.7928,-6.7421,4.5735\H,0,-2.4286,-8.8529
 ,3.3051\H,0,-0.893,-8.8317,1.3333\H,0,-0.0926,-4.8076,1.8338\C,0,-5.14
 73,3.4636,2.0299\C,0,-4.5865,4.2267,2.7836\C,0,-4.073,5.1977,3.6677\C,
 0,-4.6109,5.3309,4.9345\C,0,-4.2272,6.3826,5.7738\C,0,-3.3302,7.3333,5
 .3543\C,0,-2.7525,7.2351,4.0759\C,0,-1.8601,8.1995,3.5556\C,0,-1.3442,
 8.0461,2.3013\N,0,-1.6177,6.9565,1.538\C,0,-2.4541,6.0386,1.9868\C,0,-
 3.0902,6.1365,3.2333\H,0,-5.3535,4.6233,5.2698\H,0,-4.6682,6.455,6.756
 4\H,0,-3.0667,8.1646,5.9891\H,0,-1.6039,9.061,4.1513\H,0,-0.6886,8.79,
 1.8577\H,0,-2.646,5.1785,1.3494\C,0,-5.9241,2.6735,1.1535\C,0,-7.2274,
 3.1334,0.8832\C,0,-8.0683,2.4455,0.0379\C,0,-7.595,1.2706,-0.5315\N,0,
 -8.2271,0.4069,-1.386\C,0,-7.4008,-0.647,-1.6548\C,0,-7.6353,-1.7695,-
 2.4411\C,0,-6.6448,-2.7209,-2.5153\C,0,-5.4279,-2.5642,-1.8219\C,0,-5.
 1796,-1.4245,-1.056\C,0,-6.1711,-0.4614,-0.97\C,0,-6.2934,0.783,-0.253
 6\C,0,-5.4486,1.4951,0.5859\H,0,-7.5637,4.0462,1.3509\H,0,-9.065,2.804
 5,-0.1678\H,0,-9.1703,0.5079,-1.7229\H,0,-8.5706,-1.8983,-2.9642\H,0,-
 6.7985,-3.6125,-3.1039\H,0,-4.2455,-1.3124,-0.5297\H,0,-4.4551,1.1408,
 0.8085\C,0,-4.4972,-3.6163,-1.8796\C,0,-3.7577,-4.5738,-1.9213\C,0,-2.
 9547,-5.7256,-1.9215\C,0,-3.3863,-6.9098,-2.5407\C,0,-2.5936,-8.0389,-
 2.4631\C,0,-1.3935,-7.9797,-1.7694\N,0,-0.9778,-6.8483,-1.1937\C,0,-1.
 719,-5.745,-1.2668\H,0,-4.3314,-6.9287,-3.0603\H,0,-2.9028,-8.9619,-2.
 9261\H,0,-0.7458,-8.847,-1.6696\H,0,-1.3288,-4.8515,-0.7836\C,0,-1.926
 5,3.216,-4.6292\C,0,-2.9322,3.6473,-4.1123\C,0,-4.0812,4.2925,-3.6081\
 C,0,-5.3322,4.0502,-4.14\C,0,-6.4335,4.8295,-3.7641\C,0,-6.3009,5.8771
 ,-2.8865\C,0,-5.0501,6.1463,-2.3018\C,0,-4.8126,7.2203,-1.4146\C,0,-3.
 5675,7.4108,-0.886\N,0,-2.5398,6.5591,-1.1344\C,0,-2.7238,5.5511,-1.96
 77\C,0,-3.9386,5.3175,-2.6252\H,0,-5.4549,3.2709,-4.8764\H,0,-7.3963,4
 .6167,-4.2033\H,0,-7.1438,6.5032,-2.6401\H,0,-5.6179,7.894,-1.169\H,0,
 -3.3471,8.2496,-0.2349\H,0,-1.8914,4.8726,-2.1394\C,0,-0.7933,2.7814,-
 5.3534\C,0,-0.3574,3.6029,-6.4097\C,0,0.6853,3.2271,-7.2267\C,0,1.299,
 2.0076,-6.9748\N,0,2.3138,1.387,-7.654\C,0,2.5796,0.1826,-7.0681\C,0,3
 .5013,-0.7931,-7.4299\C,0,3.5644,-1.9371,-6.6679\C,0,2.7276,-2.1144,-5
 .5505\C,0,1.8072,-1.1336,-5.1807\C,0,1.7285,0.0161,-5.9454\C,0,0.895,1
 .1884,-5.8925\C,0,-0.1584,1.5752,-5.0779\H,0,-0.8733,4.5336,-6.5907\H,
 0,0.9998,3.8511,-8.0488\H,0,2.7498,1.7352,-8.4916\H,0,4.1388,-0.6617,-
 8.2907\H,0,4.2596,-2.7212,-6.9262\H,0,1.1651,-1.2809,-4.328\H,0,-0.494
 6,0.9497,-4.2673\C,0,2.7845,-3.3185,-4.8292\C,0,2.7905,-4.3732,-4.2365
 \C,0,2.7231,-5.5947,-3.5487\C,0,3.4224,-6.7355,-3.9717\C,0,3.2742,-7.9
 152,-3.267\C,0,2.4439,-7.946,-2.1551\N,0,1.7895,-6.856,-1.7481\C,0,1.9
 144,-5.7096,-2.4135\H,0,4.0598,-6.6826,-4.8404\H,0,3.7945,-8.8083,-3.5
 732\H,0,2.2971,-8.8506,-1.5716\H,0,1.3526,-4.8535,-2.0402\\Version=ES6
 4L-G16RevC.01\State=1-A\HF=-5516.3204464\RMSD=1.452e-09\Dipole=-0.0704
 621,-1.945721,-0.1175831\Quadrupole=-136.5659545,272.425514,-135.85955
 95,-74.9697789,-57.8062541,0.7065501\PG=C01 [X(C120H68N12Pd2)]\\@
 The archive entry for this job was punched.


 THERE ONCE WAS A GIRL NAMED IRENE,
 WHO LIVED ON DISTILLED KEROSENE,
      BUT SHE STARTED ABSORBIN'
      A NEW HYDROCARBON,
 AND SINCE THEN HAS NEVER BENZENE.
 Job cpu time:       2 days 15 hours 17 minutes 25.1 seconds.
 Elapsed time:       0 days  2 hours  1 minutes  9.0 seconds.
 File lengths (MBytes):  RWF=   6341 Int=      0 D2E=      0 Chk=    298 Scr=      2
 Normal termination of Gaussian 16 at Fri Feb 26 12:35:21 2021.
