 Entering Gaussian System
 *********************************************
 Gaussian 98:
 frequency output generated by the xtb code
 *********************************************
                         Standard orientation:
 --------------------------------------------------------------------
  Center     Atomic     Atomic              Coordinates (Angstroms)
  Number     Number      Type              X           Y           Z
 --------------------------------------------------------------------
    1         46             0       -0.119563    7.047601   -0.067912
    2         46             0        0.028365   -6.744600   -0.000988
    3          6             0        4.741216    2.952175    0.055778
    4          6             0        4.807423    4.129075    0.331376
    5          6             0        5.077531    5.462275    0.691173
    6          6             0        6.386534    5.797368    0.999368
    7          6             0        6.735542    7.095867    1.377664
    8          6             0        5.783447    8.081172    1.458166
    9          6             0        4.442845    7.786779    1.154271
   10          6             0        3.423550    8.762584    1.218773
   11          6             0        2.141947    8.425890    0.901078
   12          7             0        1.793339    7.168492    0.521481
   13          6             0        2.715434    6.226887    0.458880
   14          6             0        4.067437    6.467780    0.762175
   15          1             0        7.150130    5.036964    0.942866
   16          1             0        7.766144    7.317662    1.608460
   17          1             0        6.048254    9.084571    1.751863
   18          1             0        3.671156    9.768983    1.516270
   19          1             0        1.341451    9.162995    0.947979
   20          1             0        2.389028    5.236788    0.154783
   21          6             0        4.675808    1.569175   -0.200619
   22          6             0        3.568002    0.992580   -0.831214
   23          6             0        3.507895   -0.372320   -1.004612
   24          6             0        4.553892   -1.188425   -0.554814
   25          6             0        5.682897   -0.608730    0.033381
   26          6             0        5.741105    0.756370    0.209379
   27          1             0        2.761504    1.622083   -1.172012
   28          1             0        2.653391   -0.825416   -1.481608
   29          1             0        6.496795   -1.235733    0.364379
   30          1             0        6.603009    1.205967    0.678475
   31          6             0        4.412684   -2.587124   -0.636311
   32          6             0        4.227978   -3.782623   -0.651308
   33          6             0        3.830371   -5.132921   -0.603804
   34          6             0        4.705365   -6.224026   -0.682406
   35          6             0        4.183859   -7.503323   -0.593502
   36          6             0        2.817758   -7.680915   -0.419696
   37          7             0        1.987764   -6.638611   -0.344495
   38          6             0        2.468970   -5.400614   -0.439599
   39          1             0        5.764565   -6.062532   -0.809310
   40          1             0        4.831154   -8.363426   -0.652902
   41          1             0        2.370653   -8.666113   -0.337193
   42          1             0        1.758775   -4.575110   -0.378898
   43          6             0       -0.198368    2.911009    4.765896
   44          6             0       -0.494262    4.082611    4.836795
   45          6             0       -0.878254    5.407614    5.114294
   46          6             0       -1.201648    5.726818    6.423494
   47          6             0       -1.603340    7.016020    6.780493
   48          6             0       -1.691838    8.007919    5.835992
   49          6             0       -1.373244    7.729715    4.495391
   50          6             0       -1.445142    8.713014    3.483990
   51          6             0       -1.113348    8.392010    2.201889
   52          7             0       -0.712556    7.143407    1.845290
   53          6             0       -0.641558    6.195308    2.759991
   54          6             0       -0.957852    6.420212    4.111792
   55          1             0       -1.138749    4.961018    7.181295
   56          1             0       -1.845435    7.225423    7.811094
   57          1             0       -2.003232    9.004421    6.106791
   58          1             0       -1.759636    9.712716    3.737889
   59          1             0       -1.165747    9.135509    1.407588
   60          1             0       -0.319964    5.212706    2.427692
   61          6             0        0.082524    1.533008    4.694497
   62          6             0       -0.315276    0.708212    5.755200
   63          6             0       -0.114784   -0.653289    5.691302
   64          6             0        0.486010   -1.217195    4.561000
   65          6             0        0.923610   -0.388399    3.519697
   66          6             0        0.725718    0.972802    3.585496
   67          1             0       -0.794071    1.145416    6.618201
   68          1             0       -0.436284   -1.289786    6.501604
   69          1             0        1.410705   -0.829103    2.664497
   70          1             0        1.057018    1.612099    2.782793
   71          6             0        0.592402   -2.613495    4.412902
   72          6             0        0.628495   -3.807496    4.221304
   73          6             0        0.604186   -5.155397    3.813707
   74          6             0        0.701984   -6.251896    4.679908
   75          6             0        0.634975   -7.528296    4.148111
   76          6             0        0.463769   -7.697898    2.780512
   77          7             0        0.370372   -6.650499    1.958910
   78          6             0        0.444380   -5.414998    2.450208
   79          1             0        0.826388   -6.096794    5.740308
   80          1             0        0.709373   -8.392395    4.788412
   81          1             0        0.398063   -8.680898    2.325714
   82          1             0        0.369282   -4.584799    1.746707
   83          6             0       -4.882686    2.828325   -0.223788
   84          6             0       -4.969081    3.999825   -0.515990
   85          6             0       -5.264775    5.321926   -0.896191
   86          6             0       -6.574075    5.618232   -1.240387
   87          6             0       -6.949370    6.903834   -1.637088
   88          6             0       -6.023364    7.915029   -1.699493
   89          6             0       -4.683265    7.660022   -1.360097
   90          6             0       -3.690460    8.663617   -1.405602
   91          6             0       -2.407660    8.364111   -1.057106
   92          7             0       -2.032665    7.118309   -0.664505
   93          6             0       -2.929870    6.152214   -0.616201
   94          6             0       -4.280970    6.354321   -0.950496
   95          1             0       -7.317579    4.837236   -1.197283
   96          1             0       -7.979469    7.095138   -1.895785
   97          1             0       -6.308460    8.908930   -2.006194
   98          1             0       -3.958955    9.661518   -1.713703
   99          1             0       -1.627456    9.123507   -1.088910
  100          1             0       -2.583174    5.172913   -0.299600
  101          6             0       -4.794192    1.450425    0.053214
  102          6             0       -3.700193    0.908421    0.736311
  103          6             0       -3.616499   -0.452279    0.932213
  104          6             0       -4.624905   -1.298275    0.452518
  105          6             0       -5.741605   -0.753070   -0.189479
  106          6             0       -5.823298    0.607730   -0.387781
  107          1             0       -2.922988    1.561017    1.100707
  108          1             0       -2.772700   -0.878983    1.450711
  109          1             0       -6.526909   -1.403267   -0.543875
  110          1             0       -6.675398    1.030833   -0.897778
  111          6             0       -4.455312   -2.692376    0.557220
  112          6             0       -4.245418   -3.883277    0.591522
  113          6             0       -3.815025   -5.224179    0.564622
  114          6             0       -4.663831   -6.335474    0.645327
  115          6             0       -4.110138   -7.602377    0.575028
  116          6             0       -2.738339   -7.747985    0.416123
  117          7             0       -1.933334   -6.686489    0.339018
  118          6             0       -2.445827   -5.459786    0.417818
  119          1             0       -5.728030   -6.198969    0.759331
  120          1             0       -4.736742   -8.477574    0.636731
  121          1             0       -2.266644   -8.722788    0.347423
  122          1             0       -1.755423   -4.617590    0.357214
  123          6             0        0.103998    2.866891   -4.857905
  124          6             0        0.377704    4.043289   -4.937608
  125          6             0        0.736310    5.373387   -5.224612
  126          6             0        1.076007    5.684083   -6.531714
  127          6             0        1.451612    6.978580   -6.898117
  128          6             0        1.497121    7.984382   -5.965219
  129          6             0        1.161924    7.714786   -4.627018
  130          6             0        1.190933    8.712187   -3.627319
  131          6             0        0.847436    8.398091   -2.346518
  132          7             0        0.475330    7.143394   -1.980414
  133          6             0        0.442822    6.182893   -2.884212
  134          6             0        0.773619    6.399789   -4.233914
  135          1             0        1.045900    4.907582   -7.280612
  136          1             0        1.707210    7.181177   -7.926818
  137          1             0        1.787525    8.985180   -6.243522
  138          1             0        1.482637    9.716685   -3.888822
  139          1             0        0.866742    9.152193   -1.560819
  140          1             0        0.142418    5.196195   -2.544210
  141          6             0       -0.150909    1.484192   -4.777402
  142          6             0       -0.844408    0.927598   -3.697399
  143          6             0       -1.018915   -0.436501   -3.620796
  144          6             0       -0.507023   -1.271305   -4.622496
  145          6             0        0.145676   -0.712211   -5.726099
  146          6             0        0.322583    0.651988   -5.800602
  147          1             0       -1.233902    1.571801   -2.925198
  148          1             0       -1.545414   -0.874197   -2.787593
  149          1             0        0.525170   -1.354114   -6.506499
  150          1             0        0.840683    1.086084   -6.642205
  151          6             0       -0.590230   -2.667605   -4.459393
  152          6             0       -0.606035   -3.860004   -4.255591
  153          6             0       -0.558341   -5.203104   -3.833989
  154          6             0       -0.618349   -6.309505   -4.690987
  155          6             0       -0.527954   -7.579104   -4.146385
  156          6             0       -0.369650   -7.731903   -2.775385
  157          7             0       -0.312542   -6.675102   -1.962487
  158          6             0       -0.411137   -5.446202   -2.466089
  159          1             0       -0.731952   -6.167006   -5.754387
  160          1             0       -0.573461   -8.450505   -4.779383
  161          1             0       -0.285354   -8.708703   -2.310484
  162          1             0       -0.366830   -4.608201   -1.769391
 --------------------------------------------------------------------
     1 basis functions        1 primitive gaussians
     1 alpha electrons        1 beta electrons
 
 Harmonic frequencies (cm**-1), IR intensities (KM/Mole),
 Raman scattering activities (A**4/amu), Raman depolarization ratios,
 reduced masses (AMU), force constants (mDyne/A) and normal coordinates:
                      1                      2                      3
                        a                      a                      a 
 Frequencies --     4.4580                 6.3342                 8.4886
 Red. masses --    10.8112                11.9747                14.8324
 Frc consts  --     0.0000                 0.0000                 0.0000
 IR Inten    --     0.0150                 0.0375                 0.4224
 Raman Activ --     0.0000                 0.0000                 0.0000
 Depolar     --     0.0000                 0.0000                 0.0000
 Atom AN      X      Y      Z        X      Y      Z        X      Y      Z
   1  46     0.00  -0.00  -0.01     0.00  -0.05  -0.00     0.16   0.01  -0.03
   2  46     0.00   0.00  -0.00     0.00   0.06  -0.00     0.11  -0.00   0.00
   3   6     0.00  -0.01   0.10    -0.00   0.00   0.00     0.04  -0.03   0.02
   4   6    -0.01  -0.01   0.10    -0.00  -0.00   0.03     0.04  -0.03   0.02
   5   6    -0.01  -0.01   0.10    -0.01  -0.01   0.07     0.04  -0.03   0.02
   6   6    -0.02  -0.02   0.14    -0.02  -0.02   0.10     0.04  -0.04   0.03
   7   6    -0.03  -0.01   0.14    -0.03  -0.02   0.13     0.05  -0.04   0.03
   8   6    -0.02  -0.01   0.11    -0.03  -0.03   0.14     0.05  -0.03   0.02
   9   6    -0.02  -0.01   0.07    -0.03  -0.02   0.10     0.05  -0.02   0.01
  10   6    -0.01  -0.00   0.04    -0.03  -0.03   0.10     0.06  -0.02  -0.00
  11   6    -0.01   0.00   0.01    -0.02  -0.02   0.07     0.06  -0.01  -0.01
  12   7    -0.00  -0.00   0.01    -0.01  -0.02   0.05     0.06  -0.01  -0.01
  13   6    -0.01  -0.00   0.04    -0.01  -0.01   0.04     0.05  -0.01  -0.00
  14   6    -0.01  -0.01   0.07    -0.02  -0.02   0.07     0.05  -0.02   0.01
  15   1    -0.01  -0.01   0.05    -0.00  -0.00   0.03     0.01  -0.01   0.01
  16   1    -0.01  -0.01   0.05    -0.01  -0.01   0.05     0.01  -0.01   0.01
  17   1    -0.01  -0.00   0.03    -0.01  -0.01   0.05     0.02  -0.01   0.01
  18   1    -0.01  -0.00   0.01    -0.01  -0.01   0.04     0.02  -0.01  -0.00
  19   1    -0.00   0.00  -0.01    -0.01  -0.01   0.02     0.02  -0.00  -0.01
  20   1    -0.00  -0.00   0.01    -0.00  -0.00   0.01     0.01  -0.00  -0.00
  21   6     0.01  -0.01   0.10    -0.00   0.01  -0.03     0.04  -0.03   0.02
  22   6     0.07  -0.00  -0.01    -0.00   0.02  -0.04     0.04  -0.03   0.02
  23   6     0.08  -0.00  -0.02    -0.01   0.02  -0.06     0.05  -0.03   0.01
  24   6     0.03  -0.01   0.08    -0.00   0.02  -0.08     0.05  -0.03   0.01
  25   6    -0.03  -0.02   0.19    -0.00   0.00  -0.07     0.05  -0.03   0.02
  26   6    -0.03  -0.02   0.20     0.00  -0.00  -0.05     0.04  -0.03   0.02
  27   1     0.03   0.00  -0.03    -0.00   0.01  -0.01     0.01  -0.01   0.00
  28   1     0.03   0.00  -0.03    -0.00   0.01  -0.02     0.01  -0.01   0.00
  29   1    -0.02  -0.01   0.08    -0.00  -0.00  -0.03     0.01  -0.01   0.00
  30   1    -0.02  -0.01   0.08     0.00  -0.00  -0.01     0.01  -0.01   0.01
  31   6     0.02  -0.01   0.07    -0.01   0.02  -0.10     0.05  -0.03   0.01
  32   6     0.02  -0.01   0.05    -0.01   0.02  -0.11     0.05  -0.03   0.01
  33   6     0.01  -0.01   0.04    -0.01   0.02  -0.11     0.05  -0.03   0.01
  34   6     0.01  -0.01   0.06    -0.02   0.02  -0.15     0.04  -0.03   0.00
  35   6     0.00  -0.01   0.05    -0.02   0.02  -0.15     0.03  -0.03  -0.00
  36   6     0.00  -0.00   0.02    -0.02   0.02  -0.10     0.03  -0.02  -0.00
  37   7     0.00  -0.00   0.00    -0.01   0.02  -0.07     0.04  -0.02   0.00
  38   6     0.01  -0.00   0.01    -0.01   0.02  -0.07     0.05  -0.02   0.00
  39   1     0.00  -0.00   0.02    -0.01   0.00  -0.05     0.01  -0.01   0.00
  40   1     0.00  -0.00   0.02    -0.01   0.00  -0.05     0.01  -0.01  -0.00
  41   1    -0.00  -0.00   0.00    -0.00   0.01  -0.03     0.01  -0.01  -0.00
  42   1     0.00  -0.00  -0.00    -0.00   0.01  -0.01     0.01  -0.00   0.00
  43   6     0.10   0.01  -0.00    -0.01   0.00  -0.00    -0.12  -0.03  -0.03
  44   6     0.09   0.01   0.01    -0.04  -0.01  -0.01    -0.13  -0.03  -0.04
  45   6     0.10   0.01   0.01    -0.08  -0.02  -0.02    -0.14  -0.03  -0.05
  46   6     0.13   0.02   0.02    -0.11  -0.02  -0.02    -0.22  -0.05  -0.06
  47   6     0.13   0.02   0.02    -0.15  -0.03  -0.03    -0.23  -0.05  -0.07
  48   6     0.09   0.01   0.02    -0.15  -0.03  -0.04    -0.16  -0.03  -0.06
  49   6     0.06   0.01   0.01    -0.11  -0.03  -0.03    -0.09  -0.02  -0.04
  50   6     0.03  -0.00   0.01    -0.11  -0.03  -0.03    -0.02  -0.00  -0.03
  51   6     0.00  -0.00   0.00    -0.07  -0.02  -0.03     0.05   0.01  -0.02
  52   7     0.01  -0.00  -0.00    -0.05  -0.02  -0.02     0.05   0.01  -0.02
  53   6     0.03   0.00   0.00    -0.05  -0.02  -0.01    -0.01  -0.00  -0.02
  54   6     0.06   0.01   0.01    -0.08  -0.02  -0.02    -0.08  -0.02  -0.04
  55   1     0.04   0.01   0.01    -0.03  -0.01  -0.01    -0.08  -0.02  -0.02
  56   1     0.04   0.01   0.01    -0.05  -0.01  -0.01    -0.08  -0.02  -0.02
  57   1     0.03   0.00   0.01    -0.05  -0.01  -0.01    -0.05  -0.01  -0.02
  58   1     0.01  -0.00   0.00    -0.04  -0.01  -0.01    -0.00  -0.00  -0.01
  59   1    -0.01  -0.00   0.00    -0.02  -0.01  -0.01     0.03   0.01  -0.00
  60   1     0.01   0.00   0.00    -0.01  -0.00  -0.00    -0.00  -0.00  -0.01
  61   6     0.09   0.01  -0.01     0.02   0.01  -0.00    -0.10  -0.02  -0.01
  62   6     0.20   0.03   0.04     0.04  -0.00  -0.00    -0.23  -0.04  -0.07
  63   6     0.19   0.02   0.03     0.07   0.00  -0.01    -0.21  -0.03  -0.05
  64   6     0.08   0.01  -0.02     0.08   0.02  -0.01    -0.07  -0.02   0.01
  65   6    -0.03   0.00  -0.08     0.06   0.02  -0.00     0.06  -0.01   0.08
  66   6    -0.02   0.00  -0.07     0.04   0.02  -0.00     0.04  -0.01   0.06
  67   1     0.08   0.01   0.02     0.01  -0.00  -0.00    -0.10  -0.01  -0.04
  68   1     0.08   0.01   0.02     0.02  -0.00  -0.00    -0.09  -0.01  -0.03
  69   1    -0.03  -0.00  -0.04     0.02   0.01  -0.00     0.05   0.00   0.04
  70   1    -0.03  -0.00  -0.03     0.01   0.01  -0.00     0.04   0.00   0.03
  71   6     0.07   0.01  -0.02     0.10   0.02  -0.01    -0.05  -0.02   0.02
  72   6     0.06   0.01  -0.02     0.11   0.02  -0.01    -0.03  -0.02   0.02
  73   6     0.04   0.01  -0.01     0.11   0.02  -0.02    -0.02  -0.02   0.01
  74   6     0.06   0.01  -0.01     0.15   0.02  -0.02    -0.05  -0.02   0.01
  75   6     0.05   0.01  -0.00     0.14   0.02  -0.02    -0.04  -0.02   0.01
  76   6     0.02   0.01  -0.00     0.10   0.02  -0.02     0.00  -0.01   0.00
  77   7     0.01   0.00  -0.00     0.07   0.02  -0.01     0.03  -0.01   0.00
  78   6     0.01   0.00  -0.01     0.07   0.02  -0.01     0.03  -0.01   0.01
  79   1     0.02   0.00  -0.00     0.05   0.00  -0.01    -0.02  -0.01   0.01
  80   1     0.02   0.00  -0.00     0.05   0.00  -0.01    -0.02  -0.01   0.00
  81   1     0.00   0.00   0.00     0.03   0.01  -0.01     0.00  -0.00  -0.00
  82   1    -0.00   0.00  -0.00     0.01   0.01  -0.00     0.02  -0.00   0.00
  83   6    -0.00  -0.01  -0.09     0.00   0.00   0.00     0.04   0.03   0.03
  84   6     0.01  -0.01  -0.09     0.01  -0.01  -0.03     0.04   0.03   0.03
  85   6     0.01  -0.01  -0.10     0.01  -0.01  -0.06     0.04   0.03   0.04
  86   6     0.02  -0.01  -0.13     0.02  -0.02  -0.09     0.04   0.04   0.06
  87   6     0.03  -0.01  -0.13     0.03  -0.03  -0.13     0.04   0.04   0.06
  88   6     0.02  -0.01  -0.10     0.04  -0.03  -0.13     0.04   0.04   0.05
  89   6     0.02  -0.01  -0.07     0.03  -0.03  -0.10     0.05   0.03   0.03
  90   6     0.01  -0.00  -0.04     0.03  -0.03  -0.10     0.05   0.02   0.02
  91   6     0.01   0.00  -0.01     0.02  -0.02  -0.07     0.06   0.02  -0.00
  92   7     0.00  -0.00  -0.01     0.02  -0.02  -0.05     0.06   0.02  -0.01
  93   6     0.01  -0.00  -0.04     0.01  -0.02  -0.04     0.05   0.02   0.01
  94   6     0.01  -0.01  -0.07     0.02  -0.02  -0.07     0.05   0.03   0.03
  95   1     0.01  -0.01  -0.04     0.01  -0.00  -0.03     0.01   0.01   0.02
  96   1     0.01  -0.00  -0.05     0.01  -0.01  -0.04     0.01   0.01   0.02
  97   1     0.01  -0.00  -0.03     0.01  -0.01  -0.05     0.01   0.01   0.02
  98   1     0.01  -0.00  -0.01     0.01  -0.01  -0.04     0.02   0.01   0.01
  99   1     0.00   0.00   0.00     0.01  -0.01  -0.02     0.02   0.00  -0.00
 100   1     0.00  -0.00  -0.01     0.00  -0.00  -0.00     0.01   0.01   0.00
 101   6    -0.01  -0.01  -0.09     0.00   0.01   0.03     0.05   0.03   0.03
 102   6    -0.08  -0.00   0.03     0.01   0.02   0.04     0.04   0.03   0.04
 103   6    -0.08   0.00   0.04     0.01   0.02   0.06     0.04   0.03   0.04
 104   6    -0.02  -0.01  -0.07     0.01   0.01   0.08     0.05   0.03   0.02
 105   6     0.04  -0.02  -0.19     0.00   0.00   0.08     0.06   0.03   0.00
 106   6     0.05  -0.02  -0.20    -0.00  -0.00   0.06     0.06   0.03   0.01
 107   1    -0.04   0.00   0.03     0.00   0.01   0.01     0.01   0.01   0.02
 108   1    -0.04   0.00   0.04     0.00   0.01   0.02     0.01   0.01   0.01
 109   1     0.02  -0.01  -0.08    -0.00  -0.00   0.03     0.02   0.01  -0.00
 110   1     0.03  -0.01  -0.08    -0.00  -0.00   0.02     0.02   0.01  -0.00
 111   6    -0.02  -0.01  -0.06     0.01   0.02   0.10     0.05   0.03   0.01
 112   6    -0.01  -0.01  -0.05     0.01   0.02   0.11     0.05   0.03   0.01
 113   6    -0.01  -0.01  -0.04     0.02   0.02   0.11     0.05   0.03   0.00
 114   6    -0.01  -0.01  -0.06     0.02   0.02   0.16     0.04   0.03  -0.00
 115   6    -0.00  -0.01  -0.05     0.02   0.02   0.15     0.03   0.03  -0.01
 116   6     0.00  -0.00  -0.02     0.02   0.02   0.10     0.03   0.02  -0.00
 117   7     0.00  -0.00  -0.01     0.01   0.02   0.07     0.04   0.02   0.00
 118   6    -0.00  -0.00  -0.01     0.01   0.02   0.07     0.05   0.02   0.01
 119   1    -0.00  -0.00  -0.02     0.01   0.00   0.06     0.01   0.01  -0.00
 120   1     0.00  -0.00  -0.02     0.01   0.00   0.05     0.01   0.01  -0.00
 121   1     0.00  -0.00  -0.00     0.01   0.01   0.03     0.01   0.01  -0.00
 122   1    -0.00   0.00   0.00     0.00   0.01   0.01     0.01   0.00   0.00
 123   6    -0.10   0.01  -0.00     0.00   0.00   0.00    -0.10   0.02  -0.02
 124   6    -0.10   0.01  -0.01     0.04  -0.01   0.01    -0.11   0.02  -0.03
 125   6    -0.10   0.01  -0.02     0.08  -0.02   0.02    -0.12   0.02  -0.04
 126   6    -0.13   0.01  -0.03     0.11  -0.02   0.02    -0.19   0.03  -0.06
 127   6    -0.13   0.01  -0.03     0.15  -0.03   0.04    -0.20   0.03  -0.06
 128   6    -0.09   0.01  -0.02     0.15  -0.03   0.04    -0.14   0.02  -0.06
 129   6    -0.06   0.00  -0.02     0.11  -0.03   0.03    -0.07   0.01  -0.04
 130   6    -0.03  -0.00  -0.01     0.11  -0.03   0.03    -0.01   0.00  -0.03
 131   6    -0.00  -0.00  -0.01     0.07  -0.02   0.02     0.04  -0.00  -0.02
 132   7    -0.00  -0.00  -0.00     0.05  -0.02   0.01     0.04  -0.00  -0.02
 133   6    -0.03   0.00  -0.01     0.05  -0.02   0.01    -0.01   0.01  -0.02
 134   6    -0.06   0.00  -0.01     0.08  -0.02   0.02    -0.07   0.01  -0.03
 135   1    -0.05   0.00  -0.01     0.03  -0.01   0.01    -0.07   0.01  -0.02
 136   1    -0.04   0.00  -0.01     0.05  -0.01   0.01    -0.07   0.01  -0.02
 137   1    -0.03   0.00  -0.01     0.05  -0.01   0.01    -0.04   0.01  -0.02
 138   1    -0.01  -0.00  -0.00     0.04  -0.01   0.01    -0.00   0.00  -0.01
 139   1     0.01  -0.00  -0.00     0.02  -0.01   0.01     0.03  -0.00  -0.00
 140   1    -0.01   0.00  -0.00     0.01  -0.00   0.00    -0.00   0.00  -0.00
 141   6    -0.10   0.01   0.01    -0.03   0.01   0.00    -0.09   0.02  -0.00
 142   6     0.04   0.00   0.09    -0.04   0.02   0.00     0.05   0.01   0.08
 143   6     0.04   0.00   0.09    -0.06   0.02   0.01     0.06   0.01   0.09
 144   6    -0.08   0.01   0.02    -0.08   0.01   0.00    -0.06   0.02   0.02
 145   6    -0.22   0.02  -0.06    -0.08   0.00  -0.00    -0.21   0.03  -0.06
 146   6    -0.23   0.02  -0.06    -0.05  -0.00  -0.00    -0.22   0.03  -0.07
 147   1     0.04  -0.00   0.04    -0.01   0.01   0.00     0.04  -0.00   0.04
 148   1     0.04  -0.00   0.05    -0.02   0.01   0.00     0.05  -0.00   0.05
 149   1    -0.09   0.01  -0.03    -0.03  -0.00  -0.00    -0.09   0.01  -0.03
 150   1    -0.10   0.01  -0.04    -0.01  -0.00  -0.00    -0.10   0.01  -0.04
 151   6    -0.07   0.01   0.02    -0.10   0.02   0.01    -0.04   0.02   0.02
 152   6    -0.06   0.01   0.02    -0.11   0.02   0.01    -0.03   0.02   0.02
 153   6    -0.05   0.01   0.01    -0.11   0.02   0.01    -0.01   0.01   0.01
 154   6    -0.07   0.01   0.01    -0.15   0.01   0.02    -0.04   0.02   0.01
 155   6    -0.05   0.01   0.00    -0.15   0.02   0.02    -0.03   0.02   0.01
 156   6    -0.02   0.01  -0.00    -0.10   0.02   0.02     0.00   0.01   0.00
 157   7    -0.01   0.00   0.00    -0.07   0.02   0.01     0.03   0.01   0.00
 158   6    -0.01   0.00   0.01    -0.07   0.02   0.01     0.02   0.01   0.01
 159   1    -0.03   0.00   0.00    -0.05   0.00   0.01    -0.02   0.01   0.00
 160   1    -0.02   0.00   0.00    -0.05   0.00   0.01    -0.01   0.01   0.00
 161   1    -0.00   0.00  -0.00    -0.03   0.01   0.00     0.00   0.00  -0.00
 162   1     0.00   0.00   0.00    -0.01   0.01   0.00     0.01   0.00   0.00
                      4                      5                      6
                        a                      a                      a 
 Frequencies --     9.3766                13.9487                15.7206
 Red. masses --    15.0315                11.0389                13.9189
 Frc consts  --     0.0000                 0.0000                 0.0000
 IR Inten    --     0.4273                 0.0286                 0.0874
 Raman Activ --     0.0000                 0.0000                 0.0000
 Depolar     --     0.0000                 0.0000                 0.0000
 Atom AN      X      Y      Z        X      Y      Z        X      Y      Z
   1  46    -0.03   0.01  -0.17     0.01   0.00   0.01    -0.04   0.00   0.04
   2  46     0.01  -0.00  -0.11    -0.01  -0.00   0.00     0.13  -0.00  -0.11
   3   6    -0.03  -0.03   0.12    -0.02  -0.02   0.01     0.01   0.04   0.00
   4   6    -0.04  -0.03   0.13    -0.02  -0.03   0.04     0.01   0.04   0.00
   5   6    -0.04  -0.03   0.14    -0.02  -0.04   0.08     0.00   0.05  -0.01
   6   6    -0.06  -0.04   0.22    -0.03  -0.06   0.13     0.00   0.06  -0.02
   7   6    -0.06  -0.05   0.23    -0.02  -0.07   0.16    -0.00   0.06  -0.03
   8   6    -0.06  -0.03   0.16    -0.02  -0.06   0.14    -0.01   0.06  -0.02
   9   6    -0.04  -0.02   0.09    -0.01  -0.04   0.10    -0.01   0.04  -0.01
  10   6    -0.03  -0.00   0.02    -0.00  -0.03   0.07    -0.02   0.04  -0.01
  11   6    -0.02   0.01  -0.04     0.01  -0.01   0.03    -0.02   0.03  -0.00
  12   7    -0.02   0.01  -0.05     0.00  -0.01   0.01    -0.01   0.02   0.01
  13   6    -0.02  -0.01   0.01    -0.01  -0.01   0.03    -0.01   0.03   0.01
  14   6    -0.04  -0.02   0.08    -0.01  -0.03   0.07    -0.01   0.04  -0.00
  15   1    -0.02  -0.02   0.08    -0.01  -0.02   0.04     0.00   0.02  -0.01
  16   1    -0.02  -0.02   0.08    -0.01  -0.02   0.06    -0.00   0.02  -0.01
  17   1    -0.02  -0.01   0.05    -0.00  -0.02   0.05    -0.00   0.02  -0.01
  18   1    -0.01  -0.00   0.01     0.00  -0.01   0.03    -0.01   0.01  -0.01
  19   1    -0.00   0.01  -0.03     0.00  -0.00   0.00    -0.01   0.01   0.00
  20   1    -0.01  -0.00   0.00    -0.00  -0.00   0.00    -0.00   0.01   0.01
  21   6    -0.01  -0.02   0.10    -0.02  -0.02  -0.02     0.01   0.04   0.01
  22   6     0.06  -0.01  -0.03    -0.04  -0.01   0.01    -0.00   0.04   0.02
  23   6     0.07  -0.01  -0.05    -0.04  -0.01  -0.01    -0.00   0.04   0.02
  24   6     0.02  -0.02   0.06    -0.01  -0.01  -0.06     0.01   0.04   0.00
  25   6    -0.05  -0.03   0.19     0.01  -0.01  -0.11     0.02   0.05  -0.02
  26   6    -0.06  -0.03   0.21     0.01  -0.02  -0.08     0.02   0.05  -0.01
  27   1     0.03  -0.00  -0.03    -0.02  -0.00   0.02    -0.00   0.01   0.01
  28   1     0.03  -0.00  -0.04    -0.02  -0.00   0.01    -0.00   0.01   0.01
  29   1    -0.02  -0.01   0.08     0.01  -0.00  -0.04     0.01   0.01  -0.01
  30   1    -0.03  -0.01   0.09     0.01  -0.00  -0.03     0.01   0.01  -0.01
  31   6     0.02  -0.02   0.04    -0.01  -0.01  -0.07     0.01   0.04  -0.00
  32   6     0.02  -0.02   0.02    -0.01  -0.01  -0.07     0.02   0.04  -0.01
  33   6     0.02  -0.02   0.01    -0.01  -0.01  -0.07     0.03   0.04  -0.01
  34   6     0.02  -0.02   0.04    -0.01  -0.01  -0.10     0.04   0.05  -0.01
  35   6     0.01  -0.02   0.03    -0.02  -0.01  -0.09     0.05   0.04  -0.01
  36   6     0.00  -0.01  -0.00    -0.01  -0.01  -0.04     0.05   0.03  -0.02
  37   7     0.01  -0.01  -0.03    -0.01  -0.01  -0.01     0.04   0.02  -0.03
  38   6     0.01  -0.01  -0.03    -0.00  -0.01  -0.02     0.03   0.03  -0.03
  39   1     0.01  -0.01   0.02    -0.01  -0.00  -0.04     0.01   0.02   0.00
  40   1     0.00  -0.01   0.01    -0.01  -0.00  -0.03     0.02   0.01  -0.00
  41   1    -0.00  -0.00  -0.00    -0.00  -0.00  -0.01     0.02   0.01  -0.01
  42   1     0.00  -0.00  -0.02     0.00  -0.00   0.00     0.01   0.01  -0.01
  43   6     0.03   0.03  -0.04     0.01   0.01   0.02    -0.04   0.03   0.03
  44   6     0.03   0.03  -0.04     0.04   0.02   0.02     0.01   0.05   0.04
  45   6     0.03   0.03  -0.04     0.07   0.03   0.02     0.07   0.06   0.04
  46   6     0.05   0.04  -0.04     0.12   0.04   0.03     0.14   0.09   0.05
  47   6     0.06   0.04  -0.04     0.15   0.05   0.03     0.19   0.10   0.05
  48   6     0.04   0.04  -0.05     0.13   0.04   0.03     0.17   0.09   0.04
  49   6     0.03   0.03  -0.05     0.09   0.03   0.02     0.11   0.07   0.03
  50   6     0.01   0.02  -0.06     0.07   0.02   0.01     0.08   0.05   0.02
  51   6    -0.00   0.02  -0.06     0.03   0.01   0.01     0.02   0.03   0.01
  52   7    -0.01   0.02  -0.06     0.01   0.00   0.01    -0.01   0.02   0.02
  53   6     0.00   0.02  -0.05     0.02   0.01   0.01     0.01   0.03   0.02
  54   6     0.02   0.03  -0.05     0.06   0.02   0.02     0.06   0.05   0.03
  55   1     0.02   0.01  -0.01     0.04   0.01   0.01     0.04   0.03   0.02
  56   1     0.02   0.01  -0.01     0.05   0.02   0.01     0.07   0.04   0.02
  57   1     0.01   0.01  -0.01     0.04   0.01   0.01     0.06   0.03   0.01
  58   1     0.00   0.01  -0.02     0.02   0.01   0.00     0.03   0.02   0.00
  59   1    -0.00   0.00  -0.02     0.00  -0.00   0.00    -0.00   0.00  -0.00
  60   1     0.00   0.01  -0.01     0.00   0.00   0.00    -0.00   0.01   0.01
  61   6     0.02   0.03  -0.05    -0.02   0.00   0.02    -0.08   0.03   0.02
  62   6    -0.00   0.03  -0.06    -0.11  -0.00  -0.02    -0.22   0.01  -0.05
  63   6    -0.01   0.03  -0.06    -0.13  -0.00  -0.02    -0.25   0.01  -0.06
  64   6     0.01   0.03  -0.05    -0.06  -0.00   0.02    -0.14   0.02  -0.00
  65   6     0.03   0.03  -0.04     0.02   0.00   0.05    -0.01   0.03   0.06
  66   6     0.04   0.03  -0.04     0.04   0.00   0.05     0.01   0.03   0.07
  67   1    -0.01   0.01  -0.02    -0.05  -0.00  -0.01    -0.09   0.00  -0.02
  68   1    -0.01   0.01  -0.02    -0.06  -0.00  -0.01    -0.10  -0.00  -0.03
  69   1     0.01   0.01  -0.01     0.02   0.00   0.02     0.02   0.01   0.03
  70   1     0.02   0.01  -0.01     0.03   0.00   0.02     0.03   0.01   0.03
  71   6     0.01   0.03  -0.05    -0.07  -0.00   0.01    -0.14   0.02  -0.01
  72   6     0.00   0.03  -0.05    -0.07  -0.00   0.01    -0.13   0.02  -0.02
  73   6     0.00   0.03  -0.05    -0.06  -0.00   0.01    -0.10   0.02  -0.02
  74   6    -0.01   0.03  -0.04    -0.09  -0.00   0.01    -0.16   0.02  -0.01
  75   6    -0.01   0.03  -0.03    -0.08  -0.00   0.01    -0.12   0.02  -0.01
  76   6    -0.00   0.02  -0.03    -0.04  -0.00   0.01    -0.03   0.02  -0.02
  77   7     0.00   0.02  -0.04    -0.01  -0.00   0.00     0.02   0.02  -0.04
  78   6     0.01   0.02  -0.05    -0.02  -0.00   0.00    -0.01   0.02  -0.03
  79   1    -0.00   0.01  -0.01    -0.04  -0.00   0.00    -0.07   0.01  -0.00
  80   1    -0.00   0.01  -0.01    -0.03  -0.00   0.00    -0.05   0.01  -0.00
  81   1    -0.00   0.01  -0.01    -0.01  -0.00   0.00    -0.00   0.00  -0.01
  82   1     0.00   0.00  -0.01     0.00  -0.00   0.00     0.01   0.00  -0.01
  83   6    -0.02   0.02   0.11     0.03  -0.01  -0.02     0.01  -0.05   0.02
  84   6    -0.03   0.03   0.12     0.03  -0.02  -0.06     0.01  -0.05   0.01
  85   6    -0.04   0.03   0.13     0.03  -0.04  -0.10     0.01  -0.06  -0.01
  86   6    -0.06   0.04   0.20     0.05  -0.06  -0.17     0.01  -0.07  -0.03
  87   6    -0.07   0.04   0.22     0.05  -0.07  -0.21     0.00  -0.08  -0.05
  88   6    -0.06   0.03   0.15     0.04  -0.06  -0.19    -0.01  -0.07  -0.05
  89   6    -0.04   0.02   0.08     0.03  -0.04  -0.12    -0.01  -0.05  -0.03
  90   6    -0.04   0.01   0.02     0.02  -0.03  -0.08    -0.02  -0.05  -0.02
  91   6    -0.02  -0.00  -0.04     0.01  -0.01  -0.02    -0.02  -0.03  -0.01
  92   7    -0.02  -0.00  -0.05     0.01  -0.00  -0.00    -0.01  -0.03   0.01
  93   6    -0.02   0.01   0.01     0.02  -0.01  -0.03    -0.00  -0.03   0.01
  94   6    -0.04   0.02   0.07     0.03  -0.03  -0.08    -0.00  -0.05  -0.01
  95   1    -0.02   0.01   0.07     0.02  -0.02  -0.05     0.00  -0.02  -0.01
  96   1    -0.02   0.01   0.08     0.02  -0.02  -0.08     0.00  -0.03  -0.02
  97   1    -0.02   0.01   0.05     0.01  -0.02  -0.06    -0.00  -0.02  -0.02
  98   1    -0.01   0.00   0.01     0.01  -0.01  -0.03    -0.01  -0.01  -0.01
  99   1    -0.00  -0.00  -0.03    -0.00   0.00   0.00    -0.01  -0.01  -0.00
 100   1    -0.01   0.00   0.00     0.00  -0.00  -0.00     0.00  -0.01   0.01
 101   6    -0.01   0.02   0.09     0.02  -0.01   0.02     0.01  -0.05   0.02
 102   6     0.07   0.01  -0.04     0.06  -0.00  -0.03     0.01  -0.04   0.03
 103   6     0.08   0.01  -0.06     0.06   0.00  -0.01     0.01  -0.04   0.03
 104   6     0.02   0.02   0.06     0.02   0.00   0.08     0.01  -0.05   0.03
 105   6    -0.05   0.03   0.20    -0.02   0.00   0.14     0.02  -0.05   0.02
 106   6    -0.07   0.03   0.21    -0.02  -0.00   0.12     0.02  -0.05   0.02
 107   1     0.04   0.00  -0.04     0.03  -0.00  -0.03     0.00  -0.01   0.01
 108   1     0.04  -0.00  -0.05     0.03   0.00  -0.02     0.00  -0.01   0.01
 109   1    -0.03   0.01   0.08    -0.01   0.00   0.06     0.01  -0.01   0.00
 110   1    -0.04   0.01   0.09    -0.01  -0.00   0.05     0.01  -0.01   0.00
 111   6     0.02   0.02   0.04     0.01   0.00   0.09     0.02  -0.05   0.02
 112   6     0.02   0.02   0.03     0.01   0.00   0.09     0.02  -0.04   0.01
 113   6     0.02   0.02   0.01     0.01   0.00   0.08     0.03  -0.04   0.00
 114   6     0.01   0.02   0.04     0.01   0.00   0.12     0.04  -0.05   0.02
 115   6     0.01   0.02   0.03     0.01   0.00   0.10     0.05  -0.04   0.00
 116   6     0.00   0.01  -0.00     0.00   0.00   0.05     0.05  -0.03  -0.02
 117   7     0.01   0.01  -0.03     0.00   0.00   0.02     0.04  -0.02  -0.04
 118   6     0.01   0.01  -0.03     0.00   0.00   0.03     0.03  -0.03  -0.02
 119   1     0.01   0.01   0.02     0.00   0.00   0.05     0.01  -0.02   0.01
 120   1     0.00   0.01   0.02     0.00   0.00   0.04     0.02  -0.01   0.00
 121   1    -0.00   0.00  -0.00     0.00   0.00   0.01     0.02  -0.01  -0.01
 122   1     0.00   0.00  -0.02    -0.00   0.00  -0.00     0.01  -0.01  -0.01
 123   6     0.02  -0.03  -0.04    -0.01   0.02  -0.02    -0.03  -0.03   0.02
 124   6     0.02  -0.03  -0.04    -0.06   0.03  -0.02     0.01  -0.04   0.03
 125   6     0.02  -0.03  -0.04    -0.11   0.05  -0.03     0.06  -0.05   0.04
 126   6     0.04  -0.04  -0.04    -0.17   0.07  -0.04     0.12  -0.07   0.05
 127   6     0.04  -0.04  -0.05    -0.22   0.08  -0.04     0.16  -0.08   0.05
 128   6     0.03  -0.04  -0.05    -0.19   0.07  -0.03     0.15  -0.08   0.04
 129   6     0.01  -0.03  -0.05    -0.12   0.05  -0.02     0.09  -0.06   0.03
 130   6     0.00  -0.02  -0.06    -0.09   0.04  -0.01     0.07  -0.04   0.02
 131   6    -0.01  -0.01  -0.06    -0.03   0.02   0.00     0.02  -0.02   0.01
 132   7    -0.01  -0.01  -0.06    -0.01   0.01   0.00    -0.01  -0.02   0.02
 133   6     0.00  -0.02  -0.05    -0.03   0.02  -0.01     0.01  -0.03   0.02
 134   6     0.01  -0.03  -0.05    -0.08   0.04  -0.02     0.05  -0.04   0.03
 135   1     0.01  -0.01  -0.01    -0.06   0.02  -0.01     0.04  -0.02   0.02
 136   1     0.01  -0.01  -0.01    -0.08   0.03  -0.02     0.06  -0.03   0.02
 137   1     0.01  -0.01  -0.02    -0.07   0.02  -0.01     0.05  -0.02   0.01
 138   1     0.00  -0.01  -0.02    -0.03   0.01  -0.00     0.03  -0.01   0.01
 139   1    -0.00  -0.00  -0.02     0.00   0.00   0.00    -0.00  -0.00   0.00
 140   1    -0.00  -0.00  -0.01    -0.00   0.00  -0.00    -0.00  -0.01   0.01
 141   6     0.02  -0.03  -0.04     0.03   0.02  -0.02    -0.07  -0.02   0.01
 142   6     0.01  -0.03  -0.05    -0.03   0.01  -0.06     0.02  -0.03   0.07
 143   6     0.01  -0.03  -0.05    -0.01   0.01  -0.06     0.00  -0.03   0.06
 144   6     0.01  -0.03  -0.05     0.08   0.01  -0.01    -0.11  -0.02  -0.01
 145   6     0.02  -0.03  -0.04     0.15   0.01   0.03    -0.22  -0.01  -0.06
 146   6     0.03  -0.03  -0.04     0.12   0.02   0.03    -0.20  -0.01  -0.05
 147   1     0.00  -0.01  -0.01    -0.03   0.00  -0.03     0.03  -0.01   0.04
 148   1     0.00  -0.01  -0.02    -0.02   0.00  -0.03     0.02  -0.01   0.03
 149   1     0.01  -0.01  -0.01     0.06   0.00   0.02    -0.09  -0.00  -0.03
 150   1     0.01  -0.01  -0.01     0.05   0.01   0.02    -0.08  -0.00  -0.03
 151   6     0.01  -0.03  -0.05     0.09   0.01  -0.01    -0.11  -0.02  -0.02
 152   6     0.01  -0.03  -0.05     0.08   0.01  -0.00    -0.10  -0.02  -0.02
 153   6     0.01  -0.03  -0.05     0.07   0.01  -0.00    -0.07  -0.02  -0.03
 154   6     0.00  -0.03  -0.04     0.10   0.01  -0.01    -0.11  -0.02  -0.02
 155   6     0.00  -0.03  -0.03     0.08   0.01  -0.01    -0.08  -0.02  -0.02
 156   6     0.00  -0.02  -0.03     0.04   0.01  -0.01    -0.01  -0.02  -0.03
 157   7     0.00  -0.02  -0.04     0.01   0.01  -0.00     0.03  -0.02  -0.04
 158   6     0.01  -0.02  -0.05     0.02   0.01  -0.00    -0.00  -0.02  -0.03
 159   1     0.00  -0.01  -0.01     0.04   0.00  -0.00    -0.05  -0.01  -0.00
 160   1    -0.00  -0.01  -0.01     0.03   0.00  -0.00    -0.03  -0.01  -0.00
 161   1    -0.00  -0.01  -0.01     0.01   0.00  -0.00     0.00  -0.00  -0.01
 162   1     0.00  -0.00  -0.01    -0.00   0.00   0.00     0.01  -0.00  -0.01
                      7                      8                      9
                        a                      a                      a 
 Frequencies --    16.2647                18.8542                18.9779
 Red. masses --    14.3677                17.8445                17.9350
 Frc consts  --     0.0000                 0.0000                 0.0000
 IR Inten    --     0.1325                 0.1028                 0.0855
 Raman Activ --     0.0000                 0.0000                 0.0000
 Depolar     --     0.0000                 0.0000                 0.0000
 Atom AN      X      Y      Z        X      Y      Z        X      Y      Z
   1  46    -0.04  -0.00  -0.02     0.18   0.01   0.12     0.11   0.02  -0.18
   2  46     0.12   0.00   0.13    -0.11  -0.00  -0.10    -0.09  -0.01   0.12
   3   6    -0.03  -0.04  -0.05     0.04   0.05   0.02     0.03   0.07   0.02
   4   6    -0.04  -0.05   0.00     0.06   0.05   0.03     0.04   0.07   0.05
   5   6    -0.04  -0.07   0.06     0.07   0.05   0.03     0.03   0.06   0.07
   6   6    -0.05  -0.09   0.12     0.06   0.05   0.03     0.02   0.06   0.13
   7   6    -0.04  -0.11   0.17     0.06   0.05   0.03    -0.01   0.06   0.16
   8   6    -0.04  -0.10   0.16     0.06   0.05   0.03    -0.01   0.06   0.12
   9   6    -0.03  -0.07   0.10     0.06   0.05   0.03     0.00   0.06   0.06
  10   6    -0.02  -0.06   0.08     0.05   0.04   0.02    -0.00   0.06   0.01
  11   6    -0.01  -0.03   0.03     0.06   0.04   0.03     0.01   0.05  -0.04
  12   7    -0.02  -0.03   0.00     0.06   0.03   0.04     0.03   0.05  -0.06
  13   6    -0.03  -0.03   0.01     0.06   0.03   0.04     0.04   0.05  -0.02
  14   6    -0.03  -0.06   0.06     0.06   0.04   0.03     0.02   0.06   0.04
  15   1    -0.02  -0.03   0.03     0.02   0.01   0.01     0.01   0.02   0.05
  16   1    -0.01  -0.04   0.06     0.02   0.02   0.01    -0.00   0.02   0.06
  17   1    -0.01  -0.03   0.06     0.02   0.01   0.01    -0.01   0.02   0.04
  18   1    -0.00  -0.02   0.03     0.01   0.01   0.00    -0.01   0.02   0.01
  19   1     0.00  -0.01   0.00     0.02   0.01   0.01     0.00   0.01  -0.02
  20   1    -0.01  -0.01  -0.00     0.02   0.01   0.01     0.02   0.02  -0.01
  21   6    -0.02  -0.03  -0.09     0.01   0.05   0.01     0.01   0.08   0.00
  22   6    -0.06  -0.04  -0.00    -0.00   0.08   0.02    -0.02   0.10   0.04
  23   6    -0.05  -0.04  -0.03    -0.03   0.08   0.01    -0.05   0.10   0.03
  24   6     0.01  -0.03  -0.14    -0.04   0.06  -0.01    -0.05   0.08  -0.02
  25   6     0.05  -0.02  -0.24    -0.02   0.04  -0.01    -0.01   0.06  -0.06
  26   6     0.04  -0.02  -0.22     0.00   0.03  -0.00     0.01   0.06  -0.05
  27   1    -0.03  -0.01   0.03     0.00   0.03   0.01    -0.01   0.03   0.02
  28   1    -0.03  -0.01   0.01    -0.01   0.03   0.00    -0.02   0.04   0.02
  29   1     0.03  -0.00  -0.10    -0.01   0.01  -0.01    -0.00   0.01  -0.03
  30   1     0.02  -0.00  -0.09     0.00   0.00  -0.00     0.01   0.01  -0.02
  31   6     0.02  -0.03  -0.14    -0.06   0.06  -0.02    -0.07   0.09  -0.02
  32   6     0.03  -0.03  -0.13    -0.07   0.06  -0.02    -0.08   0.09  -0.03
  33   6     0.03  -0.03  -0.10    -0.06   0.06  -0.02    -0.07   0.09  -0.03
  34   6     0.02  -0.03  -0.16    -0.04   0.07  -0.00    -0.06   0.10  -0.09
  35   6     0.02  -0.03  -0.12    -0.02   0.06   0.00    -0.04   0.09  -0.09
  36   6     0.03  -0.02  -0.03    -0.02   0.05  -0.01    -0.03   0.07  -0.04
  37   7     0.04  -0.02   0.02    -0.04   0.04  -0.04    -0.04   0.06   0.03
  38   6     0.04  -0.02  -0.01    -0.06   0.04  -0.04    -0.06   0.07   0.03
  39   1     0.00  -0.01  -0.07    -0.01   0.02   0.00    -0.02   0.03  -0.04
  40   1     0.00  -0.01  -0.05    -0.00   0.02   0.00    -0.01   0.03  -0.04
  41   1     0.01  -0.01   0.00    -0.00   0.01  -0.00    -0.00   0.02  -0.01
  42   1     0.01  -0.00   0.01    -0.02   0.01  -0.02    -0.02   0.02   0.02
  43   6    -0.02   0.05   0.02    -0.03   0.08   0.04     0.01  -0.05  -0.04
  44   6    -0.01   0.05   0.02    -0.05   0.07   0.05     0.02  -0.04  -0.06
  45   6     0.01   0.06   0.01    -0.07   0.07   0.04     0.03  -0.04  -0.07
  46   6     0.03   0.07   0.01    -0.12   0.08   0.02     0.03  -0.04  -0.06
  47   6     0.04   0.08   0.01    -0.14   0.08  -0.00     0.04  -0.04  -0.06
  48   6     0.04   0.07  -0.00    -0.10   0.07  -0.01     0.04  -0.04  -0.05
  49   6     0.02   0.05  -0.00    -0.05   0.07   0.01     0.04  -0.04  -0.06
  50   6     0.02   0.05  -0.01    -0.01   0.06  -0.00     0.04  -0.03  -0.05
  51   6     0.00   0.03  -0.01     0.04   0.05   0.01     0.04  -0.02  -0.05
  52   7    -0.01   0.02  -0.00     0.06   0.05   0.04     0.04  -0.02  -0.06
  53   6    -0.01   0.03   0.00     0.02   0.06   0.04     0.04  -0.03  -0.06
  54   6     0.00   0.05   0.01    -0.03   0.07   0.03     0.04  -0.03  -0.06
  55   1     0.01   0.02   0.01    -0.04   0.02   0.01     0.01  -0.01  -0.02
  56   1     0.02   0.03   0.00    -0.05   0.02  -0.00     0.01  -0.01  -0.02
  57   1     0.02   0.02  -0.00    -0.03   0.02  -0.01     0.01  -0.01  -0.01
  58   1     0.01   0.01  -0.00    -0.00   0.02  -0.01     0.01  -0.01  -0.01
  59   1    -0.00   0.01  -0.00     0.02   0.01   0.00     0.01  -0.01  -0.01
  60   1    -0.01   0.01   0.00     0.01   0.02   0.02     0.01  -0.01  -0.02
  61   6    -0.02   0.05   0.02    -0.01   0.08   0.02    -0.00  -0.05  -0.02
  62   6    -0.01   0.05   0.02     0.04   0.07   0.02    -0.03  -0.03  -0.01
  63   6    -0.02   0.05   0.02     0.04   0.07  -0.01    -0.04  -0.03   0.01
  64   6    -0.02   0.05   0.01     0.00   0.09  -0.04    -0.02  -0.06   0.03
  65   6    -0.03   0.05   0.01    -0.05   0.11  -0.05     0.01  -0.07   0.03
  66   6    -0.03   0.05   0.01    -0.05   0.10  -0.02     0.02  -0.07   0.00
  67   1    -0.00   0.01   0.01     0.02   0.01   0.01    -0.01  -0.00  -0.01
  68   1    -0.00   0.01   0.01     0.02   0.02  -0.00    -0.02  -0.01   0.00
  69   1    -0.01   0.01   0.00    -0.02   0.04  -0.02     0.01  -0.03   0.01
  70   1    -0.01   0.01   0.00    -0.03   0.03  -0.01     0.01  -0.03   0.00
  71   6    -0.02   0.05   0.02     0.01   0.09  -0.06    -0.02  -0.06   0.05
  72   6    -0.01   0.05   0.02     0.01   0.09  -0.08    -0.02  -0.06   0.07
  73   6     0.00   0.04   0.03     0.01   0.09  -0.07    -0.02  -0.06   0.06
  74   6    -0.02   0.05   0.05     0.07   0.10  -0.06     0.01  -0.07   0.04
  75   6    -0.01   0.05   0.06     0.08   0.10  -0.04     0.02  -0.06   0.03
  76   6     0.02   0.03   0.06     0.03   0.07  -0.03     0.00  -0.05   0.03
  77   7     0.04   0.03   0.05    -0.03   0.07  -0.04    -0.03  -0.04   0.05
  78   6     0.03   0.03   0.03    -0.04   0.07  -0.06    -0.04  -0.04   0.06
  79   1    -0.01   0.02   0.01     0.03   0.04  -0.02     0.01  -0.02   0.01
  80   1    -0.01   0.02   0.02     0.04   0.03  -0.01     0.01  -0.02   0.00
  81   1     0.01   0.01   0.02     0.01   0.02  -0.00     0.00  -0.01   0.01
  82   1     0.01   0.01   0.01    -0.02   0.02  -0.02    -0.02  -0.01   0.02
  83   6    -0.03   0.03  -0.04     0.04  -0.05   0.01     0.04  -0.08   0.02
  84   6    -0.04   0.04  -0.00     0.06  -0.04   0.02     0.05  -0.07   0.04
  85   6    -0.04   0.06   0.04     0.07  -0.04   0.03     0.04  -0.07   0.06
  86   6    -0.05   0.08   0.09     0.07  -0.05   0.03     0.02  -0.08   0.12
  87   6    -0.04   0.09   0.13     0.06  -0.05   0.03    -0.01  -0.08   0.15
  88   6    -0.04   0.08   0.13     0.06  -0.04   0.03    -0.02  -0.07   0.12
  89   6    -0.03   0.06   0.08     0.06  -0.04   0.03    -0.00  -0.06   0.06
  90   6    -0.02   0.05   0.06     0.05  -0.04   0.03    -0.01  -0.05   0.02
  91   6    -0.01   0.03   0.02     0.05  -0.03   0.03     0.01  -0.04  -0.03
  92   7    -0.02   0.02  -0.00     0.06  -0.03   0.04     0.03  -0.04  -0.05
  93   6    -0.02   0.03   0.01     0.06  -0.03   0.04     0.04  -0.05  -0.02
  94   6    -0.03   0.05   0.04     0.06  -0.04   0.03     0.03  -0.06   0.03
  95   1    -0.02   0.02   0.03     0.02  -0.01   0.01     0.01  -0.02   0.04
  96   1    -0.01   0.03   0.05     0.02  -0.01   0.01    -0.01  -0.02   0.06
  97   1    -0.01   0.03   0.04     0.02  -0.01   0.01    -0.01  -0.02   0.04
  98   1    -0.00   0.02   0.02     0.01  -0.01   0.01    -0.01  -0.02   0.01
  99   1     0.00   0.00   0.00     0.02  -0.01   0.01    -0.00  -0.01  -0.02
 100   1    -0.01   0.01  -0.00     0.02  -0.01   0.01     0.02  -0.01  -0.01
 101   6    -0.01   0.03  -0.08     0.01  -0.05   0.00     0.02  -0.08  -0.00
 102   6    -0.07   0.04   0.01    -0.00  -0.08   0.01    -0.03  -0.10   0.06
 103   6    -0.06   0.04  -0.01    -0.03  -0.08   0.00    -0.06  -0.11   0.06
 104   6     0.01   0.02  -0.12    -0.04  -0.06  -0.02    -0.04  -0.09  -0.01
 105   6     0.06   0.01  -0.22    -0.02  -0.04  -0.03     0.01  -0.07  -0.08
 106   6     0.05   0.01  -0.20     0.01  -0.03  -0.02     0.04  -0.07  -0.07
 107   1    -0.03   0.01   0.03     0.00  -0.03   0.01    -0.01  -0.03   0.03
 108   1    -0.03   0.01   0.02    -0.01  -0.03   0.00    -0.03  -0.03   0.03
 109   1     0.03   0.00  -0.09    -0.01  -0.01  -0.01     0.01  -0.02  -0.04
 110   1     0.03   0.00  -0.08     0.01  -0.00  -0.01     0.02  -0.02  -0.04
 111   6     0.02   0.02  -0.12    -0.06  -0.06  -0.02    -0.06  -0.09  -0.01
 112   6     0.03   0.03  -0.11    -0.06  -0.06  -0.02    -0.07  -0.10  -0.01
 113   6     0.03   0.03  -0.08    -0.05  -0.06  -0.02    -0.06  -0.09  -0.01
 114   6     0.02   0.03  -0.13    -0.04  -0.07   0.01    -0.05  -0.10  -0.06
 115   6     0.02   0.03  -0.09    -0.02  -0.06   0.01    -0.03  -0.10  -0.06
 116   6     0.03   0.02  -0.02    -0.02  -0.05  -0.00    -0.02  -0.07  -0.01
 117   7     0.04   0.02   0.03    -0.04  -0.04  -0.03    -0.04  -0.07   0.04
 118   6     0.04   0.02   0.00    -0.05  -0.05  -0.04    -0.05  -0.07   0.04
 119   1     0.00   0.01  -0.05    -0.01  -0.02   0.01    -0.02  -0.04  -0.03
 120   1     0.00   0.01  -0.04    -0.00  -0.02   0.01    -0.01  -0.03  -0.03
 121   1     0.01   0.01   0.00    -0.00  -0.01   0.00    -0.00  -0.02  -0.00
 122   1     0.01   0.01   0.01    -0.02  -0.01  -0.02    -0.02  -0.02   0.02
 123   6    -0.01  -0.04   0.01    -0.02  -0.08   0.04     0.03   0.05  -0.03
 124   6    -0.01  -0.04   0.01    -0.04  -0.08   0.05     0.03   0.04  -0.06
 125   6    -0.00  -0.05   0.01    -0.07  -0.07   0.04     0.03   0.04  -0.06
 126   6     0.01  -0.06   0.01    -0.12  -0.08   0.02     0.03   0.05  -0.06
 127   6     0.02  -0.06   0.00    -0.15  -0.08  -0.01     0.02   0.05  -0.06
 128   6     0.02  -0.06  -0.00    -0.11  -0.07  -0.01     0.02   0.05  -0.06
 129   6     0.01  -0.05  -0.00    -0.06  -0.07   0.00     0.02   0.05  -0.06
 130   6     0.01  -0.04  -0.01    -0.02  -0.06  -0.01     0.01   0.04  -0.06
 131   6     0.00  -0.03  -0.01     0.04  -0.05   0.01     0.02   0.04  -0.06
 132   7    -0.01  -0.03  -0.00     0.05  -0.05   0.04     0.03   0.04  -0.06
 133   6    -0.01  -0.03   0.00     0.02  -0.05   0.04     0.04   0.04  -0.06
 134   6    -0.00  -0.04   0.00    -0.03  -0.07   0.03     0.03   0.04  -0.06
 135   1     0.00  -0.02   0.00    -0.04  -0.02   0.01     0.01   0.01  -0.02
 136   1     0.01  -0.02   0.00    -0.06  -0.02  -0.01     0.01   0.01  -0.02
 137   1     0.01  -0.02  -0.00    -0.04  -0.02  -0.01     0.00   0.01  -0.02
 138   1     0.01  -0.01  -0.00    -0.01  -0.02  -0.01     0.00   0.01  -0.02
 139   1     0.00  -0.01  -0.00     0.02  -0.01   0.00     0.00   0.01  -0.02
 140   1    -0.01  -0.01   0.00     0.01  -0.02   0.02     0.01   0.01  -0.02
 141   6    -0.01  -0.04   0.01    -0.00  -0.09   0.02     0.02   0.05  -0.01
 142   6    -0.03  -0.04   0.00    -0.05  -0.11  -0.02     0.01   0.08   0.00
 143   6    -0.02  -0.04   0.00    -0.04  -0.11  -0.05     0.00   0.08   0.03
 144   6    -0.00  -0.04   0.01     0.01  -0.09  -0.04    -0.00   0.06   0.04
 145   6     0.01  -0.04   0.02     0.06  -0.07  -0.00     0.01   0.03   0.03
 146   6     0.00  -0.04   0.02     0.05  -0.07   0.03     0.02   0.03   0.01
 147   1    -0.01  -0.01  -0.00    -0.03  -0.04  -0.01     0.00   0.03  -0.00
 148   1    -0.01  -0.01  -0.00    -0.02  -0.04  -0.02    -0.00   0.03   0.01
 149   1     0.01  -0.01   0.01     0.03  -0.02   0.00     0.00   0.00   0.01
 150   1     0.00  -0.01   0.01     0.02  -0.02   0.02     0.01   0.00   0.00
 151   6     0.00  -0.04   0.02     0.01  -0.09  -0.06    -0.01   0.06   0.06
 152   6     0.01  -0.04   0.02     0.01  -0.10  -0.08    -0.02   0.06   0.07
 153   6     0.02  -0.04   0.03     0.01  -0.09  -0.07    -0.02   0.06   0.06
 154   6     0.01  -0.05   0.04     0.05  -0.11  -0.05     0.00   0.07   0.04
 155   6     0.01  -0.04   0.06     0.05  -0.10  -0.03     0.01   0.06   0.03
 156   6     0.03  -0.03   0.06     0.01  -0.08  -0.02    -0.01   0.05   0.03
 157   7     0.04  -0.02   0.05    -0.03  -0.07  -0.04    -0.04   0.04   0.05
 158   6     0.03  -0.03   0.03    -0.03  -0.07  -0.06    -0.04   0.04   0.06
 159   1    -0.00  -0.02   0.01     0.02  -0.04  -0.02     0.01   0.02   0.01
 160   1     0.00  -0.01   0.02     0.03  -0.03  -0.01     0.01   0.02   0.00
 161   1     0.01  -0.01   0.02     0.00  -0.02  -0.00    -0.00   0.01   0.00
 162   1     0.01  -0.01   0.01    -0.02  -0.02  -0.02    -0.02   0.01   0.02
                     10                     11                     12
                        a                      a                      a 
 Frequencies --    19.7448                23.8236                24.6097
 Red. masses --    13.8999                11.3986                12.4587
 Frc consts  --     0.0000                 0.0000                 0.0000
 IR Inten    --     0.1098                 0.0326                 0.0672
 Raman Activ --     0.0000                 0.0000                 0.0000
 Depolar     --     0.0000                 0.0000                 0.0000
 Atom AN      X      Y      Z        X      Y      Z        X      Y      Z
   1  46    -0.03   0.16   0.01    -0.00  -0.00  -0.00     0.00  -0.13  -0.00
   2  46     0.02  -0.07  -0.02    -0.02  -0.00  -0.01    -0.01   0.05   0.02
   3   6    -0.05  -0.02   0.08    -0.02  -0.09  -0.02     0.05   0.00   0.05
   4   6    -0.05  -0.02   0.06    -0.04  -0.09  -0.03     0.04   0.01   0.03
   5   6    -0.03  -0.01   0.02    -0.03  -0.09  -0.04     0.03   0.02   0.00
   6   6    -0.02  -0.03   0.02    -0.02  -0.11  -0.05     0.03   0.04  -0.02
   7   6     0.00  -0.02  -0.03     0.01  -0.12  -0.06     0.01   0.05  -0.04
   8   6     0.02   0.00  -0.07     0.03  -0.10  -0.04    -0.00   0.04  -0.04
   9   6     0.02   0.02  -0.07     0.02  -0.08  -0.03    -0.00   0.01  -0.02
  10   6     0.04   0.04  -0.11     0.04  -0.06  -0.01    -0.02  -0.00  -0.01
  11   6     0.03   0.05  -0.09     0.03  -0.03   0.00    -0.02  -0.03   0.00
  12   7     0.01   0.05  -0.05     0.00  -0.03  -0.00    -0.00  -0.04   0.01
  13   6    -0.01   0.03  -0.01    -0.02  -0.04  -0.02     0.01  -0.02   0.01
  14   6    -0.01   0.01  -0.02    -0.01  -0.07  -0.03     0.01   0.00   0.00
  15   1    -0.01  -0.01   0.02    -0.01  -0.04  -0.02     0.01   0.02  -0.01
  16   1     0.00  -0.01  -0.01     0.01  -0.04  -0.02     0.00   0.02  -0.02
  17   1     0.01   0.00  -0.03     0.01  -0.03  -0.01    -0.00   0.01  -0.02
  18   1     0.02   0.01  -0.04     0.02  -0.02  -0.00    -0.01   0.00  -0.01
  19   1     0.01   0.02  -0.03     0.01  -0.01   0.00    -0.01  -0.01   0.00
  20   1    -0.01   0.01   0.01    -0.01  -0.01  -0.01     0.01  -0.01   0.01
  21   6    -0.05  -0.03   0.09     0.00  -0.09  -0.01     0.05   0.00   0.06
  22   6     0.00  -0.02   0.01     0.03  -0.11  -0.03    -0.00  -0.00   0.15
  23   6     0.01  -0.02  -0.01     0.05  -0.11  -0.03    -0.01  -0.00   0.15
  24   6    -0.02  -0.02   0.06     0.06  -0.10  -0.01     0.03   0.00   0.06
  25   6    -0.07  -0.03   0.16     0.04  -0.08   0.01     0.08   0.01  -0.03
  26   6    -0.08  -0.03   0.18     0.01  -0.08   0.01     0.09   0.01  -0.03
  27   1     0.01  -0.00  -0.02     0.01  -0.04  -0.01    -0.01  -0.00   0.06
  28   1     0.01  -0.00  -0.02     0.02  -0.04  -0.01    -0.01  -0.00   0.07
  29   1    -0.03  -0.01   0.07     0.01  -0.02   0.01     0.03   0.00  -0.03
  30   1    -0.03  -0.01   0.07    -0.00  -0.02   0.01     0.04   0.00  -0.03
  31   6    -0.01  -0.02   0.03     0.07  -0.10  -0.01     0.03   0.00   0.05
  32   6    -0.00  -0.02  -0.00     0.07  -0.10  -0.01     0.01   0.01   0.02
  33   6    -0.00  -0.03  -0.04     0.04  -0.09  -0.01    -0.00   0.01  -0.02
  34   6    -0.01  -0.03  -0.10     0.01  -0.11   0.00    -0.02   0.00  -0.14
  35   6    -0.01  -0.03  -0.14    -0.03  -0.10   0.00    -0.03   0.00  -0.19
  36   6    -0.01  -0.03  -0.11    -0.04  -0.06   0.00    -0.03   0.01  -0.12
  37   7    -0.00  -0.03  -0.06    -0.01  -0.03  -0.00    -0.01   0.02  -0.01
  38   6     0.00  -0.03  -0.02     0.03  -0.05  -0.01     0.01   0.02   0.04
  39   1    -0.00  -0.01  -0.03     0.00  -0.04   0.00    -0.01  -0.00  -0.06
  40   1    -0.00  -0.01  -0.05    -0.02  -0.03   0.00    -0.01  -0.00  -0.08
  41   1    -0.00  -0.01  -0.04    -0.02  -0.01   0.00    -0.01   0.00  -0.05
  42   1     0.00  -0.01   0.01     0.02  -0.01  -0.00     0.01   0.01   0.04
  43   6    -0.08  -0.02  -0.05    -0.03   0.09   0.02    -0.06  -0.01   0.06
  44   6    -0.06  -0.01  -0.04    -0.04   0.08   0.04    -0.03  -0.00   0.04
  45   6    -0.03  -0.01  -0.02    -0.04   0.09   0.02    -0.00   0.01   0.03
  46   6    -0.03  -0.02  -0.01    -0.05   0.11   0.02     0.02   0.04   0.03
  47   6     0.02  -0.02   0.01    -0.05   0.12  -0.01     0.05   0.05   0.01
  48   6     0.06   0.01   0.03    -0.04   0.10  -0.03     0.05   0.03  -0.00
  49   6     0.06   0.02   0.03    -0.03   0.08  -0.02     0.02   0.01  -0.00
  50   6     0.10   0.05   0.05    -0.01   0.06  -0.04     0.02  -0.01  -0.02
  51   6     0.09   0.06   0.04     0.00   0.03  -0.03     0.00  -0.03  -0.01
  52   7     0.04   0.06   0.02    -0.00   0.03  -0.00    -0.01  -0.04  -0.00
  53   6     0.01   0.03  -0.00    -0.02   0.04   0.01    -0.01  -0.03   0.01
  54   6     0.01   0.02   0.00    -0.03   0.07   0.01     0.00  -0.00   0.01
  55   1    -0.02  -0.01  -0.01    -0.02   0.04   0.01     0.01   0.01   0.01
  56   1     0.01  -0.01   0.00    -0.02   0.04  -0.01     0.02   0.02   0.00
  57   1     0.03   0.00   0.02    -0.01   0.03  -0.01     0.02   0.01  -0.00
  58   1     0.04   0.02   0.02    -0.00   0.02  -0.02     0.01   0.00  -0.01
  59   1     0.03   0.02   0.02     0.01   0.01  -0.01    -0.00  -0.01  -0.01
  60   1    -0.01   0.01  -0.01    -0.01   0.01   0.01    -0.01  -0.01   0.01
  61   6    -0.08  -0.02  -0.05    -0.02   0.09  -0.00    -0.07  -0.01   0.05
  62   6    -0.17  -0.03  -0.09     0.02   0.07  -0.00     0.02   0.00   0.10
  63   6    -0.15  -0.03  -0.08     0.02   0.08  -0.03     0.02  -0.00   0.10
  64   6    -0.05  -0.01  -0.03    -0.02   0.09  -0.06    -0.08  -0.01   0.05
  65   6     0.03  -0.00   0.01    -0.06   0.11  -0.06    -0.18  -0.02  -0.00
  66   6     0.01  -0.00   0.00    -0.06   0.11  -0.03    -0.18  -0.02   0.00
  67   1    -0.07  -0.01  -0.04     0.01   0.02   0.01     0.03   0.00   0.04
  68   1    -0.06  -0.01  -0.03     0.01   0.02  -0.01     0.03   0.00   0.04
  69   1     0.03   0.00   0.01    -0.02   0.04  -0.02    -0.08  -0.01  -0.01
  70   1     0.02   0.00   0.01    -0.02   0.04  -0.01    -0.07  -0.01  -0.01
  71   6    -0.01  -0.01  -0.03    -0.02   0.10  -0.08    -0.07  -0.01   0.05
  72   6     0.02  -0.01  -0.02    -0.01   0.10  -0.08    -0.04  -0.01   0.04
  73   6     0.06  -0.01  -0.02    -0.01   0.09  -0.05     0.00  -0.00   0.02
  74   6     0.13  -0.01  -0.02     0.01   0.11  -0.02     0.11  -0.01  -0.00
  75   6     0.16  -0.01  -0.02     0.01   0.10   0.02     0.16  -0.01  -0.02
  76   6     0.12  -0.02  -0.02     0.01   0.06   0.03     0.11   0.00  -0.02
  77   7     0.06  -0.02  -0.02    -0.00   0.03  -0.00     0.01   0.01   0.01
  78   6     0.03  -0.02  -0.01    -0.01   0.05  -0.04    -0.05   0.01   0.02
  79   1     0.04  -0.00  -0.01     0.00   0.04  -0.01     0.04  -0.01  -0.00
  80   1     0.06  -0.00  -0.01     0.01   0.03   0.01     0.07  -0.00  -0.01
  81   1     0.04  -0.01  -0.01     0.00   0.01   0.02     0.04   0.00  -0.01
  82   1    -0.01  -0.01  -0.00    -0.01   0.01  -0.02    -0.04   0.00   0.01
  83   6     0.04  -0.01  -0.08     0.02  -0.09   0.03    -0.05  -0.00  -0.07
  84   6     0.03  -0.00  -0.06     0.04  -0.08   0.04    -0.04   0.01  -0.04
  85   6     0.01   0.00  -0.04     0.02  -0.08   0.04    -0.03   0.02  -0.01
  86   6     0.01  -0.02  -0.05     0.01  -0.11   0.05    -0.03   0.05   0.02
  87   6    -0.01  -0.01  -0.01    -0.01  -0.11   0.05    -0.02   0.06   0.05
  88   6    -0.03   0.01   0.04    -0.03  -0.10   0.04    -0.00   0.04   0.05
  89   6    -0.03   0.03   0.05    -0.02  -0.08   0.03    -0.00   0.02   0.03
  90   6    -0.05   0.05   0.10    -0.04  -0.06   0.01     0.02   0.00   0.02
  91   6    -0.04   0.06   0.09    -0.03  -0.03  -0.00     0.02  -0.03   0.00
  92   7    -0.02   0.06   0.05    -0.01  -0.03   0.00     0.00  -0.04  -0.01
  93   6    -0.00   0.04   0.01     0.01  -0.04   0.02    -0.01  -0.02  -0.02
  94   6    -0.01   0.02   0.01     0.01  -0.07   0.03    -0.01   0.00  -0.00
  95   1     0.01  -0.01  -0.02     0.01  -0.03   0.02    -0.01   0.02   0.01
  96   1    -0.00  -0.01  -0.01    -0.01  -0.04   0.02    -0.01   0.02   0.02
  97   1    -0.01   0.01   0.02    -0.01  -0.03   0.01     0.00   0.02   0.02
  98   1    -0.02   0.02   0.04    -0.02  -0.02   0.00     0.01   0.00   0.01
  99   1    -0.02   0.02   0.04    -0.01  -0.01  -0.01     0.01  -0.01  -0.00
 100   1     0.00   0.01  -0.01     0.01  -0.01   0.01    -0.01  -0.01  -0.01
 101   6     0.04  -0.01  -0.08    -0.00  -0.09   0.02    -0.05  -0.00  -0.08
 102   6    -0.02   0.01   0.02    -0.03  -0.11   0.06     0.03  -0.02  -0.22
 103   6    -0.02   0.01   0.04    -0.06  -0.11   0.06     0.03  -0.02  -0.22
 104   6     0.03  -0.00  -0.05    -0.06  -0.09   0.03    -0.04  -0.01  -0.09
 105   6     0.09  -0.02  -0.17    -0.03  -0.08  -0.01    -0.11   0.01   0.05
 106   6     0.10  -0.02  -0.19    -0.00  -0.07  -0.01    -0.12   0.01   0.05
 107   1    -0.02   0.01   0.03    -0.01  -0.03   0.02     0.02  -0.01  -0.09
 108   1    -0.02   0.01   0.04    -0.02  -0.03   0.03     0.03  -0.01  -0.09
 109   1     0.04  -0.01  -0.07    -0.01  -0.02  -0.01    -0.05   0.00   0.04
 110   1     0.04  -0.01  -0.08     0.01  -0.02  -0.01    -0.05   0.00   0.05
 111   6     0.03  -0.00  -0.02    -0.07  -0.09   0.03    -0.04  -0.00  -0.07
 112   6     0.02  -0.00   0.02    -0.07  -0.09   0.03    -0.03  -0.00  -0.04
 113   6     0.02  -0.00   0.05    -0.04  -0.08   0.02    -0.01   0.00   0.01
 114   6     0.02  -0.00   0.13    -0.01  -0.11   0.03     0.01  -0.00   0.11
 115   6     0.02  -0.00   0.16     0.03  -0.09   0.02     0.02  -0.00   0.16
 116   6     0.02  -0.01   0.11     0.03  -0.05   0.01     0.01   0.01   0.12
 117   7     0.02  -0.01   0.05    -0.00  -0.03  -0.00    -0.00   0.01   0.02
 118   6     0.02  -0.01   0.01    -0.04  -0.04   0.00    -0.02   0.01  -0.04
 119   1     0.01   0.00   0.05    -0.00  -0.04   0.01     0.00  -0.00   0.04
 120   1     0.01  -0.00   0.06     0.02  -0.03   0.01     0.01  -0.00   0.07
 121   1     0.00  -0.00   0.04     0.02  -0.01   0.00     0.01   0.00   0.05
 122   1     0.00  -0.00  -0.01    -0.02  -0.01  -0.00    -0.01   0.00  -0.04
 123   6     0.07  -0.02   0.05     0.03   0.09  -0.02     0.06  -0.00  -0.05
 124   6     0.06  -0.01   0.05     0.04   0.08  -0.04     0.03   0.00  -0.04
 125   6     0.03  -0.01   0.03     0.04   0.09  -0.03     0.01   0.01  -0.03
 126   6     0.04  -0.03   0.03     0.05   0.11  -0.02    -0.02   0.04  -0.03
 127   6     0.01  -0.02   0.00     0.05   0.12   0.01    -0.04   0.05  -0.02
 128   6    -0.04  -0.00  -0.02     0.04   0.10   0.03    -0.04   0.03  -0.00
 129   6    -0.05   0.02  -0.02     0.02   0.08   0.02    -0.02   0.01   0.00
 130   6    -0.10   0.04  -0.04     0.00   0.06   0.04    -0.02  -0.01   0.01
 131   6    -0.10   0.05  -0.03    -0.01   0.03   0.03     0.00  -0.03   0.01
 132   7    -0.06   0.05  -0.01     0.00   0.03   0.00     0.01  -0.04  -0.00
 133   6    -0.02   0.03   0.01     0.02   0.04  -0.01     0.02  -0.02  -0.01
 134   6    -0.01   0.01   0.01     0.03   0.07  -0.01     0.00  -0.00  -0.01
 135   1     0.02  -0.01   0.01     0.02   0.04  -0.01    -0.00   0.01  -0.01
 136   1     0.00  -0.01   0.00     0.02   0.04   0.01    -0.02   0.02  -0.00
 137   1    -0.02   0.00  -0.01     0.01   0.03   0.01    -0.02   0.01   0.00
 138   1    -0.04   0.01  -0.02    -0.00   0.02   0.02    -0.01   0.00   0.01
 139   1    -0.04   0.02  -0.01    -0.01   0.01   0.01     0.00  -0.01   0.01
 140   1     0.00   0.01   0.01     0.01   0.01  -0.01     0.01  -0.01  -0.01
 141   6     0.08  -0.02   0.05     0.03   0.09   0.00     0.07  -0.01  -0.05
 142   6    -0.02  -0.01  -0.01     0.06   0.11   0.03     0.22  -0.02   0.04
 143   6    -0.04  -0.01  -0.02     0.07   0.11   0.06     0.23  -0.02   0.04
 144   6     0.04  -0.01   0.03     0.03   0.09   0.05     0.09  -0.01  -0.04
 145   6     0.15  -0.03   0.09    -0.01   0.08   0.02    -0.06   0.01  -0.12
 146   6     0.17  -0.03   0.10    -0.01   0.08  -0.00    -0.06   0.01  -0.12
 147   1    -0.03  -0.00  -0.02     0.03   0.03   0.01     0.09  -0.01   0.03
 148   1    -0.03   0.00  -0.02     0.03   0.03   0.02     0.10  -0.01   0.03
 149   1     0.06  -0.01   0.04    -0.01   0.02   0.00    -0.05   0.00  -0.05
 150   1     0.07  -0.01   0.04    -0.01   0.02  -0.01    -0.05   0.00  -0.05
 151   6     0.01  -0.01   0.02     0.03   0.09   0.06     0.09  -0.01  -0.04
 152   6    -0.03  -0.02   0.01     0.03   0.09   0.06     0.06  -0.01  -0.02
 153   6    -0.06  -0.02   0.01     0.02   0.08   0.03     0.01  -0.00  -0.01
 154   6    -0.14  -0.02   0.01     0.02   0.11   0.00    -0.07  -0.01   0.01
 155   6    -0.17  -0.02   0.01     0.01   0.09  -0.04    -0.12  -0.01   0.03
 156   6    -0.12  -0.02   0.01    -0.00   0.05  -0.04    -0.09   0.00   0.03
 157   7    -0.05  -0.02   0.00    -0.00   0.03  -0.01    -0.01   0.01   0.01
 158   6    -0.02  -0.02   0.00     0.01   0.04   0.03     0.05   0.01  -0.01
 159   1    -0.05  -0.00   0.01     0.01   0.04   0.00    -0.03  -0.01   0.00
 160   1    -0.07  -0.01   0.01     0.00   0.03  -0.02    -0.06  -0.00   0.01
 161   1    -0.04  -0.01   0.00    -0.00   0.01  -0.02    -0.04   0.00   0.01
 162   1     0.01  -0.01  -0.00     0.00   0.01   0.02     0.03   0.01  -0.01
                     13                     14                     15
                        a                      a                      a 
 Frequencies --    27.1318                27.6526                28.5956
 Red. masses --    13.3787                14.0506                12.5865
 Frc consts  --     0.0000                 0.0000                 0.0000
 IR Inten    --     0.2524                 0.2793                 0.1908
 Raman Activ --     0.0000                 0.0000                 0.0000
 Depolar     --     0.0000                 0.0000                 0.0000
 Atom AN      X      Y      Z        X      Y      Z        X      Y      Z
   1  46     0.05  -0.04   0.02     0.04  -0.05  -0.04     0.01   0.06   0.03
   2  46     0.14   0.02   0.06     0.12   0.02  -0.13     0.06  -0.02   0.11
   3   6     0.02   0.00   0.01     0.03   0.02  -0.00    -0.03  -0.01   0.07
   4   6     0.02   0.00   0.01     0.03   0.02  -0.00    -0.02  -0.00   0.05
   5   6     0.02   0.00   0.00     0.02   0.02   0.00    -0.00   0.00   0.00
   6   6     0.02   0.01  -0.00     0.02   0.03   0.01     0.00   0.00  -0.03
   7   6     0.02   0.01  -0.01     0.01   0.03   0.01     0.02   0.02  -0.08
   8   6     0.01   0.01  -0.00    -0.00   0.02   0.02     0.03   0.03  -0.10
   9   6     0.01   0.00   0.00     0.00   0.01   0.01     0.02   0.03  -0.07
  10   6     0.01  -0.00   0.01    -0.01   0.00   0.01     0.03   0.03  -0.08
  11   6     0.01  -0.00   0.01    -0.00  -0.01   0.01     0.02   0.03  -0.05
  12   7     0.01  -0.01   0.01     0.01  -0.01  -0.00     0.01   0.03  -0.01
  13   6     0.02  -0.00   0.01     0.02  -0.00  -0.00     0.00   0.02   0.01
  14   6     0.02   0.00   0.00     0.01   0.01   0.00     0.01   0.02  -0.02
  15   1     0.01   0.00  -0.00     0.01   0.01   0.00    -0.00  -0.00  -0.00
  16   1     0.01   0.00  -0.00     0.00   0.01   0.01     0.01   0.00  -0.03
  17   1     0.00   0.00  -0.00    -0.00   0.01   0.01     0.01   0.01  -0.04
  18   1     0.00  -0.00   0.00    -0.00   0.00   0.01     0.01   0.01  -0.03
  19   1     0.00  -0.00   0.00    -0.00  -0.00   0.00     0.01   0.01  -0.01
  20   1     0.01  -0.00   0.00     0.01  -0.00  -0.00    -0.00   0.00   0.01
  21   6     0.02  -0.00   0.02     0.03   0.02   0.00    -0.03  -0.01   0.07
  22   6     0.03  -0.01  -0.00     0.02   0.01   0.03     0.05   0.02  -0.10
  23   6     0.04  -0.01   0.00     0.02   0.01   0.03     0.05   0.03  -0.15
  24   6     0.04  -0.00   0.02     0.03   0.01   0.01    -0.02   0.00  -0.02
  25   6     0.03   0.00   0.04     0.05   0.02  -0.02    -0.10  -0.03   0.17
  26   6     0.02   0.01   0.04     0.05   0.02  -0.02    -0.11  -0.04   0.21
  27   1     0.01  -0.00  -0.00     0.00   0.00   0.01     0.03   0.01  -0.06
  28   1     0.02  -0.00  -0.00     0.00   0.00   0.02     0.03   0.01  -0.08
  29   1     0.01   0.00   0.02     0.02   0.01  -0.01    -0.05  -0.02   0.08
  30   1     0.00   0.00   0.01     0.02   0.01  -0.01    -0.05  -0.02   0.10
  31   6     0.05  -0.00   0.02     0.04   0.01   0.02    -0.02   0.00  -0.08
  32   6     0.06  -0.00   0.02     0.04   0.01   0.02    -0.02   0.00  -0.14
  33   6     0.06  -0.00   0.02     0.05   0.01   0.01    -0.01   0.00  -0.17
  34   6     0.05  -0.01   0.00     0.05   0.01   0.04    -0.03   0.00  -0.36
  35   6     0.04  -0.01  -0.01     0.05   0.01   0.03    -0.03  -0.00  -0.36
  36   6     0.04  -0.00   0.00     0.05   0.01  -0.00    -0.00  -0.00  -0.18
  37   7     0.05   0.00   0.02     0.05   0.01  -0.04     0.01  -0.00  -0.01
  38   6     0.06   0.00   0.03     0.04   0.01  -0.03     0.01   0.00  -0.01
  39   1     0.01  -0.00  -0.00     0.02   0.00   0.02    -0.01   0.00  -0.14
  40   1     0.01  -0.00  -0.01     0.02   0.00   0.02    -0.01  -0.00  -0.14
  41   1     0.01   0.00  -0.00     0.02   0.00  -0.00     0.00  -0.00  -0.05
  42   1     0.02   0.00   0.01     0.01   0.00  -0.02     0.01   0.00   0.04
  43   6    -0.01   0.01   0.02     0.04  -0.00   0.02     0.03   0.01   0.00
  44   6    -0.01   0.01   0.02     0.02  -0.01   0.00     0.01   0.01   0.00
  45   6    -0.00   0.02   0.01     0.00  -0.01  -0.01    -0.02   0.00  -0.00
  46   6    -0.01   0.03   0.01    -0.02  -0.01  -0.01    -0.05  -0.01  -0.01
  47   6    -0.01   0.03   0.00    -0.05  -0.02  -0.02    -0.08  -0.02  -0.01
  48   6    -0.01   0.02  -0.01    -0.06  -0.02  -0.03    -0.07  -0.01  -0.00
  49   6    -0.00   0.01  -0.00    -0.04  -0.02  -0.02    -0.03  -0.00   0.00
  50   6    -0.00   0.00  -0.01    -0.05  -0.03  -0.03    -0.02   0.01   0.01
  51   6     0.00  -0.00  -0.01    -0.03  -0.03  -0.02     0.01   0.02   0.02
  52   7     0.01  -0.01   0.00    -0.00  -0.03  -0.02     0.02   0.02   0.01
  53   6     0.00  -0.00   0.01     0.01  -0.02  -0.01     0.01   0.02   0.01
  54   6    -0.00   0.01   0.01    -0.01  -0.02  -0.01    -0.01   0.01   0.00
  55   1    -0.00   0.01   0.00    -0.00  -0.00  -0.00    -0.02  -0.00  -0.00
  56   1    -0.00   0.01  -0.00    -0.02  -0.00  -0.01    -0.03  -0.01  -0.00
  57   1    -0.00   0.01  -0.00    -0.03  -0.01  -0.01    -0.02  -0.01   0.00
  58   1    -0.00   0.00  -0.01    -0.02  -0.01  -0.01    -0.01   0.00   0.00
  59   1     0.00  -0.00  -0.00    -0.01  -0.01  -0.01     0.01   0.01   0.01
  60   1     0.00  -0.00   0.01     0.01  -0.00  -0.00     0.01   0.01   0.00
  61   6    -0.01   0.01   0.02     0.03  -0.00   0.02     0.03   0.01   0.01
  62   6     0.01   0.01   0.03     0.18   0.02   0.09     0.12   0.03   0.06
  63   6     0.01   0.01   0.03     0.14   0.02   0.09     0.10   0.03   0.06
  64   6    -0.01   0.01   0.02    -0.04  -0.01   0.01    -0.01   0.01   0.02
  65   6    -0.03   0.01   0.01    -0.17  -0.04  -0.07    -0.09  -0.01  -0.03
  66   6    -0.03   0.01   0.01    -0.14  -0.04  -0.06    -0.07  -0.01  -0.04
  67   1     0.01   0.00   0.01     0.09   0.01   0.05     0.06   0.02   0.03
  68   1     0.01   0.00   0.01     0.07   0.01   0.04     0.05   0.01   0.03
  69   1    -0.01   0.00   0.00    -0.09  -0.02  -0.04    -0.05  -0.01  -0.02
  70   1    -0.01   0.00   0.00    -0.07  -0.02  -0.04    -0.04  -0.01  -0.02
  71   6    -0.01   0.01   0.02    -0.09  -0.02   0.01    -0.04   0.00   0.03
  72   6    -0.00   0.01   0.02    -0.13  -0.02  -0.00    -0.07   0.00   0.04
  73   6     0.00   0.01   0.02    -0.15  -0.01  -0.01    -0.09  -0.00   0.05
  74   6    -0.02   0.01   0.03    -0.30  -0.02   0.00    -0.19   0.00   0.07
  75   6    -0.01   0.01   0.03    -0.30  -0.02  -0.01    -0.20  -0.00   0.07
  76   6     0.02   0.01   0.03    -0.14  -0.01  -0.03    -0.10  -0.00   0.06
  77   7     0.05   0.00   0.02    -0.00  -0.00  -0.04    -0.00  -0.01   0.05
  78   6     0.04   0.01   0.02    -0.00  -0.01  -0.03     0.00  -0.01   0.04
  79   1    -0.01   0.01   0.01    -0.12  -0.01   0.00    -0.08   0.00   0.02
  80   1    -0.01   0.00   0.01    -0.12  -0.01   0.00    -0.08   0.00   0.02
  81   1     0.01   0.00   0.01    -0.04  -0.00  -0.01    -0.03  -0.00   0.02
  82   1     0.02   0.00   0.00     0.03  -0.00  -0.01     0.02  -0.00   0.01
  83   6    -0.01  -0.01   0.02    -0.00  -0.01  -0.01     0.01   0.00   0.03
  84   6     0.00  -0.02   0.02    -0.00  -0.01  -0.00     0.01  -0.00   0.01
  85   6     0.01  -0.02   0.00    -0.00   0.00   0.02     0.01  -0.01  -0.00
  86   6     0.02  -0.02  -0.01    -0.01   0.01   0.05     0.02  -0.02  -0.02
  87   6     0.02  -0.02  -0.04    -0.01   0.02   0.08     0.01  -0.02  -0.04
  88   6     0.03  -0.03  -0.05    -0.00   0.01   0.07     0.01  -0.02  -0.03
  89   6     0.02  -0.03  -0.03     0.00   0.00   0.03     0.01  -0.01  -0.01
  90   6     0.02  -0.03  -0.04     0.01  -0.01   0.02    -0.00   0.00  -0.00
  91   6     0.02  -0.03  -0.02     0.01  -0.02  -0.01    -0.00   0.01   0.01
  92   7     0.02  -0.02  -0.00     0.01  -0.02  -0.02     0.00   0.02   0.02
  93   6     0.01  -0.02   0.00     0.01  -0.01  -0.01     0.01   0.01   0.02
  94   6     0.02  -0.02  -0.01     0.00  -0.00   0.01     0.01  -0.00   0.00
  95   1     0.00  -0.00  -0.00    -0.00   0.00   0.02     0.01  -0.01  -0.01
  96   1     0.01  -0.01  -0.01    -0.00   0.01   0.03     0.00  -0.01  -0.02
  97   1     0.01  -0.01  -0.02    -0.00   0.01   0.02     0.00  -0.01  -0.01
  98   1     0.01  -0.01  -0.02     0.00  -0.00   0.01    -0.00  -0.00  -0.00
  99   1     0.01  -0.01  -0.01     0.01  -0.01  -0.01    -0.00   0.00   0.01
 100   1     0.00  -0.00   0.01     0.00  -0.01  -0.01     0.00   0.00   0.01
 101   6    -0.02  -0.02   0.02     0.01  -0.01  -0.01     0.01   0.00   0.03
 102   6     0.06  -0.04  -0.12    -0.06   0.02   0.10     0.03  -0.00  -0.01
 103   6     0.06  -0.05  -0.16    -0.05   0.02   0.13     0.04  -0.00  -0.01
 104   6    -0.01  -0.03  -0.05     0.02  -0.00   0.03     0.02   0.00   0.03
 105   6    -0.08   0.00   0.11     0.08  -0.03  -0.10    -0.01   0.01   0.07
 106   6    -0.09   0.01   0.14     0.07  -0.03  -0.12    -0.01   0.01   0.08
 107   1     0.03  -0.02  -0.06    -0.03   0.01   0.05     0.01  -0.00  -0.01
 108   1     0.04  -0.02  -0.08    -0.03   0.01   0.06     0.02  -0.00  -0.01
 109   1    -0.04   0.01   0.06     0.04  -0.01  -0.05    -0.01   0.00   0.03
 110   1    -0.04   0.01   0.07     0.03  -0.02  -0.06    -0.01   0.00   0.03
 111   6    -0.01  -0.03  -0.09     0.03   0.00   0.06     0.02   0.00   0.02
 112   6     0.01  -0.03  -0.13     0.05   0.01   0.09     0.02   0.00  -0.00
 113   6     0.02  -0.02  -0.14     0.06   0.01   0.10     0.02   0.00  -0.01
 114   6     0.01  -0.03  -0.27     0.07   0.01   0.23     0.01   0.00  -0.09
 115   6     0.03  -0.02  -0.26     0.08   0.01   0.23     0.00   0.00  -0.10
 116   6     0.04  -0.01  -0.13     0.06   0.01   0.11     0.01  -0.00  -0.04
 117   7     0.05  -0.00  -0.01     0.05   0.02  -0.01     0.02  -0.01   0.03
 118   6     0.03  -0.01  -0.02     0.05   0.01  -0.02     0.02  -0.00   0.04
 119   1     0.00  -0.01  -0.11     0.02   0.00   0.10     0.00   0.00  -0.04
 120   1     0.01  -0.01  -0.10     0.03   0.00   0.10    -0.00   0.00  -0.04
 121   1     0.02  -0.00  -0.03     0.02   0.00   0.03     0.00  -0.00  -0.01
 122   1     0.01  -0.00   0.02     0.01   0.00  -0.03     0.01  -0.00   0.03
 123   6     0.01   0.00  -0.00     0.02   0.00  -0.01    -0.02  -0.01   0.03
 124   6     0.00   0.01  -0.01     0.01   0.00  -0.02    -0.01  -0.01   0.03
 125   6    -0.02   0.01  -0.01    -0.00   0.01  -0.02     0.01  -0.02   0.02
 126   6    -0.05   0.02  -0.01    -0.03   0.02  -0.02     0.02  -0.03   0.02
 127   6    -0.08   0.03  -0.02    -0.05   0.02  -0.02     0.03  -0.04   0.02
 128   6    -0.07   0.03  -0.01    -0.04   0.02  -0.02     0.03  -0.03   0.01
 129   6    -0.04   0.01  -0.00    -0.02   0.01  -0.02     0.01  -0.02   0.00
 130   6    -0.03   0.01   0.00    -0.01   0.00  -0.01     0.00  -0.01  -0.01
 131   6     0.00  -0.01   0.01     0.01  -0.00  -0.01    -0.01   0.01  -0.01
 132   7     0.02  -0.01   0.01     0.02  -0.01  -0.01    -0.01   0.01   0.01
 133   6     0.01  -0.01   0.00     0.02  -0.00  -0.01    -0.00   0.00   0.01
 134   6    -0.02   0.01  -0.00    -0.00   0.01  -0.02     0.00  -0.01   0.01
 135   1    -0.02   0.01  -0.01    -0.01   0.01  -0.01     0.01  -0.01   0.01
 136   1    -0.03   0.01  -0.01    -0.02   0.01  -0.01     0.01  -0.01   0.00
 137   1    -0.03   0.01  -0.00    -0.02   0.01  -0.01     0.01  -0.01  -0.00
 138   1    -0.01   0.00   0.00    -0.01   0.00  -0.00     0.00  -0.00  -0.00
 139   1     0.01  -0.00   0.00     0.01  -0.00  -0.00    -0.01   0.00  -0.00
 140   1     0.01  -0.00  -0.00     0.01  -0.00  -0.00    -0.00   0.00   0.01
 141   6     0.01   0.00   0.01     0.03   0.00  -0.01    -0.02  -0.01   0.02
 142   6    -0.15   0.04  -0.08    -0.06   0.01  -0.06     0.02  -0.02   0.05
 143   6    -0.19   0.05  -0.07    -0.07   0.01  -0.07     0.04  -0.02   0.05
 144   6    -0.06   0.01   0.02     0.00   0.00  -0.02     0.01  -0.01   0.03
 145   6     0.12  -0.02   0.11     0.10  -0.00   0.03    -0.04  -0.01   0.00
 146   6     0.15  -0.03   0.10     0.11  -0.01   0.03    -0.05  -0.00   0.00
 147   1    -0.07   0.02  -0.04    -0.03   0.00  -0.03     0.01  -0.01   0.02
 148   1    -0.09   0.02  -0.04    -0.04   0.01  -0.03     0.02  -0.01   0.02
 149   1     0.06  -0.01   0.05     0.05  -0.00   0.02    -0.02  -0.00  -0.00
 150   1     0.08  -0.02   0.05     0.05  -0.00   0.02    -0.03   0.00  -0.00
 151   6    -0.10   0.02   0.04    -0.02   0.01  -0.03     0.03  -0.01   0.03
 152   6    -0.14   0.02   0.05    -0.04   0.00  -0.04     0.05  -0.01   0.03
 153   6    -0.16   0.02   0.05    -0.05   0.00  -0.03     0.06  -0.01   0.03
 154   6    -0.32   0.02   0.07    -0.14   0.00  -0.02     0.11  -0.01   0.03
 155   6    -0.32   0.02   0.06    -0.15   0.00  -0.02     0.12  -0.01   0.03
 156   6    -0.15   0.02   0.04    -0.07   0.01  -0.03     0.07  -0.01   0.03
 157   7     0.01   0.02   0.03     0.02   0.01  -0.04     0.03  -0.01   0.04
 158   6     0.00   0.02   0.03     0.03   0.01  -0.04     0.02  -0.01   0.04
 159   1    -0.13   0.01   0.02    -0.06  -0.00  -0.00     0.04  -0.00   0.01
 160   1    -0.13   0.00   0.02    -0.06  -0.00  -0.00     0.04  -0.00   0.01
 161   1    -0.04   0.00   0.01    -0.02   0.00  -0.01     0.02  -0.00   0.01
 162   1     0.04   0.01   0.01     0.03   0.00  -0.02    -0.00  -0.00   0.01
                     16                     17                     18
                        a                      a                      a 
 Frequencies --    30.4055                33.0347                33.4897
 Red. masses --    19.1581                12.5449                12.7081
 Frc consts  --     0.0000                 0.0000                 0.0000
 IR Inten    --     0.0348                 0.2375                 0.2598
 Raman Activ --     0.0000                 0.0000                 0.0000
 Depolar     --     0.0000                 0.0000                 0.0000
 Atom AN      X      Y      Z        X      Y      Z        X      Y      Z
   1  46     0.00  -0.27   0.00     0.08   0.04  -0.00    -0.00   0.01  -0.08
   2  46    -0.01   0.12   0.02     0.09  -0.01   0.03     0.03  -0.01  -0.11
   3   6     0.05   0.00   0.01    -0.05  -0.00  -0.02    -0.02  -0.03   0.11
   4   6     0.06   0.01  -0.01    -0.01  -0.01  -0.00    -0.02  -0.02   0.08
   5   6     0.04   0.02  -0.04     0.00  -0.01   0.01    -0.01  -0.01   0.04
   6   6     0.04   0.06  -0.10     0.01  -0.03   0.02    -0.01  -0.00   0.02
[...]
  78   6    -0.00   0.00  -0.00    -0.00  -0.00   0.00    -0.00   0.00  -0.00
  79   1    -0.00  -0.00  -0.00    -0.00  -0.00  -0.00    -0.00  -0.00  -0.01
  80   1    -0.00   0.00  -0.00    -0.00   0.00  -0.00    -0.00   0.02  -0.02
  81   1    -0.00  -0.00  -0.00     0.00  -0.00  -0.00     0.00   0.00   0.00
  82   1     0.00  -0.00   0.00     0.00   0.00  -0.00    -0.00  -0.00   0.00
  83   6     0.00   0.00   0.00     0.00   0.00   0.00     0.00  -0.00   0.00
  84   6     0.00  -0.00   0.00     0.00  -0.00   0.00    -0.00  -0.00   0.00
  85   6    -0.00   0.00  -0.00    -0.00   0.00  -0.00     0.00  -0.00   0.00
  86   6    -0.00  -0.00   0.00    -0.00  -0.00   0.00    -0.00  -0.00   0.00
  87   6     0.00  -0.00   0.00    -0.00   0.00  -0.00    -0.00   0.00  -0.00
  88   6     0.00  -0.00   0.00    -0.00   0.00  -0.00    -0.00   0.00  -0.00
  89   6     0.00  -0.00   0.00     0.00   0.00   0.00     0.00   0.00  -0.00
  90   6     0.00  -0.00   0.00     0.00  -0.00   0.00    -0.00   0.00  -0.00
  91   6    -0.00  -0.00  -0.00    -0.00  -0.00   0.00     0.00   0.00   0.00
  92   7    -0.00   0.00  -0.00    -0.00  -0.00  -0.00    -0.00  -0.00   0.00
  93   6     0.00  -0.00   0.00     0.00  -0.00   0.00     0.00  -0.00   0.00
  94   6    -0.00   0.00  -0.00    -0.00  -0.00  -0.00    -0.00  -0.00  -0.00
  95   1     0.00   0.00  -0.00     0.01   0.01  -0.00     0.00   0.00  -0.00
  96   1    -0.00   0.00  -0.00     0.01  -0.00   0.00     0.00  -0.00   0.00
  97   1    -0.00   0.00  -0.00     0.00  -0.01   0.00     0.00  -0.00   0.00
  98   1    -0.00   0.00  -0.00    -0.00   0.00  -0.00     0.00  -0.00   0.00
  99   1     0.00   0.00  -0.00     0.00   0.00  -0.00    -0.00  -0.00   0.00
 100   1    -0.00   0.00  -0.00    -0.00   0.00  -0.00    -0.00   0.00  -0.00
 101   6    -0.00   0.00  -0.00    -0.00   0.01  -0.00    -0.00   0.00  -0.00
 102   6     0.04   0.04   0.02     0.14   0.12   0.07     0.00   0.00   0.00
 103   6     0.04  -0.02   0.02     0.13  -0.07   0.08     0.00  -0.00   0.00
 104   6    -0.00  -0.00   0.00    -0.00  -0.01   0.00    -0.00  -0.00   0.00
 105   6    -0.00  -0.00  -0.00    -0.00  -0.00  -0.00     0.00   0.00   0.00
 106   6    -0.00   0.00  -0.00    -0.00   0.00  -0.00     0.00  -0.00   0.00
 107   1    -0.15  -0.12  -0.07    -0.48  -0.40  -0.23    -0.00  -0.00  -0.00
 108   1    -0.13   0.07  -0.08    -0.46   0.23  -0.28    -0.00   0.00  -0.00
 109   1     0.00   0.00   0.00     0.01   0.01   0.00    -0.00  -0.00  -0.00
 110   1     0.00  -0.00   0.00     0.01  -0.01   0.01    -0.00   0.00  -0.00
 111   6     0.00  -0.00   0.00     0.00   0.00   0.00    -0.00   0.00  -0.00
 112   6    -0.00   0.00  -0.00    -0.00   0.00  -0.00     0.00  -0.00  -0.00
 113   6     0.00  -0.00  -0.00     0.00  -0.00  -0.00    -0.00  -0.00   0.00
 114   6    -0.00   0.00   0.00    -0.00   0.00   0.00     0.13  -0.02  -0.01
 115   6    -0.00  -0.00   0.00    -0.00  -0.00   0.00     0.15   0.20  -0.01
 116   6     0.00  -0.00  -0.00    -0.00   0.00   0.00    -0.01   0.02   0.00
 117   7     0.00   0.00  -0.00    -0.00   0.00   0.00    -0.00  -0.00   0.00
 118   6     0.00   0.00  -0.00     0.00   0.00  -0.00    -0.00  -0.00   0.00
 119   1     0.01  -0.00  -0.00     0.00  -0.00  -0.00    -0.43   0.05   0.05
 120   1     0.00   0.01  -0.00     0.00   0.00  -0.00    -0.50  -0.69   0.05
 121   1     0.00  -0.00  -0.00     0.00  -0.00  -0.00     0.02  -0.03  -0.00
 122   1    -0.00  -0.00   0.00    -0.00  -0.00  -0.00    -0.00  -0.00   0.00
 123   6    -0.00   0.00   0.00     0.00   0.00  -0.00     0.00   0.00  -0.00
 124   6    -0.00  -0.00   0.00     0.00   0.00   0.00    -0.00  -0.00   0.00
 125   6     0.00   0.00  -0.00    -0.00  -0.00   0.00    -0.00  -0.00   0.00
 126   6     0.00   0.00   0.00     0.00   0.00   0.00    -0.00  -0.00  -0.00
 127   6    -0.00  -0.00   0.00    -0.00  -0.00   0.00     0.00   0.00  -0.00
 128   6    -0.00  -0.00   0.00    -0.00  -0.00   0.00     0.00   0.00  -0.00
 129   6    -0.00  -0.00   0.00    -0.00  -0.00  -0.00     0.00   0.00   0.00
 130   6    -0.00  -0.00   0.00    -0.00  -0.00   0.00     0.00   0.00  -0.00
 131   6     0.00  -0.00  -0.00     0.00  -0.00  -0.00    -0.00   0.00   0.00
 132   7     0.00   0.00  -0.00     0.00   0.00   0.00    -0.00  -0.00  -0.00
 133   6    -0.00  -0.00   0.00     0.00   0.00  -0.00    -0.00  -0.00   0.00
 134   6     0.00   0.00  -0.00    -0.00   0.00   0.00    -0.00  -0.00   0.00
 135   1    -0.00  -0.00  -0.00    -0.00  -0.00  -0.00     0.00   0.00   0.00
 136   1     0.00   0.00  -0.00     0.00   0.00  -0.00    -0.00  -0.00   0.00
 137   1     0.00   0.00  -0.00     0.00   0.00  -0.00    -0.00  -0.00   0.00
 138   1     0.00   0.01  -0.00     0.00   0.00  -0.00    -0.00  -0.00   0.00
 139   1     0.00   0.00   0.00     0.00   0.00   0.00    -0.00  -0.00  -0.00
 140   1     0.00   0.00  -0.00    -0.00  -0.00   0.00     0.00   0.00  -0.00
 141   6     0.00   0.00  -0.00    -0.00  -0.00   0.00     0.00   0.00  -0.00
 142   6    -0.01   0.02   0.02     0.00  -0.01  -0.01    -0.00   0.00   0.00
 143   6    -0.01  -0.01   0.02     0.01   0.01  -0.01    -0.00  -0.00   0.00
 144   6     0.00  -0.00  -0.00    -0.00   0.00   0.00    -0.00  -0.00  -0.00
 145   6     0.00   0.00  -0.00    -0.00   0.00   0.00     0.00  -0.00  -0.00
 146   6     0.00  -0.00  -0.00    -0.00  -0.00   0.00     0.00   0.00  -0.00
 147   1     0.04  -0.06  -0.08    -0.02   0.03   0.03     0.00  -0.00  -0.00
 148   1     0.05   0.04  -0.08    -0.02  -0.02   0.03     0.00   0.00  -0.00
 149   1    -0.00   0.00   0.00     0.00  -0.00  -0.00    -0.00   0.00   0.00
 150   1    -0.00  -0.00   0.00     0.00   0.00  -0.00    -0.00  -0.00   0.00
 151   6    -0.00  -0.00   0.00     0.00  -0.00  -0.00    -0.00  -0.00   0.00
 152   6     0.00   0.00  -0.00     0.00  -0.00   0.00     0.00   0.00  -0.00
 153   6     0.00  -0.00   0.00     0.00   0.00  -0.00    -0.00   0.00   0.00
 154   6    -0.00   0.00  -0.00    -0.00   0.00  -0.00    -0.00   0.00  -0.00
 155   6    -0.00  -0.00  -0.00    -0.00  -0.00  -0.00    -0.00  -0.01  -0.00
 156   6     0.00  -0.00   0.00     0.00  -0.00   0.00     0.00  -0.00   0.00
 157   7     0.00   0.00   0.00     0.00   0.00   0.00     0.00   0.00   0.00
 158   6     0.00   0.00   0.00     0.00   0.00  -0.00     0.00   0.00   0.00
 159   1     0.00  -0.00   0.00     0.00  -0.00   0.00     0.00  -0.00   0.01
 160   1     0.00   0.01   0.00     0.00   0.00   0.00     0.00   0.02   0.01
 161   1     0.00  -0.00   0.00     0.00  -0.00   0.00    -0.00   0.00  -0.00
 162   1    -0.00  -0.00  -0.00    -0.00   0.00   0.00    -0.00  -0.00  -0.00
                    478                    479                    480
                        a                      a                      a 
 Frequencies --  3118.5807              3119.0436              3119.3385
 Red. masses --     1.8937                 1.8942                 1.8932
 Frc consts  --     0.0000                 0.0000                 0.0000
 IR Inten    --     0.0236                 0.0239                 0.0229
 Raman Activ --     0.0000                 0.0000                 0.0000
 Depolar     --     0.0000                 0.0000                 0.0000
 Atom AN      X      Y      Z        X      Y      Z        X      Y      Z
   1  46    -0.00  -0.00  -0.00     0.00  -0.00  -0.00     0.00   0.00  -0.00
   2  46    -0.00   0.00   0.00    -0.00   0.00  -0.00     0.00  -0.00  -0.00
   3   6    -0.00  -0.00  -0.00    -0.00   0.00   0.00    -0.00  -0.00  -0.00
   4   6     0.00  -0.00  -0.00    -0.00  -0.00  -0.00     0.00   0.00   0.00
   5   6    -0.00  -0.00  -0.00    -0.00  -0.00  -0.00     0.00   0.00   0.00
   6   6     0.00  -0.00  -0.00     0.00  -0.00  -0.00    -0.00   0.00   0.00
   7   6     0.00   0.00   0.00     0.00   0.00   0.00    -0.00  -0.00  -0.00
   8   6     0.00   0.00   0.00     0.00   0.00   0.00    -0.00  -0.00  -0.00
   9   6    -0.00   0.00  -0.00    -0.00   0.00   0.00     0.00  -0.00  -0.00
  10   6     0.00   0.00   0.00     0.00   0.00   0.00    -0.00  -0.00  -0.00
  11   6    -0.00   0.00  -0.00    -0.00   0.00   0.00     0.00  -0.00  -0.00
  12   7     0.00  -0.00  -0.00     0.00  -0.00  -0.00    -0.00   0.00   0.00
  13   6    -0.00  -0.00  -0.00    -0.00  -0.00  -0.00     0.00   0.00   0.00
  14   6     0.00   0.00   0.00     0.00  -0.00  -0.00    -0.00   0.00   0.00
  15   1    -0.00   0.00   0.00    -0.00   0.00   0.00     0.00  -0.00  -0.00
  16   1    -0.00  -0.00  -0.00    -0.00  -0.00  -0.00     0.00   0.00   0.00
  17   1    -0.00  -0.00  -0.00    -0.00  -0.00  -0.00     0.00   0.00   0.00
  18   1    -0.00  -0.00  -0.00    -0.00  -0.00  -0.00     0.00   0.00   0.00
  19   1     0.00  -0.00   0.00     0.00  -0.00  -0.00    -0.00   0.00   0.00
  20   1     0.00   0.00   0.00     0.00   0.00   0.00    -0.00  -0.00  -0.00
  21   6     0.00   0.00   0.00     0.00   0.00   0.00    -0.00  -0.00  -0.00
  22   6    -0.00   0.00  -0.00    -0.00   0.00  -0.00     0.00  -0.00   0.00
  23   6    -0.00  -0.00  -0.00    -0.00  -0.00  -0.00     0.00   0.00   0.00
  24   6     0.00  -0.00  -0.00     0.00  -0.00  -0.00    -0.00   0.00   0.00
  25   6    -0.00   0.00  -0.00     0.00  -0.00   0.00    -0.00   0.00  -0.00
  26   6    -0.00  -0.00  -0.00     0.00   0.00   0.00    -0.00  -0.00  -0.00
  27   1     0.00  -0.00   0.00     0.00  -0.00   0.00    -0.00   0.00  -0.00
  28   1     0.00   0.00   0.00     0.00   0.00   0.00    -0.00  -0.00  -0.00
  29   1     0.00  -0.00   0.00    -0.00   0.00  -0.00     0.00  -0.00   0.00
  30   1     0.00   0.00   0.00    -0.00  -0.00  -0.00     0.00   0.00   0.00
  31   6     0.00   0.00   0.00     0.00   0.00  -0.00    -0.00  -0.00   0.00
  32   6    -0.00  -0.00   0.00    -0.00  -0.00   0.00     0.00   0.00  -0.00
  33   6     0.00  -0.00  -0.00     0.00  -0.00   0.00    -0.00   0.00   0.00
  34   6    -0.12  -0.02   0.01    -0.01  -0.00   0.00     0.00   0.00  -0.00
  35   6    -0.15   0.20   0.01    -0.01   0.01   0.00     0.01  -0.01  -0.00
  36   6     0.01   0.02  -0.00     0.00   0.00  -0.00    -0.00  -0.00   0.00
  37   7     0.00  -0.00  -0.00     0.00  -0.00  -0.00    -0.00   0.00  -0.00
  38   6     0.00  -0.00  -0.00    -0.00   0.00   0.00     0.00  -0.00  -0.00
  39   1     0.40   0.06  -0.05     0.03   0.00  -0.00    -0.02  -0.00   0.00
  40   1     0.52  -0.69  -0.05     0.04  -0.05  -0.00    -0.02   0.03   0.00
  41   1    -0.02  -0.03   0.00    -0.00  -0.00   0.00     0.00   0.00  -0.00
  42   1     0.00  -0.00  -0.00     0.00  -0.00   0.00    -0.00   0.00   0.00
  43   6    -0.00   0.00   0.00     0.00  -0.00  -0.00     0.00  -0.00   0.00
  44   6     0.00  -0.00  -0.00     0.00  -0.00   0.00    -0.00   0.00   0.00
  45   6     0.00  -0.00  -0.00     0.00  -0.00  -0.00    -0.00   0.00   0.00
  46   6     0.00  -0.00   0.00     0.00  -0.00   0.00    -0.00   0.00  -0.00
  47   6    -0.00   0.00   0.00    -0.00   0.00   0.00     0.00  -0.00  -0.00
  48   6    -0.00   0.00   0.00    -0.00   0.00   0.00     0.00  -0.00  -0.00
  49   6    -0.00   0.00  -0.00    -0.00   0.00  -0.00     0.00  -0.00   0.00
  50   6    -0.00   0.00   0.00    -0.00   0.00   0.00     0.00  -0.00  -0.00
  51   6    -0.00   0.00  -0.00     0.00   0.00  -0.00     0.00  -0.00   0.00
  52   7     0.00  -0.00   0.00     0.00  -0.00   0.00    -0.00   0.00   0.00
  53   6     0.00  -0.00  -0.00     0.00  -0.00  -0.00    -0.00   0.00   0.00
  54   6     0.00  -0.00  -0.00    -0.00  -0.00   0.00    -0.00   0.00   0.00
  55   1    -0.00   0.00  -0.00    -0.00   0.00  -0.00     0.00  -0.00   0.00
  56   1     0.00  -0.00  -0.00     0.00  -0.00  -0.00    -0.00   0.00   0.00
  57   1     0.00  -0.00  -0.00     0.00  -0.00  -0.00    -0.00   0.00   0.00
  58   1     0.00  -0.00  -0.00     0.00  -0.00  -0.00    -0.00   0.00   0.00
  59   1    -0.00  -0.00   0.00     0.00  -0.00   0.00    -0.00   0.00  -0.00
  60   1    -0.00   0.00   0.00    -0.00   0.00   0.00     0.00  -0.00  -0.00
  61   6    -0.00   0.00   0.00    -0.00   0.00   0.00     0.00  -0.00  -0.00
  62   6    -0.00   0.00   0.00    -0.00  -0.00   0.00     0.00  -0.00  -0.00
  63   6    -0.00  -0.00   0.00     0.00   0.00  -0.00     0.00   0.00  -0.00
  64   6     0.00  -0.00  -0.00     0.00  -0.00   0.00    -0.00   0.00  -0.00
  65   6     0.00  -0.00  -0.00     0.00  -0.00  -0.00    -0.00   0.00   0.00
  66   6     0.00   0.00  -0.00     0.00   0.00  -0.00    -0.00  -0.00   0.00
  67   1     0.00  -0.00  -0.00    -0.00   0.00   0.00    -0.00   0.00   0.00
  68   1     0.00   0.00  -0.00    -0.00  -0.00   0.00    -0.00  -0.00   0.00
  69   1    -0.00   0.00   0.00    -0.00   0.00   0.00     0.00  -0.00  -0.00
  70   1    -0.00  -0.00   0.00    -0.00  -0.00   0.00     0.00   0.00  -0.00
  71   6     0.00  -0.00  -0.00    -0.00   0.00   0.00    -0.00   0.00   0.00
  72   6     0.00   0.00   0.00    -0.00  -0.00  -0.00     0.00  -0.00  -0.00
  73   6    -0.00   0.00  -0.00     0.00  -0.00   0.00     0.00  -0.00   0.00
  74   6     0.00   0.00   0.01    -0.01  -0.02  -0.12    -0.00  -0.00  -0.00
  75   6     0.00  -0.01   0.01    -0.02   0.20  -0.15    -0.00   0.00  -0.00
  76   6    -0.00  -0.00  -0.00     0.00   0.02   0.01     0.00   0.00   0.00
  77   7    -0.00   0.00  -0.00     0.00  -0.00   0.00     0.00  -0.00   0.00
  78   6    -0.00   0.00  -0.00     0.00  -0.00   0.00     0.00  -0.00   0.00
  79   1    -0.00  -0.00  -0.03     0.05   0.06   0.41     0.00   0.00   0.01
  80   1    -0.00   0.05  -0.03     0.06  -0.69   0.51     0.00  -0.01   0.01
  81   1     0.00   0.00   0.00    -0.00  -0.03  -0.02    -0.00  -0.00  -0.00
  82   1     0.00  -0.00   0.00     0.00  -0.00   0.00    -0.00   0.00  -0.00
  83   6     0.00   0.00   0.00    -0.00   0.00  -0.00    -0.00  -0.00  -0.00
  84   6     0.00  -0.00   0.00     0.00  -0.00   0.00    -0.00   0.00  -0.00
  85   6     0.00  -0.00   0.00     0.00  -0.00   0.00    -0.00   0.00  -0.00
  86   6    -0.00  -0.00   0.00    -0.00  -0.00   0.00     0.00   0.00  -0.00
  87   6    -0.00   0.00  -0.00    -0.00   0.00  -0.00     0.00  -0.00   0.00
  88   6    -0.00   0.00  -0.00    -0.00   0.00  -0.00     0.00  -0.00   0.00
  89   6     0.00   0.00  -0.00     0.00   0.00  -0.00    -0.00  -0.00   0.00
  90   6    -0.00   0.00  -0.00    -0.00   0.00  -0.00     0.00  -0.00   0.00
  91   6     0.00   0.00  -0.00     0.00   0.00  -0.00    -0.00  -0.00   0.00
  92   7     0.00  -0.00   0.00    -0.00  -0.00   0.00     0.00   0.00  -0.00
  93   6     0.00  -0.00   0.00     0.00  -0.00   0.00    -0.00   0.00  -0.00
  94   6     0.00  -0.00   0.00     0.00  -0.00   0.00     0.00   0.00  -0.00
  95   1     0.00   0.00  -0.00     0.00   0.00  -0.00    -0.00  -0.00   0.00
  96   1     0.00  -0.00   0.00     0.00  -0.00   0.00    -0.00   0.00  -0.00
  97   1     0.00  -0.00   0.00     0.00  -0.00   0.00    -0.00   0.00  -0.00
  98   1     0.00  -0.00   0.00     0.00  -0.00   0.00    -0.00   0.00  -0.00
  99   1    -0.00  -0.00   0.00    -0.00  -0.00  -0.00     0.00   0.00  -0.00
 100   1    -0.00   0.00  -0.00    -0.00   0.00  -0.00     0.00  -0.00   0.00
 101   6    -0.00   0.00  -0.00    -0.00   0.00  -0.00     0.00  -0.00   0.00
 102   6     0.00   0.00   0.00     0.00   0.00   0.00    -0.00  -0.00  -0.00
 103   6     0.00  -0.00   0.00     0.00  -0.00   0.00    -0.00   0.00  -0.00
 104   6    -0.00  -0.00   0.00    -0.00  -0.00   0.00     0.00   0.00  -0.00
 105   6    -0.00  -0.00  -0.00    -0.00  -0.00  -0.00     0.00   0.00   0.00
 106   6    -0.00   0.00  -0.00    -0.00   0.00  -0.00     0.00  -0.00   0.00
 107   1    -0.00  -0.00  -0.00    -0.00  -0.00  -0.00     0.00   0.00   0.00
 108   1    -0.00   0.00  -0.00    -0.00   0.00  -0.00     0.00  -0.00   0.00
 109   1     0.00   0.00   0.00     0.00   0.00   0.00    -0.00  -0.00  -0.00
 110   1     0.00  -0.00   0.00     0.00  -0.00   0.00    -0.00   0.00  -0.00
 111   6     0.00  -0.00   0.00    -0.00   0.00   0.00    -0.00  -0.00  -0.00
 112   6    -0.00   0.00  -0.00     0.00  -0.00  -0.00    -0.00   0.00   0.00
 113   6     0.00   0.00  -0.00    -0.00  -0.00   0.00     0.00   0.00   0.00
 114   6    -0.00   0.00   0.00     0.00  -0.00  -0.00    -0.00   0.00   0.00
 115   6    -0.00  -0.00   0.00     0.00   0.01  -0.00    -0.00  -0.01   0.00
 116   6     0.00  -0.00  -0.00    -0.00   0.00   0.00     0.00  -0.00  -0.00
 117   7     0.00   0.00  -0.00    -0.00  -0.00  -0.00     0.00   0.00  -0.00
 118   6     0.00   0.00  -0.00     0.00   0.00  -0.00    -0.00  -0.00   0.00
 119   1     0.01  -0.00  -0.00    -0.01   0.00   0.00     0.01  -0.00  -0.00
 120   1     0.01   0.01  -0.00    -0.02  -0.02   0.00     0.01   0.02  -0.00
 121   1    -0.00   0.00   0.00     0.00  -0.00  -0.00    -0.00   0.00   0.00
 122   1    -0.00  -0.00   0.00    -0.00  -0.00   0.00     0.00   0.00   0.00
 123   6     0.00   0.00   0.00     0.00   0.00   0.00     0.00   0.00  -0.00
 124   6    -0.00  -0.00   0.00    -0.00  -0.00   0.00     0.00   0.00   0.00
 125   6    -0.00  -0.00   0.00    -0.00  -0.00   0.00     0.00   0.00  -0.00
 126   6    -0.00  -0.00  -0.00    -0.00  -0.00  -0.00     0.00   0.00   0.00
 127   6     0.00   0.00  -0.00     0.00   0.00  -0.00    -0.00  -0.00   0.00
 128   6     0.00   0.00  -0.00     0.00   0.00  -0.00    -0.00  -0.00   0.00
 129   6     0.00   0.00   0.00     0.00   0.00   0.00     0.00  -0.00  -0.00
 130   6     0.00   0.00  -0.00     0.00   0.00  -0.00    -0.00  -0.00   0.00
 131   6    -0.00   0.00   0.00     0.00   0.00   0.00     0.00  -0.00  -0.00
 132   7    -0.00  -0.00  -0.00    -0.00  -0.00   0.00     0.00   0.00   0.00
 133   6    -0.00  -0.00   0.00    -0.00  -0.00   0.00     0.00   0.00  -0.00
 134   6    -0.00  -0.00  -0.00    -0.00  -0.00   0.00    -0.00  -0.00   0.00
 135   1     0.00   0.00   0.00     0.00   0.00   0.00    -0.00  -0.00  -0.00
 136   1    -0.00  -0.00   0.00    -0.00  -0.00   0.00     0.00   0.00  -0.00
 137   1    -0.00  -0.00   0.00    -0.00  -0.00   0.00     0.00   0.00  -0.00
 138   1    -0.00  -0.00   0.00    -0.00  -0.00   0.00     0.00   0.00  -0.00
 139   1    -0.00  -0.00  -0.00    -0.00  -0.00  -0.00    -0.00   0.00   0.00
 140   1     0.00   0.00  -0.00     0.00   0.00  -0.00    -0.00  -0.00   0.00
 141   6     0.00   0.00  -0.00     0.00   0.00  -0.00    -0.00  -0.00   0.00
 142   6    -0.00   0.00   0.00    -0.00   0.00   0.00     0.00  -0.00  -0.00
 143   6    -0.00  -0.00   0.00    -0.00  -0.00   0.00     0.00   0.00  -0.00
 144   6    -0.00  -0.00  -0.00    -0.00  -0.00  -0.00     0.00   0.00   0.00
 145   6     0.00  -0.00  -0.00     0.00  -0.00  -0.00     0.00  -0.00  -0.00
 146   6     0.00   0.00  -0.00     0.00   0.00  -0.00     0.00   0.00  -0.00
 147   1     0.00  -0.00  -0.00     0.00  -0.00  -0.00    -0.00   0.00   0.00
 148   1     0.00   0.00  -0.00     0.00   0.00  -0.00    -0.00  -0.00   0.00
 149   1    -0.00   0.00   0.00    -0.00   0.00   0.00    -0.00   0.00   0.00
 150   1    -0.00  -0.00   0.00    -0.00  -0.00   0.00    -0.00  -0.00   0.00
 151   6    -0.00  -0.00   0.00    -0.00  -0.00   0.00    -0.00  -0.00   0.00
 152   6     0.00   0.00  -0.00     0.00   0.00   0.00    -0.00   0.00  -0.00
 153   6     0.00   0.00   0.00     0.00  -0.00  -0.00    -0.00   0.00   0.00
 154   6    -0.00   0.00  -0.01     0.00  -0.00   0.00    -0.01   0.02  -0.12
 155   6    -0.00  -0.01  -0.01     0.00   0.00   0.00    -0.01  -0.21  -0.15
 156   6     0.00  -0.00   0.00    -0.00   0.00  -0.00     0.00  -0.02   0.01
 157   7    -0.00   0.00   0.00     0.00   0.00   0.00     0.00   0.00   0.00
 158   6     0.00   0.00   0.00     0.00   0.00   0.00     0.00   0.00   0.00
 159   1     0.00  -0.00   0.02    -0.00   0.00  -0.00     0.04  -0.05   0.39
 160   1     0.00   0.03   0.02    -0.00  -0.01  -0.01     0.04   0.70   0.51
 161   1    -0.00   0.00  -0.00     0.00  -0.00   0.00    -0.00   0.03  -0.02
 162   1     0.00  -0.00  -0.00    -0.00  -0.00  -0.00     0.00   0.00   0.00
