      -----------------------------------------------------------      
     |                   =====================                   |     
     |                           x T B                           |     
     |                   =====================                   |     
     |                         S. Grimme                         |     
     |          Mulliken Center for Theoretical Chemistry        |     
     |                    University of Bonn                     |     
     |                Version 6.2 RC2 (SAW190805)                |     
      -----------------------------------------------------------      

   This program is distributed in the hope that it will be useful,
   but WITHOUT ANY WARRANTY; without even the implied warranty of
   MERCHANTABILITY or FITNESS FOR A PARTICULAR PURPOSE.
   
   FOR NON-COMMERCIAL, ACADEMIA USE ONLY.
   
   Cite this work as:
   * S. Grimme, C. Bannwarth, P. Shushkov, J. Chem. Theory Comput., 2017,
     13, 1989-2009. DOI: 10.1021/acs.jctc.7b00118
   * C. Bannwarth, S. Ehlert and S. Grimme., J. Chem. Theory Comput., 2019,
     15, 1652-1671. DOI: 10.1021/acs.jctc.8b01176
   * P. Pracht, E. Caldeweyher, S. Ehlert, S. Grimme, ChemRxiv, 2019, preprint.
     DOI: 10.26434/chemrxiv.8326202.v1
   
   for DFT-D4:
   * E. Caldeweyher, C. Bannwarth and S. Grimme, J. Chem. Phys., 2017,
     147, 034112. DOI: 10.1063/1.4993215
   * E. Caldeweyher, S. Ehlert, A. Hansen, H. Neugebauer, S. Spicher,
     C. Bannwarth and S. Grimme, J. Chem. Phys., 2019, 150, 154122.
     DOI: 10.1063/1.5090222
   
   for sTDA-xTB:
   * S. Grimme and C. Bannwarth, J. Chem. Phys., 2016, 145, 054103.
     DOI: 10.1063/1.4959605
   
   in the mass-spec context:
   * V. Asgeirsson, C. Bauer and S. Grimme, Chem. Sci., 2017, 8, 4879.
     DOI: 10.1039/c7sc00601b
   
   for metadynamics refer to:
   * S. Grimme, J. Chem. Theory Comput., 2019, 155, 2847-2862
     DOI: 10.1021/acs.jctc.9b00143
   
   with help from (in alphabetical order)
   C. Bannwarth, F. Bohle, G. Brandenburg, E. Caldeweyher, M. Checinski,
   S. Dohm, S. Ehlert, S. Ehrlich, F. März, H. Neugebauer, J. Pisarek,
   P. Pracht, P. Shushkov, and S. Spicher.
   
 * started run on 2021/06/21 at 20:27:03.604     

           -------------------------------------------------
          |                Calculation Setup                |
           -------------------------------------------------

          program call               : /home/atarzia/software/xtb-190806/bin/xtb /data/atarzia/projects/unsymm/screening/production/free_energy_calculations/fe_3d1_a/input_structure.xyz --gfn 2 --hess --parallel 6 --etemp 300 --gbsa dmso --chrg 4 --uhf 0 -I det_control.in
          coordinate file            : /data/atarzia/projects/unsymm/screening/production/free_energy_calculations/fe_3d1_a/input_structure.xyz
          omp threads                :                     6
          number of atoms            :                   130
          number of electrons        :                   392
          charge                     :                     4
          spin                       :                   0.0
          first test random number   :      0.40088086625322


########################################################################
# WARNING! Please study the warnings concerning your input carefully
#  - XTBHOME is not set, using HOME instead
#  - XTBPATH is not set, using XTBHOME instead
#  - Process number higher than OMP_NUM_THREADS, I hope you know what you are doing.
########################################################################

           ------------------------------------------------- 
          |                 G F N 2 - x T B                 |
          | Geometry, Frequencies, Noncovalent interactions |
          |            JCTC 2019 parametrisation            |
           ------------------------------------------------- 
             k(s)              :                1.8500
             k(p)              :                2.2300
             k(d)              :                2.2300
             k(f)              :                2.0000
             kEN (H0ij)        :               -2.0000
             D4 a1             :                0.5200
             D4 a2             :                5.0000
             D4 s6             :                1.0000
             D4 s8             :                2.7000
             D4 s9             :                5.0000
             alphaj            :                2.0000

  Z AO/shell   Hii/eV     exponent
  1     Wed Apr 25 08:07:45 CEST 2018   EN: 2.200 GM2: 0.406  GM3: 0.0800  RAES: 1.40
     1s    -10.707211    1.230000
  6     Wed Apr 25 08:07:45 CEST 2018   EN: 2.550 GM2: 0.538  GM3: 0.1500  RAES: 3.00
     2s    -13.970922    2.096432
     2p    -10.063292    1.800000
  7     Wed Apr 25 08:07:45 CEST 2018   EN: 3.040 GM2: 0.461  GM3:-0.0640  RAES: 1.90
     2s    -16.686243    2.339881
     2p    -12.523956    2.014332
 46     Wed Apr 25 16:26:58 CEST 2018   EN: 2.200 GM2: 0.273  GM3: 0.0800  RAES: 5.00
     4d    -11.963518    2.353691
     5s     -9.714059    1.828354
     5p     -2.035281    1.333352

 Solvent             : dmso
 Using internal parameter file: .param_gbsa2_dmso
 Gsolv ref. state (COSMO-RS): gsolv [1 M gas/solution]
 temperature (mdtemp)       :    298.150000000000     
 dielectric constant        :    46.6800000000000     
 rho                        :    1.10000000000000     
 mass                       :    78.1300000000000     
 surface tension            :    15.5689454083859     
 probe radius               :   0.949087640000000     
 vdW radii scaling          :    1.00000000000000     
 Gshift (Eh)                :   5.161738145414381E-003
 c1                         :    1.63948621000000     
 soset                      :   1.179665000000000E-002
 HB correction              :  T
           ------------------------------------------------- 
          |        Self-Consistent Charge Iterations        |
           ------------------------------------------------- 

          ...................................................
          :                      SETUP                      :
          :.................................................:
          :  # basis functions                 388          :
          :  # atomic orbitals                 386          :
          :  # shells                          214          :
          :  # electrons                       392          :
          :  max. iterations                   250          :
          :  Hamiltonian                  GFN2-xTB          :
          :  restarted?                      false          :
          :  GBSA solvation                   true          :
          :  PC potential                    false          :
          :  electronic temp.          300.0000000     K    :
          :  accuracy                    1.0000000          :
          :  -> integral cutoff          0.2500000E+02      :
          :  -> integral neglect         0.1000000E-07      :
          :  -> SCF convergence          0.1000000E-05 Eh   :
          :  -> wf. convergence          0.1000000E-03 e    :
          :  Broyden damping             0.4000000          :
          ...................................................

 iter      E             dE          RMSdq      gap      omega  full diag
   1   -213.0624491 -0.213062E+03  0.599E+00    2.75       0.0  T
   2   -213.4386669 -0.376218E+00  0.401E+00    2.38       1.0  T
   3   -213.3148708  0.123796E+00  0.218E+00    2.41       1.0  T
   4   -213.5814667 -0.266596E+00  0.105E+00    2.68       1.0  T
   5   -213.6526508 -0.711841E-01  0.470E-01    2.68       1.0  T
   6   -213.6761249 -0.234741E-01  0.182E-01    2.69       1.0  T
   7   -213.6776835 -0.155854E-02  0.794E-02    2.71       1.0  T
   8   -213.6777603 -0.768337E-04  0.320E-02    2.70       1.0  T
   9   -213.6778167 -0.564276E-04  0.109E-02    2.71       1.0  T
  10   -213.6778238 -0.709010E-05  0.414E-03    2.71       2.1  T
  11   -213.6778240 -0.186926E-06  0.225E-03    2.71       3.9  T
  12   -213.6778243 -0.299534E-06  0.757E-04    2.71      11.6  T
  13   -213.6778243 -0.208952E-07  0.406E-04    2.71      21.6  T

   *** convergence criteria satisfied after 13 iterations ***

         #    Occupation            Energy/Eh            Energy/eV
      -------------------------------------------------------------
         1        2.0000           -0.7351282             -20.0039
       ...           ...                  ...                  ...
       190        2.0000           -0.4264496             -11.6043
       191        2.0000           -0.4257879             -11.5863
       192        2.0000           -0.4256276             -11.5819
       193        2.0000           -0.4127212             -11.2307
       194        2.0000           -0.4126204             -11.2280
       195        2.0000           -0.4126153             -11.2278
       196        2.0000           -0.4124172             -11.2224 (HOMO)
       197                         -0.3129141              -8.5148 (LUMO)
       198                         -0.3128922              -8.5142
       199                         -0.3121194              -8.4932
       200                         -0.3120985              -8.4926
       201                         -0.3113956              -8.4735
       ...                                ...                  ...
       386                          1.4487267              39.4219
      -------------------------------------------------------------
                  HL-Gap            0.0995030 Eh            2.7076 eV
             Fermi-level           -0.3626656 Eh           -9.8686 eV

 SCC (total)                   0 d,  0 h,  0 min,  1.524 sec
 SCC setup                      ...        0 min,  0.142 sec (  9.309%)
 Dispersion                     ...        0 min,  0.012 sec (  0.794%)
 integral evaluation            ...        0 min,  0.241 sec ( 15.822%)
 zeroth order Hamiltonian       ...        0 min,  0.004 sec (  0.281%)
 iterations                     ...        0 min,  0.864 sec ( 56.646%)
 molecular gradient             ...        0 min,  0.254 sec ( 16.661%)
 printout                       ...        0 min,  0.007 sec (  0.478%)

         :::::::::::::::::::::::::::::::::::::::::::::::::::::
         ::                     SUMMARY                     ::
         :::::::::::::::::::::::::::::::::::::::::::::::::::::
         :: total energy            -209.848438650154 Eh    ::
         :: total w/o Gsasa/hb      -209.751301843108 Eh    ::
         :: gradient norm              0.000610928891 Eh/a0 ::
         :: HOMO-LUMO gap              2.707615790609 eV    ::
         ::.................................................::
         :: SCC energy              -213.760450159141 Eh    ::
         :: -> isotropic ES            0.661780662557 Eh    ::
         :: -> anisotropic ES         -0.084628212348 Eh    ::
         :: -> anisotropic XC          0.153680713694 Eh    ::
         :: -> dispersion             -0.185518790019 Eh    ::
         :: -> Gsolv                  -0.668160123015 Eh    ::
         ::    -> Gborn               -0.571023315970 Eh    ::
         ::    -> Gsasa               -0.087787552562 Eh    ::
         ::    -> Ghb                 -0.014510992629 Eh    ::
         ::    -> Gshift               0.005161738145 Eh    ::
         :: repulsion energy           3.906888646694 Eh    ::
         :: add. restraining           0.000000000000 Eh    ::
         :::::::::::::::::::::::::::::::::::::::::::::::::::::

           ------------------------------------------------- 
          |                Numerical Hessian                |
           ------------------------------------------------- 
step length          :   0.00500
SCC accuracy         :   0.30000
Hessian scale factor :   1.00000
frozen atoms in %    :   0.00000    0
RMS gradient         :   0.00061
estimated CPU  time     53.89 min
estimated wall time     14.20 min

writing file <hessian>.

 projected vibrational frequencies (cm-1)
eigval :       -0.00    -0.00    -0.00    -0.00     0.00     0.00
eigval :       11.41    11.63    12.65    12.79    27.46    27.67
eigval :       27.72    30.17    31.36    31.40    32.21    39.73
eigval :       46.14    46.28    49.25    50.44    62.83    62.94
eigval :       64.62    70.83    76.10    76.23    79.45    84.55
eigval :       86.15    90.11    90.26    97.64   108.35   123.92
eigval :      124.19   127.83   127.84   133.39   135.24   135.59
eigval :      136.71   140.22   142.17   152.55   152.64   154.74
eigval :      173.36   173.71   178.88   179.15   179.67   182.69
eigval :      186.63   198.06   218.94   230.85   230.87   231.86
eigval :      251.54   252.06   252.10   258.14   260.50   260.57
eigval :      263.26   264.44   268.36   268.47   275.34   278.97
eigval :      279.02   279.07   316.30   316.31   318.34   320.43
eigval :      336.49   338.07   338.46   339.25   344.07   344.15
eigval :      347.04   347.23   369.13   376.20   389.43   392.34
eigval :      400.02   400.09   401.92   401.99   425.48   425.57
eigval :      426.37   426.90   453.58   453.78   456.29   458.16
eigval :      468.58   470.77   472.35   472.45   503.36   514.22
eigval :      514.47   516.72   516.84   518.81   523.02   523.03
eigval :      524.83   525.83   525.89   525.95   589.74   591.59
eigval :      593.90   593.90   599.60   600.10   600.11   600.30
eigval :      617.84   618.42   622.17   623.90   626.90   626.92
eigval :      627.78   627.81   658.03   658.87   659.31   659.31
eigval :      660.57   670.69   670.79   672.96   676.17   679.13
eigval :      679.16   679.43   694.03   696.54   698.10   698.13
eigval :      768.85   774.50   774.54   774.83   776.15   778.94
eigval :      779.00   782.97   790.68   794.57   796.91   796.92
eigval :      802.97   803.83   803.88   804.21   835.40   850.47
eigval :      850.61   856.99   859.21   859.28   860.96   863.58
eigval :      870.00   870.41   870.56   871.52   890.35   894.27
eigval :      894.34   898.03   898.37   898.52   898.53   899.59
eigval :      905.75   905.80   905.80   905.95   911.09   913.87
eigval :      916.71   916.72   932.02   932.17   932.58   932.86
eigval :      935.30   935.41   935.64   935.87   939.52   939.68
eigval :      939.84   939.89   982.89   984.94   985.93   985.94
eigval :      994.68   998.89   999.39   999.41  1002.12  1005.65
eigval :     1005.71  1009.05  1081.35  1082.13  1082.18  1083.59
eigval :     1087.26  1088.76  1088.78  1091.78  1092.44  1092.47
eigval :     1092.73  1093.12  1116.24  1117.90  1117.92  1120.44
eigval :     1124.62  1125.13  1125.16  1125.79  1133.63  1134.52
eigval :     1134.63  1136.78  1154.72  1157.19  1157.22  1158.56
eigval :     1166.63  1168.60  1168.64  1173.94  1173.96  1176.16
eigval :     1176.17  1180.46  1191.75  1191.95  1191.99  1192.25
eigval :     1224.81  1230.29  1230.38  1233.83  1236.64  1236.71
eigval :     1239.53  1244.02  1245.91  1246.77  1246.80  1248.82
eigval :     1270.50  1270.71  1271.00  1271.02  1294.04  1294.11
eigval :     1294.77  1294.80  1296.09  1296.73  1297.12  1297.95
eigval :     1314.08  1314.11  1314.16  1314.19  1321.24  1321.28
eigval :     1321.30  1322.42  1370.72  1370.74  1372.53  1374.66
eigval :     1379.35  1379.74  1379.80  1380.22  1401.95  1401.96
eigval :     1402.44  1402.85  1422.11  1422.68  1422.74  1422.77
eigval :     1450.13  1450.13  1450.59  1450.64  1470.54  1470.55
eigval :     1471.14  1471.32  1525.58  1527.61  1529.12  1529.25
eigval :     1536.42  1538.10  1538.76  1538.78  1546.04  1546.11
eigval :     1546.52  1546.86  1548.84  1549.99  1550.18  1550.20
eigval :     1559.38  1559.38  1559.47  1559.58  1576.43  1576.51
eigval :     1576.56  1576.59  2313.50  2313.96  2314.18  2314.60
eigval :     2961.14  2962.92  2963.08  2969.80  2989.00  2989.08
eigval :     2989.81  2992.22  3001.67  3002.00  3002.68  3003.61
eigval :     3007.63  3008.97  3009.21  3013.00  3090.33  3090.62
eigval :     3090.92  3091.14  3102.03  3102.15  3102.30  3102.32
eigval :     3106.83  3107.00  3107.44  3107.53  3107.61  3107.63
eigval :     3108.01  3108.06  3108.27  3108.68  3108.74  3109.05
eigval :     3109.66  3109.81  3110.19  3110.34  3118.54  3118.61
eigval :     3118.93  3119.10  3119.22  3119.57  3119.69  3120.05
           -------------------------------------------------
          |                Property Printout                |
           -------------------------------------------------

    * Orbital Energies and Occupations

         #    Occupation            Energy/Eh            Energy/eV
      -------------------------------------------------------------
         1        2.0000           -0.7351258             -20.0038
       ...           ...                  ...                  ...
       184        2.0000           -0.4316255             -11.7451
       185        2.0000           -0.4300822             -11.7031
       186        2.0000           -0.4287118             -11.6658
       187        2.0000           -0.4275444             -11.6341
       188        2.0000           -0.4275413             -11.6340
       189        2.0000           -0.4265014             -11.6057
       190        2.0000           -0.4264456             -11.6042
       191        2.0000           -0.4257839             -11.5862
       192        2.0000           -0.4256241             -11.5818
       193        2.0000           -0.4127179             -11.2306
       194        2.0000           -0.4126172             -11.2279
       195        2.0000           -0.4126120             -11.2277
       196        2.0000           -0.4124139             -11.2224 (HOMO)
       197                         -0.3129105              -8.5147 (LUMO)
       198                         -0.3128888              -8.5141
       199                         -0.3121160              -8.4931
       200                         -0.3120951              -8.4925
       201                         -0.3113931              -8.4734
       202                         -0.3093896              -8.4189
       203                         -0.3087701              -8.4021
       204                         -0.3058934              -8.3238
       205                         -0.3012911              -8.1985
       206                         -0.3012625              -8.1978
       207                         -0.2992453              -8.1429
       ...                                ...                  ...
       386                          1.4487296              39.4219
      -------------------------------------------------------------
                  HL-Gap            0.0995033 Eh            2.7076 eV
             Fermi-level           -0.3626622 Eh           -9.8685 eV

     #   Z        covCN         q      C6AA      α(0)
     1  46 Pd     3.529    -0.077   274.046    34.140
     2  46 Pd     3.492    -0.056   273.097    34.081
     3   6 C      1.983    -0.006    31.203     9.021
     4   6 C      1.981    -0.030    31.854     9.115
     5   6 C      2.965     0.049    26.892     8.506
     6   6 C      2.928    -0.004    28.123     8.697
     7   6 C      2.912    -0.027    28.679     8.782
     8   6 C      2.899     0.057    26.726     8.476
     9   7 N      2.668    -0.098    23.158     7.147
    10   6 C      2.927     0.045    26.984     8.519
    11   1 H      0.926     0.088     1.895     2.153
    12   1 H      0.926     0.092     1.856     2.130
    13   1 H      0.925     0.125     1.572     1.960
    14   1 H      0.925     0.138     1.479     1.902
    15   6 C      2.971     0.040    27.093     8.538
    16   6 C      2.925    -0.022    28.552     8.763
    17   6 C      2.916    -0.025    28.616     8.772
    18   6 C      2.923    -0.025    28.631     8.775
    19   6 C      2.973    -0.001    28.055     8.688
    20   6 C      2.931    -0.040    29.003     8.832
    21   1 H      0.926     0.055     2.259     2.350
    22   1 H      0.926     0.046     2.365     2.405
    23   1 H      0.926     0.056     2.249     2.345
    24   1 H      0.926     0.087     1.904     2.158
    25   6 C      2.970     0.010    27.800     8.649
    26   6 C      2.930    -0.002    28.078     8.690
    27   6 C      2.911    -0.027    28.676     8.781
    28   6 C      2.912     0.057    26.726     8.477
    29   7 N      2.665    -0.105    23.309     7.170
    30   6 C      2.901     0.047    26.956     8.513
    31   1 H      0.926     0.088     1.902     2.157
    32   1 H      0.926     0.099     1.791     2.093
    33   1 H      0.925     0.128     1.553     1.949
    34   1 H      0.925     0.137     1.480     1.902
    35   6 C      1.983    -0.006    31.203     9.021
    36   6 C      1.981    -0.030    31.855     9.115
    37   6 C      2.965     0.049    26.892     8.506
    38   6 C      2.928    -0.004    28.123     8.697
    39   6 C      2.912    -0.027    28.679     8.782
    40   6 C      2.899     0.057    26.727     8.477
    41   7 N      2.668    -0.098    23.154     7.147
    42   6 C      2.927     0.045    26.984     8.519
    43   1 H      0.926     0.088     1.895     2.153
    44   1 H      0.926     0.092     1.856     2.130
    45   1 H      0.925     0.125     1.572     1.960
    46   1 H      0.925     0.138     1.479     1.902
    47   6 C      2.971     0.040    27.093     8.538
    48   6 C      2.925    -0.022    28.552     8.763
    49   6 C      2.916    -0.025    28.616     8.772
    50   6 C      2.923    -0.025    28.631     8.775
    51   6 C      2.974    -0.001    28.055     8.688
    52   6 C      2.931    -0.040    29.003     8.832
    53   1 H      0.926     0.055     2.259     2.350
    54   1 H      0.926     0.046     2.365     2.405
    55   1 H      0.926     0.056     2.249     2.345
    56   1 H      0.926     0.087     1.903     2.158
    57   6 C      2.970     0.010    27.800     8.649
    58   6 C      2.930    -0.002    28.077     8.690
    59   6 C      2.911    -0.027    28.676     8.781
    60   6 C      2.912     0.057    26.726     8.477
    61   7 N      2.665    -0.105    23.304     7.170
    62   6 C      2.901     0.046    26.957     8.513
    63   1 H      0.926     0.088     1.903     2.157
    64   1 H      0.926     0.099     1.791     2.093
    65   1 H      0.925     0.128     1.553     1.949
    66   1 H      0.925     0.137     1.480     1.903
    67   6 C      1.983    -0.006    31.203     9.021
    68   6 C      1.981    -0.030    31.854     9.115
    69   6 C      2.965     0.049    26.892     8.506
    70   6 C      2.928    -0.004    28.123     8.697
    71   6 C      2.912    -0.027    28.679     8.781
    72   6 C      2.899     0.057    26.727     8.476
    73   7 N      2.668    -0.098    23.156     7.147
    74   6 C      2.927     0.045    26.984     8.519
    75   1 H      0.926     0.088     1.895     2.153
    76   1 H      0.926     0.092     1.856     2.130
    77   1 H      0.925     0.125     1.571     1.960
    78   1 H      0.925     0.138     1.479     1.902
    79   6 C      2.971     0.040    27.093     8.538
    80   6 C      2.925    -0.022    28.552     8.763
    81   6 C      2.916    -0.025    28.615     8.772
    82   6 C      2.923    -0.025    28.631     8.775
    83   6 C      2.973    -0.001    28.054     8.688
    84   6 C      2.931    -0.040    29.003     8.832
    85   1 H      0.926     0.055     2.259     2.350
    86   1 H      0.926     0.046     2.365     2.405
    87   1 H      0.926     0.056     2.249     2.345
    88   1 H      0.926     0.087     1.903     2.157
    89   6 C      2.970     0.010    27.800     8.649
    90   6 C      2.930    -0.002    28.078     8.690
    91   6 C      2.911    -0.027    28.676     8.781
    92   6 C      2.912     0.057    26.727     8.477
    93   7 N      2.665    -0.105    23.306     7.170
    94   6 C      2.901     0.047    26.956     8.513
    95   1 H      0.926     0.088     1.902     2.157
    96   1 H      0.926     0.099     1.791     2.093
    97   1 H      0.925     0.128     1.553     1.949
    98   1 H      0.925     0.137     1.480     1.902
    99   6 C      1.983    -0.006    31.203     9.021
   100   6 C      1.981    -0.030    31.855     9.115
   101   6 C      2.965     0.049    26.891     8.506
   102   6 C      2.928    -0.004    28.123     8.697
   103   6 C      2.912    -0.027    28.679     8.782
   104   6 C      2.899     0.057    26.726     8.476
   105   7 N      2.668    -0.098    23.159     7.147
   106   6 C      2.927     0.045    26.984     8.519
   107   1 H      0.926     0.088     1.895     2.152
   108   1 H      0.926     0.092     1.856     2.130
   109   1 H      0.925     0.125     1.572     1.960
   110   1 H      0.925     0.138     1.479     1.902
   111   6 C      2.971     0.040    27.093     8.538
   112   6 C      2.925    -0.022    28.552     8.763
   113   6 C      2.916    -0.025    28.616     8.772
   114   6 C      2.923    -0.025    28.631     8.775
   115   6 C      2.974    -0.001    28.055     8.688
   116   6 C      2.931    -0.040    29.003     8.832
   117   1 H      0.926     0.055     2.259     2.350
   118   1 H      0.926     0.046     2.365     2.405
   119   1 H      0.926     0.056     2.249     2.345
   120   1 H      0.926     0.087     1.903     2.157
   121   6 C      2.970     0.010    27.800     8.649
   122   6 C      2.930    -0.002    28.077     8.690
   123   6 C      2.911    -0.027    28.676     8.781
   124   6 C      2.912     0.057    26.725     8.477
   125   7 N      2.665    -0.105    23.311     7.171
   126   6 C      2.901     0.046    26.956     8.513
   127   1 H      0.926     0.088     1.902     2.157
   128   1 H      0.926     0.099     1.791     2.093
   129   1 H      0.925     0.128     1.553     1.949
   130   1 H      0.925     0.137     1.480     1.903

 Mol. C6AA /au·bohr⁶  :     269135.033285
 Mol. C8AA /au·bohr⁸  :    7711519.575324
 Mol. α(0) /au        :        853.874635


Wiberg/Mayer (AO) data.
largest (>0.10) Wiberg bond orders for each atom
          total WBO             WBO to atom ...
     1  Pd  3.522        N   73 0.592    N   41 0.592    N  105 0.592    N    9 0.592
     2  Pd  3.473        N   61 0.592    N   93 0.592    N  125 0.591    N   29 0.591
     3  C   3.949        C    4 2.652    C   15 1.128
     4  C   3.954        C    3 2.652    C    5 1.134
     5  C   3.986        C   10 1.355    C    6 1.338    C    4 1.134
     6  C   3.965        C    7 1.458    C    5 1.338    H   11 0.964
     7  C   3.980        C    6 1.458    C    8 1.419    H   12 0.961
     8  C   3.931        C    7 1.419    N    9 1.349    H   13 0.915
     9  N   3.538        C   10 1.358    C    8 1.349    Pd   1 0.592
    10  C   3.952        N    9 1.358    C    5 1.355    H   14 0.901
    11  H   0.990        C    6 0.964
    12  H   0.990        C    7 0.961
    13  H   0.984        C    8 0.915
    14  H   0.980        C   10 0.901
    15  C   3.988        C   20 1.364    C   16 1.349    C    3 1.128
    16  C   3.969        C   17 1.450    C   15 1.349    H   21 0.969
    17  C   3.990        C   16 1.450    C   18 1.442    H   22 0.968    C   20 0.101
    18  C   3.954        C   17 1.442    C   19 1.372    H   23 0.966
    19  C   3.984        C   20 1.402    C   18 1.372    C   25 1.051
    20  C   3.969        C   19 1.402    C   15 1.364    H   24 0.961    C   17 0.101
    21  H   0.996        C   16 0.969
    22  H   0.996        C   17 0.968
    23  H   0.997        C   18 0.966
    24  H   0.992        C   20 0.961
    25  C   3.983        C   30 1.386    C   26 1.371    C   19 1.051
    26  C   3.978        C   27 1.446    C   25 1.371    H   31 0.961
    27  C   3.980        C   26 1.446    C   28 1.431    H   32 0.960
    28  C   3.964        C   27 1.431    N   29 1.345    H   33 0.909
    29  N   3.531        C   30 1.356    C   28 1.345    Pd   2 0.591
    30  C   3.964        C   25 1.386    N   29 1.356    H   34 0.910
    31  H   0.991        C   26 0.961
    32  H   0.989        C   27 0.960
    33  H   0.982        C   28 0.909
    34  H   0.980        C   30 0.910
    35  C   3.949        C   36 2.652    C   47 1.128
    36  C   3.954        C   35 2.652    C   37 1.134
    37  C   3.986        C   42 1.355    C   38 1.338    C   36 1.134
    38  C   3.965        C   39 1.458    C   37 1.338    H   43 0.964
    39  C   3.980        C   38 1.458    C   40 1.419    H   44 0.961
    40  C   3.931        C   39 1.419    N   41 1.349    H   45 0.915
    41  N   3.538        C   42 1.358    C   40 1.349    Pd   1 0.592
    42  C   3.952        N   41 1.358    C   37 1.355    H   46 0.901
    43  H   0.990        C   38 0.964
    44  H   0.990        C   39 0.961
    45  H   0.984        C   40 0.915
    46  H   0.980        C   42 0.901
    47  C   3.988        C   52 1.364    C   48 1.349    C   35 1.128
    48  C   3.969        C   49 1.449    C   47 1.349    H   53 0.969
    49  C   3.990        C   48 1.449    C   50 1.442    H   54 0.968    C   52 0.101
    50  C   3.954        C   49 1.442    C   51 1.372    H   55 0.966
    51  C   3.984        C   52 1.402    C   50 1.372    C   57 1.051
    52  C   3.969        C   51 1.402    C   47 1.364    H   56 0.961    C   49 0.101
    53  H   0.996        C   48 0.969
    54  H   0.996        C   49 0.968
    55  H   0.997        C   50 0.966
    56  H   0.992        C   52 0.961
    57  C   3.983        C   62 1.386    C   58 1.370    C   51 1.051
    58  C   3.978        C   59 1.446    C   57 1.370    H   63 0.961
    59  C   3.980        C   58 1.446    C   60 1.431    H   64 0.960
    60  C   3.964        C   59 1.431    N   61 1.345    H   65 0.909
    61  N   3.531        C   62 1.356    C   60 1.345    Pd   2 0.592
    62  C   3.964        C   57 1.386    N   61 1.356    H   66 0.910
    63  H   0.991        C   58 0.961
    64  H   0.989        C   59 0.960
    65  H   0.982        C   60 0.909
    66  H   0.980        C   62 0.910
    67  C   3.949        C   68 2.652    C   79 1.128
    68  C   3.954        C   67 2.652    C   69 1.134
    69  C   3.986        C   74 1.356    C   70 1.338    C   68 1.134
    70  C   3.965        C   71 1.458    C   69 1.338    H   75 0.964
    71  C   3.980        C   70 1.458    C   72 1.419    H   76 0.961
    72  C   3.931        C   71 1.419    N   73 1.349    H   77 0.915
    73  N   3.538        C   74 1.358    C   72 1.349    Pd   1 0.592
    74  C   3.952        N   73 1.358    C   69 1.356    H   78 0.901
    75  H   0.990        C   70 0.964
    76  H   0.990        C   71 0.961
    77  H   0.984        C   72 0.915
    78  H   0.980        C   74 0.901
    79  C   3.988        C   84 1.364    C   80 1.349    C   67 1.128
    80  C   3.969        C   81 1.450    C   79 1.349    H   85 0.969
    81  C   3.990        C   80 1.450    C   82 1.442    H   86 0.968    C   84 0.101
    82  C   3.954        C   81 1.442    C   83 1.372    H   87 0.966
    83  C   3.984        C   84 1.402    C   82 1.372    C   89 1.052
    84  C   3.969        C   83 1.402    C   79 1.364    H   88 0.961    C   81 0.101
    85  H   0.996        C   80 0.969
    86  H   0.996        C   81 0.968
    87  H   0.997        C   82 0.966
    88  H   0.992        C   84 0.961
    89  C   3.983        C   94 1.386    C   90 1.370    C   83 1.052
    90  C   3.978        C   91 1.445    C   89 1.370    H   95 0.961
    91  C   3.980        C   90 1.445    C   92 1.431    H   96 0.960
    92  C   3.964        C   91 1.431    N   93 1.345    H   97 0.909
    93  N   3.531        C   94 1.356    C   92 1.345    Pd   2 0.592
    94  C   3.964        C   89 1.386    N   93 1.356    H   98 0.910
    95  H   0.991        C   90 0.961
    96  H   0.989        C   91 0.960
    97  H   0.982        C   92 0.909
    98  H   0.980        C   94 0.910
    99  C   3.949        C  100 2.652    C  111 1.128
   100  C   3.954        C   99 2.652    C  101 1.134
   101  C   3.986        C  106 1.356    C  102 1.338    C  100 1.134
   102  C   3.965        C  103 1.458    C  101 1.338    H  107 0.964
   103  C   3.980        C  102 1.458    C  104 1.419    H  108 0.961
   104  C   3.931        C  103 1.419    N  105 1.349    H  109 0.915
   105  N   3.538        C  106 1.358    C  104 1.349    Pd   1 0.592
   106  C   3.952        N  105 1.358    C  101 1.356    H  110 0.901
   107  H   0.990        C  102 0.964
   108  H   0.990        C  103 0.961
   109  H   0.984        C  104 0.915
   110  H   0.980        C  106 0.901
   111  C   3.988        C  116 1.364    C  112 1.349    C   99 1.128
   112  C   3.969        C  113 1.450    C  111 1.349    H  117 0.969
   113  C   3.990        C  112 1.450    C  114 1.442    H  118 0.968    C  116 0.101
   114  C   3.954        C  113 1.442    C  115 1.372    H  119 0.966
   115  C   3.984        C  116 1.402    C  114 1.372    C  121 1.051
   116  C   3.969        C  115 1.402    C  111 1.364    H  120 0.961    C  113 0.101
   117  H   0.996        C  112 0.969
   118  H   0.996        C  113 0.968
   119  H   0.997        C  114 0.966
   120  H   0.992        C  116 0.961
   121  C   3.983        C  126 1.387    C  122 1.370    C  115 1.051
   122  C   3.978        C  123 1.446    C  121 1.370    H  127 0.961
   123  C   3.980        C  122 1.446    C  124 1.431    H  128 0.960
   124  C   3.964        C  123 1.431    N  125 1.345    H  129 0.909
   125  N   3.531        C  126 1.356    C  124 1.345    Pd   2 0.591
   126  C   3.964        C  121 1.387    N  125 1.356    H  130 0.910
   127  H   0.991        C  122 0.961
   128  H   0.989        C  123 0.960
   129  H   0.982        C  124 0.909
   130  H   0.980        C  126 0.910

molecular dipole:
                 x           y           z       tot (Debye)
 q only:       -0.382       8.372       1.340
   full:       -0.381       8.361       1.339      21.545
molecular quadrupole (traceless):
                xx          xy          yy          xz          yz          zz
 q only:     -126.161      -4.084     251.637       0.223       8.574    -125.476
  q+dip:     -136.842      -4.353     273.062       0.365       8.977    -136.221
   full:     -126.475      -4.090     252.301       0.275       8.587    -125.826

           -------------------------------------------------
          |               Frequency Printout                |
           -------------------------------------------------
 projected vibrational frequencies (cm-1)
eigval :       -0.00    -0.00    -0.00    -0.00     0.00     0.00
eigval :       11.41    11.63    12.65    12.79    27.46    27.67
eigval :       27.72    30.17    31.36    31.40    32.21    39.73
eigval :       46.14    46.28    49.25    50.44    62.83    62.94
eigval :       64.62    70.83    76.10    76.23    79.45    84.55
eigval :       86.15    90.11    90.26    97.64   108.35   123.92
eigval :      124.19   127.83   127.84   133.39   135.24   135.59
eigval :      136.71   140.22   142.17   152.55   152.64   154.74
eigval :      173.36   173.71   178.88   179.15   179.67   182.69
eigval :      186.63   198.06   218.94   230.85   230.87   231.86
eigval :      251.54   252.06   252.10   258.14   260.50   260.57
eigval :      263.26   264.44   268.36   268.47   275.34   278.97
eigval :      279.02   279.07   316.30   316.31   318.34   320.43
eigval :      336.49   338.07   338.46   339.25   344.07   344.15
eigval :      347.04   347.23   369.13   376.20   389.43   392.34
eigval :      400.02   400.09   401.92   401.99   425.48   425.57
eigval :      426.37   426.90   453.58   453.78   456.29   458.16
eigval :      468.58   470.77   472.35   472.45   503.36   514.22
eigval :      514.47   516.72   516.84   518.81   523.02   523.03
eigval :      524.83   525.83   525.89   525.95   589.74   591.59
eigval :      593.90   593.90   599.60   600.10   600.11   600.30
eigval :      617.84   618.42   622.17   623.90   626.90   626.92
eigval :      627.78   627.81   658.03   658.87   659.31   659.31
eigval :      660.57   670.69   670.79   672.96   676.17   679.13
eigval :      679.16   679.43   694.03   696.54   698.10   698.13
eigval :      768.85   774.50   774.54   774.83   776.15   778.94
eigval :      779.00   782.97   790.68   794.57   796.91   796.92
eigval :      802.97   803.83   803.88   804.21   835.40   850.47
eigval :      850.61   856.99   859.21   859.28   860.96   863.58
eigval :      870.00   870.41   870.56   871.52   890.35   894.27
eigval :      894.34   898.03   898.37   898.52   898.53   899.59
eigval :      905.75   905.80   905.80   905.95   911.09   913.87
eigval :      916.71   916.72   932.02   932.17   932.58   932.86
eigval :      935.30   935.41   935.64   935.87   939.52   939.68
eigval :      939.84   939.89   982.89   984.94   985.93   985.94
eigval :      994.68   998.89   999.39   999.41  1002.12  1005.65
eigval :     1005.71  1009.05  1081.35  1082.13  1082.18  1083.59
eigval :     1087.26  1088.76  1088.78  1091.78  1092.44  1092.47
eigval :     1092.73  1093.12  1116.24  1117.90  1117.92  1120.44
eigval :     1124.62  1125.13  1125.16  1125.79  1133.63  1134.52
eigval :     1134.63  1136.78  1154.72  1157.19  1157.22  1158.56
eigval :     1166.63  1168.60  1168.64  1173.94  1173.96  1176.16
eigval :     1176.17  1180.46  1191.75  1191.95  1191.99  1192.25
eigval :     1224.81  1230.29  1230.38  1233.83  1236.64  1236.71
eigval :     1239.53  1244.02  1245.91  1246.77  1246.80  1248.82
eigval :     1270.50  1270.71  1271.00  1271.02  1294.04  1294.11
eigval :     1294.77  1294.80  1296.09  1296.73  1297.12  1297.95
eigval :     1314.08  1314.11  1314.16  1314.19  1321.24  1321.28
eigval :     1321.30  1322.42  1370.72  1370.74  1372.53  1374.66
eigval :     1379.35  1379.74  1379.80  1380.22  1401.95  1401.96
eigval :     1402.44  1402.85  1422.11  1422.68  1422.74  1422.77
eigval :     1450.13  1450.13  1450.59  1450.64  1470.54  1470.55
eigval :     1471.14  1471.32  1525.58  1527.61  1529.12  1529.25
eigval :     1536.42  1538.10  1538.76  1538.78  1546.04  1546.11
eigval :     1546.52  1546.86  1548.84  1549.99  1550.18  1550.20
eigval :     1559.38  1559.38  1559.47  1559.58  1576.43  1576.51
eigval :     1576.56  1576.59  2313.50  2313.96  2314.18  2314.60
eigval :     2961.14  2962.92  2963.08  2969.80  2989.00  2989.08
eigval :     2989.81  2992.22  3001.67  3002.00  3002.68  3003.61
eigval :     3007.63  3008.97  3009.21  3013.00  3090.33  3090.62
eigval :     3090.92  3091.14  3102.03  3102.15  3102.30  3102.32
eigval :     3106.83  3107.00  3107.44  3107.53  3107.61  3107.63
eigval :     3108.01  3108.06  3108.27  3108.68  3108.74  3109.05
eigval :     3109.66  3109.81  3110.19  3110.34  3118.54  3118.61
eigval :     3118.93  3119.10  3119.22  3119.57  3119.69  3120.05
 reduced masses (amu)
   1: 26.68   2: 16.68   3: 27.38   4: 23.86   5: 27.84   6: 25.53   7: 11.26   8: 11.38
   9: 17.17  10: 17.16  11: 13.36  12: 13.09  13: 10.90  14: 18.81  15: 21.19  16: 21.42
  17: 30.85  18: 11.26  19: 12.70  20: 12.66  21: 13.10  22: 10.79  23: 13.60  24: 13.64
  25: 10.70  26: 14.42  27: 14.95  28: 14.89  29: 32.18  30: 11.13  31: 16.53  32: 11.08
  33: 11.08  34: 10.82  35: 15.06  36: 11.78  37: 25.21  38: 11.82  39: 11.82  40: 11.94
  41: 10.75  42: 10.76  43: 12.73  44: 10.61  45: 11.46  46: 12.20  47: 12.17  48: 12.66
  49: 14.99  50: 15.00  51: 15.14  52: 15.10  53: 11.11  54: 11.19  55: 11.03  56: 10.84
  57: 27.86  58: 18.17  59: 18.19  60: 37.08  61: 11.49  62: 13.33  63: 13.31  64: 10.23
  65: 45.88  66: 46.20  67: 17.70  68: 23.06  69: 44.22  70: 44.05  71: 10.69  72: 35.05
  73: 36.61  74: 35.42  75: 13.91  76: 13.92  77: 11.31  78: 13.27  79: 11.01  80: 11.01
  81: 10.98  82: 10.86  83: 11.04  84: 11.05  85: 11.95  86: 10.23  87:  9.88  88: 10.03
  89: 10.04  90: 10.02  91: 13.60  92: 13.61  93: 14.15  94: 14.14  95: 10.60  96: 10.60
  97: 10.75  98: 10.31  99: 11.53 100: 11.53 101: 11.45 102: 11.94 103: 11.17 104: 11.16
 105: 11.57 106: 11.58 107: 10.98 108: 11.04 109: 11.15 110: 11.50 111: 11.51 112: 11.03
 113: 12.05 114: 12.05 115: 11.60 116: 11.62 117: 11.90 118: 11.91 119: 11.27 120: 11.31
 121: 11.46 122: 11.46 123: 11.44 124: 11.45 125: 11.45 126: 11.44 127: 11.83 128: 11.84
 129: 11.83 130: 11.83 131: 12.75 132: 12.75 133: 12.77 134: 12.77 135:  9.42 136:  9.38
 137:  9.44 138:  9.44 139:  8.81 140:  9.52 141:  9.52 142:  9.81 143:  8.67 144:  8.95
 145:  8.95 146:  9.06 147: 11.37 148: 11.50 149: 11.80 150: 11.80 151:  5.06 152:  4.61
 153:  4.60 154:  4.78 155:  4.39 156:  4.93 157:  4.92 158:  4.63 159: 11.36 160: 11.44
 161: 11.29 162: 11.29 163:  5.29 164:  5.66 165:  5.72 166:  5.22 167:  4.02 168:  3.87
 169:  3.87 170:  3.88 171:  3.84 172:  3.83 173:  3.79 174:  3.72 175:  3.76 176:  3.76
 177:  3.76 178:  3.79 179:  3.91 180:  3.84 181:  3.84 182:  3.78 183:  3.73 184:  3.77
 185:  3.77 186:  3.77 187:  3.97 188:  3.97 189:  3.96 190:  3.99 191: 11.39 192: 11.43
 193: 11.49 194: 11.49 195:  3.82 196:  3.83 197:  3.82 198:  3.82 199:  3.67 200:  3.70
 201:  3.69 202:  3.70 203:  3.75 204:  3.77 205:  3.75 206:  3.74 207: 11.20 208: 11.19
 209: 11.22 210: 11.22 211: 10.87 212: 10.87 213: 10.99 214: 10.99 215: 10.50 216: 10.69
 217: 10.69 218: 10.67 219:  6.31 220:  6.00 221:  6.01 222:  6.63 223:  6.34 224:  6.45
 225:  6.45 226:  7.73 227:  8.17 228:  8.16 229:  7.35 230:  6.97 231:  3.81 232:  3.82
 233:  3.82 234:  3.80 235:  3.67 236:  3.69 237:  3.69 238:  3.73 239:  4.40 240:  4.39
 241:  4.39 242:  4.32 243:  6.91 244:  7.48 245:  7.47 246:  7.61 247:  2.58 248:  2.13
 249:  2.11 250:  2.10 251:  2.08 252:  2.16 253:  2.16 254:  2.15 255:  1.91 256:  1.91
 257:  1.92 258:  1.90 259:  3.20 260:  3.15 261:  3.14 262:  3.07 263:  3.04 264:  3.04
 265:  3.68 266:  3.03 267:  4.55 268:  4.41 269:  4.42 270:  3.84 271:  7.28 272:  7.34
 273:  7.39 274:  7.38 275: 12.25 276: 12.25 277: 12.24 278: 12.23 279: 12.26 280: 12.23
 281: 12.16 282: 12.20 283: 11.78 284: 11.77 285: 11.78 286: 11.78 287:  9.19 288:  9.18
 289:  9.23 290:  9.18 291: 10.12 292: 10.11 293: 10.16 294: 10.01 295: 10.18 296: 10.23
 297: 10.23 298: 10.00 299:  9.56 300:  9.56 301:  9.60 302:  9.58 303:  9.42 304:  9.35
 305:  9.41 306:  9.41 307: 10.69 308: 10.69 309: 10.68 310: 10.72 311: 10.41 312: 10.41
 313: 10.44 314: 10.46 315: 11.56 316: 11.61 317: 11.61 318: 11.61 319: 11.55 320: 11.58
 321: 11.58 322: 11.58 323: 11.71 324: 11.71 325: 11.74 326: 11.76 327: 11.66 328: 11.66
 329: 11.64 330: 11.64 331: 11.51 332: 11.51 333: 11.52 334: 11.53 335: 11.57 336: 11.57
 337: 11.58 338: 11.57 339: 12.01 340: 12.01 341: 12.01 342: 12.01 343:  1.86 344:  1.85
 345:  1.85 346:  1.84 347:  1.86 348:  1.86 349:  1.86 350:  1.85 351:  1.85 352:  1.85
 353:  1.85 354:  1.84 355:  1.86 356:  1.85 357:  1.85 358:  1.85 359:  1.78 360:  1.78
 361:  1.78 362:  1.78 363:  1.84 364:  1.84 365:  1.84 366:  1.84 367:  1.82 368:  1.84
 369:  1.86 370:  1.87 371:  1.88 372:  1.82 373:  1.82 374:  1.82 375:  1.87 376:  1.85
 377:  1.86 378:  1.83 379:  1.83 380:  1.83 381:  1.83 382:  1.83 383:  1.90 384:  1.89
 385:  1.90 386:  1.90 387:  1.90 388:  1.90 389:  1.90 390:  1.90
 IR intensities (amu)
   1:  0.74   2:  0.25   3:  0.76   4:  0.39   5:  0.37   6:  0.25   7:  0.05   8:  0.08
   9:  0.51  10:  0.51  11:  0.13  12:  0.13  13:  0.01  14:  0.06  15:  0.06  16:  0.06
  17:  0.01  18:  0.00  19:  0.09  20:  0.09  21:  0.08  22:  0.00  23:  0.12  24:  0.12
  25:  0.01  26:  0.03  27:  0.34  28:  0.33  29:  0.01  30:  0.00  31:  0.06  32:  0.14
  33:  0.14  34:  0.00  35:  0.04  36:  0.02  37:  0.08  38:  0.11  39:  0.11  40:  0.04
  41:  0.14  42:  0.14  43:  0.13  44:  0.01  45:  0.00  46:  0.18  47:  0.18  48:  0.06
  49:  0.67  50:  0.67  51:  0.32  52:  0.32  53:  0.00  54:  0.02  55:  0.00  56:  0.00
  57:  0.15  58:  0.36  59:  0.36  60:  0.13  61:  0.00  62:  0.07  63:  0.08  64:  0.01
  65:  0.61  66:  0.62  67:  0.20  68:  0.02  69:  1.20  70:  1.19  71:  0.01  72:  0.53
  73:  0.80  74:  0.64  75:  0.33  76:  0.33  77:  0.00  78:  0.10  79:  0.17  80:  0.11
  81:  0.11  82:  0.03  83:  0.23  84:  0.24  85:  0.03  86:  0.01  87:  0.01  88:  0.09
  89:  0.01  90:  0.00  91:  0.32  92:  0.31  93:  0.25  94:  0.25  95:  0.13  96:  0.13
  97:  0.10  98:  0.01  99:  0.10 100:  0.10 101:  0.01 102:  0.16 103:  0.05 104:  0.01
 105:  0.13 106:  0.12 107:  0.03 108:  0.06 109:  0.01 110:  0.12 111:  0.12 112:  0.01
 113:  0.09 114:  0.09 115:  0.01 116:  0.49 117:  0.12 118:  0.07 119:  0.04 120:  0.01
 121:  0.12 122:  0.12 123:  0.01 124:  0.18 125:  0.19 126:  0.24 127:  0.00 128:  0.00
 129:  0.18 130:  0.20 131:  0.30 132:  0.30 133:  0.50 134:  0.50 135:  0.05 136:  0.01
 137:  0.11 138:  0.11 139:  0.01 140:  0.22 141:  0.22 142:  0.00 143:  0.21 144:  0.25
 145:  0.25 146:  0.05 147:  0.00 148:  0.10 149:  0.50 150:  0.50 151:  0.04 152:  0.14
 153:  0.14 154:  0.08 155:  0.00 156:  0.46 157:  0.46 158:  0.00 159:  0.00 160:  0.24
 161:  0.01 162:  0.01 163:  0.11 164:  0.10 165:  0.11 166:  0.04 167:  0.01 168:  0.06
 169:  0.06 170:  0.11 171:  0.09 172:  0.09 173:  0.01 174:  0.00 175:  0.05 176:  0.11
 177:  0.10 178:  0.08 179:  0.02 180:  0.03 181:  0.03 182:  0.09 183:  0.00 184:  0.02
 185:  0.03 186:  0.00 187:  0.09 188:  0.08 189:  0.10 190:  0.01 191:  0.00 192:  0.06
 193:  0.67 194:  0.67 195:  0.03 196:  0.03 197:  0.03 198:  0.03 199:  0.06 200:  0.06
 201:  0.06 202:  0.06 203:  0.06 204:  0.06 205:  0.06 206:  0.06 207:  0.00 208:  0.12
 209:  0.26 210:  0.27 211:  0.00 212:  0.37 213:  0.21 214:  0.21 215:  0.00 216:  0.17
 217:  0.17 218:  0.17 219:  0.01 220:  0.11 221:  0.11 222:  0.23 223:  0.02 224:  0.49
 225:  0.49 226:  0.03 227:  0.61 228:  0.61 229:  0.55 230:  0.20 231:  0.03 232:  0.42
 233:  0.43 234:  0.09 235:  0.03 236:  0.34 237:  0.34 238:  0.03 239:  0.01 240:  0.04
 241:  0.04 242:  0.17 243:  0.01 244:  0.50 245:  0.50 246:  1.27 247:  0.01 248:  0.11
 249:  0.11 250:  0.17 251:  0.07 252:  0.25 253:  0.25 254:  0.28 255:  0.05 256:  0.15
 257:  0.14 258:  0.13 259:  0.00 260:  0.25 261:  0.25 262:  0.00 263:  0.02 264:  0.02
 265:  0.16 266:  0.07 267:  0.04 268:  0.51 269:  0.51 270:  0.02 271:  0.04 272:  0.07
 273:  0.90 274:  0.90 275:  0.17 276:  0.16 277:  0.35 278:  0.34 279:  0.01 280:  0.03
 281:  0.43 282:  0.13 283:  0.07 284:  0.12 285:  0.09 286:  0.15 287:  0.07 288:  0.07
 289:  0.03 290:  0.01 291:  0.45 292:  0.45 293:  0.00 294:  0.33 295:  0.03 296:  0.21
 297:  0.21 298:  0.55 299:  0.28 300:  0.28 301:  0.01 302:  0.83 303:  0.01 304:  0.52
 305:  0.18 306:  0.20 307:  0.19 308:  0.18 309:  1.95 310:  0.04 311:  0.27 312:  0.27
 313:  0.02 314:  0.03 315:  0.15 316:  0.03 317:  0.67 318:  0.67 319:  0.56 320:  0.04
 321:  0.68 322:  0.68 323:  0.14 324:  0.21 325:  2.55 326:  0.30 327:  0.45 328:  0.05
 329:  0.33 330:  0.32 331:  0.16 332:  0.15 333:  0.44 334:  0.02 335:  0.19 336:  0.18
 337:  0.20 338:  0.21 339:  1.31 340:  0.77 341:  1.10 342:  3.61 343:  0.00 344:  0.03
 345:  0.03 346:  0.13 347:  0.05 348:  0.05 349:  0.07 350:  0.12 351:  0.05 352:  0.05
 353:  0.02 354:  0.16 355:  0.01 356:  0.02 357:  0.02 358:  0.12 359:  0.16 360:  0.16
 361:  0.15 362:  0.15 363:  0.14 364:  0.15 365:  0.13 366:  0.19 367:  0.01 368:  0.17
 369:  0.22 370:  0.11 371:  0.37 372:  0.11 373:  0.07 374:  0.03 375:  0.30 376:  0.30
 377:  0.28 378:  0.20 379:  0.03 380:  0.03 381:  0.02 382:  0.02 383:  0.01 384:  0.03
 385:  0.01 386:  0.03 387:  0.03 388:  0.01 389:  0.03 390:  0.01
 Raman intensities (amu)
   1:  0.00   2:  0.00   3:  0.00   4:  0.00   5:  0.00   6:  0.00   7:  0.00   8:  0.00
   9:  0.00  10:  0.00  11:  0.00  12:  0.00  13:  0.00  14:  0.00  15:  0.00  16:  0.00
  17:  0.00  18:  0.00  19:  0.00  20:  0.00  21:  0.00  22:  0.00  23:  0.00  24:  0.00
  25:  0.00  26:  0.00  27:  0.00  28:  0.00  29:  0.00  30:  0.00  31:  0.00  32:  0.00
  33:  0.00  34:  0.00  35:  0.00  36:  0.00  37:  0.00  38:  0.00  39:  0.00  40:  0.00
  41:  0.00  42:  0.00  43:  0.00  44:  0.00  45:  0.00  46:  0.00  47:  0.00  48:  0.00
  49:  0.00  50:  0.00  51:  0.00  52:  0.00  53:  0.00  54:  0.00  55:  0.00  56:  0.00
  57:  0.00  58:  0.00  59:  0.00  60:  0.00  61:  0.00  62:  0.00  63:  0.00  64:  0.00
  65:  0.00  66:  0.00  67:  0.00  68:  0.00  69:  0.00  70:  0.00  71:  0.00  72:  0.00
  73:  0.00  74:  0.00  75:  0.00  76:  0.00  77:  0.00  78:  0.00  79:  0.00  80:  0.00
  81:  0.00  82:  0.00  83:  0.00  84:  0.00  85:  0.00  86:  0.00  87:  0.00  88:  0.00
  89:  0.00  90:  0.00  91:  0.00  92:  0.00  93:  0.00  94:  0.00  95:  0.00  96:  0.00
  97:  0.00  98:  0.00  99:  0.00 100:  0.00 101:  0.00 102:  0.00 103:  0.00 104:  0.00
 105:  0.00 106:  0.00 107:  0.00 108:  0.00 109:  0.00 110:  0.00 111:  0.00 112:  0.00
 113:  0.00 114:  0.00 115:  0.00 116:  0.00 117:  0.00 118:  0.00 119:  0.00 120:  0.00
 121:  0.00 122:  0.00 123:  0.00 124:  0.00 125:  0.00 126:  0.00 127:  0.00 128:  0.00
 129:  0.00 130:  0.00 131:  0.00 132:  0.00 133:  0.00 134:  0.00 135:  0.00 136:  0.00
 137:  0.00 138:  0.00 139:  0.00 140:  0.00 141:  0.00 142:  0.00 143:  0.00 144:  0.00
 145:  0.00 146:  0.00 147:  0.00 148:  0.00 149:  0.00 150:  0.00 151:  0.00 152:  0.00
 153:  0.00 154:  0.00 155:  0.00 156:  0.00 157:  0.00 158:  0.00 159:  0.00 160:  0.00
 161:  0.00 162:  0.00 163:  0.00 164:  0.00 165:  0.00 166:  0.00 167:  0.00 168:  0.00
 169:  0.00 170:  0.00 171:  0.00 172:  0.00 173:  0.00 174:  0.00 175:  0.00 176:  0.00
 177:  0.00 178:  0.00 179:  0.00 180:  0.00 181:  0.00 182:  0.00 183:  0.00 184:  0.00
 185:  0.00 186:  0.00 187:  0.00 188:  0.00 189:  0.00 190:  0.00 191:  0.00 192:  0.00
 193:  0.00 194:  0.00 195:  0.00 196:  0.00 197:  0.00 198:  0.00 199:  0.00 200:  0.00
 201:  0.00 202:  0.00 203:  0.00 204:  0.00 205:  0.00 206:  0.00 207:  0.00 208:  0.00
 209:  0.00 210:  0.00 211:  0.00 212:  0.00 213:  0.00 214:  0.00 215:  0.00 216:  0.00
 217:  0.00 218:  0.00 219:  0.00 220:  0.00 221:  0.00 222:  0.00 223:  0.00 224:  0.00
 225:  0.00 226:  0.00 227:  0.00 228:  0.00 229:  0.00 230:  0.00 231:  0.00 232:  0.00
 233:  0.00 234:  0.00 235:  0.00 236:  0.00 237:  0.00 238:  0.00 239:  0.00 240:  0.00
 241:  0.00 242:  0.00 243:  0.00 244:  0.00 245:  0.00 246:  0.00 247:  0.00 248:  0.00
 249:  0.00 250:  0.00 251:  0.00 252:  0.00 253:  0.00 254:  0.00 255:  0.00 256:  0.00
 257:  0.00 258:  0.00 259:  0.00 260:  0.00 261:  0.00 262:  0.00 263:  0.00 264:  0.00
 265:  0.00 266:  0.00 267:  0.00 268:  0.00 269:  0.00 270:  0.00 271:  0.00 272:  0.00
 273:  0.00 274:  0.00 275:  0.00 276:  0.00 277:  0.00 278:  0.00 279:  0.00 280:  0.00
 281:  0.00 282:  0.00 283:  0.00 284:  0.00 285:  0.00 286:  0.00 287:  0.00 288:  0.00
 289:  0.00 290:  0.00 291:  0.00 292:  0.00 293:  0.00 294:  0.00 295:  0.00 296:  0.00
 297:  0.00 298:  0.00 299:  0.00 300:  0.00 301:  0.00 302:  0.00 303:  0.00 304:  0.00
 305:  0.00 306:  0.00 307:  0.00 308:  0.00 309:  0.00 310:  0.00 311:  0.00 312:  0.00
 313:  0.00 314:  0.00 315:  0.00 316:  0.00 317:  0.00 318:  0.00 319:  0.00 320:  0.00
 321:  0.00 322:  0.00 323:  0.00 324:  0.00 325:  0.00 326:  0.00 327:  0.00 328:  0.00
 329:  0.00 330:  0.00 331:  0.00 332:  0.00 333:  0.00 334:  0.00 335:  0.00 336:  0.00
 337:  0.00 338:  0.00 339:  0.00 340:  0.00 341:  0.00 342:  0.00 343:  0.00 344:  0.00
 345:  0.00 346:  0.00 347:  0.00 348:  0.00 349:  0.00 350:  0.00 351:  0.00 352:  0.00
 353:  0.00 354:  0.00 355:  0.00 356:  0.00 357:  0.00 358:  0.00 359:  0.00 360:  0.00
 361:  0.00 362:  0.00 363:  0.00 364:  0.00 365:  0.00 366:  0.00 367:  0.00 368:  0.00
 369:  0.00 370:  0.00 371:  0.00 372:  0.00 373:  0.00 374:  0.00 375:  0.00 376:  0.00
 377:  0.00 378:  0.00 379:  0.00 380:  0.00 381:  0.00 382:  0.00 383:  0.00 384:  0.00
 385:  0.00 386:  0.00 387:  0.00 388:  0.00 389:  0.00 390:  0.00
 output can be read by thermo (or use thermo option).
 writing <g98.out> molden fake output.
 recommended (thermochemical) frequency scaling factor: 1.0
           -------------------------------------------------
          |             Thermodynamic Functions             |
           -------------------------------------------------

Refinement of some symmetry elements was terminated before convergence was reached.
Some symmetry elements may remain unidentified.
Molecule has the following symmetry elements: (C4) (C2) 
It seems to be the C4 point group
c4  symmetry found (for desy threshold:  0.10E+00) used in thermo

          ...................................................
          :                      SETUP                      :
          :.................................................:
          :  # frequencies                         384      :
          :  # imaginary freq.                       0      :
          :  linear?                             false      :
          :  only rotor calc.                    false      :
          :  symmetry                               c4      :
          :  rotational number                       4      :
          :  scaling factor                  1.0000000      :
          :  rotor cutoff                   50.0000000 cm⁻¹ :
          :  imag. cutoff                  -20.0000000 cm⁻¹ :
          :.................................................:

    mode    ω/cm⁻¹     T·S(HO)/kcal·mol⁻¹    T·S(FR)/kcal·mol⁻¹   T·S(vib)
   ------------------------------------------------------------------------
       1     11.41    -2.31061 (  0.27%)    -1.49437 ( 99.73%)    -1.49657
       2     11.63    -2.29923 (  0.29%)    -1.48868 ( 99.71%)    -1.49104
       3     12.65    -2.24931 (  0.41%)    -1.46371 ( 99.59%)    -1.46692
       4     12.79    -2.24255 (  0.43%)    -1.46033 ( 99.57%)    -1.46367
       5     27.46    -1.79047 (  8.33%)    -1.23413 ( 91.67%)    -1.28049
       6     27.67    -1.78581 (  8.58%)    -1.23179 ( 91.42%)    -1.27932
       7     27.72    -1.78480 (  8.63%)    -1.23129 ( 91.37%)    -1.27906
       8     30.17    -1.73479 ( 11.70%)    -1.20624 ( 88.30%)    -1.26807
       9     31.36    -1.71183 ( 13.40%)    -1.19474 ( 86.60%)    -1.26403
      10     31.40    -1.71105 ( 13.46%)    -1.19435 ( 86.54%)    -1.26391
      11     32.21    -1.69603 ( 14.69%)    -1.18683 ( 85.31%)    -1.26163
      12     39.73    -1.57197 ( 28.51%)    -1.12465 ( 71.49%)    -1.25216
      13     46.14    -1.48372 ( 42.03%)    -1.08036 ( 57.97%)    -1.24989
      14     46.28    -1.48188 ( 42.33%)    -1.07944 ( 57.67%)    -1.24981
      15     49.25    -1.44524 ( 48.48%)    -1.06104 ( 51.52%)    -1.24732
      16     50.44    -1.43112 ( 50.88%)    -1.05394 ( 49.12%)    -1.24585
      17     62.83    -1.30184 ( 71.37%)    -0.98890 ( 28.63%)    -1.21224
      18     62.94    -1.30073 ( 71.52%)    -0.98834 ( 28.48%)    -1.21177
      19     64.62    -1.28529 ( 73.61%)    -0.98056 ( 26.39%)    -1.20488
      20     70.83    -1.23136 ( 80.11%)    -0.95336 ( 19.89%)    -1.17607
      21     76.10    -1.18936 ( 84.29%)    -0.93213 ( 15.71%)    -1.14894
      22     76.23    -1.18832 ( 84.38%)    -0.93161 ( 15.62%)    -1.14823
      23     79.45    -1.16411 ( 86.44%)    -0.91936 ( 13.56%)    -1.13093
      24     84.55    -1.12769 ( 89.10%)    -0.90092 ( 10.90%)    -1.10299
      25     86.15    -1.11679 ( 89.81%)    -0.89539 ( 10.19%)    -1.09422
      26     90.11    -1.09056 ( 91.34%)    -0.88207 (  8.66%)    -1.07250
      27     90.26    -1.08958 ( 91.39%)    -0.88157 (  8.61%)    -1.07168
      28     97.64    -1.04380 ( 93.57%)    -0.85829 (  6.43%)    -1.03187
      29    108.35    -0.98339 ( 95.66%)    -0.82746 (  4.34%)    -0.97662
      30    123.92    -0.90585 ( 97.42%)    -0.78766 (  2.58%)    -0.90280
      31    124.19    -0.90462 ( 97.44%)    -0.78703 (  2.56%)    -0.90161
      32    127.83    -0.88800 ( 97.71%)    -0.77847 (  2.29%)    -0.88550
      33    127.84    -0.88797 ( 97.71%)    -0.77845 (  2.29%)    -0.88547
      34    133.39    -0.86362 ( 98.06%)    -0.76586 (  1.94%)    -0.86172
      35    135.24    -0.85573 ( 98.17%)    -0.76178 (  1.83%)    -0.85401
      36    135.59    -0.85423 ( 98.18%)    -0.76100 (  1.82%)    -0.85254
      37    136.71    -0.84955 ( 98.24%)    -0.75858 (  1.76%)    -0.84795
      38    140.22    -0.83508 ( 98.41%)    -0.75107 (  1.59%)    -0.83375
      39    142.17    -0.82722 ( 98.49%)    -0.74698 (  1.51%)    -0.82601
      40    152.55    -0.78715 ( 98.86%)    -0.72609 (  1.14%)    -0.78646
      41    152.64    -0.78685 ( 98.86%)    -0.72593 (  1.14%)    -0.78616
      42    154.74    -0.77911 ( 98.92%)    -0.72189 (  1.08%)    -0.77850
      43    173.36    -0.71518 ( 99.31%)    -0.68821 (  0.69%)    -0.71499
      44    173.71    -0.71405 ( 99.32%)    -0.68762 (  0.68%)    -0.71387
      45    178.88    -0.69769 ( 99.39%)    -0.67893 (  0.61%)    -0.69758
      46    179.15    -0.69684 ( 99.40%)    -0.67848 (  0.60%)    -0.69673
      47    179.67    -0.69523 ( 99.40%)    -0.67762 (  0.60%)    -0.69513
      48    182.69    -0.68597 ( 99.44%)    -0.67269 (  0.56%)    -0.68590
      49    186.63    -0.67414 ( 99.49%)    -0.66637 (  0.51%)    -0.67410
      50    198.06    -0.64133 ( 99.60%)    -0.64876 (  0.40%)    -0.64136
      51    218.94    -0.58672 ( 99.73%)    -0.61907 (  0.27%)    -0.58680
      52    230.85    -0.55824 ( 99.78%)    -0.60338 (  0.22%)    -0.55834
      53    230.87    -0.55820 ( 99.78%)    -0.60336 (  0.22%)    -0.55830
      54    231.86    -0.55589 ( 99.78%)    -0.60208 (  0.22%)    -0.55599
      55    251.54    -0.51275 ( 99.84%)    -0.57795 (  0.16%)    -0.51285
      56    252.06    -0.51166 ( 99.85%)    -0.57733 (  0.15%)    -0.51176
      57    252.10    -0.51157 ( 99.85%)    -0.57729 (  0.15%)    -0.51168
      58    258.14    -0.49920 ( 99.86%)    -0.57027 (  0.14%)    -0.49930
      59    260.50    -0.49445 ( 99.86%)    -0.56758 (  0.14%)    -0.49455
      60    260.57    -0.49433 ( 99.86%)    -0.56750 (  0.14%)    -0.49442
      61    263.26    -0.48898 ( 99.87%)    -0.56446 (  0.13%)    -0.48908
      62    264.44    -0.48666 ( 99.87%)    -0.56313 (  0.13%)    -0.48676
      63    268.36    -0.47904 ( 99.88%)    -0.55877 (  0.12%)    -0.47914
      64    268.47    -0.47883 ( 99.88%)    -0.55865 (  0.12%)    -0.47893
      65    275.34    -0.46584 ( 99.89%)    -0.55116 (  0.11%)    -0.46593
      66    278.97    -0.45914 ( 99.90%)    -0.54728 (  0.10%)    -0.45923
      67    279.02    -0.45905 ( 99.90%)    -0.54723 (  0.10%)    -0.45914
      68    279.07    -0.45896 ( 99.90%)    -0.54718 (  0.10%)    -0.45905
   ------------------------------------------------------------------------

   temp. (K)  partition function   enthalpy   heat capacity  entropy
                                   cal/mol     cal/K/mol   cal/K/mol   J/K/mol
 298.15  VIB  0.551E+34            43137.399    275.364    271.504
         ROT  0.868E+08              888.752      2.981     39.306
         INT  0.478E+42            44026.151    278.345    310.810
         TR   0.421E+29             1481.254      4.968     47.197
         TOT                       45507.4048   283.3128   358.0069  1497.9008

       T/K    H(0)-H(T)+PV         H(T)/Eh          T*S/Eh         G(T)/Eh
   ------------------------------------------------------------------------
    298.15    0.725207E-01    0.103684E+01    0.170101E+00    0.866744E+00
   ------------------------------------------------------------------------

         :::::::::::::::::::::::::::::::::::::::::::::::::::::
         ::                  THERMODYNAMIC                  ::
         :::::::::::::::::::::::::::::::::::::::::::::::::::::
         :: total free energy        -208.981694886950 Eh   ::
         ::.................................................::
         :: total energy             -209.848438442108 Eh   ::
         :: zero point energy           0.964323508062 Eh   ::
         :: G(RRHO) w/o ZPVE           -0.097579952904 Eh   ::
         :: G(RRHO) contrib.            0.866743555158 Eh   ::
         :::::::::::::::::::::::::::::::::::::::::::::::::::::

           -------------------------------------------------
          | TOTAL ENERGY             -209.848438442108 Eh   |
          | TOTAL ENTHALPY           -208.811594268387 Eh   |
          | TOTAL FREE ENERGY        -208.981694886950 Eh   |
          | GRADIENT NORM               0.000607608182 Eh/α |
          | HOMO-LUMO GAP               2.707623746590 eV   |
           -------------------------------------------------

------------------------------------------------------------------------
 * finished run on 2021/06/21 at 20:33:41.978     
------------------------------------------------------------------------
 total:
 * wall-time:     0 d,  0 h,  6 min, 38.374 sec
 *  cpu-time:     0 d,  0 h, 24 min, 48.470 sec
 * ratio c/w:     3.736 speedup
 SCF:
 * wall-time:     0 d,  0 h,  0 min,  1.533 sec
 *  cpu-time:     0 d,  0 h,  0 min,  5.412 sec
 * ratio c/w:     3.530 speedup
 numerical hessian:
 * wall-time:     0 d,  0 h,  6 min, 35.518 sec
 *  cpu-time:     0 d,  0 h, 24 min, 41.660 sec
 * ratio c/w:     3.746 speedup

