 Entering Gaussian System
 *********************************************
 Gaussian 98:
 frequency output generated by the xtb code
 *********************************************
                         Standard orientation:
 --------------------------------------------------------------------
  Center     Atomic     Atomic              Coordinates (Angstroms)
  Number     Number      Type              X           Y           Z
 --------------------------------------------------------------------
    1         46             0       -0.092967    6.230801    0.242289
    2         46             0       -0.015617   -3.365800    0.123806
    3          6             0        4.878714    2.474775    0.254179
    4          6             0        4.451520    3.603477    0.314178
    5          6             0        3.877827    4.889480    0.355478
    6          6             0        4.644933    6.061176    0.406273
    7          6             0        3.998140    7.284580    0.424973
    8          6             0        2.611840    7.324687    0.388278
    9          7             0        1.886034    6.205791    0.340183
   10          6             0        2.487527    5.017288    0.327283
   11          1             0        5.721933    6.001871    0.429670
   12          1             0        4.561745    8.202677    0.464670
   13          1             0        2.063145    8.262190    0.396578
   14          1             0        1.848523    4.135091    0.288686
   15          6             0        5.359007    1.152872    0.141279
   16          6             0        6.659004    0.912365   -0.310025
   17          6             0        7.097696   -0.390238   -0.458924
   18          6             0        6.261492   -1.452133   -0.159219
   19          6             0        4.963195   -1.224725    0.304385
   20          6             0        4.516302    0.084377    0.451684
   21          1             0        7.309607    1.740161   -0.545729
   22          1             0        8.098494   -0.581844   -0.814527
   23          1             0        6.614686   -2.460035   -0.311119
   24          1             0        3.531204    0.291183    0.838887
   25          6             0        4.089790   -2.368220    0.614790
   26          6             0        4.605086   -3.538022    1.182590
   27          6             0        3.767981   -4.616117    1.415095
   28          6             0        2.427880   -4.509211    1.087199
   29          7             0        1.926784   -3.384009    0.568999
   30          6             0        2.724289   -2.340314    0.334595
   31          1             0        5.648686   -3.596027    1.449087
   32          1             0        4.150177   -5.527619    1.845295
   33          1             0        1.734176   -5.332607    1.242703
   34          1             0        2.250692   -1.469712   -0.112005
   35          6             0       -0.109170    2.373910    5.136096
   36          6             0       -0.166465    3.511309    4.732094
   37          6             0       -0.204960    4.808908    4.184892
   38          6             0       -0.249151    5.964710    4.975990
   39          6             0       -0.265147    7.201209    4.354388
   40          6             0       -0.231952    7.269506    2.969088
   41          7             0       -0.190160    6.165505    2.220390
   42          6             0       -0.180264    4.965006    2.797392
   43          1             0       -0.269648    5.883512    6.051591
   44          1             0       -0.299940    8.107710    4.936687
   45          1             0       -0.238348    8.218106    2.439786
   46          1             0       -0.147071    4.095905    2.140393
   47          6             0        0.000125    1.042010    5.588698
   48          6             0        0.455728    0.772810    6.881497
   49          6             0        0.600523   -0.539190    7.292699
   50          6             0        0.292514   -1.582390    6.436202
   51          6             0       -0.175189   -1.326190    5.144803
   52          6             0       -0.318484   -0.007590    4.725501
   53          1             0        0.697835    1.586010    7.547995
   54          1             0        0.959425   -0.752891    8.287898
   55          1             0        0.441310   -2.597990    6.768003
   56          1             0       -0.708886    0.221010    3.746502
   57          6             0       -0.494198   -2.449990    4.249206
   58          6             0       -1.066002   -3.627486    4.742210
   59          6             0       -1.306711   -4.686786    3.883713
   60          6             0       -0.982415   -4.553990    2.545111
   61          7             0       -0.459911   -3.421394    2.065608
   62          6             0       -0.218102   -2.395394    2.883705
   63          1             0       -1.329199   -3.705783    5.785411
   64          1             0       -1.740415   -5.603883    4.248416
   65          1             0       -1.144322   -5.362091    1.835113
   66          1             0        0.231201   -1.517297    2.426702
   67          6             0       -5.003287    2.395426    0.125213
   68          6             0       -4.593881    3.531924    0.095810
   69          6             0       -4.041074    4.827721    0.088706
   70          6             0       -4.827168    5.987625    0.065206
   71          6             0       -4.200562    7.221422    0.079202
   72          6             0       -2.815161    7.283315    0.120597
   73          7             0       -2.071167    6.175511    0.142596
   74          6             0       -2.653174    4.977414    0.124201
   75          1             0       -5.903069    5.911331    0.037210
   76          1             0       -4.778957    8.131025    0.061002
   77          1             0       -2.281956    8.229512    0.137094
   78          1             0       -1.999878    4.105111    0.142800
   79          6             0       -5.462994    1.063729    0.202517
   80          6             0       -6.761194    0.791637    0.640922
   81          6             0       -7.179900   -0.520961    0.754926
   82          6             0       -6.325607   -1.561766    0.433125
   83          6             0       -5.028907   -1.302574   -0.017980
   84          6             0       -4.602100    0.016624   -0.130384
   85          1             0       -7.425888    1.602940    0.893923
   86          1             0       -8.179300   -0.737155    1.100530
   87          1             0       -6.663612   -2.578564    0.558228
   88          1             0       -3.618700    0.248618   -0.507388
   89          6             0       -4.136114   -2.424079   -0.352381
   90          6             0       -4.630622   -3.587977   -0.950278
   91          6             0       -3.775529   -4.646782   -1.205179
   92          6             0       -2.438527   -4.526389   -0.869784
   93          7             0       -1.957219   -3.405990   -0.323087
   94          6             0       -2.772213   -2.381186   -0.066386
   95          1             0       -5.672123   -3.656172   -1.222274
   96          1             0       -4.141635   -5.553681   -1.658376
   97          1             0       -1.731232   -5.334693   -1.042385
   98          1             0       -2.314107   -1.514387    0.403111
   99          6             0       -0.008003    2.495992   -4.745004
  100          6             0        0.029204    3.623992   -4.313006
  101          6             0        0.044913    4.908193   -3.734009
  102          6             0        0.070116    6.083692   -4.496411
  103          6             0        0.064325    7.304593   -3.844613
  104          6             0        0.028830    7.338296   -2.458113
  105          7             0        0.005126    6.215697   -1.736811
  106          6             0        0.016218    5.029596   -2.343209
  107          1             0        0.092912    6.029390   -5.573711
  108          1             0        0.084028    8.225692   -4.404415
  109          1             0        0.018637    8.273497   -1.905615
  110          1             0       -0.002984    4.144297   -1.707707
  111          6             0       -0.093912    1.174191   -5.230902
  112          6             0       -0.541218    0.929991   -6.531600
  113          6             0       -0.663326   -0.373509   -6.975797
  114          6             0       -0.340929   -1.432609   -6.144496
  115          6             0        0.118777   -1.201209   -4.845598
  116          6             0        0.239285    0.108691   -4.393001
  117          1             0       -0.794616    1.755492   -7.178500
  118          1             0       -1.015631   -0.568209   -7.977195
  119          1             0       -0.472135   -2.441909   -6.501894
  120          1             0        0.622990    0.319291   -3.407403
  121          6             0        0.453474   -2.341709   -3.977197
  122          6             0        1.044966   -3.497413   -4.497798
  123          6             0        1.300263   -4.573913   -3.665297
  124          6             0        0.971068   -4.479509   -2.324596
  125          7             0        0.429976   -3.367405   -1.818496
  126          6             0        0.173579   -2.325305   -2.611497
  127          1             0        1.311762   -3.545517   -5.541798
  128          1             0        1.748957   -5.474816   -4.051597
  129          1             0        1.144067   -5.302309   -1.634495
  130          1             0       -0.290515   -1.466202   -2.133896
 --------------------------------------------------------------------
     1 basis functions        1 primitive gaussians
     1 alpha electrons        1 beta electrons
 
 Harmonic frequencies (cm**-1), IR intensities (KM/Mole),
 Raman scattering activities (A**4/amu), Raman depolarization ratios,
 reduced masses (AMU), force constants (mDyne/A) and normal coordinates:
                      1                      2                      3
                        a                      a                      a 
 Frequencies --    11.4051                11.6263                12.6486
 Red. masses --    11.2630                11.3755                17.1653
 Frc consts  --     0.0000                 0.0000                 0.0000
 IR Inten    --     0.0497                 0.0810                 0.5118
 Raman Activ --     0.0000                 0.0000                 0.0000
 Depolar     --     0.0000                 0.0000                 0.0000
 Atom AN      X      Y      Z        X      Y      Z        X      Y      Z
   1  46     0.00  -0.01   0.01     0.02   0.00   0.01    -0.04   0.00  -0.15
   2  46    -0.00   0.03   0.01     0.03  -0.00   0.02     0.00   0.00  -0.19
   3   6     0.01  -0.00  -0.06     0.01  -0.00   0.11    -0.01  -0.01   0.14
   4   6     0.00  -0.00  -0.09     0.01  -0.00   0.09    -0.02  -0.01   0.10
   5   6     0.01  -0.00  -0.12     0.01  -0.00   0.07    -0.02  -0.01   0.05
   6   6     0.01   0.00  -0.21     0.01  -0.00   0.08    -0.02  -0.01   0.07
   7   6     0.01   0.00  -0.23     0.01   0.00   0.06    -0.02  -0.01   0.03
   8   6     0.01  -0.00  -0.16     0.01   0.00   0.03    -0.01  -0.01  -0.03
   9   7     0.00  -0.00  -0.09     0.01   0.00   0.01    -0.02  -0.01  -0.05
  10   6     0.00  -0.00  -0.07     0.01   0.00   0.03    -0.02  -0.01  -0.01
  11   1     0.00   0.00  -0.07     0.00  -0.00   0.03    -0.01  -0.00   0.03
  12   1     0.00   0.00  -0.08     0.00   0.00   0.02    -0.00  -0.00   0.01
  13   1     0.00   0.00  -0.05     0.00   0.00   0.00    -0.00  -0.00  -0.02
  14   1     0.00  -0.00  -0.00     0.00   0.00   0.00    -0.00  -0.00  -0.01
  15   6     0.01  -0.01  -0.01     0.02   0.00   0.13     0.00  -0.01   0.18
  16   6     0.01  -0.02   0.02     0.03   0.00   0.17     0.04  -0.00   0.28
  17   6     0.01  -0.03   0.06     0.04   0.00   0.19     0.06  -0.00   0.32
  18   6     0.01  -0.02   0.08     0.03   0.00   0.16     0.04  -0.00   0.26
  19   6    -0.00  -0.00   0.05     0.01  -0.00   0.11     0.01  -0.01   0.16
  20   6    -0.00   0.00   0.01     0.01  -0.00   0.10    -0.01  -0.01   0.12
  21   1     0.00  -0.01   0.00     0.01   0.00   0.06     0.02   0.00   0.10
  22   1     0.01  -0.01   0.02     0.02   0.00   0.07     0.03   0.00   0.11
  23   1     0.00  -0.01   0.03     0.01   0.00   0.05     0.02  -0.00   0.08
  24   1    -0.00   0.00  -0.00    -0.00  -0.00   0.02    -0.01  -0.01   0.01
  25   6    -0.01   0.01   0.07     0.00  -0.00   0.08    -0.01  -0.02   0.09
  26   6    -0.02   0.02   0.11    -0.01  -0.01   0.09    -0.04  -0.02   0.11
  27   6    -0.03   0.03   0.12    -0.02  -0.01   0.05    -0.05  -0.03   0.05
  28   6    -0.02   0.02   0.09    -0.01  -0.01   0.02    -0.03  -0.03  -0.03
  29   7    -0.01   0.01   0.06     0.01  -0.00   0.01    -0.00  -0.03  -0.05
  30   6    -0.00   0.00   0.04     0.01  -0.00   0.04     0.01  -0.02   0.01
  31   1    -0.01   0.01   0.04    -0.01  -0.00   0.03    -0.02  -0.01   0.05
  32   1    -0.01   0.01   0.04    -0.01  -0.00   0.02    -0.02  -0.01   0.02
  33   1    -0.01   0.01   0.03    -0.00  -0.00  -0.00    -0.01  -0.01  -0.02
  34   1     0.00  -0.00   0.00     0.01  -0.00   0.01     0.01  -0.01  -0.00
  35   6     0.05  -0.00   0.01     0.10   0.00   0.00     0.03  -0.01  -0.06
  36   6     0.09  -0.00   0.01     0.08   0.00   0.00     0.02  -0.00  -0.05
  37   6     0.12  -0.00   0.01     0.06   0.00   0.00     0.02  -0.00  -0.05
  38   6     0.20  -0.00   0.01     0.07   0.00   0.00     0.03  -0.00  -0.05
  39   6     0.22   0.00   0.01     0.06   0.00   0.00     0.02  -0.00  -0.05
  40   6     0.16  -0.00   0.01     0.03  -0.00   0.00     0.01  -0.00  -0.05
  41   7     0.10  -0.00   0.01     0.01  -0.00   0.00    -0.01  -0.00  -0.05
  42   6     0.07  -0.00   0.01     0.03   0.00   0.00    -0.00  -0.00  -0.05
  43   1     0.07   0.00   0.00     0.03   0.00   0.00     0.01  -0.00  -0.01
  44   1     0.08   0.00   0.00     0.02   0.00   0.00     0.01  -0.00  -0.01
  45   1     0.05  -0.00   0.00     0.00  -0.00   0.00     0.00  -0.00  -0.01
  46   1     0.00  -0.00   0.00     0.00  -0.00   0.00    -0.00  -0.00  -0.02
  47   6     0.00  -0.01   0.01     0.12   0.00  -0.00     0.03  -0.01  -0.06
  48   6    -0.03  -0.02   0.02     0.16  -0.00  -0.02     0.05  -0.01  -0.07
  49   6    -0.08  -0.03   0.02     0.17  -0.00  -0.02     0.05  -0.01  -0.07
  50   6    -0.09  -0.02   0.01     0.14  -0.00  -0.02     0.04  -0.01  -0.07
  51   6    -0.06  -0.00   0.00     0.10   0.00   0.00     0.02  -0.01  -0.06
  52   6    -0.01   0.00   0.00     0.09   0.00   0.01     0.02  -0.00  -0.06
  53   1    -0.01  -0.01   0.01     0.05  -0.00  -0.01     0.02  -0.00  -0.02
  54   1    -0.03  -0.01   0.01     0.06  -0.00  -0.01     0.02  -0.00  -0.02
  55   1    -0.04  -0.01   0.00     0.04  -0.00  -0.01     0.01  -0.00  -0.02
  56   1     0.00   0.00  -0.00     0.02   0.00   0.01     0.00  -0.00  -0.02
  57   6    -0.07   0.01  -0.00     0.07   0.00   0.01     0.01  -0.00  -0.06
  58   6    -0.11   0.02  -0.02     0.08   0.00   0.02     0.01  -0.00  -0.06
  59   6    -0.12   0.03  -0.03     0.05   0.01   0.03     0.00   0.00  -0.06
  60   6    -0.09   0.02  -0.02     0.02   0.01   0.02    -0.00   0.00  -0.06
  61   7    -0.05   0.01  -0.01     0.02   0.00   0.01    -0.00  -0.00  -0.07
  62   6    -0.04   0.00   0.00     0.04   0.00   0.00     0.01  -0.00  -0.06
  63   1    -0.04   0.01  -0.01     0.03   0.00   0.01     0.01  -0.00  -0.02
  64   1    -0.04   0.01  -0.01     0.02   0.00   0.01     0.00   0.00  -0.02
  65   1    -0.03   0.01  -0.01    -0.00   0.00   0.01    -0.00   0.00  -0.02
  66   1    -0.00  -0.00   0.00     0.01   0.00  -0.00     0.00  -0.00  -0.02
  67   6    -0.01  -0.01   0.04     0.01  -0.00  -0.13    -0.01   0.01   0.13
  68   6    -0.00  -0.01   0.08     0.01  -0.00  -0.10    -0.02   0.01   0.09
  69   6    -0.00  -0.01   0.11     0.01  -0.00  -0.07    -0.02   0.01   0.06
  70   6    -0.01  -0.01   0.19     0.01  -0.00  -0.09    -0.02   0.01   0.08
  71   6    -0.01  -0.01   0.22     0.01  -0.00  -0.07    -0.02   0.01   0.05
  72   6    -0.01  -0.01   0.16     0.01  -0.00  -0.03    -0.01   0.01  -0.01
  73   7    -0.00  -0.01   0.10     0.01  -0.00  -0.01    -0.02   0.01  -0.04
  74   6    -0.00  -0.01   0.07     0.01  -0.00  -0.03    -0.02   0.01  -0.00
  75   1    -0.00  -0.00   0.07     0.00  -0.00  -0.04    -0.01   0.00   0.04
  76   1    -0.00  -0.00   0.08     0.00  -0.00  -0.02    -0.00   0.00   0.02
  77   1    -0.00  -0.00   0.05     0.00  -0.00  -0.00    -0.00   0.00  -0.01
  78   1    -0.00  -0.00   0.00     0.00  -0.00  -0.00    -0.01   0.00  -0.01
  79   6    -0.01  -0.01  -0.01    -0.00   0.00  -0.15     0.00   0.00   0.16
  80   6    -0.02  -0.02  -0.06    -0.02   0.01  -0.22     0.03  -0.01   0.24
  81   6    -0.02  -0.03  -0.11    -0.03   0.01  -0.24     0.05  -0.01   0.27
  82   6    -0.01  -0.02  -0.12    -0.02   0.00  -0.19     0.04  -0.00   0.21
  83   6    -0.00  -0.00  -0.07     0.00  -0.00  -0.13     0.00   0.01   0.13
  84   6     0.00   0.00  -0.02     0.01  -0.00  -0.11    -0.01   0.01   0.10
  85   1    -0.01  -0.01  -0.01    -0.01   0.00  -0.07     0.01  -0.00   0.08
  86   1    -0.01  -0.01  -0.04    -0.01   0.00  -0.08     0.02  -0.00   0.10
  87   1    -0.00  -0.01  -0.05    -0.01   0.00  -0.06     0.01  -0.00   0.07
  88   1     0.00   0.00   0.00     0.01  -0.00  -0.02    -0.01   0.01   0.01
  89   6     0.01   0.01  -0.08     0.01  -0.00  -0.09    -0.01   0.02   0.07
  90   6     0.03   0.02  -0.12     0.03  -0.01  -0.10    -0.03   0.02   0.08
  91   6     0.04   0.03  -0.12     0.04  -0.01  -0.06    -0.04   0.03   0.02
  92   6     0.03   0.02  -0.08     0.03  -0.01  -0.01    -0.03   0.03  -0.04
  93   7     0.01   0.01  -0.05     0.01  -0.01  -0.00    -0.00   0.03  -0.06
  94   6     0.00   0.00  -0.04     0.00  -0.01  -0.04     0.01   0.02  -0.00
  95   1     0.01   0.01  -0.04     0.01  -0.00  -0.04    -0.01   0.01   0.04
  96   1     0.01   0.01  -0.04     0.02  -0.00  -0.02    -0.02   0.01   0.01
  97   1     0.01   0.01  -0.02     0.01  -0.00   0.01    -0.01   0.01  -0.03
  98   1    -0.00  -0.00  -0.00    -0.00  -0.00  -0.01     0.01   0.01  -0.00
  99   6    -0.05  -0.01  -0.00    -0.13   0.00   0.01    -0.00   0.01  -0.06
 100   6    -0.08  -0.01   0.00    -0.11   0.00   0.00    -0.01   0.01  -0.05
 101   6    -0.12  -0.01  -0.00    -0.07   0.00   0.00    -0.01   0.00  -0.05
 102   6    -0.20  -0.00  -0.00    -0.10   0.00  -0.00    -0.02   0.01  -0.05
 103   6    -0.22  -0.00  -0.00    -0.07   0.00   0.00    -0.02   0.00  -0.05
 104   6    -0.16  -0.00  -0.00    -0.02   0.00   0.00    -0.02   0.00  -0.05
 105   7    -0.10  -0.01  -0.00    -0.00   0.00   0.00    -0.02   0.00  -0.05
 106   6    -0.07  -0.01   0.00    -0.02   0.00   0.00    -0.02   0.00  -0.05
 107   1    -0.07  -0.00  -0.00    -0.04   0.00  -0.00    -0.00   0.00  -0.01
 108   1    -0.08  -0.00  -0.00    -0.02   0.00  -0.00    -0.01   0.00  -0.01
 109   1    -0.05  -0.00  -0.00     0.00   0.00   0.00    -0.01   0.00  -0.01
 110   1    -0.00  -0.00   0.00    -0.00   0.00   0.00    -0.00   0.00  -0.02
 111   6     0.00  -0.01  -0.00    -0.16  -0.00   0.02     0.01   0.01  -0.06
 112   6     0.04  -0.02  -0.01    -0.23  -0.01   0.04     0.01   0.01  -0.06
 113   6     0.09  -0.03  -0.01    -0.26  -0.01   0.05     0.02   0.01  -0.07
 114   6     0.10  -0.02  -0.01    -0.21  -0.01   0.04     0.02   0.01  -0.07
 115   6     0.06  -0.00   0.00    -0.14   0.00   0.01     0.01   0.01  -0.06
 116   6     0.02   0.00   0.01    -0.12   0.00   0.00     0.00   0.01  -0.06
 117   1     0.01  -0.01  -0.00    -0.08  -0.00   0.01     0.00   0.00  -0.02
 118   1     0.03  -0.01  -0.01    -0.09  -0.00   0.02     0.01   0.00  -0.02
 119   1     0.04  -0.01  -0.00    -0.07  -0.00   0.01     0.01   0.00  -0.02
 120   1    -0.00   0.00   0.00    -0.02   0.00  -0.01    -0.00   0.00  -0.02
 121   6     0.07   0.01   0.01    -0.10   0.00   0.00     0.01   0.01  -0.06
 122   6     0.11   0.02   0.03    -0.11   0.01  -0.02     0.01   0.01  -0.06
 123   6     0.12   0.03   0.04    -0.06   0.01  -0.03     0.01   0.01  -0.06
 124   6     0.09   0.02   0.03    -0.01   0.01  -0.02     0.01   0.01  -0.06
 125   7     0.05   0.01   0.02    -0.00   0.01   0.00     0.00   0.01  -0.07
 126   6     0.04   0.00   0.01    -0.04   0.01   0.01     0.00   0.01  -0.06
 127   1     0.04   0.01   0.01    -0.04   0.00  -0.01     0.00   0.00  -0.02
 128   1     0.04   0.01   0.01    -0.02   0.00  -0.01     0.00   0.00  -0.02
 129   1     0.03   0.01   0.01     0.01   0.01  -0.01     0.00   0.00  -0.02
 130   1     0.00  -0.00  -0.00    -0.01   0.00   0.01     0.00   0.00  -0.02
                      4                      5                      6
                        a                      a                      a 
 Frequencies --    12.7939                27.4553                27.6727
 Red. masses --    17.1554                13.3625                13.0945
 Frc consts  --     0.0000                 0.0000                 0.0000
 IR Inten    --     0.5111                 0.1348                 0.1332
 Raman Activ --     0.0000                 0.0000                 0.0000
 Depolar     --     0.0000                 0.0000                 0.0000
 Atom AN      X      Y      Z        X      Y      Z        X      Y      Z
   1  46    -0.15  -0.00   0.04     0.05  -0.00  -0.15    -0.14  -0.00  -0.05
   2  46    -0.19  -0.00   0.00    -0.02   0.00   0.02     0.01   0.00   0.02
   3   6    -0.06  -0.01   0.00     0.01   0.02   0.10    -0.03   0.06  -0.00
   4   6    -0.05  -0.01   0.01     0.02   0.02   0.15    -0.02   0.06  -0.01
   5   6    -0.05  -0.00   0.01     0.02   0.02   0.17    -0.03   0.06  -0.01
   6   6    -0.05  -0.01   0.01     0.01   0.02   0.35    -0.05   0.07  -0.01
   7   6    -0.05  -0.00   0.01    -0.00   0.02   0.33    -0.06   0.06  -0.01
   8   6    -0.05  -0.00   0.01     0.00   0.02   0.15    -0.06   0.04  -0.01
   9   7    -0.05  -0.00   0.02     0.01   0.02  -0.00    -0.05   0.04  -0.02
  10   6    -0.05  -0.00   0.01     0.02   0.02   0.00    -0.04   0.04  -0.01
  11   1    -0.01  -0.00   0.00     0.00   0.01   0.14    -0.01   0.02  -0.00
  12   1    -0.01  -0.00   0.00    -0.00   0.00   0.13    -0.02   0.02  -0.00
  13   1    -0.01  -0.00   0.00     0.00   0.00   0.04    -0.02   0.01  -0.00
  14   1    -0.02  -0.00   0.00     0.01   0.01  -0.04    -0.01   0.01  -0.01
  15   6    -0.06  -0.01  -0.00    -0.00   0.02   0.03    -0.02   0.06  -0.00
  16   6    -0.06  -0.01  -0.01    -0.02   0.04  -0.03    -0.02   0.07   0.00
  17   6    -0.06  -0.01  -0.01    -0.04   0.04  -0.11    -0.02   0.07   0.01
  18   6    -0.06  -0.01  -0.01    -0.03   0.03  -0.12    -0.01   0.07   0.01
  19   6    -0.06  -0.01  -0.00    -0.01   0.02  -0.06    -0.02   0.06   0.01
  20   6    -0.06  -0.01  -0.00     0.00   0.02   0.02    -0.02   0.06   0.00
  21   1    -0.02  -0.00  -0.00    -0.01   0.01  -0.01    -0.01   0.02   0.00
  22   1    -0.02  -0.00  -0.00    -0.02   0.01  -0.05    -0.00   0.02   0.00
  23   1    -0.02  -0.00  -0.00    -0.01   0.01  -0.05    -0.00   0.02   0.00
  24   1    -0.02  -0.00   0.00     0.01   0.00   0.02    -0.01   0.02  -0.00
  25   6    -0.06  -0.01  -0.00    -0.00   0.01  -0.06    -0.01   0.06   0.01
  26   6    -0.06  -0.01  -0.00     0.02  -0.00  -0.11     0.00   0.07   0.03
  27   6    -0.06  -0.01  -0.00     0.02  -0.00  -0.10     0.01   0.06   0.03
  28   6    -0.06  -0.00  -0.00     0.01   0.01  -0.04     0.01   0.04   0.02
  29   7    -0.07  -0.00  -0.00    -0.01   0.02  -0.01     0.00   0.04   0.01
  30   6    -0.06  -0.00  -0.00    -0.01   0.02  -0.01    -0.01   0.04   0.01
  31   1    -0.02  -0.00  -0.00     0.01  -0.00  -0.04     0.00   0.02   0.01
  32   1    -0.02  -0.00  -0.00     0.01  -0.00  -0.04     0.01   0.02   0.01
  33   1    -0.02  -0.00  -0.00     0.00   0.00  -0.01     0.01   0.01   0.01
  34   1    -0.02  -0.00   0.00    -0.01   0.01   0.01    -0.00   0.01   0.00
  35   6     0.15   0.01   0.01     0.01   0.06  -0.03     0.10  -0.02  -0.01
  36   6     0.11   0.01   0.02     0.01   0.06  -0.03     0.14  -0.02  -0.02
  37   6     0.06   0.01   0.02     0.02   0.05  -0.04     0.16  -0.02  -0.02
  38   6     0.08   0.01   0.02     0.02   0.06  -0.05     0.32  -0.02  -0.01
  39   6     0.04   0.01   0.02     0.02   0.06  -0.06     0.30  -0.02  -0.00
  40   6    -0.02   0.01   0.02     0.02   0.04  -0.06     0.14  -0.02  -0.01
  41   7    -0.04   0.01   0.02     0.02   0.03  -0.05    -0.00  -0.02  -0.01
  42   6    -0.00   0.01   0.02     0.02   0.04  -0.04     0.01  -0.02  -0.02
  43   1     0.04   0.00   0.01     0.01   0.02  -0.01     0.13  -0.01  -0.00
  44   1     0.02   0.00   0.00     0.01   0.02  -0.02     0.12  -0.01   0.00
  45   1    -0.01   0.00   0.00     0.00   0.01  -0.02     0.03  -0.00  -0.00
  46   1    -0.01   0.00   0.01     0.01   0.01  -0.01    -0.03  -0.01  -0.01
  47   6     0.19   0.01  -0.00     0.00   0.06  -0.02     0.04  -0.02   0.00
  48   6     0.29   0.00  -0.04    -0.01   0.06  -0.02    -0.02  -0.04   0.02
  49   6     0.32  -0.00  -0.06    -0.01   0.06  -0.01    -0.09  -0.04   0.03
  50   6     0.26   0.00  -0.04    -0.02   0.06  -0.01    -0.11  -0.03   0.03
  51   6     0.16   0.01  -0.01    -0.01   0.06  -0.01    -0.05  -0.02   0.01
  52   6     0.13   0.01   0.01    -0.00   0.06  -0.02     0.02  -0.02  -0.00
  53   1     0.10  -0.00  -0.02    -0.00   0.02  -0.01    -0.00  -0.01   0.01
  54   1     0.11  -0.00  -0.03    -0.01   0.02  -0.00    -0.04  -0.01   0.01
  55   1     0.08   0.00  -0.02    -0.01   0.02  -0.00    -0.05  -0.01   0.01
  56   1     0.02   0.00   0.01     0.00   0.02  -0.01     0.02  -0.00  -0.01
  57   6     0.09   0.02   0.01    -0.02   0.05  -0.00    -0.06  -0.01   0.00
  58   6     0.11   0.02   0.04    -0.03   0.06   0.00    -0.11   0.00  -0.02
  59   6     0.05   0.03   0.05    -0.03   0.06   0.01    -0.10   0.01  -0.02
  60   6    -0.03   0.03   0.03    -0.02   0.04   0.02    -0.05  -0.01  -0.01
  61   7    -0.05   0.03   0.01    -0.01   0.03   0.01    -0.01  -0.02   0.01
  62   6     0.01   0.02  -0.00    -0.01   0.04  -0.00    -0.01  -0.02   0.01
  63   1     0.05   0.01   0.02    -0.01   0.02   0.00    -0.04   0.00  -0.01
  64   1     0.02   0.01   0.02    -0.01   0.02   0.01    -0.04   0.01  -0.01
  65   1    -0.02   0.01   0.01    -0.01   0.01   0.01    -0.01  -0.00  -0.00
  66   1    -0.00   0.01  -0.01     0.00   0.01  -0.00     0.01  -0.01   0.01
  67   6    -0.06   0.01  -0.03     0.01  -0.02   0.10    -0.03  -0.06   0.00
  68   6    -0.05   0.01  -0.02     0.02  -0.03   0.14    -0.02  -0.07  -0.00
  69   6    -0.05   0.00  -0.01     0.01  -0.03   0.15    -0.03  -0.06  -0.01
  70   6    -0.05   0.01  -0.02     0.01  -0.03   0.31    -0.05  -0.07  -0.00
  71   6    -0.05   0.00  -0.01     0.00  -0.03   0.30    -0.06  -0.06  -0.01
  72   6    -0.05   0.00   0.00     0.01  -0.02   0.13    -0.06  -0.05  -0.01
  73   7    -0.05   0.00   0.01     0.02  -0.02  -0.01    -0.05  -0.04  -0.02
  74   6    -0.05   0.00   0.00     0.02  -0.02   0.00    -0.03  -0.04  -0.01
  75   1    -0.01   0.00  -0.01     0.00  -0.01   0.13    -0.01  -0.02   0.00
  76   1    -0.01   0.00  -0.01    -0.00  -0.01   0.12    -0.02  -0.02  -0.00
  77   1    -0.01   0.00   0.00     0.00  -0.01   0.03    -0.02  -0.01  -0.00
  78   1    -0.02   0.00   0.00     0.01  -0.01  -0.03    -0.01  -0.01  -0.00
  79   6    -0.06   0.01  -0.04    -0.00  -0.02   0.03    -0.02  -0.07   0.00
  80   6    -0.07   0.01  -0.06    -0.02  -0.03  -0.02    -0.02  -0.07   0.01
  81   6    -0.07   0.01  -0.06    -0.03  -0.04  -0.10    -0.02  -0.07   0.01
  82   6    -0.07   0.01  -0.05    -0.03  -0.03  -0.11    -0.01  -0.07   0.01
  83   6    -0.06   0.01  -0.03    -0.01  -0.02  -0.05    -0.01  -0.06   0.01
  84   6    -0.06   0.01  -0.03     0.00  -0.02   0.02    -0.02  -0.06   0.00
  85   1    -0.02   0.00  -0.02    -0.01  -0.01  -0.00    -0.01  -0.02   0.00
  86   1    -0.02   0.00  -0.02    -0.01  -0.01  -0.04    -0.00  -0.02   0.00
  87   1    -0.02   0.00  -0.02    -0.01  -0.01  -0.05    -0.00  -0.02   0.00
  88   1    -0.02   0.00  -0.00     0.00  -0.00   0.02    -0.01  -0.02  -0.00
  89   6    -0.06   0.00  -0.02    -0.00  -0.01  -0.05    -0.01  -0.06   0.01
  90   6    -0.06   0.00  -0.02     0.01   0.00  -0.10     0.00  -0.07   0.02
  91   6    -0.06   0.00  -0.01     0.02   0.01  -0.09     0.02  -0.06   0.02
  92   6    -0.06  -0.00   0.00     0.01  -0.00  -0.04     0.02  -0.04   0.01
  93   7    -0.07   0.00   0.00    -0.01  -0.02  -0.01     0.01  -0.04   0.00
  94   6    -0.06   0.00  -0.01    -0.01  -0.02  -0.01    -0.01  -0.04   0.00
  95   1    -0.02   0.00  -0.01     0.01   0.00  -0.04     0.00  -0.02   0.01
  96   1    -0.02  -0.00  -0.00     0.01   0.01  -0.04     0.01  -0.02   0.01
  97   1    -0.02  -0.00   0.00     0.00  -0.00  -0.01     0.01  -0.01   0.00
  98   1    -0.02   0.00  -0.00    -0.01  -0.01   0.01    -0.00  -0.01  -0.00
  99   6     0.12  -0.01   0.01    -0.00  -0.06  -0.03     0.10   0.03  -0.01
 100   6     0.08  -0.01   0.02    -0.00  -0.06  -0.03     0.15   0.03  -0.02
 101   6     0.05  -0.01   0.02    -0.00  -0.06  -0.04     0.17   0.03  -0.02
 102   6     0.07  -0.01   0.02    -0.01  -0.06  -0.05     0.33   0.03  -0.01
 103   6     0.03  -0.01   0.02    -0.01  -0.06  -0.06     0.32   0.03  -0.00
 104   6    -0.02  -0.01   0.01     0.00  -0.04  -0.06     0.14   0.02  -0.00
 105   7    -0.04  -0.01   0.02     0.01  -0.04  -0.06    -0.00   0.02  -0.01
 106   6    -0.01  -0.01   0.02     0.01  -0.04  -0.04     0.01   0.02  -0.02
 107   1     0.03  -0.00   0.01    -0.01  -0.02  -0.01     0.13   0.01  -0.00
 108   1     0.01  -0.00   0.00    -0.00  -0.02  -0.02     0.13   0.01   0.00
 109   1    -0.01  -0.00   0.00     0.00  -0.01  -0.02     0.03   0.01  -0.00
 110   1    -0.01  -0.00   0.01     0.01  -0.01  -0.01    -0.04   0.01  -0.01
 111   6     0.15  -0.01  -0.00    -0.00  -0.06  -0.03     0.03   0.03   0.00
 112   6     0.24   0.00  -0.03    -0.00  -0.07  -0.03    -0.03   0.04   0.02
 113   6     0.27   0.01  -0.05    -0.00  -0.07  -0.02    -0.11   0.04   0.04
 114   6     0.21   0.00  -0.04    -0.00  -0.07  -0.01    -0.12   0.03   0.03
 115   6     0.12  -0.01  -0.00    -0.00  -0.06  -0.01    -0.05   0.02   0.01
 116   6     0.10  -0.01   0.01    -0.00  -0.06  -0.02     0.02   0.02  -0.00
 117   1     0.08   0.00  -0.01    -0.00  -0.02  -0.01    -0.00   0.01   0.01
 118   1     0.10   0.00  -0.02    -0.00  -0.02  -0.01    -0.05   0.01   0.02
 119   1     0.07   0.00  -0.01    -0.00  -0.02  -0.00    -0.05   0.01   0.01
 120   1     0.01  -0.01   0.01    -0.00  -0.02  -0.01     0.02   0.00  -0.01
 121   6     0.07  -0.02   0.01    -0.01  -0.05  -0.01    -0.06   0.01   0.00
 122   6     0.08  -0.02   0.03    -0.01  -0.06   0.01    -0.10  -0.00  -0.01
 123   6     0.02  -0.03   0.04    -0.01  -0.05   0.02    -0.09  -0.00  -0.02
 124   6    -0.04  -0.03   0.03    -0.01  -0.04   0.02    -0.04   0.01  -0.01
 125   7    -0.05  -0.03   0.00    -0.01  -0.03   0.01    -0.01   0.02   0.01
 126   6    -0.00  -0.02  -0.00    -0.00  -0.04  -0.01    -0.01   0.02   0.01
 127   1     0.04  -0.01   0.01    -0.00  -0.02   0.00    -0.04  -0.00  -0.01
 128   1     0.01  -0.01   0.02    -0.00  -0.02   0.01    -0.04  -0.00  -0.01
 129   1    -0.02  -0.01   0.01    -0.00  -0.01   0.01    -0.01   0.00  -0.00
 130   1    -0.01  -0.00  -0.01    -0.00  -0.01  -0.00     0.01   0.01   0.01
                      7                      8                      9
                        a                      a                      a 
 Frequencies --    27.7199                30.1654                31.3595
 Red. masses --    10.8982                18.8109                21.1891
 Frc consts  --     0.0000                 0.0000                 0.0000
 IR Inten    --     0.0097                 0.0581                 0.0573
 Raman Activ --     0.0000                 0.0000                 0.0000
 Depolar     --     0.0000                 0.0000                 0.0000
 Atom AN      X      Y      Z        X      Y      Z        X      Y      Z
   1  46     0.00   0.00  -0.01    -0.02   0.21   0.02    -0.11  -0.03   0.23
   2  46    -0.00  -0.00   0.00     0.01  -0.19  -0.01     0.11   0.03  -0.15
   3   6    -0.00  -0.01  -0.07    -0.06   0.00   0.09    -0.00  -0.03  -0.00
   4   6    -0.00  -0.01  -0.11    -0.05   0.01   0.06    -0.03  -0.04  -0.00
   5   6     0.00  -0.00  -0.13    -0.03   0.02   0.02    -0.04  -0.04  -0.00
   6   6     0.01  -0.00  -0.22    -0.01   0.01  -0.07    -0.04  -0.04  -0.07
   7   6     0.01  -0.00  -0.21     0.02   0.02  -0.13    -0.03  -0.04  -0.07
   8   6     0.01  -0.00  -0.11     0.02   0.05  -0.10    -0.03  -0.04  -0.00
   9   7     0.00  -0.00  -0.03    -0.00   0.06  -0.02    -0.04  -0.04   0.07
  10   6    -0.00  -0.00  -0.04    -0.03   0.04   0.04    -0.04  -0.04   0.07
  11   1     0.00  -0.00  -0.09    -0.00  -0.00  -0.03    -0.01  -0.01  -0.04
  12   1     0.00  -0.00  -0.08     0.01   0.00  -0.06    -0.01  -0.01  -0.04
  13   1     0.00   0.00  -0.03     0.01   0.02  -0.04    -0.01  -0.01  -0.00
  14   1    -0.00  -0.00   0.01    -0.01   0.02   0.03    -0.01  -0.01   0.04
  15   6     0.00  -0.01  -0.02    -0.05   0.01   0.09     0.02  -0.02   0.00
  16   6     0.02  -0.02   0.03    -0.03   0.04   0.13     0.03  -0.00   0.02
  17   6     0.03  -0.03   0.09    -0.00   0.06   0.10     0.04   0.00   0.03
  18   6     0.02  -0.02   0.10     0.01   0.03   0.04     0.05  -0.01   0.01
  19   6     0.00  -0.01   0.04    -0.01  -0.00   0.01     0.04  -0.03  -0.02
  20   6    -0.00  -0.00  -0.01    -0.04  -0.02   0.04     0.02  -0.03  -0.02
  21   1     0.01  -0.01   0.01    -0.01   0.02   0.05     0.01   0.00   0.01
  22   1     0.01  -0.01   0.04     0.00   0.02   0.04     0.02   0.00   0.01
  23   1     0.01  -0.01   0.04     0.01   0.01   0.00     0.02  -0.00   0.00
  24   1    -0.00   0.00  -0.01    -0.01  -0.01   0.01     0.00  -0.01  -0.01
  25   6    -0.00   0.00   0.05     0.01  -0.03  -0.05     0.04  -0.03  -0.04
  26   6    -0.02   0.01   0.09     0.03  -0.06  -0.12     0.03  -0.04  -0.04
  27   6    -0.02   0.01   0.08     0.05  -0.09  -0.17     0.02  -0.03  -0.05
  28   6    -0.01   0.00   0.03     0.04  -0.09  -0.15     0.02  -0.02  -0.05
  29   7    -0.00  -0.00   0.01     0.02  -0.07  -0.09     0.04  -0.02  -0.05
  30   6     0.00  -0.01   0.01     0.00  -0.04  -0.04     0.04  -0.02  -0.05
  31   1    -0.01   0.01   0.03     0.01  -0.02  -0.04     0.01  -0.01  -0.01
  32   1    -0.01   0.01   0.03     0.02  -0.03  -0.07     0.00  -0.01  -0.01
  33   1    -0.00   0.00   0.01     0.02  -0.03  -0.06     0.00  -0.00  -0.01
  34   1     0.00  -0.00  -0.01    -0.00  -0.01   0.00     0.01  -0.01  -0.01
  35   6    -0.09   0.01  -0.00    -0.08   0.01  -0.06     0.00   0.10   0.05
  36   6    -0.13   0.01  -0.00    -0.05   0.02  -0.04     0.00   0.12   0.11
  37   6    -0.14   0.01  -0.00    -0.00   0.03  -0.02     0.01   0.12   0.11
  38   6    -0.25   0.01  -0.01     0.09   0.02   0.01     0.05   0.14   0.09
  39   6    -0.23   0.01  -0.01     0.15   0.03   0.03     0.05   0.13   0.06
  40   6    -0.12   0.01  -0.01     0.11   0.06   0.03     0.01   0.10   0.06
  41   7    -0.03   0.01  -0.01     0.02   0.07   0.01    -0.03   0.09   0.09
  42   6    -0.04   0.01  -0.00    -0.04   0.06  -0.01    -0.03   0.10   0.10
  43   1    -0.10   0.00  -0.00     0.04   0.00   0.00     0.02   0.05   0.03
  44   1    -0.09   0.00  -0.01     0.06   0.01   0.01     0.02   0.04   0.01
  45   1    -0.03   0.00  -0.00     0.04   0.02   0.01     0.00   0.03   0.01
  46   1     0.01   0.00   0.00    -0.03   0.02  -0.01    -0.02   0.02   0.03
  47   6    -0.03   0.02  -0.01    -0.09   0.02  -0.05    -0.00   0.09   0.02
  48   6     0.02   0.03  -0.02    -0.13   0.05  -0.03    -0.02   0.06   0.01
  49   6     0.09   0.04  -0.03    -0.11   0.06  -0.00    -0.02   0.05  -0.02
  50   6     0.11   0.02  -0.02    -0.05   0.04   0.00    -0.02   0.07  -0.05
  51   6     0.05   0.01  -0.01    -0.02   0.01  -0.02    -0.01   0.10  -0.05
  52   6    -0.02   0.00   0.00    -0.04  -0.00  -0.04     0.01   0.11  -0.02
  53   1     0.00   0.01  -0.01    -0.05   0.02  -0.01    -0.01   0.01   0.01
  54   1     0.04   0.01  -0.01    -0.04   0.02   0.00    -0.01   0.01  -0.01
  55   1     0.05   0.01  -0.01    -0.01   0.01   0.01    -0.01   0.02  -0.02
  56   1    -0.02  -0.00   0.00    -0.00  -0.01  -0.02     0.01   0.04  -0.01
  57   6     0.06  -0.00   0.00     0.04  -0.02  -0.00    -0.02   0.12  -0.06
  58   6     0.10  -0.02   0.02     0.09  -0.04   0.02    -0.07   0.14  -0.07
  59   6     0.10  -0.02   0.03     0.15  -0.07   0.04    -0.07   0.14  -0.06
  60   6     0.05  -0.01   0.02     0.14  -0.08   0.03    -0.02   0.11  -0.05
  61   7     0.01   0.00   0.00     0.09  -0.06   0.01     0.02   0.10  -0.05
  62   6     0.01   0.01  -0.00     0.04  -0.03  -0.01     0.02   0.10  -0.05
  63   1     0.04  -0.01   0.01     0.03  -0.01   0.00    -0.03   0.05  -0.02
  64   1     0.04  -0.01   0.01     0.06  -0.02   0.02    -0.03   0.04  -0.02
  65   1     0.01  -0.00   0.01     0.05  -0.03   0.01    -0.00   0.03  -0.01
  66   1    -0.01   0.01  -0.00    -0.00  -0.01  -0.01     0.02   0.02  -0.01
  67   6     0.00  -0.01   0.09     0.06   0.01  -0.08    -0.02   0.02   0.01
  68   6     0.00  -0.01   0.13     0.04   0.02  -0.06    -0.04   0.03   0.01
  69   6     0.00  -0.01   0.15     0.02   0.03  -0.01    -0.04   0.03   0.00
  70   6    -0.01  -0.01   0.27    -0.00   0.01   0.07    -0.04   0.04  -0.08
  71   6    -0.01  -0.01   0.25    -0.03   0.02   0.12    -0.03   0.03  -0.09
  72   6    -0.01  -0.00   0.13    -0.03   0.05   0.10    -0.03   0.03  -0.02
  73   7    -0.00  -0.00   0.03    -0.01   0.07   0.03    -0.04   0.02   0.07
  74   6     0.00  -0.00   0.04     0.01   0.05  -0.03    -0.05   0.03   0.07
  75   1    -0.00  -0.00   0.11    -0.00  -0.00   0.02    -0.01   0.01  -0.04
  76   1    -0.00  -0.00   0.10    -0.01   0.00   0.05    -0.01   0.01  -0.04
  77   1    -0.00  -0.00   0.03    -0.01   0.02   0.04    -0.01   0.01  -0.01
  78   1     0.00  -0.00  -0.01     0.01   0.02  -0.03    -0.02   0.01   0.04
  79   6    -0.00  -0.01   0.03     0.05   0.01  -0.09     0.00   0.02   0.01
  80   6    -0.02  -0.02  -0.03     0.03   0.04  -0.12     0.02  -0.01   0.04
  81   6    -0.03  -0.03  -0.10     0.01   0.05  -0.09     0.04  -0.01   0.04
  82   6    -0.02  -0.02  -0.11     0.00   0.03  -0.04     0.05   0.00   0.01
  83   6    -0.01  -0.00  -0.05     0.02   0.00  -0.01     0.03   0.03  -0.01
  84   6     0.00  -0.00   0.02     0.04  -0.01  -0.04     0.01   0.03  -0.01
  85   1    -0.01  -0.01  -0.01     0.01   0.02  -0.05     0.00  -0.00   0.02
  86   1    -0.01  -0.01  -0.04    -0.00   0.02  -0.03     0.01  -0.01   0.02
  87   1    -0.01  -0.01  -0.05    -0.00   0.01  -0.00     0.02  -0.00   0.00
  88   1     0.01   0.00   0.02     0.02  -0.01  -0.00     0.00   0.01  -0.01
  89   6     0.00   0.00  -0.06     0.00  -0.03   0.04     0.04   0.04  -0.04
  90   6     0.02   0.02  -0.10    -0.02  -0.05   0.10     0.03   0.05  -0.06
  91   6     0.02   0.02  -0.09    -0.04  -0.08   0.15     0.03   0.05  -0.07
  92   6     0.01   0.01  -0.04    -0.03  -0.08   0.14     0.03   0.04  -0.07
  93   7    -0.00  -0.00  -0.01    -0.01  -0.07   0.08     0.04   0.04  -0.06
  94   6    -0.01  -0.01  -0.01     0.01  -0.04   0.03     0.04   0.04  -0.05
  95   1     0.01   0.01  -0.04    -0.01  -0.01   0.03     0.01   0.01  -0.02
  96   1     0.01   0.01  -0.04    -0.02  -0.03   0.06     0.01   0.02  -0.02
  97   1     0.00   0.00  -0.01    -0.01  -0.03   0.05     0.01   0.01  -0.02
  98   1    -0.01  -0.01   0.01     0.01  -0.01  -0.00     0.01   0.01  -0.01
  99   6     0.09   0.01  -0.00     0.08  -0.00   0.07    -0.01  -0.11   0.04
 100   6     0.12   0.00  -0.00     0.06   0.00   0.05    -0.00  -0.13   0.09
 101   6     0.14   0.00  -0.00     0.01   0.01   0.03     0.01  -0.13   0.10
 102   6     0.24   0.00   0.00    -0.07  -0.00   0.01     0.07  -0.14   0.08
 103   6     0.22   0.00   0.00    -0.12   0.01  -0.02     0.08  -0.13   0.07
 104   6     0.12   0.00   0.00    -0.10   0.04  -0.02     0.03  -0.11   0.06
 105   7     0.03   0.00  -0.00    -0.03   0.05   0.00    -0.03  -0.11   0.08
 106   6     0.04   0.00  -0.00     0.03   0.04   0.03    -0.03  -0.11   0.10
 107   1     0.09   0.00   0.00    -0.02  -0.01   0.00     0.03  -0.04   0.02
 108   1     0.09   0.00   0.00    -0.05   0.00  -0.01     0.03  -0.04   0.02
 109   1     0.03   0.00   0.00    -0.04   0.01  -0.01     0.01  -0.03   0.02
 110   1    -0.01   0.00  -0.00     0.03   0.01   0.01    -0.02  -0.03   0.03
 111   6     0.03   0.01   0.00     0.09   0.00   0.05    -0.01  -0.09   0.00
 112   6    -0.02   0.02   0.02     0.12   0.04   0.03    -0.04  -0.06   0.00
 113   6    -0.09   0.02   0.03     0.09   0.05   0.00    -0.04  -0.06  -0.02
 114   6    -0.10   0.01   0.02     0.04   0.03  -0.01    -0.03  -0.07  -0.05
 115   6    -0.05   0.00   0.00     0.01  -0.01   0.01    -0.01  -0.10  -0.05
 116   6     0.02  -0.00  -0.00     0.04  -0.02   0.04     0.00  -0.11  -0.03
 117   1    -0.00   0.01   0.01     0.05   0.02   0.01    -0.01  -0.01   0.01
 118   1    -0.04   0.01   0.01     0.03   0.02  -0.00    -0.02  -0.01  -0.01
 119   1    -0.04   0.00   0.01     0.00   0.01  -0.01    -0.01  -0.02  -0.02
 120   1     0.02  -0.00  -0.01     0.00  -0.01   0.01     0.01  -0.04  -0.01
 121   6    -0.05  -0.01  -0.00    -0.04  -0.04  -0.01    -0.01  -0.11  -0.06
 122   6    -0.10  -0.02  -0.02    -0.11  -0.06  -0.03    -0.05  -0.13  -0.07
 123   6    -0.09  -0.03  -0.02    -0.16  -0.09  -0.05    -0.05  -0.12  -0.06
 124   6    -0.05  -0.01  -0.01    -0.14  -0.10  -0.04     0.00  -0.09  -0.05
 125   7    -0.01  -0.00  -0.00    -0.08  -0.08  -0.02     0.04  -0.08  -0.05
 126   6    -0.01   0.00   0.00    -0.03  -0.05  -0.00     0.03  -0.09  -0.06
 127   1    -0.04  -0.01  -0.01    -0.03  -0.02  -0.01    -0.03  -0.04  -0.02
 128   1    -0.04  -0.01  -0.01    -0.06  -0.03  -0.02    -0.02  -0.04  -0.02
 129   1    -0.01  -0.00  -0.00    -0.05  -0.03  -0.02     0.00  -0.02  -0.01
 130   1     0.01   0.00   0.00     0.00  -0.01   0.00     0.02  -0.02  -0.02
                     10                     11                     12
                        a                      a                      a 
 Frequencies --    31.4009                32.2086                39.7314
 Red. masses --    21.4192                30.8518                11.2616
 Frc consts  --     0.0000                 0.0000                 0.0000
 IR Inten    --     0.0605                 0.0140                 0.0012
 Raman Activ --     0.0000                 0.0000                 0.0000
 Depolar     --     0.0000                 0.0000                 0.0000
 Atom AN      X      Y      Z        X      Y      Z        X      Y      Z
   1  46     0.24   0.01   0.11    -0.00   0.31   0.01    -0.00   0.00   0.00
   2  46    -0.15  -0.01  -0.11     0.00  -0.33  -0.01     0.00  -0.00  -0.00
   3   6     0.04   0.10   0.01    -0.11  -0.01  -0.03     0.02   0.11  -0.00
   4   6     0.10   0.13   0.00    -0.08   0.01  -0.02     0.06   0.12   0.00
   5   6     0.10   0.13  -0.00    -0.04   0.02  -0.00     0.04   0.11   0.01
   6   6     0.09   0.14  -0.06    -0.00  -0.00   0.02    -0.00   0.14   0.02
   7   6     0.07   0.13  -0.06     0.03   0.02   0.04    -0.05   0.11   0.02
   8   6     0.06   0.11  -0.02     0.03   0.06   0.03    -0.05   0.07   0.01
   9   7     0.09   0.10   0.03    -0.00   0.09   0.01    -0.01   0.04   0.00
  10   6     0.10   0.11   0.04    -0.03   0.06  -0.01     0.03   0.06   0.00
  11   1     0.03   0.05  -0.03    -0.00  -0.01   0.01    -0.00   0.05   0.01
  12   1     0.02   0.04  -0.03     0.02   0.00   0.02    -0.02   0.04   0.01
  13   1     0.02   0.03  -0.01     0.02   0.02   0.01    -0.02   0.01   0.00
  14   1     0.03   0.03   0.02    -0.02   0.02  -0.01     0.02   0.01  -0.00
  15   6     0.01   0.09   0.01    -0.12  -0.01  -0.04    -0.01   0.10  -0.01
  16   6     0.01   0.06   0.03    -0.13   0.00  -0.08    -0.02   0.08  -0.02
  17   6    -0.02   0.05   0.03    -0.12   0.01  -0.08    -0.03   0.08  -0.03
  18   6    -0.05   0.07   0.03    -0.09  -0.00  -0.03    -0.04   0.09  -0.01
  19   6    -0.05   0.10   0.01    -0.08  -0.01   0.01    -0.03   0.11   0.01
  20   6    -0.03   0.11  -0.00    -0.09  -0.02   0.00    -0.02   0.11   0.00
  21   1     0.01   0.01   0.01    -0.04   0.00  -0.03    -0.00   0.02  -0.01
  22   1    -0.01   0.01   0.01    -0.04   0.00  -0.03    -0.01   0.02  -0.01
  23   1    -0.02   0.02   0.01    -0.02   0.00  -0.01    -0.02   0.02  -0.00
  24   1    -0.01   0.04  -0.01    -0.02  -0.01   0.01    -0.00   0.03   0.00
  25   6    -0.06   0.11   0.01    -0.05  -0.02   0.05    -0.03   0.11   0.03
  26   6    -0.07   0.13   0.06    -0.02   0.00   0.08    -0.01   0.14   0.09
  27   6    -0.06   0.12   0.06     0.01  -0.01   0.11     0.02   0.12   0.11
  28   6    -0.05   0.10   0.01     0.01  -0.06   0.09     0.03   0.07   0.06
  29   7    -0.05   0.09  -0.03    -0.02  -0.10   0.06     0.01   0.04   0.01
  30   6    -0.06   0.09  -0.02    -0.04  -0.07   0.04    -0.02   0.06   0.00
  31   1    -0.02   0.04   0.03    -0.00   0.01   0.03    -0.00   0.05   0.04
  32   1    -0.02   0.04   0.03     0.01   0.00   0.04     0.01   0.04   0.04
  33   1    -0.01   0.03  -0.00     0.01  -0.02   0.03     0.02   0.01   0.02
  34   1    -0.02   0.02  -0.02    -0.02  -0.03   0.00    -0.01   0.01  -0.01
  35   6    -0.00   0.03   0.01     0.03  -0.00  -0.11    -0.00  -0.11  -0.02
  36   6    -0.00   0.04   0.04     0.02   0.01  -0.07     0.01  -0.12  -0.06
  37   6    -0.01   0.04   0.04     0.00   0.03  -0.04     0.01  -0.11  -0.04
  38   6    -0.09   0.04   0.04    -0.02   0.00  -0.00     0.02  -0.14   0.00
  39   6    -0.09   0.04   0.03    -0.04   0.02   0.03     0.02  -0.11   0.04
  40   6    -0.01   0.03   0.03    -0.03   0.06   0.03     0.01  -0.07   0.04
  41   7     0.07   0.04   0.04    -0.01   0.09   0.00     0.00  -0.04   0.01
  42   6     0.07   0.04   0.04     0.00   0.07  -0.03     0.00  -0.06  -0.03
  43   1    -0.04   0.01   0.01    -0.01  -0.01  -0.00     0.01  -0.05  -0.00
  44   1    -0.04   0.01   0.01    -0.02   0.00   0.02     0.01  -0.04   0.02
  45   1    -0.00   0.01   0.01    -0.01   0.02   0.02     0.00  -0.01   0.02
  46   1     0.04   0.01   0.01     0.01   0.02  -0.02    -0.00  -0.01  -0.02
  47   6     0.00   0.02  -0.01     0.04  -0.00  -0.12    -0.01  -0.10   0.01
  48   6     0.03   0.00  -0.03     0.08   0.01  -0.13    -0.02  -0.08   0.02
  49   6     0.04  -0.00  -0.04     0.08   0.01  -0.12    -0.03  -0.08   0.03
  50   6     0.01   0.01  -0.05     0.03   0.00  -0.09    -0.01  -0.09   0.04
  51   6    -0.01   0.03  -0.04    -0.01  -0.01  -0.08     0.01  -0.11   0.03
  52   6    -0.02   0.03  -0.02    -0.00  -0.01  -0.09     0.00  -0.11   0.02
  53   1     0.01  -0.00  -0.01     0.03   0.00  -0.04    -0.01  -0.02   0.00
  54   1     0.02  -0.00  -0.02     0.03   0.01  -0.04    -0.01  -0.02   0.01
  55   1     0.01   0.00  -0.02     0.01   0.00  -0.02    -0.00  -0.02   0.02
  56   1    -0.01   0.01  -0.00    -0.01  -0.01  -0.02     0.00  -0.03   0.00
  57   6    -0.04   0.03  -0.04    -0.05  -0.02  -0.05     0.03  -0.11   0.02
  58   6    -0.04   0.04  -0.03    -0.09   0.01  -0.02     0.09  -0.14   0.00
  59   6    -0.05   0.04  -0.02    -0.11  -0.01   0.01     0.10  -0.12  -0.02
  60   6    -0.05   0.03  -0.03    -0.09  -0.06   0.01     0.05  -0.07  -0.03
  61   7    -0.06   0.03  -0.04    -0.06  -0.09  -0.02     0.01  -0.04  -0.01
  62   6    -0.05   0.03  -0.04    -0.04  -0.06  -0.05     0.00  -0.06   0.02
  63   1    -0.01   0.01  -0.01    -0.03   0.01  -0.00     0.03  -0.05   0.00
  64   1    -0.02   0.01  -0.01    -0.04   0.00   0.01     0.04  -0.04  -0.01
  65   1    -0.02   0.01  -0.01    -0.03  -0.02   0.01     0.02  -0.01  -0.02
  66   1    -0.01   0.01  -0.01    -0.00  -0.03  -0.02    -0.01  -0.01   0.01
  67   6     0.05  -0.10   0.00     0.11  -0.00   0.03    -0.02   0.11   0.00
  68   6     0.11  -0.12  -0.00     0.07   0.01   0.02    -0.06   0.12  -0.00
  69   6     0.11  -0.12  -0.01     0.04   0.03   0.01    -0.04   0.11  -0.01
  70   6     0.09  -0.14  -0.05     0.00   0.00  -0.02     0.00   0.14  -0.01
  71   6     0.07  -0.13  -0.06    -0.03   0.02  -0.03     0.04   0.12  -0.01
  72   6     0.07  -0.10  -0.02    -0.03   0.06  -0.03     0.04   0.07  -0.01
  73   7     0.09  -0.10   0.03    -0.00   0.09  -0.01     0.01   0.05  -0.00
  74   6     0.10  -0.10   0.03     0.03   0.07   0.01    -0.03   0.06  -0.00
  75   1     0.03  -0.04  -0.03     0.00  -0.01  -0.01    -0.00   0.05  -0.00
  76   1     0.02  -0.04  -0.03    -0.02   0.00  -0.01     0.02   0.04  -0.00
  77   1     0.01  -0.03  -0.01    -0.02   0.02  -0.01     0.02   0.01  -0.00
  78   1     0.03  -0.03   0.02     0.02   0.02   0.01    -0.02   0.01   0.00
  79   6     0.01  -0.09   0.01     0.12  -0.01   0.04     0.01   0.10   0.01
  80   6     0.01  -0.06   0.02     0.13   0.00   0.08     0.02   0.08   0.03
  81   6    -0.02  -0.05   0.03     0.12   0.01   0.08     0.03   0.08   0.03
  82   6    -0.05  -0.07   0.02     0.09   0.00   0.03     0.04   0.09   0.01
  83   6    -0.05  -0.10   0.01     0.08  -0.01  -0.01     0.03   0.11  -0.00
  84   6    -0.02  -0.11  -0.00     0.09  -0.01  -0.01     0.02   0.11   0.00
  85   1     0.01  -0.01   0.01     0.04   0.00   0.04     0.00   0.02   0.01
  86   1    -0.01  -0.01   0.01     0.04   0.00   0.03     0.01   0.02   0.01
  87   1    -0.02  -0.02   0.01     0.02   0.00   0.00     0.02   0.02   0.00
  88   1    -0.01  -0.04  -0.01     0.02  -0.01  -0.01     0.00   0.03  -0.00
  89   6    -0.06  -0.11   0.01     0.05  -0.02  -0.05     0.03   0.11  -0.03
  90   6    -0.07  -0.14   0.06     0.02   0.01  -0.09     0.01   0.14  -0.08
  91   6    -0.06  -0.13   0.06    -0.01  -0.01  -0.11    -0.02   0.12  -0.10
  92   6    -0.05  -0.10   0.01    -0.01  -0.06  -0.09    -0.03   0.07  -0.05
  93   7    -0.05  -0.09  -0.03     0.02  -0.09  -0.06    -0.01   0.04  -0.01
  94   6    -0.05  -0.09  -0.03     0.05  -0.06  -0.04     0.02   0.06  -0.00
  95   1    -0.02  -0.05   0.03     0.01   0.01  -0.03     0.00   0.05  -0.03
  96   1    -0.02  -0.04   0.03    -0.01   0.01  -0.04    -0.01   0.04  -0.04
  97   1    -0.01  -0.03   0.00    -0.01  -0.02  -0.03    -0.01   0.01  -0.02
  98   1    -0.02  -0.02  -0.02     0.02  -0.03  -0.01     0.01   0.01   0.01
  99   6     0.00  -0.03   0.01    -0.03  -0.01   0.11     0.01  -0.11   0.02
 100   6    -0.00  -0.04   0.04    -0.02   0.00   0.08    -0.00  -0.12   0.06
 101   6    -0.00  -0.04   0.04    -0.00   0.02   0.04    -0.01  -0.11   0.04
 102   6    -0.09  -0.04   0.04     0.02  -0.00   0.00    -0.01  -0.14  -0.00
 103   6    -0.09  -0.04   0.03     0.03   0.02  -0.03    -0.01  -0.11  -0.05
 104   6    -0.01  -0.03   0.03     0.03   0.06  -0.03    -0.01  -0.07  -0.05
 105   7     0.07  -0.03   0.04     0.01   0.09   0.00    -0.00  -0.04  -0.01
 106   6     0.07  -0.03   0.04    -0.01   0.06   0.03    -0.00  -0.06   0.03
 107   1    -0.04  -0.01   0.01     0.01  -0.01   0.00    -0.00  -0.05  -0.00
 108   1    -0.04  -0.01   0.01     0.02   0.00  -0.02    -0.01  -0.04  -0.02
 109   1    -0.00  -0.01   0.01     0.01   0.02  -0.02    -0.00  -0.01  -0.02
 110   1     0.04  -0.01   0.01    -0.01   0.02   0.02     0.00  -0.01   0.02
 111   6     0.01  -0.02  -0.01    -0.04  -0.01   0.12     0.01  -0.10  -0.01
 112   6     0.04   0.00  -0.02    -0.08  -0.00   0.13     0.02  -0.08  -0.02
 113   6     0.04   0.01  -0.04    -0.08   0.00   0.12     0.03  -0.08  -0.03
 114   6     0.01  -0.01  -0.05    -0.03  -0.00   0.09     0.01  -0.09  -0.04
 115   6    -0.01  -0.03  -0.04     0.01  -0.01   0.08    -0.01  -0.11  -0.03
 116   6    -0.02  -0.03  -0.02     0.01  -0.02   0.09     0.00  -0.11  -0.02
 117   1     0.02   0.00  -0.00    -0.03   0.00   0.04     0.01  -0.02  -0.00
 118   1     0.02   0.01  -0.02    -0.03   0.00   0.04     0.01  -0.02  -0.01
 119   1     0.00  -0.00  -0.02    -0.00   0.00   0.02     0.00  -0.02  -0.02
 120   1    -0.01  -0.01  -0.00     0.01  -0.01   0.02    -0.00  -0.03  -0.01
 121   6    -0.04  -0.04  -0.04     0.05  -0.02   0.05    -0.03  -0.11  -0.03
 122   6    -0.05  -0.04  -0.03     0.09   0.01   0.02    -0.09  -0.14  -0.01
 123   6    -0.06  -0.04  -0.03     0.11  -0.01  -0.01    -0.10  -0.13   0.02
 124   6    -0.06  -0.03  -0.03     0.09  -0.06  -0.01    -0.06  -0.07   0.03
 125   7    -0.06  -0.03  -0.04     0.06  -0.09   0.02    -0.01  -0.04   0.01
 126   6    -0.05  -0.03  -0.04     0.04  -0.07   0.04     0.00  -0.06  -0.02
 127   1    -0.01  -0.01  -0.01     0.03   0.01   0.00    -0.03  -0.05  -0.00
 128   1    -0.02  -0.01  -0.01     0.04   0.00  -0.01    -0.04  -0.04   0.01
 129   1    -0.02  -0.01  -0.01     0.03  -0.02  -0.01    -0.02  -0.02   0.01
 130   1    -0.01  -0.01  -0.01     0.01  -0.03   0.02     0.01  -0.01  -0.01
                     13                     14                     15
                        a                      a                      a 
 Frequencies --    46.1375                46.2815                49.2477
 Red. masses --    12.6997                12.6648                13.0978
 Frc consts  --     0.0000                 0.0000                 0.0000
 IR Inten    --     0.0922                 0.0929                 0.0798
 Raman Activ --     0.0000                 0.0000                 0.0000
 Depolar     --     0.0000                 0.0000                 0.0000
 Atom AN      X      Y      Z        X      Y      Z        X      Y      Z
   1  46     0.05  -0.00  -0.02     0.02  -0.00   0.05     0.00  -0.13  -0.00
   2  46    -0.10   0.00   0.09    -0.09   0.00  -0.10    -0.00   0.10   0.00
   3   6    -0.02   0.02   0.18    -0.01   0.00  -0.03     0.03   0.01   0.14
   4   6     0.01   0.04   0.13    -0.00   0.00  -0.02     0.03   0.00   0.15
   5   6     0.02   0.04   0.05     0.00   0.00   0.00     0.01  -0.00   0.10
   6   6     0.02   0.05  -0.10     0.00   0.00   0.02     0.00   0.02  -0.05
   7   6     0.02   0.05  -0.21     0.01   0.00   0.04    -0.01   0.01  -0.14
   8   6     0.02   0.04  -0.16     0.01   0.00   0.04    -0.02  -0.01  -0.09
   9   7     0.02   0.04  -0.02     0.01   0.01   0.02    -0.00  -0.03   0.06
  10   6     0.02   0.04   0.08     0.00   0.01   0.00     0.01  -0.02   0.16
  11   1     0.01   0.01  -0.04     0.00  -0.00   0.01     0.00   0.01  -0.03
  12   1     0.01   0.02  -0.09     0.00   0.00   0.02    -0.01   0.01  -0.08
  13   1     0.01   0.01  -0.07     0.00   0.00   0.01    -0.01  -0.01  -0.05
  14   1     0.01   0.01   0.05    -0.00   0.00  -0.00     0.01  -0.01   0.08
  15   6    -0.02   0.02   0.15    -0.02  -0.00  -0.03     0.01   0.00   0.08
  16   6    -0.03   0.05   0.11    -0.02  -0.02  -0.03    -0.04  -0.00  -0.06
  17   6    -0.04   0.06   0.01    -0.03  -0.02  -0.02    -0.08  -0.00  -0.16
  18   6    -0.04   0.04  -0.06    -0.04  -0.01   0.01    -0.06  -0.00  -0.12
  19   6    -0.03   0.01  -0.00    -0.04   0.01   0.01    -0.01   0.01   0.02
  20   6    -0.02   0.01   0.10    -0.03   0.01  -0.01     0.02   0.01   0.12
  21   1    -0.01   0.02   0.04    -0.01  -0.01  -0.01    -0.01  -0.00  -0.03
  22   1    -0.01   0.02  -0.01    -0.01  -0.01  -0.00    -0.03  -0.00  -0.08
  23   1    -0.01   0.02  -0.04    -0.01  -0.01   0.01    -0.03  -0.00  -0.06
  24   1    -0.00  -0.00   0.04    -0.01   0.01  -0.00     0.02   0.00   0.06
  25   6    -0.02  -0.01  -0.06    -0.04   0.02   0.02    -0.01   0.01   0.03
  26   6     0.02  -0.08  -0.23    -0.05   0.04   0.08    -0.00  -0.01  -0.02
  27   6     0.03  -0.10  -0.28    -0.05   0.04   0.08    -0.01  -0.01  -0.01
  28   6    -0.00  -0.05  -0.15    -0.04   0.02   0.03    -0.02   0.02   0.03
  29   7    -0.03   0.01  -0.00    -0.04   0.01  -0.01    -0.02   0.03   0.08
  30   6    -0.04   0.03   0.04    -0.03   0.01  -0.01    -0.02   0.03   0.08
  31   1     0.01  -0.03  -0.09    -0.02   0.02   0.03     0.00  -0.01  -0.02
  32   1     0.02  -0.04  -0.12    -0.02   0.02   0.04    -0.00  -0.01  -0.01
  33   1    -0.00  -0.02  -0.05    -0.01   0.01   0.01    -0.01   0.01   0.01
  34   1    -0.02   0.02   0.05    -0.01  -0.00  -0.01    -0.01   0.02   0.04
  35   6    -0.03  -0.00   0.01    -0.18   0.02  -0.02    -0.12   0.00   0.03
  36   6    -0.02  -0.01   0.00    -0.13   0.04   0.01    -0.14  -0.00   0.02
  37   6     0.00  -0.01  -0.00    -0.04   0.04   0.02    -0.10  -0.01   0.01
  38   6     0.02  -0.00  -0.00     0.11   0.05   0.02     0.04   0.01   0.00
  39   6     0.04  -0.01  -0.01     0.21   0.05   0.02     0.13   0.00  -0.01
  40   6     0.03  -0.01  -0.01     0.16   0.04   0.02     0.08  -0.02  -0.02
  41   7     0.02  -0.01  -0.01     0.02   0.04   0.02    -0.07  -0.03  -0.01
  42   6     0.00  -0.01  -0.00    -0.08   0.04   0.02    -0.15  -0.03   0.01
  43   1     0.01  -0.00  -0.00     0.04   0.01   0.01     0.03   0.01   0.00
  44   1     0.01  -0.00  -0.00     0.10   0.01   0.01     0.07   0.00  -0.01
  45   1     0.01  -0.00  -0.00     0.07   0.01   0.01     0.04  -0.01  -0.01
  46   1    -0.00  -0.00   0.00    -0.05   0.01   0.01    -0.08  -0.01   0.00
  47   6    -0.03  -0.00   0.02    -0.15   0.02  -0.02    -0.07  -0.00   0.01
  48   6    -0.03   0.01   0.02    -0.11   0.05  -0.03     0.07  -0.01  -0.04
  49   6    -0.01   0.02   0.03    -0.01   0.06  -0.04     0.16  -0.01  -0.08
  50   6     0.01   0.01   0.04     0.06   0.04  -0.04     0.11  -0.01  -0.06
  51   6     0.01  -0.01   0.04     0.00   0.01  -0.03    -0.02   0.00  -0.01
  52   6    -0.01  -0.01   0.03    -0.10   0.01  -0.02    -0.11   0.00   0.02
  53   1    -0.01   0.01   0.00    -0.05   0.02  -0.01     0.03  -0.00  -0.02
  54   1    -0.00   0.01   0.01     0.01   0.02  -0.01     0.08  -0.00  -0.03
  55   1     0.01   0.00   0.01     0.04   0.02  -0.01     0.05  -0.00  -0.03
  56   1    -0.00  -0.01   0.01    -0.04  -0.00  -0.00    -0.06   0.00   0.02
  57   6     0.02  -0.02   0.04     0.06  -0.01  -0.02    -0.04   0.01  -0.01
  58   6     0.07  -0.04   0.05     0.23  -0.08   0.01     0.00  -0.01  -0.01
  59   6     0.07  -0.04   0.05     0.28  -0.10   0.02    -0.01  -0.00  -0.01
  60   6     0.02  -0.02   0.04     0.15  -0.05  -0.00    -0.05   0.02  -0.02
  61   7    -0.02  -0.01   0.04     0.00   0.01  -0.03    -0.08   0.03  -0.02
  62   6    -0.02  -0.01   0.03    -0.04   0.03  -0.04    -0.08   0.03  -0.02
  63   1     0.03  -0.02   0.02     0.09  -0.04   0.01     0.01  -0.01   0.00
  64   1     0.03  -0.02   0.02     0.12  -0.04   0.01     0.01  -0.00  -0.00
  65   1     0.00  -0.01   0.01     0.05  -0.02  -0.00    -0.01   0.01  -0.01
  66   1    -0.01   0.00   0.01    -0.05   0.02  -0.02    -0.03   0.01  -0.01
  67   6    -0.02  -0.02   0.17    -0.01  -0.00  -0.03    -0.03   0.01  -0.14
  68   6     0.01  -0.04   0.13    -0.00  -0.00  -0.01    -0.03   0.01  -0.15
  69   6     0.02  -0.04   0.04     0.00  -0.01   0.00    -0.01   0.00  -0.10
  70   6     0.02  -0.04  -0.10     0.00  -0.00   0.02    -0.00   0.01   0.06
  71   6     0.02  -0.04  -0.21     0.01  -0.01   0.03     0.01   0.00   0.15
  72   6     0.02  -0.04  -0.16     0.01  -0.01   0.03     0.02  -0.02   0.09
  73   7     0.02  -0.04  -0.02     0.01  -0.01   0.02     0.01  -0.03  -0.07
  74   6     0.02  -0.04   0.07     0.00  -0.01   0.00    -0.01  -0.02  -0.16
  75   1     0.01  -0.01  -0.04     0.00  -0.00   0.01    -0.00   0.01   0.03
  76   1     0.01  -0.01  -0.09     0.00  -0.00   0.01     0.01   0.00   0.08
  77   1     0.01  -0.01  -0.07     0.00  -0.00   0.01     0.01  -0.01   0.05
  78   1     0.00  -0.01   0.05    -0.00  -0.00  -0.00    -0.01  -0.01  -0.08
  79   6    -0.02  -0.02   0.14    -0.02  -0.00  -0.03    -0.01   0.01  -0.08
  80   6    -0.03  -0.05   0.11    -0.02   0.02  -0.03     0.04  -0.00   0.06
  81   6    -0.04  -0.06   0.01    -0.03   0.02  -0.01     0.07  -0.00   0.16
  82   6    -0.04  -0.04  -0.06    -0.04   0.01   0.01     0.06  -0.00   0.12
  83   6    -0.03  -0.01  -0.00    -0.03  -0.01   0.00     0.01   0.01  -0.02
  84   6    -0.02  -0.01   0.10    -0.03  -0.01  -0.01    -0.02   0.01  -0.12
  85   1    -0.01  -0.02   0.04    -0.00   0.01  -0.01     0.01  -0.00   0.03
  86   1    -0.01  -0.02  -0.01    -0.01   0.01  -0.00     0.03  -0.00   0.08
  87   1    -0.01  -0.01  -0.04    -0.01   0.00   0.01     0.03  -0.00   0.06
  88   1    -0.00   0.00   0.04    -0.01  -0.01  -0.00    -0.02   0.00  -0.07
  89   6    -0.02   0.01  -0.06    -0.04  -0.02   0.02     0.01   0.01  -0.03
  90   6     0.01   0.09  -0.22    -0.05  -0.04   0.07    -0.00  -0.01   0.02
  91   6     0.02   0.10  -0.27    -0.05  -0.04   0.07     0.01  -0.01   0.02
  92   6    -0.00   0.05  -0.15    -0.04  -0.02   0.02     0.02   0.02  -0.03
  93   7    -0.03  -0.01  -0.00    -0.04  -0.01  -0.02     0.02   0.04  -0.08
  94   6    -0.04  -0.03   0.04    -0.03  -0.01  -0.02     0.02   0.03  -0.08
  95   1     0.01   0.04  -0.09    -0.02  -0.02   0.03    -0.00  -0.01   0.02
  96   1     0.01   0.05  -0.11    -0.02  -0.02   0.03     0.00  -0.01   0.01
  97   1    -0.00   0.02  -0.05    -0.01  -0.01   0.00     0.01   0.01  -0.01
  98   1    -0.02  -0.02   0.05    -0.01   0.00  -0.01     0.01   0.02  -0.04
  99   6    -0.03   0.00   0.00    -0.17  -0.02  -0.02     0.13   0.00  -0.03
 100   6    -0.02   0.00   0.00    -0.13  -0.04   0.01     0.14   0.00  -0.03
 101   6     0.00   0.00  -0.00    -0.04  -0.04   0.02     0.10  -0.00  -0.01
 102   6     0.02   0.00  -0.00     0.10  -0.04   0.02    -0.05   0.01  -0.00
 103   6     0.04   0.00  -0.01     0.21  -0.04   0.02    -0.13   0.00   0.01
 104   6     0.04   0.00  -0.01     0.16  -0.04   0.02    -0.08  -0.02   0.01
 105   7     0.02   0.01  -0.01     0.02  -0.04   0.02     0.07  -0.03   0.00
 106   6     0.00   0.00  -0.00    -0.07  -0.04   0.02     0.16  -0.02  -0.01
 107   1     0.01  -0.00  -0.00     0.04  -0.01   0.01    -0.03   0.01  -0.00
 108   1     0.02   0.00  -0.00     0.09  -0.01   0.01    -0.07   0.00   0.01
 109   1     0.01   0.00  -0.00     0.06  -0.01   0.01    -0.05  -0.01   0.01
 110   1    -0.00   0.00   0.00    -0.05  -0.01   0.00     0.08  -0.01  -0.01
 111   6    -0.03  -0.00   0.02    -0.14  -0.02  -0.02     0.07   0.00  -0.01
 112   6    -0.03  -0.02   0.02    -0.11  -0.05  -0.03    -0.07  -0.01   0.04
 113   6    -0.01  -0.03   0.03    -0.01  -0.06  -0.04    -0.16  -0.01   0.08
 114   6     0.01  -0.01   0.04     0.05  -0.04  -0.04    -0.12  -0.01   0.07
 115   6     0.01   0.01   0.03     0.00  -0.01  -0.03     0.02   0.00   0.01
 116   6    -0.01   0.01   0.03    -0.10  -0.01  -0.02     0.12   0.01  -0.02
 117   1    -0.01  -0.01   0.00    -0.04  -0.02  -0.01    -0.03  -0.00   0.02
 118   1    -0.00  -0.01   0.01     0.01  -0.02  -0.01    -0.08  -0.01   0.03
 119   1     0.01  -0.01   0.01     0.04  -0.01  -0.01    -0.05  -0.00   0.03
 120   1    -0.00   0.01   0.01    -0.04   0.00  -0.00     0.07   0.00  -0.02
 121   6     0.02   0.02   0.04     0.06   0.01  -0.02     0.04   0.01   0.01
 122   6     0.07   0.04   0.05     0.22   0.08   0.01    -0.00  -0.01   0.01
 123   6     0.08   0.04   0.05     0.27   0.10   0.02     0.01  -0.00   0.01
 124   6     0.03   0.02   0.04     0.15   0.05  -0.00     0.04   0.02   0.02
 125   7    -0.01   0.01   0.04     0.00  -0.01  -0.03     0.08   0.03   0.02
 126   6    -0.01   0.01   0.03    -0.04  -0.03  -0.04     0.08   0.03   0.02
 127   1     0.03   0.02   0.02     0.09   0.04   0.01    -0.01  -0.01  -0.00
 128   1     0.03   0.02   0.02     0.11   0.04   0.01    -0.01  -0.00   0.00
 129   1     0.01   0.01   0.01     0.05   0.02  -0.00     0.01   0.01   0.01
 130   1    -0.01  -0.00   0.01    -0.05  -0.02  -0.02     0.03   0.01   0.01
                     16                     17                     18
                        a                      a                      a 
 Frequencies --    50.4414                62.8258                62.9443
 Red. masses --    10.7930                13.6043                13.6403
 Frc consts  --     0.0000                 0.0000                 0.0000
 IR Inten    --     0.0042                 0.1205                 0.1224
 Raman Activ --     0.0000                 0.0000                 0.0000
 Depolar     --     0.0000                 0.0000                 0.0000
 Atom AN      X      Y      Z        X      Y      Z        X      Y      Z
   1  46    -0.00   0.01   0.00    -0.01  -0.00   0.02     0.02  -0.00   0.01
   2  46    -0.00  -0.01  -0.00     0.09  -0.00   0.15     0.15   0.00  -0.09
   3   6     0.00   0.04   0.09     0.05   0.00   0.07    -0.05  -0.02   0.13
   4   6     0.02   0.05   0.05     0.01  -0.01   0.07    -0.02  -0.01   0.14
   5   6     0.01   0.05  -0.00    -0.00  -0.02   0.04    -0.00   0.00   0.09
   6   6     0.00   0.06  -0.09    -0.00  -0.01  -0.01     0.01  -0.00  -0.00
   7   6    -0.02   0.06  -0.13    -0.01  -0.01  -0.06     0.02   0.01  -0.10
   8   6    -0.02   0.03  -0.09    -0.01  -0.02  -0.04     0.02   0.01  -0.09
   9   7    -0.00   0.02  -0.02    -0.01  -0.03   0.01     0.01   0.02   0.01
  10   6     0.01   0.03   0.02    -0.00  -0.02   0.05    -0.00   0.01   0.09
  11   1     0.00   0.02  -0.03    -0.00  -0.00  -0.01     0.00  -0.00  -0.00
  12   1    -0.01   0.02  -0.06    -0.00  -0.00  -0.03     0.01   0.00  -0.05
  13   1    -0.01   0.01  -0.03    -0.00  -0.01  -0.02     0.01   0.01  -0.04
  14   1     0.01   0.01   0.02    -0.00  -0.01   0.02    -0.00   0.00   0.04
  15   6     0.01   0.04   0.08     0.05   0.01   0.04    -0.07  -0.02   0.07
  16   6     0.02   0.07   0.11     0.03   0.01  -0.03    -0.14  -0.01  -0.14
  17   6     0.03   0.07   0.06     0.01   0.01  -0.07    -0.15  -0.01  -0.22
  18   6     0.02   0.06  -0.01     0.02   0.01  -0.05    -0.10  -0.01  -0.09
  19   6     0.01   0.03  -0.02     0.05   0.00   0.01    -0.03  -0.02   0.09
  20   6     0.00   0.03   0.02     0.06   0.00   0.06    -0.02  -0.03   0.18
  21   1     0.01   0.02   0.05     0.01   0.00  -0.01    -0.05  -0.00  -0.07
  22   1     0.01   0.03   0.02    -0.00   0.00  -0.04    -0.06   0.00  -0.11
  23   1     0.01   0.02  -0.02     0.00   0.00  -0.03    -0.03  -0.00  -0.04
  24   1    -0.00   0.00   0.00     0.02  -0.00   0.03     0.01  -0.01   0.09
  25   6     0.01   0.01  -0.08     0.05   0.01   0.02    -0.00  -0.03   0.13
  26   6     0.04  -0.02  -0.18     0.05   0.00   0.01     0.00  -0.00   0.17
  27   6     0.05  -0.04  -0.20     0.05   0.01   0.03     0.02  -0.02   0.15
  28   6     0.03  -0.02  -0.12     0.04   0.02   0.05     0.03  -0.06   0.06
  29   7     0.01   0.01  -0.03     0.04   0.02   0.06     0.03  -0.09   0.01
  30   6    -0.00   0.03  -0.01     0.04   0.01   0.04     0.01  -0.06   0.06
  31   1     0.01  -0.01  -0.07     0.02  -0.00  -0.00    -0.00   0.01   0.06
  32   1     0.02  -0.02  -0.08     0.01   0.00   0.01     0.00  -0.00   0.05
  33   1     0.01  -0.01  -0.03     0.01   0.01   0.02     0.01  -0.02   0.00
  34   1    -0.01   0.01   0.02     0.01   0.01   0.01     0.01  -0.02   0.01
  35   6     0.10  -0.04  -0.01    -0.13  -0.02  -0.05     0.05  -0.00  -0.05
  36   6     0.06  -0.05  -0.03    -0.14  -0.01  -0.02     0.05   0.01  -0.01
  37   6     0.01  -0.05  -0.02    -0.09   0.00  -0.00     0.03   0.02  -0.00
  38   6    -0.09  -0.06  -0.00     0.00  -0.00   0.01    -0.01   0.01   0.00
  39   6    -0.15  -0.05   0.02     0.09   0.01   0.02    -0.04   0.01   0.01
  40   6    -0.10  -0.03   0.02     0.08   0.01   0.02    -0.03   0.02   0.01
  41   7    -0.01  -0.02   0.00    -0.01   0.02   0.01     0.00   0.03   0.00
  42   6     0.04  -0.03  -0.01    -0.09   0.01  -0.00     0.04   0.02   0.00
  43   1    -0.04  -0.02  -0.00     0.00  -0.00   0.00    -0.00   0.00   0.00
  44   1    -0.06  -0.02   0.01     0.05   0.00   0.01    -0.02   0.00   0.00
  45   1    -0.04  -0.01   0.01     0.04   0.01   0.01    -0.02   0.01   0.00
  46   1     0.03  -0.00  -0.01    -0.05   0.00  -0.00     0.02   0.01  -0.00
  47   6     0.09  -0.04  -0.01    -0.07  -0.02  -0.07     0.03  -0.01  -0.06
  48   6     0.11  -0.07  -0.02     0.13  -0.01  -0.14    -0.02  -0.01  -0.04
  49   6     0.05  -0.07  -0.02     0.21  -0.00  -0.15    -0.05  -0.01  -0.03
  50   6    -0.02  -0.06  -0.01     0.09  -0.01  -0.09    -0.05  -0.01  -0.03
  51   6    -0.02  -0.03  -0.01    -0.09  -0.02  -0.03     0.00  -0.01  -0.05
  52   6     0.04  -0.03  -0.01    -0.17  -0.02  -0.02     0.04  -0.00  -0.06
  53   1     0.05  -0.02  -0.01     0.07  -0.00  -0.05    -0.01  -0.00  -0.01
  54   1     0.02  -0.03  -0.01     0.10   0.00  -0.06    -0.03  -0.00  -0.00
  55   1    -0.02  -0.02  -0.00     0.04  -0.00  -0.03    -0.02  -0.00  -0.01
  56   1     0.01  -0.00  -0.00    -0.09  -0.01   0.01     0.02  -0.00  -0.02
  57   6    -0.07  -0.01  -0.01    -0.12  -0.03  -0.00     0.01  -0.01  -0.05
  58   6    -0.18   0.03  -0.04    -0.17  -0.00   0.01    -0.00  -0.00  -0.06
  59   6    -0.20   0.04  -0.05    -0.15  -0.02   0.02     0.02  -0.01  -0.05
  60   6    -0.11   0.02  -0.03    -0.06  -0.06   0.03     0.05  -0.02  -0.05
  61   7    -0.03  -0.02  -0.01    -0.01  -0.09   0.03     0.06  -0.02  -0.05
  62   6    -0.01  -0.03   0.00    -0.05  -0.06   0.01     0.04  -0.02  -0.05
  63   1    -0.07   0.01  -0.01    -0.06   0.01  -0.00    -0.01   0.00  -0.02
  64   1    -0.08   0.02  -0.02    -0.05   0.00   0.00     0.00  -0.00  -0.02
  65   1    -0.03   0.01  -0.01    -0.01  -0.02   0.01     0.02  -0.01  -0.01
  66   1     0.02  -0.02   0.01    -0.01  -0.02   0.01     0.01  -0.01  -0.01
  67   6    -0.00   0.04  -0.09     0.05  -0.00   0.04    -0.05   0.02   0.14
  68   6    -0.02   0.05  -0.05     0.01   0.01   0.05    -0.02   0.00   0.15
  69   6    -0.02   0.05   0.00     0.00   0.02   0.03    -0.00  -0.00   0.09
  70   6    -0.00   0.06   0.09    -0.00   0.01  -0.00     0.01   0.00  -0.01
  71   6     0.02   0.05   0.14    -0.01   0.01  -0.03     0.02  -0.00  -0.10
  72   6     0.02   0.03   0.09    -0.01   0.02  -0.03     0.02  -0.01  -0.10
  73   7     0.00   0.02   0.02    -0.00   0.03   0.00     0.01  -0.02   0.00
  74   6    -0.01   0.03  -0.02    -0.00   0.02   0.03    -0.00  -0.01   0.09
  75   1    -0.00   0.02   0.04    -0.00   0.00  -0.00     0.00   0.00  -0.00
  76   1     0.01   0.02   0.06    -0.00   0.00  -0.02     0.01   0.00  -0.05
  77   1     0.01   0.01   0.03    -0.00   0.01  -0.01     0.01  -0.00  -0.05
  78   1    -0.01   0.01  -0.02    -0.00   0.01   0.01    -0.00  -0.00   0.05
  79   6    -0.01   0.05  -0.09     0.06  -0.01   0.03    -0.07   0.02   0.08
  80   6    -0.02   0.07  -0.12     0.05  -0.01  -0.01    -0.14   0.01  -0.14
  81   6    -0.03   0.08  -0.06     0.04  -0.01  -0.05    -0.16   0.01  -0.23
  82   6    -0.02   0.06   0.02     0.04  -0.01  -0.04    -0.10   0.02  -0.10
  83   6    -0.01   0.03   0.03     0.05  -0.01   0.00    -0.03   0.02   0.10
  84   6    -0.00   0.03  -0.02     0.06  -0.01   0.04    -0.02   0.02   0.19
  85   1    -0.01   0.02  -0.05     0.01  -0.00  -0.01    -0.05   0.00  -0.07
  86   1    -0.01   0.03  -0.02     0.01  -0.00  -0.02    -0.06   0.00  -0.11
  87   1    -0.01   0.02   0.02     0.01  -0.00  -0.02    -0.04   0.01  -0.04
  88   1     0.00   0.00  -0.00     0.02  -0.00   0.02     0.01   0.01   0.10
  89   6    -0.01   0.01   0.08     0.05  -0.01   0.01    -0.00   0.03   0.13
  90   6    -0.04  -0.03   0.19     0.06  -0.00  -0.00     0.00   0.00   0.17
  91   6    -0.05  -0.05   0.21     0.05  -0.01   0.02     0.01   0.02   0.15
  92   6    -0.04  -0.02   0.12     0.05  -0.02   0.04     0.03   0.06   0.06
  93   7    -0.01   0.01   0.03     0.05  -0.03   0.05     0.03   0.09   0.02
  94   6     0.00   0.03   0.01     0.05  -0.02   0.03     0.01   0.06   0.07
  95   1    -0.02  -0.02   0.07     0.02   0.00  -0.01    -0.00  -0.01   0.06
  96   1    -0.02  -0.02   0.08     0.02  -0.00   0.00     0.00   0.00   0.05
  97   1    -0.01  -0.01   0.04     0.01  -0.01   0.02     0.01   0.02   0.00
  98   1     0.01   0.01  -0.02     0.01  -0.01   0.01     0.01   0.02   0.01
  99   6    -0.11  -0.04   0.00    -0.15   0.02  -0.06     0.06   0.00  -0.05
 100   6    -0.07  -0.06   0.03    -0.15   0.00  -0.02     0.06  -0.01  -0.01
 101   6    -0.01  -0.05   0.02    -0.09  -0.00  -0.00     0.04  -0.02  -0.00
 102   6     0.10  -0.06   0.00     0.01   0.00   0.01    -0.01  -0.01   0.00
 103   6     0.16  -0.05  -0.02     0.11  -0.00   0.02    -0.05  -0.01   0.01
 104   6     0.11  -0.03  -0.02     0.10  -0.01   0.02    -0.04  -0.02   0.01
 105   7     0.01  -0.02  -0.00     0.00  -0.02   0.01     0.01  -0.03   0.00
 106   6    -0.04  -0.03   0.01    -0.09  -0.01  -0.00     0.04  -0.02   0.00
 107   1     0.04  -0.02   0.00     0.00   0.00   0.00    -0.01  -0.00   0.00
 108   1     0.07  -0.02  -0.01     0.05  -0.00   0.01    -0.03  -0.00   0.00
 109   1     0.04  -0.01  -0.01     0.05  -0.01   0.01    -0.02  -0.01   0.00
 110   1    -0.03  -0.01   0.01    -0.04  -0.00  -0.00     0.02  -0.01  -0.00
 111   6    -0.10  -0.05   0.01    -0.09   0.02  -0.07     0.04   0.01  -0.05
 112   6    -0.11  -0.07   0.02     0.14   0.02  -0.15    -0.02   0.01  -0.03
 113   6    -0.05  -0.08   0.02     0.23   0.01  -0.17    -0.06   0.01  -0.02
 114   6     0.03  -0.06   0.01     0.10   0.02  -0.11    -0.05   0.01  -0.03
 115   6     0.02  -0.03   0.00    -0.10   0.02  -0.03     0.01   0.01  -0.05
 116   6    -0.04  -0.03   0.00    -0.20   0.02  -0.02     0.05   0.01  -0.06
 117   1    -0.05  -0.02   0.01     0.07   0.00  -0.06    -0.01   0.00  -0.01
 118   1    -0.02  -0.03   0.01     0.12   0.00  -0.07    -0.03   0.00  -0.00
 119   1     0.03  -0.02   0.00     0.04   0.01  -0.04    -0.02   0.00  -0.00
 120   1    -0.01  -0.00  -0.00    -0.10   0.01   0.01     0.03   0.00  -0.02
 121   6     0.08  -0.01   0.01    -0.14   0.03  -0.00     0.02   0.01  -0.05
 122   6     0.19   0.03   0.04    -0.17   0.01   0.00     0.00   0.00  -0.06
 123   6     0.21   0.05   0.05    -0.15   0.02   0.01     0.02   0.01  -0.05
 124   6     0.12   0.02   0.03    -0.06   0.07   0.03     0.05   0.02  -0.05
 125   7     0.03  -0.02   0.01    -0.02   0.09   0.03     0.06   0.02  -0.04
 126   6     0.00  -0.03  -0.00    -0.07   0.06   0.01     0.04   0.02  -0.04
 127   1     0.07   0.02   0.02    -0.06  -0.01  -0.00    -0.01  -0.00  -0.02
 128   1     0.09   0.02   0.02    -0.05   0.00   0.00     0.00   0.00  -0.02
 129   1     0.03   0.01   0.01    -0.00   0.03   0.01     0.02   0.01  -0.01
 130   1    -0.02  -0.02  -0.01    -0.01   0.02   0.01     0.01   0.01  -0.01
                     19                     20                     21
                        a                      a                      a 
 Frequencies --    64.6196                70.8347                76.0961
 Red. masses --    10.6965                14.4191                14.9458
 Frc consts  --     0.0000                 0.0000                 0.0000
 IR Inten    --     0.0129                 0.0251                 0.3358
 Raman Activ --     0.0000                 0.0000                 0.0000
 Depolar     --     0.0000                 0.0000                 0.0000
 Atom AN      X      Y      Z        X      Y      Z        X      Y      Z
   1  46    -0.00   0.00   0.00    -0.00  -0.05  -0.00     0.12  -0.00   0.04
   2  46     0.00   0.00   0.01    -0.00  -0.19  -0.01     0.13  -0.00   0.08
   3   6     0.04   0.02  -0.13     0.00   0.01  -0.03    -0.20  -0.00  -0.13
   4   6     0.02   0.01  -0.11     0.00   0.00   0.03    -0.06   0.05  -0.15
   5   6     0.01   0.00  -0.05    -0.00   0.00   0.06     0.00   0.07  -0.10
   6   6     0.00   0.00   0.04    -0.00   0.01  -0.08     0.04   0.05  -0.02
   7   6    -0.00  -0.00   0.11    -0.01   0.01  -0.07     0.07   0.06   0.09
   8   6    -0.00  -0.01   0.09    -0.01  -0.01   0.06     0.07   0.11   0.10
   9   7     0.00  -0.01   0.01    -0.01  -0.02   0.20     0.04   0.15   0.02
  10   6     0.01  -0.00  -0.06    -0.01  -0.01   0.21     0.01   0.12  -0.08
  11   1     0.00   0.00   0.02    -0.00   0.01  -0.06     0.01   0.00  -0.01
  12   1    -0.00  -0.00   0.05    -0.00   0.00  -0.05     0.03   0.01   0.05
  13   1    -0.00  -0.00   0.04    -0.01  -0.00   0.02     0.03   0.04   0.05
  14   1     0.00  -0.00  -0.03    -0.00  -0.01   0.10    -0.00   0.04  -0.04
  15   6     0.06   0.02  -0.09     0.01   0.01  -0.05    -0.18  -0.00  -0.07
  16   6     0.12   0.02   0.08     0.04   0.02   0.04    -0.15   0.05  -0.02
  17   6     0.14   0.02   0.15     0.05   0.02   0.05    -0.07   0.06   0.08
  18   6     0.10   0.02   0.07     0.03   0.02  -0.01    -0.02   0.03   0.13
  19   6     0.05   0.02  -0.08     0.00   0.01  -0.09    -0.04  -0.02   0.07
  20   6     0.03   0.02  -0.17    -0.02   0.01  -0.12    -0.13  -0.03  -0.02
  21   1     0.04   0.01   0.04     0.02   0.01   0.03    -0.06   0.02  -0.02
  22   1     0.05   0.00   0.08     0.02   0.01   0.03    -0.01   0.03   0.04
  23   1     0.04   0.01   0.04     0.01   0.00   0.01     0.02   0.01   0.06
  24   1    -0.01   0.01  -0.08    -0.01  -0.00  -0.06    -0.04  -0.02  -0.02
  25   6     0.03   0.02  -0.10     0.01   0.01  -0.08     0.01  -0.06   0.05
  26   6     0.04   0.03  -0.08     0.01   0.07   0.05     0.04  -0.08  -0.01
  27   6     0.04   0.04  -0.04     0.02   0.08   0.11     0.08  -0.12  -0.08
  28   6     0.03   0.04  -0.01     0.03   0.02   0.05     0.07  -0.14  -0.06
  29   7     0.03   0.03  -0.03     0.03  -0.04  -0.08     0.04  -0.13   0.02
  30   6     0.03   0.02  -0.07     0.02  -0.05  -0.14     0.00  -0.09   0.07
  31   1     0.01   0.01  -0.02    -0.00   0.03   0.03     0.01  -0.02  -0.00
  32   1     0.01   0.01  -0.01     0.00   0.04   0.06     0.03  -0.04  -0.04
  33   1     0.01   0.01   0.01     0.01   0.01   0.03     0.03  -0.05  -0.03
  34   1     0.01   0.00  -0.03     0.01  -0.03  -0.07    -0.01  -0.02   0.03
  35   6    -0.14  -0.02  -0.04     0.03   0.01   0.00    -0.03   0.00  -0.03
  36   6    -0.12  -0.01  -0.02    -0.03   0.00   0.00    -0.03   0.01  -0.01
  37   6    -0.06  -0.00  -0.01    -0.06   0.00  -0.00    -0.01   0.02   0.00
  38   6     0.04  -0.00  -0.00     0.08   0.01  -0.00    -0.01   0.01   0.01
  39   6     0.13   0.00   0.00     0.07   0.01  -0.01     0.02   0.02   0.02
  40   6     0.10   0.00   0.00    -0.06  -0.01  -0.02     0.04   0.03   0.02
  41   7     0.01   0.00  -0.00    -0.20  -0.01  -0.01     0.04   0.03   0.02
  42   6    -0.07   0.00  -0.01    -0.21  -0.01  -0.01     0.01   0.03   0.01
  43   1     0.02  -0.00  -0.00     0.06   0.01  -0.00    -0.01   0.00   0.00
  44   1     0.06   0.00   0.00     0.05   0.00  -0.00     0.01   0.00   0.01
  45   1     0.04   0.00   0.00    -0.02  -0.00  -0.01     0.02   0.01   0.01
  46   1    -0.04   0.00  -0.00    -0.10  -0.00  -0.00     0.00   0.01  -0.00
  47   6    -0.10  -0.02  -0.06     0.05   0.01   0.01    -0.02   0.00  -0.04
  48   6     0.09  -0.02  -0.12    -0.04   0.02   0.04     0.02   0.01  -0.05
  49   6     0.17  -0.02  -0.14    -0.05   0.02   0.05     0.04   0.02  -0.04
  50   6     0.08  -0.02  -0.11     0.00   0.02   0.03     0.02   0.01  -0.02
  51   6    -0.09  -0.02  -0.04     0.09   0.01   0.00    -0.01   0.00  -0.01
  52   6    -0.19  -0.02  -0.02     0.12   0.01  -0.02    -0.03  -0.00  -0.02
  53   1     0.05  -0.00  -0.04    -0.03   0.01   0.02     0.01   0.01  -0.02
  54   1     0.09  -0.00  -0.06    -0.03   0.01   0.02     0.02   0.01  -0.01
  55   1     0.04  -0.01  -0.04    -0.01   0.00   0.01     0.01   0.00  -0.01
  56   1    -0.09  -0.01   0.01     0.05  -0.00  -0.01    -0.02  -0.00  -0.00
  57   6    -0.10  -0.02  -0.03     0.08   0.01   0.01    -0.02  -0.01   0.00
[...]
  14   1     0.00   0.00   0.00     0.00   0.00  -0.00     0.00   0.00   0.00
  15   6     0.00   0.00  -0.00    -0.00  -0.00   0.00    -0.00   0.00   0.00
  16   6    -0.00  -0.00   0.00     0.00   0.00  -0.00    -0.00  -0.00   0.00
  17   6    -0.00   0.00   0.00     0.00  -0.00  -0.00    -0.00   0.00   0.00
  18   6    -0.00   0.00   0.00     0.00  -0.00  -0.00    -0.00   0.00   0.00
  19   6     0.00   0.00  -0.00    -0.00  -0.00   0.00    -0.00   0.00   0.00
  20   6    -0.00   0.00   0.00    -0.00   0.00   0.00    -0.00  -0.00   0.00
  21   1     0.00   0.00  -0.00    -0.00  -0.00   0.00     0.00   0.00  -0.00
  22   1     0.00  -0.00  -0.00    -0.00   0.00   0.00     0.00  -0.00  -0.00
  23   1     0.00  -0.00  -0.00    -0.00   0.00   0.00     0.00  -0.00  -0.00
  24   1     0.00  -0.00  -0.00     0.00  -0.00  -0.00     0.00  -0.00  -0.00
  25   6     0.00   0.00  -0.00    -0.00  -0.00   0.00    -0.00  -0.00   0.00
  26   6     0.00  -0.00   0.00    -0.00   0.00  -0.00    -0.01   0.00  -0.00
  27   6     0.00  -0.01   0.00    -0.00   0.00  -0.00    -0.00   0.01  -0.01
  28   6    -0.00  -0.00   0.00     0.00   0.00  -0.00     0.00   0.00  -0.00
  29   7     0.00   0.00  -0.00     0.00  -0.00   0.00     0.00  -0.00   0.00
  30   6    -0.00   0.00  -0.00    -0.00   0.00  -0.00     0.00   0.00  -0.00
  31   1    -0.01   0.00  -0.00     0.01  -0.00   0.00     0.02  -0.00   0.01
  32   1    -0.01   0.03  -0.01     0.01  -0.02   0.01     0.02  -0.04   0.02
  33   1     0.00   0.00  -0.00    -0.00  -0.00   0.00    -0.00  -0.00   0.00
  34   1    -0.00  -0.00  -0.00     0.00  -0.00   0.00     0.00  -0.00   0.00
  35   6     0.00  -0.00   0.00    -0.00  -0.00   0.00    -0.00   0.00  -0.00
  36   6     0.00  -0.00  -0.00     0.00   0.00  -0.00     0.00  -0.00   0.00
  37   6    -0.00   0.00   0.00    -0.00   0.00   0.00     0.00  -0.00  -0.00
  38   6     0.00   0.00  -0.00     0.00   0.00  -0.00    -0.00  -0.00   0.01
  39   6     0.00  -0.00  -0.00     0.00  -0.00  -0.00    -0.00   0.01   0.01
  40   6     0.00  -0.00   0.00     0.00  -0.00   0.00     0.00   0.00  -0.00
  41   7    -0.00   0.00   0.00     0.00   0.00   0.00    -0.00  -0.00  -0.00
  42   6     0.00  -0.00  -0.00     0.00  -0.00  -0.00     0.00  -0.00  -0.00
  43   1    -0.00  -0.00   0.01    -0.00  -0.00   0.01     0.00   0.00  -0.03
  44   1    -0.00   0.01   0.01    -0.00   0.02   0.01     0.00  -0.05  -0.03
  45   1    -0.00   0.00  -0.00     0.00   0.00  -0.00    -0.00  -0.00   0.00
  46   1    -0.00   0.00   0.00    -0.00   0.00   0.00     0.00   0.00   0.00
  47   6    -0.00   0.00  -0.00    -0.00   0.00  -0.00    -0.00   0.00  -0.00
  48   6     0.00   0.00   0.00     0.00   0.00   0.00     0.00   0.00   0.00
  49   6     0.00  -0.00   0.00     0.00  -0.00   0.00     0.00  -0.00   0.00
  50   6     0.00  -0.00   0.00     0.00  -0.00   0.00     0.00  -0.00   0.00
  51   6    -0.00  -0.00  -0.00    -0.00  -0.00  -0.00    -0.00  -0.00  -0.00
  52   6    -0.00   0.00  -0.00    -0.00   0.00  -0.00    -0.00   0.00  -0.00
  53   1    -0.00  -0.00  -0.00    -0.00  -0.00  -0.00    -0.00  -0.00  -0.00
  54   1    -0.00   0.00  -0.00    -0.00   0.00  -0.00    -0.00   0.00  -0.00
  55   1    -0.00   0.00  -0.00    -0.00   0.00  -0.00    -0.00   0.00  -0.00
  56   1     0.00  -0.00   0.00     0.00  -0.00   0.00     0.00  -0.00   0.00
  57   6    -0.00  -0.00  -0.00     0.00   0.00   0.00     0.00   0.00   0.00
  58   6     0.00   0.00  -0.00    -0.00  -0.00   0.00    -0.00  -0.00   0.00
  59   6     0.00   0.00  -0.00    -0.00  -0.00   0.00    -0.00  -0.00   0.00
  60   6     0.00   0.00   0.00    -0.00  -0.00  -0.00    -0.00  -0.00  -0.00
  61   7     0.00   0.00  -0.00     0.00   0.00  -0.00     0.00   0.00  -0.00
  62   6     0.00   0.00  -0.00     0.00   0.00  -0.00     0.00   0.00  -0.00
  63   1    -0.00  -0.00   0.00     0.00   0.00  -0.01     0.00   0.00  -0.01
  64   1    -0.00  -0.01   0.00     0.01   0.01  -0.01     0.01   0.02  -0.01
  65   1    -0.00  -0.00  -0.00     0.00   0.00   0.00     0.00   0.00   0.00
  66   1    -0.00  -0.00   0.00    -0.00  -0.00   0.00    -0.00  -0.00   0.00
  67   6     0.00   0.00   0.00    -0.00  -0.00  -0.00     0.00   0.00  -0.00
  68   6    -0.00  -0.00  -0.00     0.00   0.00   0.00    -0.00  -0.00   0.00
  69   6     0.00  -0.00   0.00    -0.00   0.00  -0.00     0.00  -0.00  -0.00
  70   6    -0.00  -0.00  -0.00     0.01   0.00   0.00    -0.00  -0.00  -0.00
  71   6    -0.00   0.01  -0.00     0.01  -0.01   0.00    -0.00   0.00  -0.00
  72   6     0.00   0.00   0.00    -0.00  -0.00  -0.00    -0.00  -0.00  -0.00
  73   7     0.00  -0.00   0.00    -0.00   0.00   0.00     0.00  -0.00   0.00
  74   6     0.00  -0.00   0.00     0.00  -0.00   0.00     0.00  -0.00   0.00
  75   1     0.01   0.00   0.00    -0.03  -0.00  -0.00     0.00   0.00   0.00
  76   1     0.01  -0.02   0.00    -0.03   0.05  -0.00     0.00  -0.00   0.00
  77   1    -0.00  -0.00  -0.00     0.00   0.00   0.00     0.00   0.00   0.00
  78   1    -0.00   0.00  -0.00    -0.00   0.00  -0.00    -0.00   0.00  -0.00
  79   6     0.00   0.00  -0.00     0.00   0.00  -0.00     0.00   0.00  -0.00
  80   6    -0.00   0.00   0.00    -0.00   0.00   0.00    -0.00   0.00   0.00
  81   6    -0.00  -0.00   0.00    -0.00  -0.00   0.00    -0.00  -0.00   0.00
  82   6    -0.00  -0.00   0.00    -0.00  -0.00   0.00    -0.00  -0.00   0.00
  83   6     0.00  -0.00  -0.00     0.00   0.00  -0.00     0.00  -0.00  -0.00
  84   6     0.00   0.00  -0.00     0.00  -0.00  -0.00     0.00   0.00  -0.00
  85   1     0.00  -0.00  -0.00     0.00  -0.00  -0.00     0.00  -0.00  -0.00
  86   1     0.00   0.00  -0.00     0.00   0.00  -0.00     0.00   0.00  -0.00
  87   1     0.00   0.00  -0.00     0.00   0.00  -0.00     0.00   0.00  -0.00
  88   1    -0.00  -0.00   0.00    -0.00  -0.00   0.00    -0.00  -0.00   0.00
  89   6    -0.00   0.00   0.00     0.00  -0.00  -0.00     0.00  -0.00  -0.00
  90   6    -0.00  -0.00  -0.00     0.00   0.00   0.00     0.00   0.00   0.00
  91   6    -0.00  -0.00  -0.00     0.00   0.00   0.00     0.00   0.00   0.00
  92   6     0.00  -0.00  -0.00    -0.00   0.00   0.00    -0.00   0.00   0.00
  93   7    -0.00   0.00   0.00    -0.00  -0.00  -0.00    -0.00  -0.00  -0.00
  94   6     0.00   0.00   0.00     0.00   0.00   0.00     0.00   0.00   0.00
  95   1     0.01   0.00   0.00    -0.00  -0.00  -0.00    -0.01  -0.00  -0.00
  96   1     0.01   0.02   0.01    -0.00  -0.01  -0.00    -0.01  -0.01  -0.01
  97   1    -0.00   0.00   0.00     0.00  -0.00  -0.00     0.00  -0.00  -0.00
  98   1    -0.00  -0.00  -0.00    -0.00  -0.00  -0.00    -0.00  -0.00  -0.00
  99   6     0.00  -0.00   0.00    -0.00  -0.00  -0.00    -0.00  -0.00  -0.00
 100   6    -0.00  -0.00  -0.00     0.00   0.00   0.00    -0.00   0.00   0.00
 101   6     0.00   0.00  -0.00     0.00   0.00  -0.00     0.00   0.00  -0.00
 102   6    -0.00   0.00   0.01    -0.00   0.01   0.12    -0.00   0.00   0.04
 103   6    -0.00  -0.01   0.01    -0.00  -0.21   0.12    -0.00  -0.06   0.04
 104   6     0.00  -0.00  -0.00     0.00  -0.01  -0.01     0.00  -0.00  -0.00
 105   7     0.00   0.00  -0.00     0.00   0.00  -0.00    -0.00   0.00  -0.00
 106   6     0.00  -0.00   0.00     0.00   0.00  -0.00    -0.00  -0.00  -0.00
 107   1     0.00  -0.00  -0.03     0.01  -0.02  -0.41     0.00  -0.01  -0.12
 108   1     0.00   0.05  -0.03     0.02   0.70  -0.43     0.00   0.20  -0.12
 109   1    -0.00   0.00   0.00    -0.00   0.03   0.02    -0.00   0.01   0.00
 110   1     0.00   0.00  -0.00     0.00   0.00  -0.00     0.00   0.00  -0.00
 111   6     0.00   0.00   0.00     0.00   0.00  -0.00     0.00   0.00   0.00
 112   6    -0.00  -0.00  -0.00     0.00  -0.00   0.00    -0.00   0.00  -0.00
 113   6     0.00   0.00   0.00     0.00   0.00   0.00    -0.00  -0.00  -0.00
 114   6     0.00   0.01   0.00    -0.00  -0.00  -0.00    -0.00  -0.00  -0.00
 115   6    -0.00   0.00   0.00     0.00   0.00  -0.00     0.00   0.00   0.00
 116   6     0.00   0.00   0.01    -0.00  -0.00  -0.00    -0.00  -0.00  -0.00
 117   1     0.00  -0.00   0.00    -0.00   0.00  -0.00     0.00  -0.00   0.00
 118   1    -0.00  -0.00  -0.00    -0.00  -0.00  -0.00     0.00   0.00   0.00
 119   1    -0.00  -0.02  -0.01     0.00   0.00   0.00     0.00   0.00   0.00
 120   1    -0.01  -0.00  -0.02     0.00   0.00   0.00     0.00   0.00   0.00
 121   6     0.00  -0.00   0.00    -0.00   0.00  -0.00    -0.00   0.00  -0.00
 122   6    -0.03   0.00   0.13     0.00  -0.00  -0.01     0.00  -0.00  -0.00
 123   6    -0.10   0.21   0.09     0.01  -0.01  -0.01     0.00  -0.01  -0.00
 124   6    -0.00   0.01  -0.01     0.00  -0.00   0.00     0.00  -0.00   0.00
 125   7     0.00  -0.00  -0.00    -0.00   0.00   0.00    -0.00   0.00   0.00
 126   6     0.00   0.00  -0.00    -0.00  -0.00   0.00    -0.00   0.00   0.00
 127   1     0.11  -0.02  -0.44    -0.01   0.00   0.03    -0.00   0.00   0.01
 128   1     0.35  -0.70  -0.30    -0.02   0.04   0.02    -0.01   0.02   0.01
 129   1     0.00  -0.02   0.02    -0.00   0.00  -0.00    -0.00   0.00  -0.00
 130   1     0.00  -0.00  -0.00    -0.00   0.00   0.00     0.00  -0.00  -0.00
                    382                    383                    384
                        a                      a                      a 
 Frequencies --  3119.5663              3119.6889              3120.0463
 Red. masses --     1.8965                 1.8951                 1.8971
 Frc consts  --     0.0000                 0.0000                 0.0000
 IR Inten    --     0.0076                 0.0291                 0.0076
 Raman Activ --     0.0000                 0.0000                 0.0000
 Depolar     --     0.0000                 0.0000                 0.0000
 Atom AN      X      Y      Z        X      Y      Z        X      Y      Z
   1  46    -0.00  -0.00  -0.00     0.00  -0.00  -0.00     0.00   0.00   0.00
   2  46    -0.00   0.00  -0.00     0.00   0.00   0.00     0.00   0.00   0.00
   3   6    -0.00   0.00   0.00     0.00  -0.00   0.00    -0.00   0.00   0.00
   4   6     0.00  -0.00  -0.00    -0.00   0.00  -0.00     0.00  -0.00  -0.00
   5   6    -0.00  -0.00  -0.00     0.00   0.00   0.00    -0.00  -0.00  -0.00
   6   6     0.01  -0.00   0.00    -0.01   0.00  -0.00     0.00  -0.00   0.00
   7   6     0.00   0.01   0.00    -0.01  -0.01  -0.00     0.00   0.00   0.00
   8   6    -0.00   0.00   0.00     0.00  -0.00   0.00    -0.00   0.00   0.00
   9   7    -0.00  -0.00  -0.00     0.00   0.00  -0.00    -0.00  -0.00  -0.00
  10   6    -0.00  -0.00  -0.00    -0.00  -0.00  -0.00    -0.00  -0.00  -0.00
  11   1    -0.02   0.00  -0.00     0.03  -0.00   0.00    -0.01   0.00  -0.00
  12   1    -0.02  -0.03  -0.00     0.03   0.05   0.00    -0.01  -0.01  -0.00
  13   1     0.00  -0.00  -0.00    -0.00   0.00  -0.00     0.00  -0.00  -0.00
  14   1     0.00   0.00   0.00     0.00   0.00   0.00     0.00  -0.00   0.00
  15   6    -0.00   0.00   0.00    -0.00   0.00   0.00    -0.00   0.00   0.00
  16   6     0.00   0.00  -0.00     0.00   0.00  -0.00     0.00   0.00  -0.00
  17   6    -0.00   0.00   0.00     0.00  -0.00  -0.00     0.00  -0.00  -0.00
  18   6    -0.00   0.01   0.00     0.00  -0.00  -0.00     0.00  -0.00  -0.00
  19   6    -0.00   0.00  -0.00     0.00  -0.00   0.00    -0.00  -0.00   0.00
  20   6    -0.01   0.00   0.00     0.00  -0.00  -0.00    -0.00   0.00   0.00
  21   1    -0.00  -0.00   0.00    -0.00  -0.00   0.00    -0.00  -0.00   0.00
  22   1     0.00  -0.00  -0.00    -0.00   0.00   0.00    -0.00   0.00   0.00
  23   1     0.01  -0.02  -0.00    -0.00   0.00   0.00    -0.00   0.00   0.00
  24   1     0.02  -0.00  -0.01    -0.00   0.00   0.00     0.00  -0.00  -0.00
  25   6    -0.00  -0.00   0.00     0.00   0.00  -0.00    -0.00  -0.00   0.00
  26   6    -0.12   0.01  -0.03     0.01  -0.00   0.00    -0.00   0.00  -0.00
  27   6    -0.09   0.21  -0.10     0.01  -0.01   0.01    -0.00   0.00  -0.00
  28   6     0.01   0.01  -0.00    -0.00  -0.00   0.00     0.00   0.00  -0.00
  29   7     0.00  -0.00   0.00    -0.00   0.00  -0.00    -0.00  -0.00  -0.00
  30   6     0.00  -0.00   0.00    -0.00   0.00  -0.00    -0.00   0.00  -0.00
  31   1     0.41  -0.02   0.10    -0.03   0.00  -0.01     0.01  -0.00   0.00
  32   1     0.30  -0.72   0.34    -0.02   0.05  -0.02     0.01  -0.01   0.01
  33   1    -0.02  -0.02   0.00     0.00   0.00  -0.00    -0.00  -0.00   0.00
  34   1     0.00  -0.00   0.00     0.00  -0.00   0.00     0.00  -0.00   0.00
  35   6     0.00  -0.00   0.00     0.00  -0.00   0.00    -0.00   0.00  -0.00
  36   6     0.00   0.00  -0.00    -0.00   0.00  -0.00     0.00  -0.00   0.00
  37   6    -0.00   0.00   0.00    -0.00   0.00   0.00     0.00  -0.00  -0.00
  38   6     0.00   0.00  -0.01     0.00   0.01  -0.13    -0.00  -0.00   0.01
  39   6     0.00  -0.01  -0.01     0.01  -0.21  -0.14    -0.00   0.01   0.01
  40   6     0.00  -0.00   0.00     0.00  -0.01   0.01    -0.00   0.00  -0.00
  41   7    -0.00   0.00   0.00    -0.00   0.00   0.00     0.00  -0.00  -0.00
  42   6    -0.00  -0.00   0.00    -0.00   0.00   0.00     0.00  -0.00  -0.00
  43   1    -0.00  -0.00   0.03    -0.01  -0.03   0.42     0.00   0.00  -0.02
  44   1    -0.00   0.05   0.03    -0.03   0.72   0.46     0.00  -0.03  -0.02
  45   1    -0.00   0.00  -0.00    -0.00   0.03  -0.02     0.00  -0.00   0.00
  46   1    -0.00   0.00   0.00    -0.00   0.00   0.00    -0.00   0.00   0.00
  47   6    -0.00   0.00  -0.00    -0.00   0.00  -0.00    -0.00   0.00  -0.00
  48   6    -0.00  -0.00  -0.00    -0.00  -0.00  -0.00     0.00   0.00   0.00
  49   6    -0.00   0.00  -0.00    -0.00   0.00  -0.00     0.00  -0.00   0.00
  50   6    -0.00   0.00  -0.00    -0.00   0.00  -0.00     0.00  -0.00   0.00
  51   6     0.00   0.00  -0.00    -0.00   0.00   0.00    -0.00  -0.00  -0.00
  52   6    -0.00   0.00  -0.00     0.00  -0.00   0.00    -0.00   0.00  -0.00
  53   1     0.00   0.00   0.00     0.00   0.00   0.00    -0.00  -0.00  -0.00
  54   1     0.00  -0.00   0.00     0.00  -0.00   0.00    -0.00   0.00  -0.00
  55   1     0.00  -0.00   0.00     0.00  -0.00   0.00    -0.00   0.00  -0.00
  56   1     0.00  -0.00   0.00    -0.00   0.00  -0.00     0.00  -0.00   0.00
  57   6    -0.00  -0.00  -0.00     0.00   0.00   0.00    -0.00  -0.00  -0.00
  58   6     0.00   0.00  -0.00    -0.00  -0.00   0.00     0.00   0.00  -0.00
  59   6     0.00   0.00  -0.00    -0.00  -0.00   0.00     0.00   0.00  -0.00
  60   6     0.00   0.00   0.00    -0.00  -0.00  -0.00    -0.00  -0.00   0.00
  61   7    -0.00  -0.00   0.00     0.00   0.00   0.00    -0.00  -0.00   0.00
  62   6     0.00   0.00  -0.00     0.00   0.00  -0.00     0.00   0.00  -0.00
  63   1    -0.00  -0.00   0.01     0.00   0.00  -0.01    -0.00  -0.00   0.01
  64   1    -0.01  -0.02   0.01     0.00   0.01  -0.00    -0.01  -0.01   0.01
  65   1    -0.00  -0.00  -0.00     0.00   0.00   0.00     0.00   0.00   0.00
  66   1    -0.00  -0.00   0.00    -0.00  -0.00   0.00    -0.00  -0.00   0.00
  67   6     0.00   0.00   0.00    -0.00  -0.00   0.00     0.00   0.00  -0.00
  68   6    -0.00  -0.00   0.00     0.00   0.00   0.00    -0.00  -0.00   0.00
  69   6     0.00  -0.00   0.00    -0.00   0.00   0.00     0.00  -0.00   0.00
  70   6    -0.00  -0.00  -0.00     0.00   0.00   0.00    -0.00  -0.00  -0.00
  71   6    -0.00   0.00  -0.00     0.00  -0.01   0.00    -0.00   0.00  -0.00
  72   6     0.00   0.00   0.00    -0.00  -0.00  -0.00     0.00   0.00   0.00
  73   7     0.00  -0.00  -0.00    -0.00   0.00  -0.00     0.00  -0.00   0.00
  74   6     0.00  -0.00   0.00     0.00  -0.00  -0.00     0.00  -0.00   0.00
  75   1     0.01   0.00   0.00    -0.01  -0.00  -0.00     0.01   0.00   0.00
  76   1     0.01  -0.01   0.00    -0.01   0.02  -0.00     0.00  -0.01   0.00
  77   1    -0.00  -0.00  -0.00     0.00   0.00   0.00    -0.00  -0.00  -0.00
  78   1    -0.00   0.00   0.00    -0.00   0.00   0.00    -0.00   0.00  -0.00
  79   6     0.00   0.00  -0.00     0.00   0.00  -0.00     0.00   0.00  -0.00
  80   6    -0.00   0.00   0.00    -0.00   0.00   0.00    -0.00   0.00   0.00
  81   6    -0.00  -0.00   0.00    -0.00  -0.00   0.00     0.00   0.00  -0.00
  82   6    -0.00  -0.00   0.00     0.00   0.00  -0.00     0.00   0.01  -0.00
  83   6     0.00  -0.00  -0.00     0.00  -0.00  -0.00     0.00   0.00   0.00
  84   6     0.00   0.00  -0.00     0.00   0.00  -0.00     0.01   0.00  -0.00
  85   1     0.00  -0.00  -0.00     0.00  -0.00  -0.00     0.00  -0.00  -0.00
  86   1     0.00   0.00  -0.00     0.00   0.00  -0.00    -0.00  -0.00   0.00
  87   1     0.00   0.00  -0.00    -0.00  -0.00   0.00    -0.01  -0.02   0.00
  88   1    -0.00  -0.00   0.00    -0.00  -0.00   0.00    -0.02  -0.00   0.01
  89   6    -0.00   0.00   0.00     0.00  -0.00  -0.00     0.00  -0.00  -0.00
  90   6    -0.00  -0.00  -0.00     0.01   0.00   0.00     0.13   0.01   0.03
  91   6    -0.00  -0.00  -0.00     0.00   0.01   0.00     0.09   0.21   0.11
  92   6     0.00  -0.00  -0.00    -0.00   0.00   0.00    -0.01   0.01   0.00
  93   7     0.00   0.00   0.00    -0.00  -0.00  -0.00    -0.00  -0.00  -0.00
  94   6     0.00   0.00   0.00     0.00   0.00   0.00    -0.00  -0.00  -0.00
  95   1     0.01   0.00   0.00    -0.02  -0.00  -0.00    -0.42  -0.03  -0.11
  96   1     0.01   0.01   0.01    -0.01  -0.03  -0.02    -0.29  -0.71  -0.36
  97   1    -0.00   0.00   0.00     0.00  -0.00  -0.00     0.02  -0.02  -0.00
  98   1    -0.00  -0.00  -0.00    -0.00  -0.00  -0.00    -0.00  -0.00  -0.00
  99   6     0.00   0.00   0.00     0.00   0.00   0.00     0.00   0.00   0.00
 100   6     0.00  -0.00  -0.00    -0.00  -0.00  -0.00    -0.00  -0.00  -0.00
 101   6    -0.00  -0.00   0.00     0.00  -0.00   0.00    -0.00  -0.00   0.00
 102   6     0.00  -0.00  -0.00     0.00  -0.00  -0.00     0.00  -0.00  -0.00
 103   6     0.00   0.01  -0.00     0.00   0.00  -0.00     0.00   0.00  -0.00
 104   6    -0.00   0.00   0.00     0.00  -0.00  -0.00    -0.00   0.00   0.00
 105   7    -0.00  -0.00   0.00    -0.00  -0.00   0.00     0.00  -0.00   0.00
 106   6    -0.00  -0.00   0.00    -0.00  -0.00   0.00    -0.00  -0.00   0.00
 107   1    -0.00   0.00   0.01    -0.00   0.00   0.00    -0.00   0.00   0.00
 108   1    -0.00  -0.02   0.01    -0.00  -0.00   0.00    -0.00  -0.01   0.00
 109   1     0.00  -0.00  -0.00    -0.00   0.00   0.00     0.00  -0.00  -0.00
 110   1     0.00   0.00  -0.00     0.00   0.00  -0.00     0.00   0.00  -0.00
 111   6     0.00   0.00   0.00     0.00   0.00   0.00     0.00   0.00   0.00
 112   6    -0.00   0.00  -0.00    -0.00   0.00  -0.00    -0.00   0.00  -0.00
 113   6    -0.00  -0.00  -0.00    -0.00  -0.00  -0.00     0.00   0.00   0.00
 114   6    -0.00  -0.00  -0.00    -0.00  -0.00  -0.00     0.00   0.00   0.00
 115   6     0.00  -0.00   0.00     0.00  -0.00   0.00    -0.00   0.00   0.00
 116   6     0.00   0.00   0.00     0.00   0.00   0.00     0.00   0.00   0.00
 117   1     0.00  -0.00   0.00     0.00  -0.00   0.00     0.00  -0.00   0.00
 118   1     0.00   0.00   0.00     0.00   0.00   0.00    -0.00  -0.00  -0.00
 119   1     0.00   0.00   0.00     0.00   0.00   0.00    -0.00  -0.00  -0.00
 120   1    -0.00  -0.00  -0.00    -0.00  -0.00  -0.00    -0.00  -0.00  -0.00
 121   6     0.00  -0.00   0.00    -0.00   0.00  -0.00     0.00  -0.00   0.00
 122   6    -0.00   0.00   0.00     0.00  -0.00  -0.00    -0.00   0.00   0.00
 123   6    -0.00   0.01   0.00     0.00  -0.00  -0.00    -0.00   0.00   0.00
 124   6    -0.00   0.00  -0.00     0.00  -0.00   0.00    -0.00   0.00  -0.00
 125   7     0.00  -0.00  -0.00    -0.00   0.00   0.00     0.00  -0.00  -0.00
 126   6    -0.00   0.00   0.00    -0.00   0.00   0.00    -0.00   0.00   0.00
 127   1     0.00  -0.00  -0.02    -0.00   0.00   0.01     0.00  -0.00  -0.01
 128   1     0.01  -0.02  -0.01    -0.01   0.01   0.01     0.01  -0.02  -0.01
 129   1    -0.00   0.00  -0.00    -0.00   0.00  -0.00     0.00  -0.00   0.00
 130   1     0.00  -0.00  -0.00     0.00  -0.00  -0.00     0.00  -0.00  -0.00
