      -----------------------------------------------------------      
     |                   =====================                   |     
     |                           x T B                           |     
     |                   =====================                   |     
     |                         S. Grimme                         |     
     |          Mulliken Center for Theoretical Chemistry        |     
     |                    University of Bonn                     |     
      -----------------------------------------------------------      

   * xtb version 6.4.0 (d4b70c2) compiled by 'ehlert@majestix' on 2021-02-01

   xtb is free software: you can redistribute it and/or modify it under
   the terms of the GNU Lesser General Public License as published by
   the Free Software Foundation, either version 3 of the License, or
   (at your option) any later version.
   
   xtb is distributed in the hope that it will be useful,
   but WITHOUT ANY WARRANTY; without even the implied warranty of
   MERCHANTABILITY or FITNESS FOR A PARTICULAR PURPOSE.  See the
   GNU Lesser General Public License for more details.
   
   Cite this work as:
   * C. Bannwarth, E. Caldeweyher, S. Ehlert, A. Hansen, P. Pracht,
     J. Seibert, S. Spicher, S. Grimme, WIREs Comput. Mol. Sci., 2020,
     e01493. DOI: 10.1002/wcms.1493
   
   for GFN2-xTB:
   * C. Bannwarth, S. Ehlert and S. Grimme., J. Chem. Theory Comput., 2019,
     15, 1652-1671. DOI: 10.1021/acs.jctc.8b01176
   for GFN1-xTB:
   * S. Grimme, C. Bannwarth, P. Shushkov, J. Chem. Theory Comput., 2017,
     13, 1989-2009. DOI: 10.1021/acs.jctc.7b00118
   for GFN0-xTB:
   * P. Pracht, E. Caldeweyher, S. Ehlert, S. Grimme, ChemRxiv, 2019, preprint.
     DOI: 10.26434/chemrxiv.8326202.v1
   for GFN-FF:
   * S. Spicher and S. Grimme, Angew. Chem. Int. Ed., 2020, 59, 15665-15673.
     DOI: 10.1002/anie.202004239
   
   for DFT-D4:
   * E. Caldeweyher, C. Bannwarth and S. Grimme, J. Chem. Phys., 2017,
     147, 034112. DOI: 10.1063/1.4993215
   * E. Caldeweyher, S. Ehlert, A. Hansen, H. Neugebauer, S. Spicher,
     C. Bannwarth and S. Grimme, J. Chem. Phys., 2019, 150, 154122.
     DOI: 10.1063/1.5090222
   * E. Caldeweyher, J.-M. Mewes, S. Ehlert and S. Grimme, Phys. Chem. Chem. Phys.
     2020, 22, 8499-8512. DOI: 10.1039/D0CP00502A
   
   for sTDA-xTB:
   * S. Grimme and C. Bannwarth, J. Chem. Phys., 2016, 145, 054103.
     DOI: 10.1063/1.4959605
   
   in the mass-spec context:
   * V. Asgeirsson, C. Bauer and S. Grimme, Chem. Sci., 2017, 8, 4879.
     DOI: 10.1039/c7sc00601b
   * J. Koopman and S. Grimme, ACS Omega 2019, 4, 12, 15120-15133.
     DOI: 10.1021/acsomega.9b02011
   
   for metadynamics refer to:
   * S. Grimme, J. Chem. Theory Comput., 2019, 155, 2847-2862
     DOI: 10.1021/acs.jctc.9b00143
   
   with help from (in alphabetical order)
   P. Atkinson, C. Bannwarth, F. Bohle, G. Brandenburg, E. Caldeweyher
   M. Checinski, S. Dohm, S. Ehlert, S. Ehrlich, I. Gerasimov, J. Koopman
   C. Lavinge, S. Lehtola, F. März, M. Müller, F. Musil, H. Neugebauer
   J. Pisarek, P. Pracht, J. Seibert, P. Shushkov, S. Spicher, M. Stahn
   T. Strunk, J. Stückrath, T. Rose, and J. Unsleber
   
 * started run on 2021/03/23 at 15:56:23.575     

           -------------------------------------------------
          |                Calculation Setup                |
           -------------------------------------------------

          program call               : /home/atarzia/software/xtb-6.4.0/bin/xtb fe7dd.xyz --opt --charge 4 --uhf 0 -P 4
          coordinate file            : fe7dd.xyz
          omp threads                :                     4
          number of atoms            :                   230
          number of electrons        :                   674
          charge                     :                     4
          spin                       :                   0.0
          first test random number   :      0.87356731819604

   ID    Z sym.   atoms
    1   26 Fe     1, 2
    2    8 O      3, 4, 55, 56
    3    7 N      5-8, 57-60, 107-110
    4    6 C      9-54, 61-106, 111-140
    5    1 H      141-230
########################################################################
[WARNING] Please study the warnings concerning your input carefully
-1- prog_main_parseArguments: Process number higher than OMP_NUM_THREADS, I hope you know what you are doing.
########################################################################

           -------------------------------------------------
          |                 G F N 2 - x T B                 |
           -------------------------------------------------

        Reference                      10.1021/acs.jctc.8b01176
      * Hamiltonian:
        H0-scaling (s, p, d)           1.850000    2.230000    2.230000
        zeta-weighting                 0.500000
      * Dispersion:
        s8                             2.700000
        a1                             0.520000
        a2                             5.000000
        s9                             5.000000
      * Repulsion:
        kExp                           1.500000    1.000000
        rExp                           1.000000
      * Coulomb:
        alpha                          2.000000
        third order                    shell-resolved
        anisotropic                    true
        a3                             3.000000
        a5                             4.000000
        cn-shift                       1.200000
        cn-exp                         4.000000
        max-rad                        5.000000


          ...................................................
          :                      SETUP                      :
          :.................................................:
          :  # basis functions                 662          :
          :  # atomic orbitals                 660          :
          :  # shells                          372          :
          :  # electrons                       674          :
          :  max. iterations                   250          :
          :  Hamiltonian                  GFN2-xTB          :
          :  restarted?                      false          :
          :  GBSA solvation                  false          :
          :  PC potential                    false          :
          :  electronic temp.          300.0000000     K    :
          :  accuracy                    1.0000000          :
          :  -> integral cutoff          0.2500000E+02      :
          :  -> integral neglect         0.1000000E-07      :
          :  -> SCF convergence          0.1000000E-05 Eh   :
          :  -> wf. convergence          0.1000000E-03 e    :
          :  Broyden damping             0.4000000          :
          ...................................................

 iter      E             dE          RMSdq      gap      omega  full diag
   1   -368.1667833 -0.368167E+03  0.515E+00    1.90       0.0  T
   2   -365.2004036  0.296638E+01  0.515E+00    0.20       1.0  T
   3   -360.5400059  0.466040E+01  0.540E+00    0.39       1.0  T
   4   -341.9069392  0.186331E+02  0.540E+00    0.20       1.0  T
   5   -358.9216664 -0.170147E+02  0.445E+00    0.14       1.0  T
   6   -368.0725580 -0.915089E+01  0.223E+00    0.84       1.0  T
   7   -368.4760787 -0.403521E+00  0.166E+00    0.69       1.0  T
   8   -368.6378545 -0.161776E+00  0.127E+00    0.66       1.0  T
   9   -368.7834351 -0.145581E+00  0.839E-01    0.70       1.0  T
  10   -368.8690962 -0.856611E-01  0.373E-01    0.63       1.0  T
  11   -368.8885012 -0.194051E-01  0.161E-01    0.75       1.0  T
  12   -368.8912841 -0.278288E-02  0.999E-02    0.81       1.0  T
  13   -368.8927025 -0.141843E-02  0.583E-02    0.82       1.0  T
  14   -368.8931858 -0.483263E-03  0.382E-02    0.83       1.0  T
  15   -368.8933861 -0.200330E-03  0.228E-02    0.80       1.0  T
  16   -368.8934812 -0.950270E-04  0.858E-03    0.80       1.0  T
  17   -368.8934948 -0.135829E-04  0.281E-03    0.80       2.3  T
  18   -368.8934957 -0.905021E-06  0.153E-03    0.80       4.3  T
  19   -368.8934960 -0.351305E-06  0.714E-04    0.80       9.2  T
  20   -368.8934961 -0.615585E-07  0.547E-04    0.80      12.0  T

   *** convergence criteria satisfied after 20 iterations ***

         #    Occupation            Energy/Eh            Energy/eV
      -------------------------------------------------------------
         1        2.0000           -0.9548787             -25.9836
       ...           ...                  ...                  ...
       331        2.0000           -0.6119368             -16.6516
       332        2.0000           -0.6113679             -16.6362
       333        2.0000           -0.6111280             -16.6296
       334        2.0000           -0.6099159             -16.5967
       335        2.0000           -0.6094350             -16.5836
       336        2.0000           -0.6056160             -16.4797
       337        2.0000           -0.6036032             -16.4249 (HOMO)
       338        0.0000           -0.5743265             -15.6282 (LUMO)
       339        0.0000           -0.5734429             -15.6042
       340                         -0.5710587             -15.5393
       341                         -0.5700212             -15.5111
       342                         -0.5699564             -15.5093
       ...                                ...                  ...
       660                          0.7642116              20.7953
      -------------------------------------------------------------
                  HL-Gap            0.0292767 Eh            0.7967 eV
             Fermi-level           -0.5890851 Eh          -16.0298 eV

 SCC (total)                   0 d,  0 h,  1 min, 14.053 sec
 SCC setup                      ...        0 min,  0.044 sec (  0.060%)
 Dispersion                     ...        0 min,  0.271 sec (  0.365%)
 classical contributions        ...        0 min,  0.017 sec (  0.023%)
 integral evaluation            ...        0 min,  2.819 sec (  3.807%)
 iterations                     ...        1 min,  3.641 sec ( 85.939%)
 molecular gradient             ...        0 min,  7.140 sec (  9.642%)
 printout                       ...        0 min,  0.121 sec (  0.163%)

         :::::::::::::::::::::::::::::::::::::::::::::::::::::
         ::                     SUMMARY                     ::
         :::::::::::::::::::::::::::::::::::::::::::::::::::::
         :: total energy            -363.095355147767 Eh    ::
         :: gradient norm              0.198805778394 Eh/a0 ::
         :: HOMO-LUMO gap              0.796660256929 eV    ::
         ::.................................................::
         :: SCC energy              -368.893496070260 Eh    ::
         :: -> isotropic ES            0.561081642668 Eh    ::
         :: -> anisotropic ES         -0.041479737374 Eh    ::
         :: -> anisotropic XC          0.263025070696 Eh    ::
         :: -> dispersion             -0.353248126070 Eh    ::
         :: repulsion energy           5.775830519090 Eh    ::
         :: add. restraining           0.000000000000 Eh    ::
         :: total charge               3.999999999302 e     ::
         :::::::::::::::::::::::::::::::::::::::::::::::::::::

      ----------------------------------------------------------- 
     |                   =====================                   |
     |                        A N C O P T                        |
     |                   =====================                   |
     |               Approximate Normal Coordinate               |
     |                Rational Function Optimizer                |
      ----------------------------------------------------------- 

          ...................................................
          :                      SETUP                      :
          :.................................................:
          :   optimization level            normal          :
          :   max. optcycles                   690          :
          :   ANC micro-cycles                  20          :
          :   degrees of freedom               684          :
          :.................................................:
          :   RF solver                   davidson          :
          :   write xtbopt.log                true          :
          :   linear?                        false          :
          :   energy convergence         0.5000000E-05 Eh   :
          :   grad. convergence          0.1000000E-02 Eh/α :
          :   maximium RF displ.         1.0000000          :
          :   Hlow (freq-cutoff)         0.1000000E-01      :
          :   Hmax (freq-cutoff)         5.0000000          :
          :   S6 in model hess.         20.0000000          :
          ...................................................

generating ANC from model Hessian ...
Using Lindh-Hessian (1995)
 Shifting diagonal of input Hessian by   9.975111336703276E-003
 Lowest  eigenvalues of input Hessian
    0.000000    0.000000    0.000000    0.000000    0.000000    0.000000
    0.010000    0.010015    0.010025    0.010061    0.010090    0.010122
    0.010130    0.010163    0.010165    0.010185    0.010188    0.010244
 Highest eigenvalues
    2.029931    2.058786    2.070000    2.071184    2.071541    2.072111
 

........................................................................
.............................. CYCLE    1 ..............................
........................................................................
   1   -368.8934961 -0.368893E+03  0.444E-04    0.80       0.0  T
   2   -368.8934960  0.133537E-06  0.983E-04    0.80       6.7  T
   3   -368.8934962 -0.212967E-06  0.249E-04    0.80      26.5  T
     SCC iter.                  ...        0 min, 10.649 sec
     gradient                   ...        0 min,  5.921 sec
 * total energy  :  -363.0953553 Eh     change       -0.1309961E-06 Eh
   gradient norm :     0.1988077 Eh/α   predicted     0.0000000E+00 (-100.00%)
   displ. norm   :     0.5236604 α      lambda       -0.7327643E-01
   maximum displ.:     0.1678949 α      in ANC's #352, #348, #386, ...

........................................................................
.............................. CYCLE    2 ..............................
........................................................................
   1   -369.2002253 -0.369200E+03  0.175E-01    0.86       0.0  T
   2   -369.1995622  0.663100E-03  0.140E-01    0.76       1.0  T
   3   -369.1997638 -0.201628E-03  0.110E-01    0.89       1.0  T
   4   -369.2005883 -0.824436E-03  0.502E-02    0.79       1.0  T
   5   -369.2011837 -0.595390E-03  0.187E-02    0.84       1.0  T
   6   -369.2012778 -0.940993E-04  0.465E-03    0.82       1.4  T
   7   -369.2012765  0.122616E-05  0.447E-03    0.83       1.5  T
   8   -369.2012794 -0.289009E-05  0.172E-03    0.82       3.8  T
   9   -369.2012799 -0.422951E-06  0.741E-04    0.82       8.9  T
  10   -369.2012799 -0.406652E-07  0.451E-04    0.82      14.6  T
     SCC iter.                  ...        0 min, 42.165 sec
     gradient                   ...        0 min,  6.494 sec
 * total energy  :  -363.1488372 Eh     change       -0.5348188E-01 Eh
   gradient norm :     0.0894741 Eh/α   predicted    -0.4669602E-01 ( -12.69%)
   displ. norm   :     0.5404773 α      lambda       -0.2874245E-01
   maximum displ.:     0.1213462 α      in ANC's #104, #352, #149, ...

........................................................................
.............................. CYCLE    3 ..............................
........................................................................
   1   -369.3910210 -0.369391E+03  0.132E-01    0.85       0.0  T
   2   -369.3912901 -0.269179E-03  0.805E-02    0.82       1.0  T
   3   -369.3913313 -0.412083E-04  0.536E-02    0.86       1.0  T
   4   -369.3912495  0.818158E-04  0.406E-02    0.81       1.0  T
   5   -369.3914563 -0.206774E-03  0.179E-02    0.85       1.0  T
   6   -369.3915389 -0.825795E-04  0.330E-03    0.84       2.0  T
   7   -369.3915389 -0.218093E-07  0.232E-03    0.84       2.8  T
   8   -369.3915394 -0.499954E-06  0.127E-03    0.84       5.2  T
   9   -369.3915396 -0.234590E-06  0.604E-04    0.84      10.9  T
  10   -369.3915397 -0.321759E-07  0.350E-04    0.84      18.8  T
     SCC iter.                  ...        0 min, 47.511 sec
     gradient                   ...        0 min,  8.059 sec
 * total energy  :  -363.1680221 Eh     change       -0.1918492E-01 Eh
   gradient norm :     0.0305529 Eh/α   predicted    -0.1856929E-01 (  -3.21%)
   displ. norm   :     0.6487662 α      lambda       -0.1175072E-01
   maximum displ.:     0.1796661 α      in ANC's #72, #104, #73, ...

........................................................................
.............................. CYCLE    4 ..............................
........................................................................
   1   -369.4395917 -0.369440E+03  0.107E-01    0.82       0.0  T
   2   -369.4387507  0.840972E-03  0.933E-02    0.90       1.0  T
   3   -369.4394657 -0.714987E-03  0.593E-02    0.81       1.0  T
   4   -369.4399390 -0.473269E-03  0.293E-02    0.86       1.0  T
   5   -369.4400235 -0.845517E-04  0.661E-03    0.85       1.0  T
   6   -369.4400316 -0.806785E-05  0.291E-03    0.85       2.3  T
   7   -369.4400324 -0.833830E-06  0.193E-03    0.85       3.4  T
   8   -369.4400328 -0.392501E-06  0.710E-04    0.85       9.3  T
   9   -369.4400329 -0.495367E-07  0.383E-04    0.85      17.2  T
     SCC iter.                  ...        0 min, 31.066 sec
     gradient                   ...        0 min,  7.568 sec
 * total energy  :  -363.1781583 Eh     change       -0.1013622E-01 Eh
   gradient norm :     0.0264216 Eh/α   predicted    -0.8348288E-02 ( -17.64%)
   displ. norm   :     0.8242535 α      lambda       -0.1190448E-01
   maximum displ.:     0.2627457 α      in ANC's #72, #73, #78, ...

........................................................................
.............................. CYCLE    5 ..............................
........................................................................
   1   -369.4484536 -0.369448E+03  0.144E-01    0.81       0.0  T
   2   -369.4450120  0.344155E-02  0.168E-01    0.97       1.0  T
   3   -369.4493865 -0.437448E-02  0.592E-02    0.82       1.0  T
   4   -369.4496972 -0.310701E-03  0.350E-02    0.88       1.0  T
   5   -369.4498423 -0.145080E-03  0.791E-03    0.85       1.0  T
   6   -369.4498578 -0.154506E-04  0.359E-03    0.86       1.8  T
   7   -369.4498597 -0.190388E-05  0.185E-03    0.86       3.6  T
   8   -369.4498599 -0.255148E-06  0.114E-03    0.86       5.8  T
   9   -369.4498600 -0.110548E-06  0.574E-04    0.86      11.5  T
  10   -369.4498601 -0.585781E-07  0.151E-04    0.86      43.8  T
     SCC iter.                  ...        0 min, 33.757 sec
     gradient                   ...        0 min,  6.987 sec
 * total energy  :  -363.1888023 Eh     change       -0.1064402E-01 Eh
   gradient norm :     0.0243292 Eh/α   predicted    -0.9996182E-02 (  -6.09%)
   displ. norm   :     0.8611032 α      lambda       -0.1057902E-01
   maximum displ.:     0.2973491 α      in ANC's #72, #73, #78, ...

........................................................................
.............................. CYCLE    6 ..............................
........................................................................
   1   -369.4421413 -0.369442E+03  0.156E-01    0.81       0.0  T
   2   -369.4367062  0.543513E-02  0.206E-01    1.01       1.0  T
   3   -369.4439758 -0.726961E-02  0.541E-02    0.85       1.0  T
   4   -369.4440542 -0.783536E-04  0.364E-02    0.90       1.0  T
   5   -369.4442417 -0.187565E-03  0.944E-03    0.87       1.0  T
   6   -369.4442686 -0.268661E-04  0.382E-03    0.88       1.7  T
   7   -369.4442713 -0.270070E-05  0.159E-03    0.88       4.1  T
   8   -369.4442712  0.598629E-07  0.148E-03    0.88       4.5  T
   9   -369.4442715 -0.292426E-06  0.548E-04    0.88      12.0  T
  10   -369.4442716 -0.519436E-07  0.127E-04    0.88      51.9  T
     SCC iter.                  ...        0 min, 30.963 sec
     gradient                   ...        0 min,  6.287 sec
 * total energy  :  -363.1982744 Eh     change       -0.9472044E-02 Eh
   gradient norm :     0.0222543 Eh/α   predicted    -0.9211702E-02 (  -2.75%)
   displ. norm   :     0.8592885 α      lambda       -0.8889562E-02
   maximum displ.:     0.3128772 α      in ANC's #72, #73, #78, ...

........................................................................
.............................. CYCLE    7 ..............................
........................................................................
   1   -369.4433560 -0.369443E+03  0.149E-01    0.84       0.0  T
   2   -369.4379759  0.538011E-02  0.204E-01    1.01       1.0  T
   3   -369.4452202 -0.724435E-02  0.515E-02    0.88       1.0  T
   4   -369.4451989  0.212983E-04  0.343E-02    0.93       1.0  T
   5   -369.4453889 -0.189972E-03  0.887E-03    0.90       1.0  T
   6   -369.4454119 -0.229751E-04  0.372E-03    0.91       1.8  T
   7   -369.4454144 -0.255001E-05  0.160E-03    0.91       4.1  T
   8   -369.4454143  0.770448E-07  0.146E-03    0.91       4.5  T
   9   -369.4454146 -0.308905E-06  0.506E-04    0.91      13.0  T
  10   -369.4454147 -0.399264E-07  0.121E-04    0.91      54.5  T
     SCC iter.                  ...        0 min, 30.296 sec
     gradient                   ...        0 min,  7.450 sec
 * total energy  :  -363.2061391 Eh     change       -0.7864758E-02 Eh
   gradient norm :     0.0186408 Eh/α   predicted    -0.7726717E-02 (  -1.76%)
   displ. norm   :     0.8403542 α      lambda       -0.7122252E-02
   maximum displ.:     0.3032569 α      in ANC's #72, #73, #78, ...

........................................................................
.............................. CYCLE    8 ..............................
........................................................................
   1   -369.4556704 -0.369456E+03  0.132E-01    0.88       0.0  T
   2   -369.4514950  0.417544E-02  0.179E-01    1.02       1.0  T
   3   -369.4570979 -0.560292E-02  0.500E-02    0.92       1.0  T
   4   -369.4570656  0.323213E-04  0.282E-02    0.95       1.0  T
   5   -369.4572201 -0.154503E-03  0.705E-03    0.93       1.0  T
   6   -369.4572331 -0.129911E-04  0.329E-03    0.94       2.0  T
   7   -369.4572348 -0.170900E-05  0.168E-03    0.94       3.9  T
   8   -369.4572349 -0.806176E-07  0.120E-03    0.94       5.5  T
   9   -369.4572351 -0.213313E-06  0.418E-04    0.94      15.8  T
  10   -369.4572351 -0.227158E-07  0.122E-04    0.94      54.2  T
     SCC iter.                  ...        0 min, 34.550 sec
     gradient                   ...        0 min,  6.547 sec
 * total energy  :  -363.2123337 Eh     change       -0.6194573E-02 Eh
   gradient norm :     0.0131247 Eh/α   predicted    -0.6075980E-02 (  -1.91%)
   displ. norm   :     0.8153565 α      lambda       -0.5452133E-02
   maximum displ.:     0.2783267 α      in ANC's #72, #73, #69, ...

........................................................................
.............................. CYCLE    9 ..............................
........................................................................
   1   -369.4751279 -0.369475E+03  0.114E-01    0.92       0.0  T
   2   -369.4724700  0.265793E-02  0.145E-01    1.02       1.0  T
   3   -369.4759797 -0.350972E-02  0.489E-02    0.94       1.0  T
   4   -369.4760257 -0.460061E-04  0.198E-02    0.98       1.0  T
   5   -369.4761075 -0.818423E-04  0.521E-03    0.96       1.3  T
   6   -369.4761124 -0.488734E-05  0.294E-03    0.97       2.2  T
   7   -369.4761135 -0.104153E-05  0.176E-03    0.96       3.7  T
   8   -369.4761137 -0.272598E-06  0.840E-04    0.96       7.8  T
   9   -369.4761138 -0.985756E-07  0.334E-04    0.96      19.7  T
     SCC iter.                  ...        0 min, 33.527 sec
     gradient                   ...        0 min,  6.585 sec
 * total energy  :  -363.2169832 Eh     change       -0.4649505E-02 Eh
   gradient norm :     0.0091516 Eh/α   predicted    -0.4538373E-02 (  -2.39%)
   displ. norm   :     0.7863940 α      lambda       -0.4032741E-02
   maximum displ.:     0.2323649 α      in ANC's #73, #72, #13, ...

........................................................................
.............................. CYCLE   10 ..............................
........................................................................
   1   -369.4935423 -0.369494E+03  0.103E-01    0.95       0.0  T
   2   -369.4916682  0.187412E-02  0.123E-01    1.03       1.0  T
   3   -369.4940812 -0.241299E-02  0.486E-02    0.97       1.0  T
   4   -369.4941789 -0.977578E-04  0.139E-02    1.00       1.0  T
   5   -369.4942298 -0.508926E-04  0.320E-03    0.99       2.1  T
   6   -369.4942302 -0.407460E-06  0.276E-03    0.99       2.4  T
   7   -369.4942312 -0.997803E-06  0.150E-03    0.99       4.4  T
   8   -369.4942315 -0.233121E-06  0.591E-04    0.99      11.2  T
   9   -369.4942315 -0.499249E-07  0.246E-04    0.99      26.8  T
     SCC iter.                  ...        0 min, 37.756 sec
     gradient                   ...        0 min,  8.068 sec
 * total energy  :  -363.2203407 Eh     change       -0.3357475E-02 Eh
   gradient norm :     0.0088291 Eh/α   predicted    -0.3263326E-02 (  -2.80%)
   displ. norm   :     0.7633416 α      lambda       -0.3032109E-02
   maximum displ.:     0.2106282 α      in ANC's #13, #73, #25, ...

........................................................................
.............................. CYCLE   11 ..............................
........................................................................
   1   -369.5091206 -0.369509E+03  0.905E-02    0.98       0.0  T
   2   -369.5081567  0.963930E-03  0.935E-02    1.04       1.0  T
   3   -369.5092421 -0.108543E-02  0.497E-02    0.98       1.0  T
   4   -369.5094688 -0.226665E-03  0.116E-02    1.01       1.0  T
   5   -369.5094960 -0.272554E-04  0.311E-03    1.01       2.1  T
   6   -369.5094963 -0.239117E-06  0.263E-03    1.01       2.5  T
   7   -369.5094971 -0.847425E-06  0.147E-03    1.01       4.5  T
   8   -369.5094974 -0.254061E-06  0.494E-04    1.01      13.3  T
   9   -369.5094974 -0.340646E-07  0.231E-04    1.01      28.6  T
     SCC iter.                  ...        0 min, 44.811 sec
     gradient                   ...        0 min,  7.915 sec
 * total energy  :  -363.2227743 Eh     change       -0.2433663E-02 Eh
   gradient norm :     0.0092285 Eh/α   predicted    -0.2399450E-02 (  -1.41%)
   displ. norm   :     0.7463405 α      lambda       -0.2445046E-02
   maximum displ.:     0.2444573 α      in ANC's #13, #22, #25, ...

........................................................................
.............................. CYCLE   12 ..............................
........................................................................
   1   -369.5200651 -0.369520E+03  0.919E-02    1.00       0.0  T
   2   -369.5191969  0.868176E-03  0.905E-02    1.04       1.0  T
   3   -369.5200603 -0.863404E-03  0.533E-02    1.00       1.0  T
   4   -369.5203613 -0.300990E-03  0.117E-02    1.03       1.0  T
   5   -369.5203900 -0.287240E-04  0.323E-03    1.02       2.0  T
   6   -369.5203914 -0.138146E-05  0.216E-03    1.03       3.0  T
   7   -369.5203919 -0.476579E-06  0.137E-03    1.02       4.8  T
   8   -369.5203921 -0.268211E-06  0.383E-04    1.02      17.2  T
   9   -369.5203921 -0.145985E-07  0.194E-04    1.02      34.0  T
     SCC iter.                  ...        0 min, 53.153 sec
     gradient                   ...        0 min,  8.003 sec
 * total energy  :  -363.2248258 Eh     change       -0.2051490E-02 Eh
   gradient norm :     0.0094802 Eh/α   predicted    -0.1903498E-02 (  -7.21%)
   displ. norm   :     0.8547907 α      lambda       -0.2669562E-02
   maximum displ.:     0.2888302 α      in ANC's #13, #22, #25, ...

........................................................................
.............................. CYCLE   13 ..............................
........................................................................
   1   -369.5436189 -0.369544E+03  0.101E-01    1.02       0.0  T
   2   -369.5422477  0.137116E-02  0.110E-01    1.04       1.0  T
   3   -369.5438883 -0.164059E-02  0.528E-02    1.02       1.0  T
   4   -369.5440952 -0.206920E-03  0.134E-02    1.04       1.0  T
   5   -369.5441378 -0.425536E-04  0.358E-03    1.04       1.8  T
   6   -369.5441388 -0.998181E-06  0.279E-03    1.04       2.4  T
   7   -369.5441396 -0.850609E-06  0.169E-03    1.04       3.9  T
   8   -369.5441400 -0.370230E-06  0.526E-04    1.04      12.5  T
   9   -369.5441400 -0.313578E-07  0.255E-04    1.04      25.8  T
     SCC iter.                  ...        0 min, 38.344 sec
     gradient                   ...        0 min,  7.438 sec
 * total energy  :  -363.2401537 Eh     change       -0.1532786E-01 Eh
   gradient norm :     0.2201722 Eh/α   predicted    -0.2310064E-02 ( -84.93%)
   displ. norm   :     0.7814972 α      lambda       -0.1368302E+00
   maximum displ.:     0.2441407 α      in ANC's #99, #72, #100, ...

........................................................................
.............................. CYCLE   14 ..............................
........................................................................
   1   -369.4867811 -0.369487E+03  0.354E-01    0.96       0.0  T
   2   -369.4502445  0.365366E-01  0.517E-01    0.96       1.0  T
   3   -369.5049989 -0.547544E-01  0.831E-02    1.05       1.0  T
   4   -369.5043358  0.663135E-03  0.701E-02    1.03       1.0  T
   5   -369.5049567 -0.620887E-03  0.326E-02    1.05       1.0  T
   6   -369.5051798 -0.223142E-03  0.173E-02    1.05       1.0  T
   7   -369.5052554 -0.756050E-04  0.614E-03    1.05       1.1  T
   8   -369.5052553  0.135670E-06  0.563E-03    1.05       1.2  T
   9   -369.5052594 -0.414788E-05  0.115E-03    1.05       5.7  T
  10   -369.5052597 -0.236060E-06  0.544E-04    1.05      12.1  T
  11   -369.5052597 -0.121223E-07  0.389E-04    1.05      17.0  T
     SCC iter.                  ...        0 min, 42.927 sec
     gradient                   ...        0 min,  7.236 sec
 * total energy  :  -363.2244062 Eh     change        0.1574746E-01 Eh
   gradient norm :     0.1188387 Eh/α   predicted    -0.1101991E+00 (-799.79%)
   displ. norm   :     0.4228800 α      lambda       -0.2486579E-01
   maximum displ.:     0.1396095 α      in ANC's #72, #286, #78, ...

........................................................................
.............................. CYCLE   15 ..............................
........................................................................
   1   -369.5601147 -0.369560E+03  0.164E-01    1.04       0.0  T
   2   -369.5547270  0.538770E-02  0.200E-01    0.99       1.0  T
   3   -369.5614647 -0.673776E-02  0.768E-02    1.04       1.0  T
   4   -369.5619613 -0.496550E-03  0.307E-02    1.05       1.0  T
   5   -369.5621048 -0.143556E-03  0.100E-02    1.04       1.0  T
   6   -369.5621315 -0.267203E-04  0.478E-03    1.04       1.4  T
   7   -369.5621337 -0.220246E-05  0.303E-03    1.04       2.2  T
   8   -369.5621350 -0.126962E-05  0.857E-04    1.04       7.7  T
   9   -369.5621352 -0.134680E-06  0.322E-04    1.04      20.5  T
  10   -369.5621352 -0.180034E-08  0.231E-04    1.04      28.5  T
     SCC iter.                  ...        0 min, 45.532 sec
     gradient                   ...        0 min,  8.061 sec
 * total energy  :  -363.2401019 Eh     change       -0.1569567E-01 Eh
   gradient norm :     0.0391827 Eh/α   predicted    -0.1465625E-01 (  -6.62%)
   displ. norm   :     0.3399358 α      lambda       -0.6115264E-02
   maximum displ.:     0.1144737 α      in ANC's #13, #22, #25, ...

........................................................................
.............................. CYCLE   16 ..............................
........................................................................
   1   -369.5775413 -0.369578E+03  0.892E-02    1.05       0.0  T
   2   -369.5759572  0.158405E-02  0.110E-01    1.03       1.0  T
   3   -369.5779890 -0.203177E-02  0.396E-02    1.05       1.0  T
   4   -369.5780779 -0.888822E-04  0.192E-02    1.06       1.0  T
   5   -369.5781479 -0.699611E-04  0.544E-03    1.05       1.2  T
   6   -369.5781556 -0.773729E-05  0.252E-03    1.05       2.6  T
   7   -369.5781560 -0.458615E-06  0.173E-03    1.05       3.8  T
   8   -369.5781565 -0.431394E-06  0.412E-04    1.05      16.0  T
   9   -369.5781565 -0.241781E-07  0.201E-04    1.05      32.8  T
     SCC iter.                  ...        0 min, 40.805 sec
     gradient                   ...        0 min,  7.972 sec
 * total energy  :  -363.2444237 Eh     change       -0.4321768E-02 Eh
   gradient norm :     0.0170790 Eh/α   predicted    -0.3410960E-02 ( -21.07%)
   displ. norm   :     0.4488309 α      lambda       -0.4394736E-02
   maximum displ.:     0.1596469 α      in ANC's #13, #22, #25, ...

........................................................................
.............................. CYCLE   17 ..............................
........................................................................
   1   -369.5770988 -0.369577E+03  0.945E-02    1.06       0.0  T
   2   -369.5756575  0.144126E-02  0.106E-01    1.02       1.0  T
   3   -369.5773789 -0.172143E-02  0.446E-02    1.05       1.0  T
   4   -369.5776028 -0.223870E-03  0.207E-02    1.06       1.0  T
   5   -369.5776433 -0.404370E-04  0.559E-03    1.05       1.2  T
   6   -369.5776527 -0.942838E-05  0.251E-03    1.05       2.6  T
   7   -369.5776529 -0.181683E-06  0.206E-03    1.06       3.2  T
   8   -369.5776535 -0.649226E-06  0.565E-04    1.06      11.7  T
   9   -369.5776535 -0.289718E-07  0.257E-04    1.06      25.7  T
     SCC iter.                  ...        0 min, 42.679 sec
     gradient                   ...        0 min,  8.375 sec
 * total energy  :  -363.2476592 Eh     change       -0.3235543E-02 Eh
   gradient norm :     0.0161636 Eh/α   predicted    -0.2640026E-02 ( -18.41%)
   displ. norm   :     0.5799786 α      lambda       -0.4154369E-02
   maximum displ.:     0.1863169 α      in ANC's #13, #72, #22, ...

........................................................................
.............................. CYCLE   18 ..............................
........................................................................
   1   -369.5655159 -0.369566E+03  0.108E-01    1.05       0.0  T
   2   -369.5639030  0.161284E-02  0.116E-01    1.02       1.0  T
   3   -369.5657264 -0.182340E-02  0.553E-02    1.06       1.0  T
   4   -369.5660593 -0.332892E-03  0.257E-02    1.06       1.0  T
   5   -369.5661273 -0.679647E-04  0.769E-03    1.06       1.0  T
   6   -369.5661378 -0.105129E-04  0.316E-03    1.06       2.1  T
   7   -369.5661386 -0.808026E-06  0.216E-03    1.06       3.1  T
   8   -369.5661392 -0.582578E-06  0.719E-04    1.06       9.2  T
   9   -369.5661393 -0.621068E-07  0.301E-04    1.06      21.9  T
     SCC iter.                  ...        0 min, 51.860 sec
     gradient                   ...        0 min,  8.168 sec
 * total energy  :  -363.2500688 Eh     change       -0.2409584E-02 Eh
   gradient norm :     0.0302795 Eh/α   predicted    -0.2775899E-02 (  15.20%)
   displ. norm   :     0.4705665 α      lambda       -0.3382888E-02
   maximum displ.:     0.1764265 α      in ANC's #13, #22, #25, ...

........................................................................
.............................. CYCLE   19 ..............................
........................................................................
   1   -369.5581809 -0.369558E+03  0.719E-02    1.06       0.0  T
   2   -369.5572634  0.917514E-03  0.863E-02    1.05       1.0  T
   3   -369.5584862 -0.122278E-02  0.318E-02    1.06       1.0  T
   4   -369.5585163 -0.301060E-04  0.140E-02    1.06       1.0  T
   5   -369.5585582 -0.419261E-04  0.397E-03    1.06       1.7  T
   6   -369.5585613 -0.305536E-05  0.215E-03    1.06       3.1  T
   7   -369.5585619 -0.603166E-06  0.128E-03    1.06       5.2  T
   8   -369.5585621 -0.204355E-06  0.475E-04    1.06      13.9  T
   9   -369.5585621 -0.243681E-07  0.218E-04    1.06      30.3  T
     SCC iter.                  ...        0 min, 45.232 sec
     gradient                   ...        0 min,  7.528 sec
 * total energy  :  -363.2510126 Eh     change       -0.9438019E-03 Eh
   gradient norm :     0.0226843 Eh/α   predicted    -0.2066005E-02 ( 118.90%)
   displ. norm   :     0.3608960 α      lambda       -0.3698145E-02
   maximum displ.:     0.1253340 α      in ANC's #13, #22, #71, ...

........................................................................
.............................. CYCLE   20 ..............................
........................................................................
   1   -369.5637884 -0.369564E+03  0.883E-02    1.04       0.0  T
   2   -369.5621053  0.168303E-02  0.112E-01    1.03       1.0  T
   3   -369.5643826 -0.227722E-02  0.343E-02    1.05       1.0  T
   4   -369.5644543 -0.717802E-04  0.202E-02    1.05       1.0  T
   5   -369.5644944 -0.400129E-04  0.593E-03    1.05       1.1  T
   6   -369.5645009 -0.658102E-05  0.253E-03    1.05       2.6  T
   7   -369.5645010 -0.105980E-06  0.232E-03    1.05       2.8  T
   8   -369.5645017 -0.678665E-06  0.989E-04    1.05       6.7  T
   9   -369.5645019 -0.134249E-06  0.392E-04    1.05      16.8  T
     SCC iter.                  ...        0 min, 49.818 sec
     gradient                   ...        0 min,  9.510 sec
 * total energy  :  -363.2503545 Eh     change        0.6581231E-03 Eh
   gradient norm :     0.0281569 Eh/α   predicted    -0.2089906E-02 (-417.56%)
   displ. norm   :     0.3638170 α      lambda       -0.2624930E-02
   maximum displ.:     0.1441965 α      in ANC's #13, #22, #18, ...
 * RMSD in coord.:     0.6251395 α      energy gain  -0.1549993E+00 Eh

generating ANC from model Hessian ...
Using Lindh-Hessian (1995)
 Shifting diagonal of input Hessian by   9.951507636758134E-003
 Lowest  eigenvalues of input Hessian
    0.000000    0.000000    0.000000    0.000000    0.000000    0.000000
    0.010000    0.010008    0.010029    0.010071    0.010092    0.010136
    0.010151    0.010218    0.010239    0.010264    0.010297    0.010335
 Highest eigenvalues
    2.198514    2.199795    2.200605    2.204591    2.205325    2.207799
 

........................................................................
.............................. CYCLE   21 ..............................
........................................................................
   1   -369.5602647 -0.369560E+03  0.619E-02    1.05       0.0  T
   2   -369.5599120  0.352756E-03  0.577E-02    1.05       1.0  T
   3   -369.5602411 -0.329147E-03  0.353E-02    1.05       1.0  T
   4   -369.5603914 -0.150322E-03  0.152E-02    1.06       1.0  T
   5   -369.5604187 -0.272460E-04  0.412E-03    1.05       1.6  T
   6   -369.5604223 -0.359389E-05  0.129E-03    1.05       5.1  T
   7   -369.5604221  0.127819E-06  0.123E-03    1.05       5.4  T
   8   -369.5604224 -0.267226E-06  0.428E-04    1.05      15.4  T
   9   -369.5604224 -0.256005E-07  0.162E-04    1.05      40.7  T
     SCC iter.                  ...        0 min, 49.336 sec
     gradient                   ...        0 min,  8.807 sec
 * total energy  :  -363.2523402 Eh     change       -0.1985739E-02 Eh
   gradient norm :     0.0164890 Eh/α   predicted     0.0000000E+00 (-100.00%)
   displ. norm   :     0.2364186 α      lambda       -0.1433167E-02
   maximum displ.:     0.0672520 α      in ANC's #12, #16, #77, ...

........................................................................
.............................. CYCLE   22 ..............................
........................................................................
   1   -369.5630758 -0.369563E+03  0.398E-02    1.05       0.0  T
   2   -369.5628962  0.179546E-03  0.407E-02    1.05       1.0  T
   3   -369.5630895 -0.193310E-03  0.217E-02    1.05       1.0  T
   4   -369.5631328 -0.432550E-04  0.809E-03    1.05       1.0  T
   5   -369.5631433 -0.104989E-04  0.209E-03    1.05       3.2  T
   6   -369.5631444 -0.116052E-05  0.101E-03    1.05       6.6  T
   7   -369.5631445 -0.128455E-07  0.834E-04    1.05       7.9  T
   8   -369.5631446 -0.102940E-06  0.266E-04    1.05      24.7  T
     SCC iter.                  ...        0 min, 44.954 sec
     gradient                   ...        0 min,  8.305 sec
 * total energy  :  -363.2534850 Eh     change       -0.1144791E-02 Eh
   gradient norm :     0.0067463 Eh/α   predicted    -0.7566457E-03 ( -33.91%)
   displ. norm   :     0.4845584 α      lambda       -0.1627386E-02
   maximum displ.:     0.1600671 α      in ANC's #12, #16, #63, ...

........................................................................
.............................. CYCLE   23 ..............................
........................................................................
   1   -369.5623475 -0.369562E+03  0.693E-02    1.05       0.0  T
   2   -369.5619428  0.404772E-03  0.642E-02    1.04       1.0  T
   3   -369.5622532 -0.310390E-03  0.428E-02    1.05       1.0  T
   4   -369.5624705 -0.217327E-03  0.102E-02    1.05       1.0  T
   5   -369.5624941 -0.236410E-04  0.290E-03    1.05       2.3  T
   6   -369.5624962 -0.202003E-05  0.144E-03    1.05       4.6  T
   7   -369.5624963 -0.137288E-06  0.101E-03    1.05       6.5  T
   8   -369.5624964 -0.126011E-06  0.433E-04    1.05      15.2  T
   9   -369.5624964 -0.275824E-07  0.181E-04    1.05      36.4  T
     SCC iter.                  ...        0 min, 41.360 sec
     gradient                   ...        0 min,  7.671 sec
 * total energy  :  -363.2534616 Eh     change        0.2335882E-04 Eh
   gradient norm :     0.0765895 Eh/α   predicted    -0.1004861E-02 (*******%)
   displ. norm   :     0.2310374 α      lambda       -0.5342870E-02
   maximum displ.:     0.0670105 α      in ANC's #12, #16, #61, ...

........................................................................
.............................. CYCLE   24 ..............................
........................................................................
   1   -369.5677280 -0.369568E+03  0.330E-02    1.05       0.0  T
   2   -369.5676653  0.627588E-04  0.273E-02    1.05       1.0  T
   3   -369.5676902 -0.248709E-04  0.205E-02    1.05       1.0  T
   4   -369.5677519 -0.617347E-04  0.844E-03    1.06       1.0  T
   5   -369.5677588 -0.692168E-05  0.153E-03    1.05       4.3  T
   6   -369.5677592 -0.393603E-06  0.840E-04    1.06       7.9  T
   7   -369.5677592  0.183111E-07  0.673E-04    1.06       9.8  T
     SCC iter.                  ...        0 min, 34.580 sec
     gradient                   ...        0 min,  8.102 sec
 * total energy  :  -363.2550602 Eh     change       -0.1598555E-02 Eh
   gradient norm :     0.0131011 Eh/α   predicted    -0.2814032E-02 (  76.04%)
   displ. norm   :     0.4346775 α      lambda       -0.1399965E-02
   maximum displ.:     0.1528149 α      in ANC's #12, #16, #63, ...

........................................................................
.............................. CYCLE   25 ..............................
........................................................................
   1   -369.5665654 -0.369567E+03  0.515E-02    1.06       0.0  T
   2   -369.5665445  0.208376E-04  0.321E-02    1.05       1.0  T
   3   -369.5663806  0.163904E-03  0.335E-02    1.06       1.0  T
   4   -369.5665514 -0.170784E-03  0.137E-02    1.05       1.0  T
   5   -369.5665844 -0.329584E-04  0.202E-03    1.05       3.3  T
   6   -369.5665853 -0.921414E-06  0.826E-04    1.06       8.0  T
   7   -369.5665853 -0.289386E-07  0.479E-04    1.05      13.8  T
     SCC iter.                  ...        0 min, 38.575 sec
     gradient                   ...        0 min, 13.017 sec
 * total energy  :  -363.2559274 Eh     change       -0.8672309E-03 Eh
   gradient norm :     0.0093835 Eh/α   predicted    -0.8322426E-03 (  -4.03%)
   displ. norm   :     0.6871991 α      lambda       -0.1507262E-02
   maximum displ.:     0.2466296 α      in ANC's #12, #16, #63, ...

........................................................................
.............................. CYCLE   26 ..............................
........................................................................
   1   -369.5558748 -0.369556E+03  0.754E-02    1.05       0.0  T
   2   -369.5558632  0.115892E-04  0.459E-02    1.05       1.0  T
   3   -369.5554101  0.453078E-03  0.497E-02    1.05       1.0  T
   4   -369.5558755 -0.465390E-03  0.108E-02    1.05       1.0  T
   5   -369.5559026 -0.270558E-04  0.232E-03    1.05       2.8  T
   6   -369.5559036 -0.106856E-05  0.106E-03    1.05       6.2  T
   7   -369.5559037 -0.129763E-07  0.780E-04    1.05       8.5  T
   8   -369.5559037 -0.587140E-07  0.474E-04    1.05      13.9  T
     SCC iter.                  ...        0 min, 53.239 sec
     gradient                   ...        0 min, 12.597 sec
 * total energy  :  -363.2571101 Eh     change       -0.1182672E-02 Eh
   gradient norm :     0.0151571 Eh/α   predicted    -0.1109547E-02 (  -6.18%)
   displ. norm   :     0.6040558 α      lambda       -0.1460342E-02
   maximum displ.:     0.2429112 α      in ANC's #12, #16, #11, ...

........................................................................
.............................. CYCLE   27 ..............................
........................................................................
   1   -369.5515464 -0.369552E+03  0.607E-02    1.05       0.0  T
   2   -369.5515496 -0.324117E-05  0.359E-02    1.04       1.0  T
   3   -369.5514453  0.104381E-03  0.249E-02    1.05       1.0  T
   4   -369.5515361 -0.908525E-04  0.101E-02    1.05       1.0  T
   5   -369.5515591 -0.229700E-04  0.184E-03    1.05       3.6  T
   6   -369.5515598 -0.680875E-06  0.743E-04    1.05       8.9  T
   7   -369.5515598 -0.285006E-07  0.458E-04    1.05      14.4  T
     SCC iter.                  ...        0 min, 44.373 sec
     gradient                   ...        0 min,  8.682 sec
 * total energy  :  -363.2583409 Eh     change       -0.1230846E-02 Eh
   gradient norm :     0.0134159 Eh/α   predicted    -0.9965983E-03 ( -19.03%)
   displ. norm   :     0.6675222 α      lambda       -0.1586259E-02
   maximum displ.:     0.2814580 α      in ANC's #12, #16, #11, ...

........................................................................
.............................. CYCLE   28 ..............................
........................................................................
   1   -369.5552339 -0.369555E+03  0.655E-02    1.04       0.0  T
   2   -369.5552387 -0.478569E-05  0.387E-02    1.04       1.0  T
   3   -369.5551456  0.931315E-04  0.245E-02    1.05       1.0  T
   4   -369.5552253 -0.796726E-04  0.102E-02    1.05       1.0  T
   5   -369.5552482 -0.228877E-04  0.209E-03    1.04       3.2  T
   6   -369.5552492 -0.104735E-05  0.745E-04    1.04       8.9  T
   7   -369.5552492 -0.173551E-07  0.447E-04    1.04      14.7  T
   8   -369.5552492 -0.202689E-07  0.222E-04    1.04      29.6  T
     SCC iter.                  ...        0 min, 43.300 sec
     gradient                   ...        0 min,  9.515 sec
 * total energy  :  -363.2596294 Eh     change       -0.1288431E-02 Eh
   gradient norm :     0.0087493 Eh/α   predicted    -0.1146544E-02 ( -11.01%)
   displ. norm   :     0.8101521 α      lambda       -0.1483858E-02
   maximum displ.:     0.3357870 α      in ANC's #12, #16, #11, ...

........................................................................
.............................. CYCLE   29 ..............................
........................................................................
   1   -369.5546155 -0.369555E+03  0.776E-02    1.05       0.0  T
   2   -369.5546164 -0.859712E-06  0.462E-02    1.04       1.0  T
   3   -369.5543019  0.314459E-03  0.369E-02    1.05       1.0  T
   4   -369.5546056 -0.303612E-03  0.129E-02    1.05       1.0  T
   5   -369.5546375 -0.319735E-04  0.192E-03    1.04       3.4  T
   6   -369.5546382 -0.621400E-06  0.947E-04    1.05       7.0  T
   7   -369.5546382 -0.558764E-07  0.495E-04    1.04      13.3  T
     SCC iter.                  ...        0 min, 39.398 sec
     gradient                   ...        0 min,  7.456 sec
 * total energy  :  -363.2609500 Eh     change       -0.1320661E-02 Eh
   gradient norm :     0.0102680 Eh/α   predicted    -0.1228893E-02 (  -6.95%)
   displ. norm   :     0.7693475 α      lambda       -0.1592068E-02
   maximum displ.:     0.3339110 α      in ANC's #12, #16, #11, ...

........................................................................
.............................. CYCLE   30 ..............................
........................................................................
   1   -369.5699670 -0.369570E+03  0.687E-02    1.05       0.0  T
   2   -369.5698616  0.105487E-03  0.473E-02    1.04       1.0  T
   3   -369.5693525  0.509007E-03  0.576E-02    1.05       1.0  T
   4   -369.5700103 -0.657771E-03  0.890E-03    1.05       1.0  T
   5   -369.5700203 -0.999601E-05  0.205E-03    1.05       3.2  T
   6   -369.5700211 -0.814811E-06  0.959E-04    1.05       6.9  T
   7   -369.5700211 -0.105673E-07  0.708E-04    1.05       9.3  T
     SCC iter.                  ...        0 min, 43.102 sec
     gradient                   ...        0 min,  8.779 sec
 * total energy  :  -363.2622121 Eh     change       -0.1262042E-02 Eh
   gradient norm :     0.0098858 Eh/α   predicted    -0.1267209E-02 (   0.41%)
   displ. norm   :     0.8500926 α      lambda       -0.1344044E-02
   maximum displ.:     0.3648127 α      in ANC's #12, #16, #11, ...

........................................................................
.............................. CYCLE   31 ..............................
........................................................................
   1   -369.5651795 -0.369565E+03  0.799E-02    1.05       0.0  T
   2   -369.5651336  0.458834E-04  0.501E-02    1.04       1.0  T
   3   -369.5642491  0.884563E-03  0.659E-02    1.05       1.0  T
   4   -369.5652020 -0.952899E-03  0.968E-03    1.05       1.0  T
   5   -369.5652160 -0.139803E-04  0.219E-03    1.05       3.0  T
   6   -369.5652168 -0.831780E-06  0.117E-03    1.05       5.6  T
   7   -369.5652168  0.646332E-08  0.967E-04    1.05       6.8  T
   8   -369.5652169 -0.138763E-06  0.414E-04    1.05      15.9  T
     SCC iter.                  ...        0 min, 32.910 sec
     gradient                   ...        0 min,  7.629 sec
 * total energy  :  -363.2632710 Eh     change       -0.1058888E-02 Eh
   gradient norm :     0.0142956 Eh/α   predicted    -0.1157667E-02 (   9.33%)
   displ. norm   :     0.7000345 α      lambda       -0.1162105E-02
   maximum displ.:     0.3128383 α      in ANC's #12, #16, #11, ...

........................................................................
.............................. CYCLE   32 ..............................
........................................................................
   1   -369.5673996 -0.369567E+03  0.642E-02    1.05       0.0  T
   2   -369.5672765  0.123045E-03  0.461E-02    1.04       1.0  T
   3   -369.5669305  0.346003E-03  0.525E-02    1.05       1.0  T
   4   -369.5674471 -0.516521E-03  0.728E-03    1.05       1.0  T
   5   -369.5674538 -0.676296E-05  0.193E-03    1.05       3.4  T
   6   -369.5674544 -0.581322E-06  0.111E-03    1.05       6.0  T
   7   -369.5674545 -0.579397E-07  0.821E-04    1.05       8.0  T
   8   -369.5674546 -0.104916E-06  0.283E-04    1.05      23.3  T
     SCC iter.                  ...        0 min, 39.068 sec
     gradient                   ...        0 min,  8.334 sec
 * total energy  :  -363.2641638 Eh     change       -0.8928788E-03 Eh
   gradient norm :     0.0122491 Eh/α   predicted    -0.8657962E-03 (  -3.03%)
   displ. norm   :     0.6688610 α      lambda       -0.1435856E-02
   maximum displ.:     0.3019003 α      in ANC's #12, #11, #16, ...

........................................................................
.............................. CYCLE   33 ..............................
........................................................................
   1   -369.5783400 -0.369578E+03  0.649E-02    1.05       0.0  T
   2   -369.5781069  0.233159E-03  0.527E-02    1.04       1.0  T
   3   -369.5780918  0.151017E-04  0.464E-02    1.05       1.0  T
   4   -369.5784313 -0.339549E-03  0.787E-03    1.05       1.0  T
   5   -369.5784393 -0.802549E-05  0.212E-03    1.05       3.1  T
   6   -369.5784398 -0.495221E-06  0.132E-03    1.05       5.0  T
   7   -369.5784399 -0.597036E-07  0.985E-04    1.05       6.7  T
   8   -369.5784400 -0.148082E-06  0.383E-04    1.05      17.2  T
     SCC iter.                  ...        0 min, 33.629 sec
     gradient                   ...        0 min,  8.695 sec
 * total energy  :  -363.2647049 Eh     change       -0.5410109E-03 Eh
   gradient norm :     0.0157589 Eh/α   predicted    -0.1039111E-02 (  92.07%)
   displ. norm   :     0.5851189 α      lambda       -0.1139270E-02
   maximum displ.:     0.2592683 α      in ANC's #12, #16, #11, ...

........................................................................
.............................. CYCLE   34 ..............................
........................................................................
   1   -369.5696221 -0.369570E+03  0.557E-02    1.05       0.0  T
   2   -369.5696209  0.124357E-05  0.333E-02    1.04       1.0  T
   3   -369.5693887  0.232145E-03  0.328E-02    1.05       1.0  T
   4   -369.5696196 -0.230886E-03  0.966E-03    1.05       1.0  T
   5   -369.5696368 -0.171661E-04  0.171E-03    1.05       3.8  T
   6   -369.5696373 -0.543774E-06  0.800E-04    1.05       8.2  T
   7   -369.5696373 -0.205009E-07  0.534E-04    1.05      12.4  T
     SCC iter.                  ...        0 min, 33.438 sec
     gradient                   ...        0 min,  8.183 sec
 * total energy  :  -363.2655029 Eh     change       -0.7980566E-03 Eh
   gradient norm :     0.0083088 Eh/α   predicted    -0.7646576E-03 (  -4.19%)
   displ. norm   :     0.5957918 α      lambda       -0.7143802E-03
   maximum displ.:     0.2797407 α      in ANC's #12, #11, #16, ...

........................................................................
.............................. CYCLE   35 ..............................
........................................................................
   1   -369.5708880 -0.369571E+03  0.551E-02    1.05       0.0  T
   2   -369.5708813  0.674901E-05  0.330E-02    1.04       1.0  T
   3   -369.5706461  0.235130E-03  0.342E-02    1.05       1.0  T
   4   -369.5708772 -0.231053E-03  0.114E-02    1.04       1.0  T
   5   -369.5709011 -0.239587E-04  0.170E-03    1.04       3.9  T
   6   -369.5709018 -0.642211E-06  0.649E-04    1.04      10.2  T
   7   -369.5709018  0.424461E-08  0.481E-04    1.04      13.7  T
     SCC iter.                  ...        0 min, 34.456 sec
     gradient                   ...        0 min,  8.434 sec
 * total energy  :  -363.2660542 Eh     change       -0.5512728E-03 Eh
   gradient norm :     0.0083644 Eh/α   predicted    -0.4839859E-03 ( -12.21%)
   displ. norm   :     0.7200408 α      lambda       -0.7028439E-03
   maximum displ.:     0.3401189 α      in ANC's #12, #11, #16, ...

........................................................................
.............................. CYCLE   36 ..............................
........................................................................
   1   -369.5711683 -0.369571E+03  0.664E-02    1.05       0.0  T
   2   -369.5711615  0.677065E-05  0.395E-02    1.04       1.0  T
   3   -369.5708689  0.292646E-03  0.375E-02    1.05       1.0  T
   4   -369.5711465 -0.277630E-03  0.139E-02    1.04       1.0  T
   5   -369.5711835 -0.369505E-04  0.195E-03    1.04       3.4  T
   6   -369.5711844 -0.885169E-06  0.688E-04    1.04       9.6  T
   7   -369.5711844  0.211270E-08  0.475E-04    1.04      13.9  T
     SCC iter.                  ...        0 min, 44.529 sec
     gradient                   ...        0 min, 11.126 sec
 * total energy  :  -363.2666649 Eh     change       -0.6107299E-03 Eh
   gradient norm :     0.0079051 Eh/α   predicted    -0.5336223E-03 ( -12.63%)
   displ. norm   :     0.6556641 α      lambda       -0.8882233E-03
   maximum displ.:     0.2997899 α      in ANC's #12, #1, #11, ...

........................................................................
.............................. CYCLE   37 ..............................
........................................................................
   1   -369.5881865 -0.369588E+03  0.691E-02    1.04       0.0  T
   2   -369.5881656  0.208898E-04  0.421E-02    1.04       1.0  T
   3   -369.5878795  0.286103E-03  0.434E-02    1.03       1.0  T
   4   -369.5881607 -0.281233E-03  0.163E-02    1.04       1.0  T
   5   -369.5882125 -0.517579E-04  0.291E-03    1.04       2.3  T
   6   -369.5882149 -0.239474E-05  0.749E-04    1.04       8.8  T
   7   -369.5882149  0.361832E-07  0.627E-04    1.04      10.5  T
   8   -369.5882149 -0.534255E-07  0.343E-04    1.04      19.2  T
     SCC iter.                  ...        1 min,  4.737 sec
     gradient                   ...        0 min, 11.128 sec
 * total energy  :  -363.2672159 Eh     change       -0.5509689E-03 Eh
   gradient norm :     0.0082257 Eh/α   predicted    -0.6350338E-03 (  15.26%)
   displ. norm   :     0.7417327 α      lambda       -0.6613464E-03
   maximum displ.:     0.3481199 α      in ANC's #12, #11, #1, ...

........................................................................
.............................. CYCLE   38 ..............................
........................................................................
   1   -369.5817602 -0.369582E+03  0.701E-02    1.04       0.0  T
   2   -369.5817588  0.140970E-05  0.416E-02    1.03       1.0  T
   3   -369.5815271  0.231774E-03  0.321E-02    1.04       1.0  T
   4   -369.5817400 -0.212988E-03  0.128E-02    1.04       1.0  T
   5   -369.5817729 -0.329003E-04  0.180E-03    1.03       3.7  T
   6   -369.5817736 -0.683629E-06  0.742E-04    1.04       8.9  T
   7   -369.5817736 -0.593718E-08  0.441E-04    1.04      14.9  T
     SCC iter.                  ...        0 min, 54.974 sec
     gradient                   ...        0 min, 11.913 sec
 * total energy  :  -363.2677497 Eh     change       -0.5338072E-03 Eh
   gradient norm :     0.0064031 Eh/α   predicted    -0.5126001E-03 (  -3.97%)
   displ. norm   :     0.6971556 α      lambda       -0.5177135E-03
   maximum displ.:     0.3221354 α      in ANC's #12, #1, #11, ...

........................................................................
.............................. CYCLE   39 ..............................
........................................................................
   1   -369.5783538 -0.369578E+03  0.666E-02    1.03       0.0  T
   2   -369.5783547 -0.922351E-06  0.392E-02    1.03       1.0  T
   3   -369.5782098  0.144913E-03  0.256E-02    1.04       1.0  T
   4   -369.5783308 -0.121020E-03  0.125E-02    1.03       1.0  T
   5   -369.5783639 -0.331139E-04  0.159E-03    1.03       4.2  T
   6   -369.5783645 -0.537113E-06  0.640E-04    1.03      10.3  T
   7   -369.5783645 -0.581559E-08  0.356E-04    1.03      18.5  T
     SCC iter.                  ...        0 min, 53.251 sec
     gradient                   ...        0 min, 10.566 sec
 * total energy  :  -363.2681900 Eh     change       -0.4402928E-03 Eh
   gradient norm :     0.0073635 Eh/α   predicted    -0.3846744E-03 ( -12.63%)
   displ. norm   :     0.6531906 α      lambda       -0.5841217E-03
   maximum displ.:     0.2842523 α      in ANC's #1, #12, #11, ...

........................................................................
.............................. CYCLE   40 ..............................
........................................................................
   1   -369.5792881 -0.369579E+03  0.674E-02    1.03       0.0  T
   2   -369.5792905 -0.245179E-05  0.396E-02    1.02       1.0  T
   3   -369.5791885  0.102017E-03  0.218E-02    1.03       1.0  T
   4   -369.5792685 -0.800365E-04  0.114E-02    1.03       1.0  T
   5   -369.5792973 -0.287468E-04  0.143E-03    1.03       4.6  T
   6   -369.5792977 -0.409131E-06  0.613E-04    1.03      10.8  T
   7   -369.5792977 -0.950445E-08  0.318E-04    1.03      20.8  T
     SCC iter.                  ...        0 min, 52.472 sec
     gradient                   ...        0 min, 12.827 sec
 * total energy  :  -363.2686955 Eh     change       -0.5054755E-03 Eh
   gradient norm :     0.0068702 Eh/α   predicted    -0.4166742E-03 ( -17.57%)
   displ. norm   :     0.6927200 α      lambda       -0.6708564E-03
   maximum displ.:     0.3161155 α      in ANC's #1, #12, #7, ...

........................................................................
.............................. CYCLE   41 ..............................
........................................................................
   1   -369.5820383 -0.369582E+03  0.796E-02    1.02       0.0  T
   2   -369.5820379  0.434034E-06  0.470E-02    1.02       1.0  T
   3   -369.5817868  0.251047E-03  0.349E-02    1.02       1.0  T
   4   -369.5820200 -0.233229E-03  0.121E-02    1.02       1.0  T
   5   -369.5820518 -0.318059E-04  0.162E-03    1.02       4.1  T
   6   -369.5820523 -0.458433E-06  0.742E-04    1.02       8.9  T
   7   -369.5820523 -0.216514E-07  0.379E-04    1.02      17.4  T
     SCC iter.                  ...        0 min, 44.495 sec
     gradient                   ...        0 min, 11.979 sec
 * total energy  :  -363.2692353 Eh     change       -0.5398556E-03 Eh
   gradient norm :     0.0071221 Eh/α   predicted    -0.4963892E-03 (  -8.05%)
   displ. norm   :     0.7489925 α      lambda       -0.6318722E-03
   maximum displ.:     0.3435053 α      in ANC's #1, #12, #7, ...

........................................................................
.............................. CYCLE   42 ..............................
........................................................................
   1   -369.5819436 -0.369582E+03  0.888E-02    1.01       0.0  T
   2   -369.5819408  0.283320E-05  0.526E-02    1.01       1.0  T
   3   -369.5815826  0.358168E-03  0.421E-02    1.01       1.0  T
   4   -369.5819215 -0.338913E-03  0.133E-02    1.01       1.0  T
   5   -369.5819605 -0.389205E-04  0.184E-03    1.01       3.6  T
   6   -369.5819611 -0.598665E-06  0.833E-04    1.01       7.9  T
   7   -369.5819611 -0.211240E-07  0.433E-04    1.01      15.2  T
     SCC iter.                  ...        0 min, 46.060 sec
     gradient                   ...        0 min, 12.225 sec
 * total energy  :  -363.2697501 Eh     change       -0.5148044E-03 Eh
   gradient norm :     0.0076877 Eh/α   predicted    -0.4931771E-03 (  -4.20%)
   displ. norm   :     0.7073660 α      lambda       -0.5763555E-03
   maximum displ.:     0.3383278 α      in ANC's #1, #12, #7, ...
 * RMSD in coord.:     0.8053636 α      energy gain  -0.1939565E-01 Eh

generating ANC from model Hessian ...
Using Lindh-Hessian (1995)
 Shifting diagonal of input Hessian by   9.948457649975904E-003
 Lowest  eigenvalues of input Hessian
    0.000000    0.000000    0.000000    0.000000    0.000000    0.000000
    0.010000    0.010022    0.010039    0.010080    0.010100    0.010137
    0.010144    0.010211    0.010230    0.010288    0.010318    0.010370
 Highest eigenvalues
    2.196949    2.201410    2.202163    2.202427    2.203221    2.205983
 

........................................................................
.............................. CYCLE   43 ..............................
........................................................................
   1   -369.5809464 -0.369581E+03  0.856E-02    1.00       0.0  T
   2   -369.5809408  0.558901E-05  0.509E-02    1.00       1.0  T
   3   -369.5805265  0.414280E-03  0.456E-02    1.00       1.0  T
   4   -369.5809295 -0.402947E-03  0.125E-02    0.99       1.0  T
   5   -369.5809639 -0.344005E-04  0.179E-03    1.00       3.7  T
   6   -369.5809644 -0.513279E-06  0.857E-04    1.00       7.7  T
   7   -369.5809644 -0.374694E-07  0.426E-04    1.00      15.5  T
     SCC iter.                  ...        0 min, 44.407 sec
     gradient                   ...        0 min, 10.959 sec
 * total energy  :  -363.2702431 Eh     change       -0.4929559E-03 Eh
   gradient norm :     0.0063642 Eh/α   predicted     0.0000000E+00 (-100.00%)
   displ. norm   :     0.0978804 α      lambda       -0.1825202E-03
   maximum displ.:     0.0233655 α      in ANC's #1, #23, #34, ...

........................................................................
.............................. CYCLE   44 ..............................
........................................................................
   1   -369.5842260 -0.369584E+03  0.144E-02    1.00       0.0  T
   2   -369.5842244  0.157519E-05  0.918E-03    1.00       1.0  T
   3   -369.5841989  0.255150E-04  0.115E-02    0.99       1.0  T
   4   -369.5842267 -0.278119E-04  0.213E-03    1.00       3.1  T
   5   -369.5842276 -0.862971E-06  0.450E-04    1.00      14.7  T
   6   -369.5842277 -0.475840E-07  0.185E-04    1.00      35.6  T
     SCC iter.                  ...        0 min, 38.809 sec
     gradient                   ...        0 min,  9.669 sec
 * total energy  :  -363.2704001 Eh     change       -0.1570062E-03 Eh
   gradient norm :     0.0034335 Eh/α   predicted    -0.9336895E-04 ( -40.53%)
   displ. norm   :     0.3757889 α      lambda       -0.4876695E-03
   maximum displ.:     0.0937306 α      in ANC's #34, #1, #23, ...

........................................................................
.............................. CYCLE   45 ..............................
........................................................................
   1   -369.5896322 -0.369590E+03  0.529E-02    0.99       0.0  T
   2   -369.5896323 -0.100598E-06  0.314E-02    0.99       1.0  T
   3   -369.5894832  0.149149E-03  0.253E-02    0.99       1.0  T
   4   -369.5896264 -0.143241E-03  0.867E-03    0.99       1.0  T
   5   -369.5896419 -0.154953E-04  0.136E-03    0.99       4.8  T
   6   -369.5896423 -0.409209E-06  0.524E-04    0.99      12.6  T
   7   -369.5896423 -0.940832E-08  0.294E-04    0.99      22.4  T
     SCC iter.                  ...        0 min, 36.882 sec
     gradient                   ...        0 min, 10.610 sec
 * total energy  :  -363.2707565 Eh     change       -0.3564411E-03 Eh
   gradient norm :     0.0054226 Eh/α   predicted    -0.2782861E-03 ( -21.93%)
   displ. norm   :     0.4562387 α      lambda       -0.3914669E-03
   maximum displ.:     0.1188990 α      in ANC's #34, #1, #23, ...

........................................................................
.............................. CYCLE   46 ..............................
........................................................................
   1   -369.5890725 -0.369589E+03  0.630E-02    0.99       0.0  T
   2   -369.5890733 -0.727753E-06  0.372E-02    0.99       1.0  T
   3   -369.5889355  0.137721E-03  0.235E-02    0.99       1.0  T
   4   -369.5890686 -0.133089E-03  0.760E-03    0.99       1.0  T
   5   -369.5890805 -0.119140E-04  0.128E-03    0.99       5.1  T
   6   -369.5890809 -0.330473E-06  0.544E-04    0.99      12.1  T
   7   -369.5890809 -0.794887E-08  0.261E-04    0.99      25.3  T
     SCC iter.                  ...        0 min, 44.083 sec
     gradient                   ...        0 min, 10.642 sec
 * total energy  :  -363.2710796 Eh     change       -0.3230589E-03 Eh
   gradient norm :     0.0088002 Eh/α   predicted    -0.2366751E-03 ( -26.74%)
   displ. norm   :     0.6189354 α      lambda       -0.5119718E-03
   maximum displ.:     0.1648001 α      in ANC's #34, #1, #23, ...

........................................................................
.............................. CYCLE   47 ..............................
........................................................................
   1   -369.5839371 -0.369584E+03  0.843E-02    0.98       0.0  T
   2   -369.5839418 -0.468904E-05  0.495E-02    0.99       1.0  T
   3   -369.5838920  0.498337E-04  0.137E-02    0.98       1.0  T
   4   -369.5839319 -0.399152E-04  0.770E-03    0.99       1.0  T
   5   -369.5839466 -0.147226E-04  0.202E-03    0.99       3.3  T
   6   -369.5839473 -0.709777E-06  0.690E-04    0.99       9.6  T
   7   -369.5839473 -0.770910E-08  0.329E-04    0.99      20.0  T
     SCC iter.                  ...        0 min, 50.050 sec
     gradient                   ...        0 min, 10.258 sec
 * total energy  :  -363.2714865 Eh     change       -0.4069299E-03 Eh
   gradient norm :     0.0103772 Eh/α   predicted    -0.3540586E-03 ( -12.99%)
   displ. norm   :     0.5302458 α      lambda       -0.5046561E-03
   maximum displ.:     0.1478271 α      in ANC's #1, #34, #21, ...

........................................................................
.............................. CYCLE   48 ..............................
........................................................................
   1   -369.5787926 -0.369579E+03  0.696E-02    0.98       0.0  T
   2   -369.5787959 -0.327488E-05  0.409E-02    0.98       1.0  T
   3   -369.5787677  0.282306E-04  0.131E-02    0.98       1.0  T
   4   -369.5787944 -0.267170E-04  0.494E-03    0.98       1.3  T
   5   -369.5787990 -0.461278E-05  0.166E-03    0.98       4.0  T
   6   -369.5787995 -0.535986E-06  0.640E-04    0.98      10.3  T
   7   -369.5787995 -0.209793E-07  0.279E-04    0.98      23.7  T
     SCC iter.                  ...        0 min, 47.495 sec
     gradient                   ...        0 min, 10.831 sec
 * total energy  :  -363.2718829 Eh     change       -0.3963553E-03 Eh
   gradient norm :     0.0094077 Eh/α   predicted    -0.3232729E-03 ( -18.44%)
   displ. norm   :     0.4203025 α      lambda       -0.5716069E-03
   maximum displ.:     0.1331618 α      in ANC's #1, #2, #19, ...

........................................................................
.............................. CYCLE   49 ..............................
........................................................................
   1   -369.5795175 -0.369580E+03  0.542E-02    0.98       0.0  T
   2   -369.5795194 -0.188917E-05  0.321E-02    0.98       1.0  T
   3   -369.5794513  0.681056E-04  0.208E-02    0.98       1.0  T
   4   -369.5794997 -0.484268E-04  0.108E-02    0.98       1.0  T
   5   -369.5795254 -0.257062E-04  0.142E-03    0.98       4.6  T
   6   -369.5795258 -0.427349E-06  0.584E-04    0.98      11.3  T
   7   -369.5795259 -0.157513E-07  0.266E-04    0.98      24.8  T
     SCC iter.                  ...        0 min, 49.410 sec
     gradient                   ...        0 min, 11.273 sec
 * total energy  :  -363.2722742 Eh     change       -0.3913449E-03 Eh
   gradient norm :     0.0077375 Eh/α   predicted    -0.3362938E-03 ( -14.07%)
   displ. norm   :     0.5697827 α      lambda       -0.4071580E-03
   maximum displ.:     0.1757664 α      in ANC's #1, #2, #34, ...

........................................................................
.............................. CYCLE   50 ..............................
........................................................................
   1   -369.5769088 -0.369577E+03  0.720E-02    0.97       0.0  T
   2   -369.5769124 -0.360582E-05  0.421E-02    0.98       1.0  T
   3   -369.5768889  0.235039E-04  0.137E-02    0.97       1.0  T
   4   -369.5769096 -0.206802E-04  0.531E-03    0.97       1.2  T
   5   -369.5769154 -0.574447E-05  0.179E-03    0.97       3.7  T
   6   -369.5769160 -0.613564E-06  0.662E-04    0.97      10.0  T
   7   -369.5769160 -0.207538E-07  0.282E-04    0.97      23.4  T
     SCC iter.                  ...        0 min, 44.603 sec
     gradient                   ...        0 min, 11.166 sec
 * total energy  :  -363.2725874 Eh     change       -0.3132267E-03 Eh
   gradient norm :     0.0093422 Eh/α   predicted    -0.2697813E-03 ( -13.87%)
   displ. norm   :     0.4655449 α      lambda       -0.5123634E-03
   maximum displ.:     0.1638131 α      in ANC's #1, #2, #12, ...

........................................................................
.............................. CYCLE   51 ..............................
........................................................................
   1   -369.5849993 -0.369585E+03  0.575E-02    0.97       0.0  T
   2   -369.5850026 -0.333469E-05  0.335E-02    0.97       1.0  T
   3   -369.5849754  0.272134E-04  0.140E-02    0.97       1.0  T
   4   -369.5849912 -0.157754E-04  0.810E-03    0.97       1.0  T
   5   -369.5850057 -0.144651E-04  0.135E-03    0.97       4.9  T
   6   -369.5850060 -0.335364E-06  0.616E-04    0.97      10.7  T
   7   -369.5850060 -0.243195E-07  0.273E-04    0.97      24.2  T
     SCC iter.                  ...        0 min, 46.384 sec
     gradient                   ...        0 min, 11.355 sec
 * total energy  :  -363.2729387 Eh     change       -0.3512916E-03 Eh
   gradient norm :     0.0068863 Eh/α   predicted    -0.3117048E-03 ( -11.27%)
   displ. norm   :     0.5628879 α      lambda       -0.3378165E-03
   maximum displ.:     0.1951488 α      in ANC's #1, #2, #12, ...

........................................................................
.............................. CYCLE   52 ..............................
........................................................................
   1   -369.5845254 -0.369585E+03  0.680E-02    0.97       0.0  T
   2   -369.5845293 -0.389085E-05  0.399E-02    0.97       1.0  T
   3   -369.5845105  0.187560E-04  0.107E-02    0.97       1.0  T
   4   -369.5845304 -0.198623E-04  0.285E-03    0.97       2.3  T
   5   -369.5845319 -0.154252E-05  0.149E-03    0.97       4.4  T
   6   -369.5845323 -0.340832E-06  0.722E-04    0.97       9.1  T
   7   -369.5845323 -0.524612E-07  0.289E-04    0.97      22.8  T
     SCC iter.                  ...        0 min, 47.100 sec
     gradient                   ...        0 min, 10.131 sec
 * total energy  :  -363.2731975 Eh     change       -0.2587649E-03 Eh
   gradient norm :     0.0069763 Eh/α   predicted    -0.2224281E-03 ( -14.04%)
   displ. norm   :     0.4670138 α      lambda       -0.3522607E-03
   maximum displ.:     0.1816293 α      in ANC's #1, #12, #2, ...

........................................................................
.............................. CYCLE   53 ..............................
........................................................................
   1   -369.5898664 -0.369590E+03  0.551E-02    0.97       0.0  T
   2   -369.5898702 -0.380960E-05  0.323E-02    0.97       1.0  T
   3   -369.5898539  0.163359E-04  0.960E-03    0.97       1.0  T
   4   -369.5898703 -0.164425E-04  0.326E-03    0.97       2.0  T
   5   -369.5898722 -0.193490E-05  0.160E-03    0.97       4.1  T
   6   -369.5898727 -0.458829E-06  0.612E-04    0.97      10.8  T
   7   -369.5898727 -0.384742E-07  0.249E-04    0.97      26.5  T
     SCC iter.                  ...        0 min, 55.396 sec
     gradient                   ...        0 min,  9.605 sec
 * total energy  :  -363.2734537 Eh     change       -0.2562413E-03 Eh
   gradient norm :     0.0059333 Eh/α   predicted    -0.2145751E-03 ( -16.26%)
   displ. norm   :     0.5643003 α      lambda       -0.2627251E-03
   maximum displ.:     0.2176919 α      in ANC's #1, #2, #12, ...

........................................................................
.............................. CYCLE   54 ..............................
........................................................................
   1   -369.5870951 -0.369587E+03  0.662E-02    0.97       0.0  T
   2   -369.5870985 -0.340061E-05  0.389E-02    0.97       1.0  T
   3   -369.5870580  0.405187E-04  0.164E-02    0.96       1.0  T
   4   -369.5870903 -0.323556E-04  0.746E-03    0.96       1.0  T
   5   -369.5871019 -0.115977E-04  0.153E-03    0.97       4.3  T
   6   -369.5871024 -0.450114E-06  0.663E-04    0.97       9.9  T
   7   -369.5871024 -0.336144E-07  0.252E-04    0.97      26.1  T
     SCC iter.                  ...        0 min, 57.192 sec
     gradient                   ...        0 min,  9.458 sec
 * total energy  :  -363.2736548 Eh     change       -0.2010807E-03 Eh
   gradient norm :     0.0055557 Eh/α   predicted    -0.1731938E-03 ( -13.87%)
   displ. norm   :     0.4365037 α      lambda       -0.2333221E-03
   maximum displ.:     0.1861769 α      in ANC's #1, #12, #2, ...

........................................................................
.............................. CYCLE   55 ..............................
........................................................................
   1   -369.5895972 -0.369590E+03  0.496E-02    0.97       0.0  T
   2   -369.5895991 -0.184413E-05  0.292E-02    0.97       1.0  T
   3   -369.5895493  0.497253E-04  0.174E-02    0.97       1.0  T
   4   -369.5895875 -0.381185E-04  0.827E-03    0.97       1.0  T
   5   -369.5896027 -0.152570E-04  0.114E-03    0.97       5.8  T
   6   -369.5896029 -0.195391E-06  0.559E-04    0.97      11.8  T
   7   -369.5896029 -0.268025E-07  0.216E-04    0.97      30.6  T
     SCC iter.                  ...        0 min, 40.884 sec
     gradient                   ...        0 min, 10.257 sec
 * total energy  :  -363.2738085 Eh     change       -0.1536329E-03 Eh
   gradient norm :     0.0044695 Eh/α   predicted    -0.1388966E-03 (  -9.59%)
   displ. norm   :     0.4523366 α      lambda       -0.1341642E-03
   maximum displ.:     0.1897876 α      in ANC's #1, #12, #2, ...

........................................................................
.............................. CYCLE   56 ..............................
........................................................................
   1   -369.5871366 -0.369587E+03  0.492E-02    0.97       0.0  T
   2   -369.5871383 -0.167556E-05  0.289E-02    0.97       1.0  T
   3   -369.5871045  0.337440E-04  0.153E-02    0.97       1.0  T
   4   -369.5871284 -0.239077E-04  0.757E-03    0.97       1.0  T
   5   -369.5871410 -0.126245E-04  0.114E-03    0.97       5.8  T
   6   -369.5871413 -0.235871E-06  0.512E-04    0.97      12.9  T
   7   -369.5871413 -0.176756E-07  0.199E-04    0.97      33.1  T
     SCC iter.                  ...        0 min, 46.577 sec
     gradient                   ...        0 min, 11.242 sec
 * total energy  :  -363.2739048 Eh     change       -0.9637800E-04 Eh
   gradient norm :     0.0037795 Eh/α   predicted    -0.8081297E-04 ( -16.15%)
   displ. norm   :     0.3119822 α      lambda       -0.1176065E-03
   maximum displ.:     0.1438805 α      in ANC's #1, #12, #3, ...

........................................................................
.............................. CYCLE   57 ..............................
........................................................................
   1   -369.5896911 -0.369590E+03  0.300E-02    0.97       0.0  T
   2   -369.5896920 -0.919349E-06  0.176E-02    0.97       1.0  T
   3   -369.5896799  0.120669E-04  0.937E-03    0.97       1.0  T
   4   -369.5896877 -0.776418E-05  0.505E-03    0.97       1.3  T
   5   -369.5896933 -0.558981E-05  0.765E-04    0.97       8.6  T
   6   -369.5896934 -0.978613E-07  0.351E-04    0.97      18.8  T
   7   -369.5896934 -0.108694E-07  0.142E-04    0.97      46.5  T
     SCC iter.                  ...        0 min, 51.175 sec
     gradient                   ...        0 min, 10.241 sec
 * total energy  :  -363.2739960 Eh     change       -0.9114012E-04 Eh
   gradient norm :     0.0033555 Eh/α   predicted    -0.6452854E-04 ( -29.20%)
[...]
    10   6 C       11   6 C                                       1.3810287
    11   6 C       12   6 C                                       1.3862945
    12   6 C       13   6 C                                       1.3864645
     9   6 C       14   6 C                                       1.3943262
    13   6 C       14   6 C                                       1.3818190
     5   7 N       15   6 C                                       1.2913163
     6   7 N       16   6 C                                       1.3492210
    15   6 C       16   6 C                                       1.4307657
    16   6 C       17   6 C                                       1.3975330
    17   6 C       18   6 C                                       1.3781667
    18   6 C       19   6 C                                       1.3999327
     6   7 N       20   6 C                                       1.3232357
    19   6 C       20   6 C                                       1.3954664
    21   6 C       22   6 C                                       1.3762662
    22   6 C       23   6 C                                       1.4051690
    23   6 C       24   6 C                                       1.4115732
    24   6 C       25   6 C                                       1.3671197
    25   6 C       26   6 C                                       1.4033541
    26   6 C       27   6 C                                       1.3691844
    23   6 C       28   6 C                                       1.4204853
    27   6 C       28   6 C                                       1.4093124
    28   6 C       29   6 C                                       1.4237225
     3   8 O       30   6 C                                       1.3936806
    21   6 C       30   6 C                                       1.4222702
    29   6 C       30   6 C                                       1.3769831
     3   8 O       31   6 C                                       1.4139720
    32   6 C       33   6 C                                       1.4302324
    33   6 C       34   6 C                                       1.4121750
    34   6 C       35   6 C                                       1.3689479
    35   6 C       36   6 C                                       1.4021369
    36   6 C       37   6 C                                       1.3661724
    33   6 C       38   6 C                                       1.4184979
    37   6 C       38   6 C                                       1.4106317
    38   6 C       39   6 C                                       1.4049292
    39   6 C       40   6 C                                       1.3708202
     4   8 O       41   6 C                                       1.3645517
    32   6 C       41   6 C                                       1.3788635
    40   6 C       41   6 C                                       1.4316045
     4   8 O       42   6 C                                       1.4081615
     7   7 N       43   6 C                                       1.3242683
    43   6 C       44   6 C                                       1.3958575
    44   6 C       45   6 C                                       1.4020171
    45   6 C       46   6 C                                       1.3773005
     7   7 N       47   6 C                                       1.3500488
    46   6 C       47   6 C                                       1.3965564
     8   7 N       48   6 C                                       1.2904377
    47   6 C       48   6 C                                       1.4316929
     8   7 N       49   6 C                                       1.3995680
    49   6 C       50   6 C                                       1.3985585
    50   6 C       51   6 C                                       1.3811361
    51   6 C       52   6 C                                       1.3862684
    52   6 C       53   6 C                                       1.3864738
    49   6 C       54   6 C                                       1.3940323
    53   6 C       54   6 C                                       1.3820383
     1  26 Fe      57   7 N                                       1.9320186
     1  26 Fe      58   7 N                                       1.9469956
     2  26 Fe      59   7 N                                       1.9279846
     2  26 Fe      60   7 N                                       1.9391965
    57   7 N       61   6 C                                       1.3997718
    61   6 C       62   6 C                                       1.3939909
    62   6 C       63   6 C                                       1.3820450
    63   6 C       64   6 C                                       1.3864463
    64   6 C       65   6 C                                       1.3862759
    61   6 C       66   6 C                                       1.3985228
    65   6 C       66   6 C                                       1.3811465
    57   7 N       67   6 C                                       1.2903752
    58   7 N       68   6 C                                       1.3500349
    67   6 C       68   6 C                                       1.4315456
    68   6 C       69   6 C                                       1.3965283
    69   6 C       70   6 C                                       1.3771965
    70   6 C       71   6 C                                       1.4020316
    58   7 N       72   6 C                                       1.3242371
    71   6 C       72   6 C                                       1.3958865
    73   6 C       74   6 C                                       1.3707849
    74   6 C       75   6 C                                       1.4050043
    75   6 C       76   6 C                                       1.4106222
    76   6 C       77   6 C                                       1.3661925
    77   6 C       78   6 C                                       1.4020993
    78   6 C       79   6 C                                       1.3689524
    75   6 C       80   6 C                                       1.4185109
    79   6 C       80   6 C                                       1.4121805
    80   6 C       81   6 C                                       1.4303676
    55   8 O       82   6 C                                       1.3646325
    73   6 C       82   6 C                                       1.4316332
    81   6 C       82   6 C                                       1.3788588
    55   8 O       83   6 C                                       1.4082238
    84   6 C       85   6 C                                       1.4237578
    85   6 C       86   6 C                                       1.4093630
    86   6 C       87   6 C                                       1.3691587
    87   6 C       88   6 C                                       1.4033286
    88   6 C       89   6 C                                       1.3671370
    85   6 C       90   6 C                                       1.4204529
    89   6 C       90   6 C                                       1.4115587
    90   6 C       91   6 C                                       1.4052365
    91   6 C       92   6 C                                       1.3762159
    56   8 O       93   6 C                                       1.3935872
    84   6 C       93   6 C                                       1.3770712
    92   6 C       93   6 C                                       1.4224388
    56   8 O       94   6 C                                       1.4139102
    59   7 N       95   6 C                                       1.3230624
    95   6 C       96   6 C                                       1.3954027
    96   6 C       97   6 C                                       1.3999178
    97   6 C       98   6 C                                       1.3782012
    59   7 N       99   6 C                                       1.3493036
    98   6 C       99   6 C                                       1.3974839
    60   7 N      100   6 C                                       1.2912619
    99   6 C      100   6 C                                       1.4307740
    60   7 N      101   6 C                                       1.3990602
   101   6 C      102   6 C                                       1.3942419
   102   6 C      103   6 C                                       1.3817890
   103   6 C      104   6 C                                       1.3864369
   104   6 C      105   6 C                                       1.3862846
   101   6 C      106   6 C                                       1.3990632
   105   6 C      106   6 C                                       1.3810221
     1  26 Fe     107   7 N                                       1.9342042
     1  26 Fe     108   7 N                                       1.9258693
     2  26 Fe     109   7 N                                       1.9241573
     2  26 Fe     110   7 N                                       1.9349948
   107   7 N      111   6 C                                       1.3987708
   111   6 C      112   6 C                                       1.3949572
   112   6 C      113   6 C                                       1.3819873
   113   6 C      114   6 C                                       1.3865367
   114   6 C      115   6 C                                       1.3864757
   111   6 C      116   6 C                                       1.3994539
   115   6 C      116   6 C                                       1.3809104
   107   7 N      117   6 C                                       1.2924517
   108   7 N      118   6 C                                       1.3502414
   117   6 C      118   6 C                                       1.4307491
   118   6 C      119   6 C                                       1.3973344
   119   6 C      120   6 C                                       1.3793232
   120   6 C      121   6 C                                       1.3995822
   108   7 N      122   6 C                                       1.3227192
   121   6 C      122   6 C                                       1.3930611
   109   7 N      123   6 C                                       1.3226170
   123   6 C      124   6 C                                       1.3929973
   124   6 C      125   6 C                                       1.3994365
   125   6 C      126   6 C                                       1.3794777
   109   7 N      127   6 C                                       1.3501164
   126   6 C      127   6 C                                       1.3973537
   110   7 N      128   6 C                                       1.2924273
   127   6 C      128   6 C                                       1.4308691
   110   7 N      129   6 C                                       1.3985436
   129   6 C      130   6 C                                       1.3995100
   130   6 C      131   6 C                                       1.3809103
   131   6 C      132   6 C                                       1.3864968
   132   6 C      133   6 C                                       1.3865765
   129   6 C      134   6 C                                       1.3950618
   133   6 C      134   6 C                                       1.3819221
   135   6 C      136   6 C                                       1.3937274
   136   6 C      137   6 C                                       1.3796596
   137   6 C      138   6 C                                       1.3946280
   138   6 C      139   6 C                                       1.3938628
   135   6 C      140   6 C                                       1.3945874
   139   6 C      140   6 C                                       1.3795611
    10   6 C      141   1 H                                       1.0808995
    11   6 C      142   1 H                                       1.0786800
    12   6 C      143   1 H                                       1.0780223
    13   6 C      144   1 H                                       1.0785844
    14   6 C      145   1 H                                       1.0765096
    15   6 C      146   1 H                                       1.0853988
    17   6 C      147   1 H                                       1.0780945
    18   6 C      148   1 H                                       1.0775410
    20   6 C      149   1 H                                       1.0796595
    22   6 C      150   1 H                                       1.0800612
    24   6 C      151   1 H                                       1.0792688
    25   6 C      152   1 H                                       1.0782807
    26   6 C      153   1 H                                       1.0787475
    27   6 C      154   1 H                                       1.0799971
    31   6 C      155   1 H                                       1.0960573
    31   6 C      156   1 H                                       1.0932116
    31   6 C      157   1 H                                       1.0887825
    34   6 C      158   1 H                                       1.0791905
    35   6 C      159   1 H                                       1.0787638
    36   6 C      160   1 H                                       1.0782517
    37   6 C      161   1 H                                       1.0797798
    39   6 C      162   1 H                                       1.0804278
    42   6 C      163   1 H                                       1.0927728
    42   6 C      164   1 H                                       1.0916248
    42   6 C      165   1 H                                       1.0901696
    43   6 C      166   1 H                                       1.0793536
    45   6 C      167   1 H                                       1.0788106
    46   6 C      168   1 H                                       1.0779063
    48   6 C      169   1 H                                       1.0854859
    50   6 C      170   1 H                                       1.0806893
    51   6 C      171   1 H                                       1.0786605
    52   6 C      172   1 H                                       1.0780479
    53   6 C      173   1 H                                       1.0786082
    54   6 C      174   1 H                                       1.0768986
    62   6 C      175   1 H                                       1.0768108
    63   6 C      176   1 H                                       1.0786163
    64   6 C      177   1 H                                       1.0780420
    65   6 C      178   1 H                                       1.0786447
    66   6 C      179   1 H                                       1.0806897
    67   6 C      180   1 H                                       1.0854833
    69   6 C      181   1 H                                       1.0779025
    70   6 C      182   1 H                                       1.0787808
    72   6 C      183   1 H                                       1.0793790
    74   6 C      184   1 H                                       1.0804197
    76   6 C      185   1 H                                       1.0797652
    77   6 C      186   1 H                                       1.0782497
    78   6 C      187   1 H                                       1.0787720
    79   6 C      188   1 H                                       1.0791748
    83   6 C      189   1 H                                       1.0916815
    83   6 C      190   1 H                                       1.0927553
    83   6 C      191   1 H                                       1.0902015
    86   6 C      192   1 H                                       1.0800233
    87   6 C      193   1 H                                       1.0787487
    88   6 C      194   1 H                                       1.0783245
    89   6 C      195   1 H                                       1.0792784
    91   6 C      196   1 H                                       1.0800722
    94   6 C      197   1 H                                       1.0887747
    94   6 C      198   1 H                                       1.0931500
    94   6 C      199   1 H                                       1.0960292
    95   6 C      200   1 H                                       1.0796269
    97   6 C      201   1 H                                       1.0775228
    98   6 C      202   1 H                                       1.0780951
   100   6 C      203   1 H                                       1.0853821
   102   6 C      204   1 H                                       1.0764909 (min)
   103   6 C      205   1 H                                       1.0785779
   104   6 C      206   1 H                                       1.0780137
   105   6 C      207   1 H                                       1.0786919
   106   6 C      208   1 H                                       1.0809178
   112   6 C      209   1 H                                       1.0771854
   113   6 C      210   1 H                                       1.0785867
   114   6 C      211   1 H                                       1.0780608
   115   6 C      212   1 H                                       1.0786820
   116   6 C      213   1 H                                       1.0809422
   117   6 C      214   1 H                                       1.0850012
   119   6 C      215   1 H                                       1.0779218
   120   6 C      216   1 H                                       1.0786446
   122   6 C      217   1 H                                       1.0793489
   123   6 C      218   1 H                                       1.0793259
   125   6 C      219   1 H                                       1.0786536
   126   6 C      220   1 H                                       1.0779256
   128   6 C      221   1 H                                       1.0849819
   130   6 C      222   1 H                                       1.0809212
   131   6 C      223   1 H                                       1.0786826
   132   6 C      224   1 H                                       1.0780627
   133   6 C      225   1 H                                       1.0786029
   134   6 C      226   1 H                                       1.0771564
   136   6 C      227   1 H                                       1.0790886
   137   6 C      228   1 H                                       1.0797200
   139   6 C      229   1 H                                       1.0791224
   140   6 C      230   1 H                                       1.0797049

 * 5 distinct bonds (by element types)

   Z      Z             #   av. dist./Å        max./Å        min./Å
   1 H    6 C          90     1.0810294     1.0960573     1.0764909
   6 C    6 C         116     1.3955475     1.4316929     1.3661724
   6 C    7 N          24     1.3409263     1.3997718     1.2903752
   6 C    8 O           8     1.3950899     1.4139720     1.3645517
   7 N   26 Fe         12     1.9344713     1.9481565     1.9241573


optimized geometry written to: xtbopt.xyz


           -------------------------------------------------
          | TOTAL ENERGY             -363.275138503636 Eh   |
          | GRADIENT NORM               0.000411667822 Eh/α |
          | HOMO-LUMO GAP               1.011375162174 eV   |
           -------------------------------------------------

------------------------------------------------------------------------
 * finished run on 2021/03/23 at 17:23:49.775     
------------------------------------------------------------------------
 total:
 * wall-time:     0 d,  1 h, 27 min, 26.200 sec
 *  cpu-time:     0 d,  0 h, 33 min, 53.628 sec
 * ratio c/w:     0.388 speedup
 SCF:
 * wall-time:     0 d,  0 h,  1 min, 14.121 sec
 *  cpu-time:     0 d,  0 h,  0 min, 29.868 sec
 * ratio c/w:     0.403 speedup
 ANC optimizer:
 * wall-time:     0 d,  1 h, 26 min,  8.683 sec
 *  cpu-time:     0 d,  0 h, 33 min, 21.935 sec
 * ratio c/w:     0.387 speedup

