 Entering Gaussian System, Link 0=g16
 Input=cis_l1_lb_FINAL.com
 Output=cis_l1_lb_FINAL.log
 Initial command:
 /apps/gaussian/g16-c01-avx/g16/l1.exe "/rds/general/user/vposligu/home/work/Pd2L4_cages/New_Cages/opt/PBE0-def2svp-solvent/SP_FINAL/cis_l1_lb/Gau-89802.inp" -scrdir="/rds/general/user/vposligu/home/work/Pd2L4_cages/New_Cages/opt/PBE0-def2svp-solvent/SP_FINAL/cis_l1_lb/"
 Entering Link 1 = /apps/gaussian/g16-c01-avx/g16/l1.exe PID=     89803.
  
 Copyright (c) 1988-2019, Gaussian, Inc.  All Rights Reserved.
  
 This is part of the Gaussian(R) 16 program.  It is based on
 the Gaussian(R) 09 system (copyright 2009, Gaussian, Inc.),
 the Gaussian(R) 03 system (copyright 2003, Gaussian, Inc.),
 the Gaussian(R) 98 system (copyright 1998, Gaussian, Inc.),
 the Gaussian(R) 94 system (copyright 1995, Gaussian, Inc.),
 the Gaussian 92(TM) system (copyright 1992, Gaussian, Inc.),
 the Gaussian 90(TM) system (copyright 1990, Gaussian, Inc.),
 the Gaussian 88(TM) system (copyright 1988, Gaussian, Inc.),
 the Gaussian 86(TM) system (copyright 1986, Carnegie Mellon
 University), and the Gaussian 82(TM) system (copyright 1983,
 Carnegie Mellon University). Gaussian is a federally registered
 trademark of Gaussian, Inc.
  
 This software contains proprietary and confidential information,
 including trade secrets, belonging to Gaussian, Inc.
  
 This software is provided under written license and may be
 used, copied, transmitted, or stored only in accord with that
 written license.
  
 The following legend is applicable only to US Government
 contracts under FAR:
  
                    RESTRICTED RIGHTS LEGEND
  
 Use, reproduction and disclosure by the US Government is
 subject to restrictions as set forth in subparagraphs (a)
 and (c) of the Commercial Computer Software - Restricted
 Rights clause in FAR 52.227-19.
  
 Gaussian, Inc.
 340 Quinnipiac St., Bldg. 40, Wallingford CT 06492
  
  
 ---------------------------------------------------------------
 Warning -- This program may not be used in any manner that
 competes with the business of Gaussian, Inc. or will provide
 assistance to any competitor of Gaussian, Inc.  The licensee
 of this program is prohibited from giving any competitor of
 Gaussian, Inc. access to this program.  By using this program,
 the user acknowledges that Gaussian, Inc. is engaged in the
 business of creating and licensing software in the field of
 computational chemistry and represents and warrants to the
 licensee that it is not a competitor of Gaussian, Inc. and that
 it will not use this program in any manner prohibited above.
 ---------------------------------------------------------------
  

 Cite this work as:
 Gaussian 16, Revision C.01,
 M. J. Frisch, G. W. Trucks, H. B. Schlegel, G. E. Scuseria, 
 M. A. Robb, J. R. Cheeseman, G. Scalmani, V. Barone, 
 G. A. Petersson, H. Nakatsuji, X. Li, M. Caricato, A. V. Marenich, 
 J. Bloino, B. G. Janesko, R. Gomperts, B. Mennucci, H. P. Hratchian, 
 J. V. Ortiz, A. F. Izmaylov, J. L. Sonnenberg, D. Williams-Young, 
 F. Ding, F. Lipparini, F. Egidi, J. Goings, B. Peng, A. Petrone, 
 T. Henderson, D. Ranasinghe, V. G. Zakrzewski, J. Gao, N. Rega, 
 G. Zheng, W. Liang, M. Hada, M. Ehara, K. Toyota, R. Fukuda, 
 J. Hasegawa, M. Ishida, T. Nakajima, Y. Honda, O. Kitao, H. Nakai, 
 T. Vreven, K. Throssell, J. A. Montgomery, Jr., J. E. Peralta, 
 F. Ogliaro, M. J. Bearpark, J. J. Heyd, E. N. Brothers, K. N. Kudin, 
 V. N. Staroverov, T. A. Keith, R. Kobayashi, J. Normand, 
 K. Raghavachari, A. P. Rendell, J. C. Burant, S. S. Iyengar, 
 J. Tomasi, M. Cossi, J. M. Millam, M. Klene, C. Adamo, R. Cammi, 
 J. W. Ochterski, R. L. Martin, K. Morokuma, O. Farkas, 
 J. B. Foresman, and D. J. Fox, Gaussian, Inc., Wallingford CT, 2019.
 
 ******************************************
 Gaussian 16:  ES64L-G16RevC.01  3-Jul-2019
                 2-Jun-2023 
 ******************************************
 %chk=cis_l1_lb_FINAL.chk
 %nprocshared=48
 Will use up to   48 processors via shared memory.
 %mem=120GB
 ------------------------------------------------------------------
 # SP PBE1PBE/def2svp empiricaldispersion=GD3BJ scrf=(solvent=dmso)
 ------------------------------------------------------------------
 1/38=1,172=1/1;
 2/12=2,17=6,18=5,40=1/2;
 3/5=43,7=101,11=2,25=1,30=1,70=2201,72=21,74=-13,124=41/1,2,3;
 4//1;
 5/5=2,38=5,53=21/2;
 6/7=2,8=2,9=2,10=2,28=1/1;
 99/5=1,9=1/99;
 ---------
 cis_l1_lb
 ---------
 Symbolic Z-matrix:
 Charge =  4 Multiplicity = 1
 Pd                    7.2203   -1.7231    0.3022 
 Pd                   -7.2      -1.765     0.1616 
 C                     4.8842   -2.349    -1.3415 
 N                     5.9843   -2.895    -0.8027 
 C                     6.1988   -4.2109   -0.9426 
 C                     5.3005   -5.0337   -1.603 
 C                     4.1228   -4.4938   -2.14 
 C                     3.0923   -5.3334   -2.7771 
 C                     3.4406   -6.4841   -3.5179 
 C                     2.48     -7.2981   -4.1113 
 C                     1.1518   -6.935    -3.9307 
 O                     0.0656   -7.6053   -4.4037 
 C                    -1.0334   -6.9248   -3.9769 
 C                    -2.3562   -7.2763   -4.2121 
 C                    -3.3332   -6.4555   -3.6562 
 C                    -3.0057   -5.3072   -2.902 
 C                    -4.0531   -4.4693   -2.2907 
 C                    -3.875    -3.0855   -2.1402 
 C                    -4.8286   -2.3344   -1.4779 
 N                    -5.94     -2.8867   -0.97 
 C                    -6.1553   -4.1992   -1.138 
 C                    -5.245    -5.014    -1.7911 
 C                    -1.6627   -4.9706   -2.6944 
 C                    -0.6738   -5.7907   -3.2271 
 C                     0.7714   -5.7981   -3.1955 
 C                     1.7446   -4.9886   -2.6192 
 C                     3.9432   -3.1079   -2.012 
 H                     4.7596   -1.2699   -1.228 
 H                     7.1086   -4.6127   -0.4921 
 H                     5.5089   -6.1027   -1.6572 
 H                     4.4945   -6.7359   -3.652 
 H                     2.756    -8.1798   -4.6907 
 H                    -2.6158   -8.1556   -4.8025 
 H                    -4.3829   -6.7004   -3.8303 
 H                    -2.9955   -2.5816   -2.5416 
 H                    -4.7027   -1.258    -1.3433 
 H                    -7.0763   -4.6046   -0.7146 
 H                    -5.4545   -6.0816   -1.8658 
 H                    -1.3901   -4.1015   -2.0933 
 H                     1.4552   -4.1214   -2.0228 
 H                     3.0744   -2.6082   -2.4411 
 C                     4.9175   -1.2784    2.0576 
 N                     6.0037   -2.0485    1.8957 
 C                     6.1871   -3.1015    2.7051 
 C                     5.2653   -3.4449    3.6808 
 C                     4.0946   -2.6873    3.8346 
 C                     3.035    -3.0763    4.7836 
 C                     3.3562   -3.6822    6.0179 
 C                     2.3745   -4.0957    6.9124 
 C                     1.0545   -3.9022    6.5278 
 O                    -0.0435   -4.2702    7.2411 
 C                    -1.129    -3.9336    6.4934 
 C                    -2.4539   -4.1653    6.837 
 C                    -3.4191   -3.7752    5.9144 
 C                    -3.077    -3.1559    4.6926 
 C                    -4.1209   -2.779     3.7214 
 C                    -3.9981   -1.623     2.9355 
 C                    -4.9511   -1.3383    1.974 
 N                    -6.0055   -2.1403    1.7603 
 C                    -6.1688   -3.2281    2.5261 
 C                    -5.2588   -3.572     3.5129 
 C                    -1.7318   -2.9233    4.3788 
 C                    -0.7509   -3.3238    5.2829 
 C                     0.6971   -3.3034    5.3057 
 C                     1.6938   -2.8774    4.4315 
 C                     3.9533   -1.5622    3.0081 
 H                     4.8159   -0.4135    1.3978 
 H                     7.0886   -3.695     2.5406 
 H                     5.4466   -4.3349    4.2845 
 H                     4.4047   -3.8148    6.2921 
 H                     2.627    -4.5553    7.8686 
 H                    -2.7225   -4.6343    7.7842 
 H                    -4.4717   -3.9354    6.1562 
 H                    -3.1639   -0.9339    3.0715 
 H                    -4.8701   -0.4447    1.3508 
 H                    -7.0439   -3.8482    2.3214 
 H                    -5.4226   -4.4867    4.0838 
 H                    -1.4527   -2.4732    3.4241 
 H                     1.4302   -2.4336    3.4698 
 H                     3.0931   -0.8984    3.0995 
 C                     10.4726  -0.0894    2.4903 
 C                     9.5876   -0.9358    1.8799 
 N                     8.4134   -0.48      1.3658 
 C                     8.0783    0.7921    1.4874 
 C                     8.8925    1.7366    2.1486 
 C                     8.5124    3.1086    2.3053 
 C                     7.166     3.6119    1.9542 
 C                     7.0244    4.8253    1.2624 
 C                     5.7716    5.3815    1.0424 
 C                     4.6121    4.7313    1.504 
 C                     3.3354    5.3462    1.362 
 C                     2.2562    5.9081    1.3062 
 C                     1.0283    6.6449    1.3002 
 N                    -0.1162    5.9521    1.2952 
 C                    -1.2663    6.6364    1.3114 
 C                    -2.4874    5.8889    1.3408 
 C                    -3.5578    5.3136    1.4228 
 C                    -4.8182    4.6712    1.5857 
 C                    -6.0024    5.3022    1.1613 
 C                    -7.2363    4.7076    1.3879 
 C                    -7.3325    3.4733    2.0491 
 C                    -8.6565    2.9116    2.3966 
 C                    -9.604     3.7187    3.0016 
 C                    -10.8451   3.2076    3.4381 
 C                    -11.1524   1.8751    3.2907 
 C                    -10.2297   1.0127    2.6541 
 C                    -10.4886  -0.3661    2.4538 
 C                    -9.5814   -1.1454    1.7886 
 N                    -8.4356   -0.6169    1.2785 
 C                    -8.1494    0.6595    1.4581 
 C                    -8.9881    1.536     2.1787 
 C                    -6.1466    2.8373    2.4535 
 C                    -4.9081    3.4193    2.2207 
 C                    -1.3213    8.0416    1.3308 
 C                    -0.1269    8.7509    1.3405 
 C                     1.0724    8.0505    1.324 
 C                     4.7463    3.4966    2.164 
 C                     6.0039    2.9533    2.3904 
 C                     9.4375    3.978     2.8571 
 C                     10.7035   3.5367    3.2974 
 C                     11.0596   2.2115    3.2076 
 C                     10.1612   1.2858    2.6277 
 H                     11.4209  -0.4762    2.8663 
 H                     9.7897   -2.0015    1.7669 
 H                     7.1372    1.0989    1.027 
 H                     7.9132    5.3428    0.8952 
 H                     5.6807    6.3329    0.5154 
 H                    -5.9454    6.268     0.6561 
 H                    -8.145     5.2099    1.0493 
 H                    -9.3696    4.7695    3.1836 
 H                    -11.5553   3.8817    3.9216 
 H                    -12.0995   1.4708    3.6531 
 H                    -11.4141  -0.8088    2.8252 
 H                    -9.7415   -2.2117    1.6228 
 H                    -7.231     1.0288    0.9981 
 H                    -6.1936    1.893     3.0005 
 H                    -3.9985    2.9215    2.5611 
 H                    -2.2865    8.5491    1.3428 
 H                    -0.1308    9.8426    1.3588 
 H                     2.0338    8.5653    1.329 
 H                     3.8565    2.9832    2.5326 
 H                     6.0833    2.0256    2.9612 
 H                     9.1659    5.0266    2.9939 
 H                     11.3936   4.2598    3.7373 
 H                     12.0265   1.8605    3.5733 
 C                     10.2771  -1.6417   -2.6802 
 C                     9.4992   -1.984    -1.6059 
 N                     8.3494   -1.3133   -1.3238 
 C                     7.9657   -0.3012   -2.0791 
 C                     8.7104    0.1529   -3.1857 
 C                     8.2799    1.2587   -3.9843 
 C                     7.056     2.0175   -3.6374 
 C                     6.0136    2.1258   -4.5682 
 C                     4.8471    2.8103   -4.2535 
 C                     4.695     3.4179   -2.9944 
 C                     3.4929    4.1231   -2.6879 
 C                     2.4533    4.7216   -2.4781 
 C                     1.2424    5.4675   -2.2875 
 N                     0.0872    4.8029   -2.4091 
 C                    -1.0547    5.4863   -2.2729 
 C                    -2.2802    4.7613   -2.4513 
 C                    -3.3322    4.1822   -2.6534 
 C                    -4.5487    3.502    -2.9609 
 C                    -4.7242    2.9344   -4.2355 
 C                    -5.9054    2.2797   -4.5575 
 C                    -6.9403    2.1616   -3.6194 
 C                    -8.1844    1.4457   -3.9868 
 C                    -8.9304    1.8446   -5.0795 
 C                    -10.1221   1.1775   -5.442 
 C                    -10.5806   0.0994   -4.7208 
 C                    -9.8391   -0.3629   -3.6081 
 C                    -10.2299  -1.4842   -2.8343 
 C                    -9.4568   -1.8977   -1.7821 
 N                    -8.2983   -1.2603   -1.4614 
 C                    -7.8976   -0.2147   -2.1613 
 C                    -8.633     0.3086   -3.2439 
 C                    -6.7669    2.7352   -2.3497 
 C                    -5.59      3.3974   -2.022 
 C                    -1.091     6.8659   -2.0084 
 C                     0.1133    7.5483   -1.8908 
 C                     1.3047    6.8459   -2.0252 
 C                     5.7458    3.3261   -2.0648 
 C                     6.9075    2.6349   -2.3848 
 C                     9.0259    1.5837   -5.1009 
 C                     10.2022   0.8741   -5.4324 
 C                     10.6463  -0.1708   -4.655 
 C                     9.903    -0.5589   -3.5154 
 H                     11.1848  -2.2089   -2.8922 
 H                     9.7577   -2.8095   -0.9413 
 H                     7.0247    0.1846   -1.8162 
 H                     6.113     1.6473   -5.545 
 H                     4.0385    2.8774   -4.9836 
 H                    -3.9229    3.0109   -4.9725 
 H                    -6.0241    1.8344   -5.5478 
 H                    -8.6023    2.7079   -5.6624 
 H                    -10.6876   1.5351   -6.3052 
 H                    -11.5055  -0.4106   -4.9969 
 H                    -11.1469  -2.024    -3.0758 
 H                    -9.7282   -2.7547   -1.1643 
 H                    -6.9514    0.2435   -1.8684 
 H                    -7.5706    2.6804   -1.6106 
 H                    -5.4751    3.8444   -1.0334 
 H                    -2.0484    7.3782   -1.9071 
 H                     0.1236    8.6216   -1.6935 
 H                     2.2718    7.3419   -1.9351 
 H                     5.649     3.8063   -1.09 
 H                     7.7189    2.5886   -1.6537 
 H                     8.7124    2.4218   -5.727 
 H                     10.7693   1.1732   -6.3166 
 H                     11.5611  -0.7104   -4.9073 
 
 Stoichiometry    C122H74N10O2Pd2(4+)
 Framework group  C1[X(C122H74N10O2Pd2)]
 Deg. of freedom   624
 Full point group                 C1      NOp   1
 Largest Abelian subgroup         C1      NOp   1
 Largest concise Abelian subgroup C1      NOp   1
                         Standard orientation:                         
 ---------------------------------------------------------------------
 Center     Atomic      Atomic             Coordinates (Angstroms)
 Number     Number       Type             X           Y           Z
 ---------------------------------------------------------------------
      1         46           0        7.220296   -1.723101    0.302204
      2         46           0       -7.200004   -1.765001    0.161604
      3          6           0        4.884196   -2.349001   -1.341496
      4          7           0        5.984296   -2.895001   -0.802696
      5          6           0        6.198796   -4.210901   -0.942596
      6          6           0        5.300496   -5.033701   -1.602996
      7          6           0        4.122796   -4.493801   -2.139996
      8          6           0        3.092296   -5.333401   -2.777096
      9          6           0        3.440596   -6.484101   -3.517896
     10          6           0        2.479996   -7.298101   -4.111296
     11          6           0        1.151796   -6.935001   -3.930696
     12          8           0        0.065596   -7.605301   -4.403696
     13          6           0       -1.033404   -6.924801   -3.976896
     14          6           0       -2.356204   -7.276301   -4.212096
     15          6           0       -3.333204   -6.455501   -3.656196
     16          6           0       -3.005704   -5.307201   -2.901996
     17          6           0       -4.053104   -4.469301   -2.290696
     18          6           0       -3.875004   -3.085501   -2.140196
     19          6           0       -4.828604   -2.334401   -1.477896
     20          7           0       -5.940004   -2.886701   -0.969996
     21          6           0       -6.155304   -4.199201   -1.137996
     22          6           0       -5.245004   -5.014001   -1.791096
     23          6           0       -1.662704   -4.970601   -2.694396
     24          6           0       -0.673804   -5.790701   -3.227096
     25          6           0        0.771396   -5.798101   -3.195496
     26          6           0        1.744596   -4.988601   -2.619196
     27          6           0        3.943196   -3.107901   -2.011996
     28          1           0        4.759596   -1.269901   -1.227996
     29          1           0        7.108596   -4.612701   -0.492096
     30          1           0        5.508896   -6.102701   -1.657196
     31          1           0        4.494496   -6.735901   -3.651996
     32          1           0        2.755996   -8.179801   -4.690696
     33          1           0       -2.615804   -8.155601   -4.802496
     34          1           0       -4.382904   -6.700401   -3.830296
     35          1           0       -2.995504   -2.581601   -2.541596
     36          1           0       -4.702704   -1.258001   -1.343296
     37          1           0       -7.076304   -4.604601   -0.714596
     38          1           0       -5.454504   -6.081601   -1.865796
     39          1           0       -1.390104   -4.101501   -2.093296
     40          1           0        1.455196   -4.121401   -2.022796
     41          1           0        3.074396   -2.608201   -2.441096
     42          6           0        4.917496   -1.278401    2.057604
     43          7           0        6.003696   -2.048501    1.895704
     44          6           0        6.187096   -3.101501    2.705104
     45          6           0        5.265296   -3.444901    3.680804
     46          6           0        4.094596   -2.687301    3.834604
     47          6           0        3.034996   -3.076301    4.783604
     48          6           0        3.356196   -3.682201    6.017904
     49          6           0        2.374496   -4.095701    6.912404
     50          6           0        1.054496   -3.902201    6.527804
     51          8           0       -0.043504   -4.270201    7.241104
     52          6           0       -1.129004   -3.933601    6.493404
     53          6           0       -2.453904   -4.165301    6.837004
     54          6           0       -3.419104   -3.775201    5.914404
     55          6           0       -3.077004   -3.155901    4.692604
     56          6           0       -4.120904   -2.779001    3.721404
     57          6           0       -3.998104   -1.623001    2.935504
     58          6           0       -4.951104   -1.338301    1.974004
     59          7           0       -6.005504   -2.140301    1.760304
     60          6           0       -6.168804   -3.228101    2.526104
     61          6           0       -5.258804   -3.572001    3.512904
     62          6           0       -1.731804   -2.923301    4.378804
     63          6           0       -0.750904   -3.323801    5.282904
     64          6           0        0.697096   -3.303401    5.305704
     65          6           0        1.693796   -2.877401    4.431504
     66          6           0        3.953296   -1.562201    3.008104
     67          1           0        4.815896   -0.413501    1.397804
     68          1           0        7.088596   -3.695001    2.540604
     69          1           0        5.446596   -4.334901    4.284504
     70          1           0        4.404696   -3.814801    6.292104
     71          1           0        2.626996   -4.555301    7.868604
     72          1           0       -2.722504   -4.634301    7.784204
     73          1           0       -4.471704   -3.935401    6.156204
     74          1           0       -3.163904   -0.933901    3.071504
     75          1           0       -4.870104   -0.444701    1.350804
     76          1           0       -7.043904   -3.848201    2.321404
     77          1           0       -5.422604   -4.486701    4.083804
     78          1           0       -1.452704   -2.473201    3.424104
     79          1           0        1.430196   -2.433601    3.469804
     80          1           0        3.093096   -0.898401    3.099504
     81          6           0       10.472596   -0.089402    2.490304
     82          6           0        9.587596   -0.935801    1.879904
     83          7           0        8.413396   -0.480001    1.365804
     84          6           0        8.078296    0.792099    1.487404
     85          6           0        8.892496    1.736599    2.148604
     86          6           0        8.512397    3.108599    2.305304
     87          6           0        7.165997    3.611899    1.954204
     88          6           0        7.024397    4.825299    1.262404
     89          6           0        5.771597    5.381499    1.042404
     90          6           0        4.612097    4.731299    1.504004
     91          6           0        3.335397    5.346199    1.362004
     92          6           0        2.256197    5.908099    1.306204
     93          6           0        1.028297    6.644899    1.300204
     94          7           0       -0.116203    5.952099    1.295204
     95          6           0       -1.266303    6.636399    1.311404
     96          6           0       -2.487403    5.888899    1.340804
     97          6           0       -3.557803    5.313599    1.422804
     98          6           0       -4.818203    4.671199    1.585704
     99          6           0       -6.002403    5.302199    1.161304
    100          6           0       -7.236303    4.707599    1.387904
    101          6           0       -7.332503    3.473299    2.049104
    102          6           0       -8.656503    2.911600    2.396604
    103          6           0       -9.604003    3.718700    3.001604
    104          6           0      -10.845103    3.207600    3.438104
    105          6           0      -11.152404    1.875100    3.290704
    106          6           0      -10.229704    1.012700    2.654104
    107          6           0      -10.488604   -0.366100    2.453804
    108          6           0       -9.581404   -1.145400    1.788604
    109          7           0       -8.435604   -0.616900    1.278504
    110          6           0       -8.149404    0.659500    1.458104
    111          6           0       -8.988104    1.536000    2.178704
    112          6           0       -6.146603    2.837299    2.453504
    113          6           0       -4.908103    3.419299    2.220704
    114          6           0       -1.321303    8.041599    1.330804
    115          6           0       -0.126903    8.750899    1.340504
    116          6           0        1.072397    8.050499    1.324004
    117          6           0        4.746297    3.496599    2.164004
    118          6           0        6.003897    2.953299    2.390404
    119          6           0        9.437497    3.977999    2.857104
    120          6           0       10.703497    3.536698    3.297404
    121          6           0       11.059596    2.211498    3.207604
    122          6           0       10.161196    1.285799    2.627704
    123          1           0       11.420896   -0.476202    2.866304
    124          1           0        9.789696   -2.001501    1.766904
    125          1           0        7.137196    1.098899    1.027004
    126          1           0        7.913197    5.342799    0.895204
    127          1           0        5.680697    6.332899    0.515404
    128          1           0       -5.945403    6.267999    0.656104
    129          1           0       -8.145003    5.209900    1.049304
    130          1           0       -9.369603    4.769500    3.183604
    131          1           0      -11.555303    3.881700    3.921604
    132          1           0      -12.099504    1.470800    3.653104
    133          1           0      -11.414104   -0.808800    2.825204
    134          1           0       -9.741504   -2.211700    1.622804
    135          1           0       -7.231004    1.028799    0.998104
    136          1           0       -6.193604    1.892999    3.000504
    137          1           0       -3.998503    2.921499    2.561104
    138          1           0       -2.286503    8.549099    1.342804
    139          1           0       -0.130803    9.842599    1.358804
    140          1           0        2.033797    8.565299    1.329004
    141          1           0        3.856497    2.983199    2.532604
    142          1           0        6.083296    2.025599    2.961204
    143          1           0        9.165897    5.026599    2.993904
    144          1           0       11.393597    4.259798    3.737304
    145          1           0       12.026496    1.860498    3.573304
    146          6           0       10.277096   -1.641701   -2.680196
    147          6           0        9.499196   -1.984001   -1.605896
    148          7           0        8.349396   -1.313301   -1.323796
    149          6           0        7.965696   -0.301201   -2.079096
    150          6           0        8.710396    0.152899   -3.185696
    151          6           0        8.279896    1.258699   -3.984296
    152          6           0        7.055996    2.017499   -3.637396
    153          6           0        6.013596    2.125799   -4.568196
    154          6           0        4.847097    2.810299   -4.253496
    155          6           0        4.694997    3.417899   -2.994396
    156          6           0        3.492897    4.123099   -2.687896
    157          6           0        2.453297    4.721599   -2.478096
    158          6           0        1.242397    5.467499   -2.287496
    159          7           0        0.087197    4.802899   -2.409096
    160          6           0       -1.054703    5.486299   -2.272896
    161          6           0       -2.280203    4.761299   -2.451296
    162          6           0       -3.332203    4.182199   -2.653396
    163          6           0       -4.548703    3.501999   -2.960896
    164          6           0       -4.724203    2.934399   -4.235496
    165          6           0       -5.905404    2.279699   -4.557496
    166          6           0       -6.940304    2.161599   -3.619396
    167          6           0       -8.184404    1.445700   -3.986796
    168          6           0       -8.930404    1.844600   -5.079496
    169          6           0      -10.122104    1.177500   -5.441996
    170          6           0      -10.580604    0.099400   -4.720796
    171          6           0       -9.839104   -0.362900   -3.608096
    172          6           0      -10.229904   -1.484200   -2.834296
    173          6           0       -9.456804   -1.897700   -1.782096
    174          7           0       -8.298304   -1.260300   -1.461396
    175          6           0       -7.897604   -0.214700   -2.161296
    176          6           0       -8.633004    0.308600   -3.243896
    177          6           0       -6.766904    2.735199   -2.349696
    178          6           0       -5.590003    3.397399   -2.021996
    179          6           0       -1.091003    6.865899   -2.008396
    180          6           0        0.113297    7.548299   -1.890796
    181          6           0        1.304697    6.845899   -2.025196
    182          6           0        5.745797    3.326099   -2.064796
    183          6           0        6.907496    2.634899   -2.384796
    184          6           0        9.025896    1.583699   -5.100896
    185          6           0       10.202196    0.874099   -5.432396
    186          6           0       10.646296   -0.170802   -4.654996
    187          6           0        9.902996   -0.558901   -3.515396
    188          1           0       11.184796   -2.208902   -2.892196
    189          1           0        9.757696   -2.809501   -0.941296
    190          1           0        7.024696    0.184599   -1.816196
    191          1           0        6.112996    1.647299   -5.544996
    192          1           0        4.038497    2.877399   -4.983596
    193          1           0       -3.922903    3.010899   -4.972496
    194          1           0       -6.024104    1.834399   -5.547796
    195          1           0       -8.602304    2.707900   -5.662396
    196          1           0      -10.687604    1.535100   -6.305196
    197          1           0      -11.505504   -0.410600   -4.996896
    198          1           0      -11.146904   -2.024000   -3.075796
    199          1           0       -9.728204   -2.754700   -1.164296
    200          1           0       -6.951404    0.243499   -1.868396
    201          1           0       -7.570604    2.680400   -1.610596
    202          1           0       -5.475103    3.844399   -1.033396
    203          1           0       -2.048403    7.378199   -1.907096
    204          1           0        0.123597    8.621599   -1.693496
    205          1           0        2.271797    7.341899   -1.935096
    206          1           0        5.648997    3.806299   -1.089996
    207          1           0        7.718896    2.588599   -1.653696
    208          1           0        8.712396    2.421799   -5.726996
    209          1           0       10.769296    1.173198   -6.316596
    210          1           0       11.561096   -0.710402   -4.907296
 ---------------------------------------------------------------------
 Rotational constants (GHZ):           0.0110196           0.0052310           0.0047279
 Standard basis: def2SVP (5D, 7F)
 There are  2452 symmetry adapted cartesian basis functions of A   symmetry.
 There are  2308 symmetry adapted basis functions of A   symmetry.
  2308 basis functions,  3998 primitive gaussians,  2452 cartesian basis functions
   462 alpha electrons      462 beta electrons
       nuclear repulsion energy     28612.6163126498 Hartrees.
 NAtoms=  210 NActive=  210 NUniq=  210 SFac= 1.00D+00 NAtFMM=   60 NAOKFM=T Big=T
 Integral buffers will be    131072 words long.
 Raffenetti 2 integral format.
 Two-electron integral symmetry is turned on.
 Nuclear repulsion after empirical dispersion term =    28612.2673979349 Hartrees.
 ------------------------------------------------------------------------------
 Polarizable Continuum Model (PCM)
 =================================
 Model                : PCM.
 Atomic radii         : UFF (Universal Force Field).
 Polarization charges : Total charges.
 Charge compensation  : None.
 Solution method      : On-the-fly selection.
 Cavity type          : Scaled VdW (van der Waals Surface) (Alpha=1.100).
 Cavity algorithm     : GePol (No added spheres)
                        Default sphere list used, NSphG=  210.
                        Lebedev-Laikov grids with approx.  5.0 points / Ang**2.
                        Smoothing algorithm: York/Karplus (Gamma=1.0000).
                        Polarization charges: spherical gaussians, with
                                              point-specific exponents (IZeta= 3).
                        Self-potential: point-specific (ISelfS= 7).
                        Self-field    : sphere-specific E.n sum rule (ISelfD= 2).
 Solvent              : DiMethylSulfoxide, Eps=  46.826000 Eps(inf)=   2.007889
 ------------------------------------------------------------------------------
 One-electron integrals computed using PRISM.
   1 Symmetry operations used in ECPInt.
 ECPInt:  NShTT=  549676 NPrTT= 2035130 LenC2=  246152 LenP2D=  505092.
 LDataN:  DoStor=T MaxTD1= 7 Len=  274
 Number of processors reduced to  47 by ecpmxn.
 NBasis=  2308 RedAO= T EigKep=  2.23D-04  NBF=  2308
 NBsUse=  2308 1.00D-06 EigRej= -1.00D+00 NBFU=  2308
 Defaulting to unpruned grid for atomic number  46.
 ExpMin= 3.70D-02 ExpMax= 2.27D+03 ExpMxC= 3.41D+02 IAcc=3 IRadAn=         5 AccDes= 0.00D+00
 Harris functional with IExCor= 1009 and IRadAn=       5 diagonalized for initial guess.
 HarFok:  IExCor= 1009 AccDes= 0.00D+00 IRadAn=         5 IDoV= 1 UseB2=F ITyADJ=14
 ICtDFT=  3500011 ScaDFX=  1.000000  1.000000  1.000000  1.000000
 Defaulting to unpruned grid for atomic number  46.
 FoFCou: FMM=F IPFlag=           0 FMFlag=      100000 FMFlg1=        2001
         NFxFlg=           0 DoJE=T BraDBF=F KetDBF=T FulRan=T
         wScrn=  0.000000 ICntrl=       500 IOpCl=  0 I1Cent=   200000004 NGrid=           0
         NMat0=    1 NMatS0=      1 NMatT0=    0 NMatD0=    1 NMtDS0=    0 NMtDT0=    0
 Petite list used in FoFCou.
 Requested convergence on RMS density matrix=1.00D-08 within 128 cycles.
 Requested convergence on MAX density matrix=1.00D-06.
 Requested convergence on             energy=1.00D-06.
 No special actions if energy rises.
 Defaulting to unpruned grid for atomic number  46.
 Defaulting to unpruned grid for atomic number  46.
 Defaulting to unpruned grid for atomic number  46.
 Defaulting to unpruned grid for atomic number  46.
 Defaulting to unpruned grid for atomic number  46.
 Defaulting to unpruned grid for atomic number  46.
 Defaulting to unpruned grid for atomic number  46.
 Defaulting to unpruned grid for atomic number  46.
 Defaulting to unpruned grid for atomic number  46.
 Defaulting to unpruned grid for atomic number  46.
 Defaulting to unpruned grid for atomic number  46.
 Defaulting to unpruned grid for atomic number  46.
 Defaulting to unpruned grid for atomic number  46.
 Defaulting to unpruned grid for atomic number  46.
 Defaulting to unpruned grid for atomic number  46.
 Defaulting to unpruned grid for atomic number  46.
 Defaulting to unpruned grid for atomic number  46.
 Defaulting to unpruned grid for atomic number  46.
 Defaulting to unpruned grid for atomic number  46.
 Defaulting to unpruned grid for atomic number  46.
 Defaulting to unpruned grid for atomic number  46.
 Defaulting to unpruned grid for atomic number  46.
 Defaulting to unpruned grid for atomic number  46.
 Defaulting to unpruned grid for atomic number  46.
 Defaulting to unpruned grid for atomic number  46.
 Defaulting to unpruned grid for atomic number  46.
 Defaulting to unpruned grid for atomic number  46.
 Defaulting to unpruned grid for atomic number  46.
 Defaulting to unpruned grid for atomic number  46.
 Defaulting to unpruned grid for atomic number  46.
 Defaulting to unpruned grid for atomic number  46.
 Defaulting to unpruned grid for atomic number  46.
 Defaulting to unpruned grid for atomic number  46.
 Defaulting to unpruned grid for atomic number  46.
 Defaulting to unpruned grid for atomic number  46.
 Defaulting to unpruned grid for atomic number  46.
 Defaulting to unpruned grid for atomic number  46.
 Defaulting to unpruned grid for atomic number  46.
 Defaulting to unpruned grid for atomic number  46.
 Defaulting to unpruned grid for atomic number  46.
 Defaulting to unpruned grid for atomic number  46.
 Defaulting to unpruned grid for atomic number  46.
 Defaulting to unpruned grid for atomic number  46.
 Defaulting to unpruned grid for atomic number  46.
 Defaulting to unpruned grid for atomic number  46.
 Defaulting to unpruned grid for atomic number  46.
 Defaulting to unpruned grid for atomic number  46.
 Defaulting to unpruned grid for atomic number  46.
 Inv3:  Mode=1 IEnd=   643779603.
 Iteration    1 A*A^-1 deviation from unit magnitude is 3.75D-14 for  14627.
 Iteration    1 A*A^-1 deviation from orthogonality  is 1.09D-14 for  14627  14232.
 Iteration    1 A^-1*A deviation from unit magnitude is 3.75D-14 for  14627.
 Iteration    1 A^-1*A deviation from orthogonality  is 2.51D-14 for  13979  13952.
 EnCoef did   100 forward-backward iterations
 EnCoef did     6 forward-backward iterations
 EnCoef did     1 forward-backward iterations
 EnCoef did     4 forward-backward iterations
 Restarting incremental Fock formation.
 Error on total polarization charges =  0.03054
 SCF Done:  E(RPBE1PBE) =  -5637.04445896     A.U. after   23 cycles
            NFock= 23  Conv=0.25D-08     -V/T= 2.0397
 Hyperfine terms turned off by default for NAtoms > 100.

 **********************************************************************

            Population analysis using the SCF Density.

 **********************************************************************

 Orbital symmetries:
       Occupied  (A) (A) (A) (A) (A) (A) (A) (A) (A) (A) (A) (A)
                 (A) (A) (A) (A) (A) (A) (A) (A) (A) (A) (A) (A)
                 (A) (A) (A) (A) (A) (A) (A) (A) (A) (A) (A) (A)
                 (A) (A) (A) (A) (A) (A) (A) (A) (A) (A) (A) (A)
                 (A) (A) (A) (A) (A) (A) (A) (A) (A) (A) (A) (A)
                 (A) (A) (A) (A) (A) (A) (A) (A) (A) (A) (A) (A)
                 (A) (A) (A) (A) (A) (A) (A) (A) (A) (A) (A) (A)
                 (A) (A) (A) (A) (A) (A) (A) (A) (A) (A) (A) (A)
                 (A) (A) (A) (A) (A) (A) (A) (A) (A) (A) (A) (A)
                 (A) (A) (A) (A) (A) (A) (A) (A) (A) (A) (A) (A)
                 (A) (A) (A) (A) (A) (A) (A) (A) (A) (A) (A) (A)
                 (A) (A) (A) (A) (A) (A) (A) (A) (A) (A) (A) (A)
                 (A) (A) (A) (A) (A) (A) (A) (A) (A) (A) (A) (A)
                 (A) (A) (A) (A) (A) (A) (A) (A) (A) (A) (A) (A)
                 (A) (A) (A) (A) (A) (A) (A) (A) (A) (A) (A) (A)
                 (A) (A) (A) (A) (A) (A) (A) (A) (A) (A) (A) (A)
                 (A) (A) (A) (A) (A) (A) (A) (A) (A) (A) (A) (A)
                 (A) (A) (A) (A) (A) (A) (A) (A) (A) (A) (A) (A)
                 (A) (A) (A) (A) (A) (A) (A) (A) (A) (A) (A) (A)
                 (A) (A) (A) (A) (A) (A) (A) (A) (A) (A) (A) (A)
                 (A) (A) (A) (A) (A) (A) (A) (A) (A) (A) (A) (A)
                 (A) (A) (A) (A) (A) (A) (A) (A) (A) (A) (A) (A)
                 (A) (A) (A) (A) (A) (A) (A) (A) (A) (A) (A) (A)
                 (A) (A) (A) (A) (A) (A) (A) (A) (A) (A) (A) (A)
                 (A) (A) (A) (A) (A) (A) (A) (A) (A) (A) (A) (A)
                 (A) (A) (A) (A) (A) (A) (A) (A) (A) (A) (A) (A)
                 (A) (A) (A) (A) (A) (A) (A) (A) (A) (A) (A) (A)
                 (A) (A) (A) (A) (A) (A) (A) (A) (A) (A) (A) (A)
                 (A) (A) (A) (A) (A) (A) (A) (A) (A) (A) (A) (A)
                 (A) (A) (A) (A) (A) (A) (A) (A) (A) (A) (A) (A)
                 (A) (A) (A) (A) (A) (A) (A) (A) (A) (A) (A) (A)
                 (A) (A) (A) (A) (A) (A) (A) (A) (A) (A) (A) (A)
                 (A) (A) (A) (A) (A) (A) (A) (A) (A) (A) (A) (A)
                 (A) (A) (A) (A) (A) (A) (A) (A) (A) (A) (A) (A)
                 (A) (A) (A) (A) (A) (A) (A) (A) (A) (A) (A) (A)
                 (A) (A) (A) (A) (A) (A) (A) (A) (A) (A) (A) (A)
                 (A) (A) (A) (A) (A) (A) (A) (A) (A) (A) (A) (A)
                 (A) (A) (A) (A) (A) (A) (A) (A) (A) (A) (A) (A)
                 (A) (A) (A) (A) (A) (A)
       Virtual   (A) (A) (A) (A) (A) (A) (A) (A) (A) (A) (A) (A)
                 (A) (A) (A) (A) (A) (A) (A) (A) (A) (A) (A) (A)
                 (A) (A) (A) (A) (A) (A) (A) (A) (A) (A) (A) (A)
                 (A) (A) (A) (A) (A) (A) (A) (A) (A) (A) (A) (A)
                 (A) (A) (A) (A) (A) (A) (A) (A) (A) (A) (A) (A)
                 (A) (A) (A) (A) (A) (A) (A) (A) (A) (A) (A) (A)
                 (A) (A) (A) (A) (A) (A) (A) (A) (A) (A) (A) (A)
                 (A) (A) (A) (A) (A) (A) (A) (A) (A) (A) (A) (A)
                 (A) (A) (A) (A) (A) (A) (A) (A) (A) (A) (A) (A)
                 (A) (A) (A) (A) (A) (A) (A) (A) (A) (A) (A) (A)
                 (A) (A) (A) (A) (A) (A) (A) (A) (A) (A) (A) (A)
                 (A) (A) (A) (A) (A) (A) (A) (A) (A) (A) (A) (A)
                 (A) (A) (A) (A) (A) (A) (A) (A) (A) (A) (A) (A)
                 (A) (A) (A) (A) (A) (A) (A) (A) (A) (A) (A) (A)
                 (A) (A) (A) (A) (A) (A) (A) (A) (A) (A) (A) (A)
                 (A) (A) (A) (A) (A) (A) (A) (A) (A) (A) (A) (A)
                 (A) (A) (A) (A) (A) (A) (A) (A) (A) (A) (A) (A)
                 (A) (A) (A) (A) (A) (A) (A) (A) (A) (A) (A) (A)
                 (A) (A) (A) (A) (A) (A) (A) (A) (A) (A) (A) (A)
                 (A) (A) (A) (A) (A) (A) (A) (A) (A) (A) (A) (A)
                 (A) (A) (A) (A) (A) (A) (A) (A) (A) (A) (A) (A)
                 (A) (A) (A) (A) (A) (A) (A) (A) (A) (A) (A) (A)
                 (A) (A) (A) (A) (A) (A) (A) (A) (A) (A) (A) (A)
                 (A) (A) (A) (A) (A) (A) (A) (A) (A) (A) (A) (A)
                 (A) (A) (A) (A) (A) (A) (A) (A) (A) (A) (A) (A)
                 (A) (A) (A) (A) (A) (A) (A) (A) (A) (A) (A) (A)
                 (A) (A) (A) (A) (A) (A) (A) (A) (A) (A) (A) (A)
                 (A) (A) (A) (A) (A) (A) (A) (A) (A) (A) (A) (A)
                 (A) (A) (A) (A) (A) (A) (A) (A) (A) (A) (A) (A)
                 (A) (A) (A) (A) (A) (A) (A) (A) (A) (A) (A) (A)
                 (A) (A) (A) (A) (A) (A) (A) (A) (A) (A) (A) (A)
                 (A) (A) (A) (A) (A) (A) (A) (A) (A) (A) (A) (A)
                 (A) (A) (A) (A) (A) (A) (A) (A) (A) (A) (A) (A)
                 (A) (A) (A) (A) (A) (A) (A) (A) (A) (A) (A) (A)
                 (A) (A) (A) (A) (A) (A) (A) (A) (A) (A) (A) (A)
                 (A) (A) (A) (A) (A) (A) (A) (A) (A) (A) (A) (A)
                 (A) (A) (A) (A) (A) (A) (A) (A) (A) (A) (A) (A)
                 (A) (A) (A) (A) (A) (A) (A) (A) (A) (A) (A) (A)
                 (A) (A) (A) (A) (A) (A) (A) (A) (A) (A) (A) (A)
                 (A) (A) (A) (A) (A) (A) (A) (A) (A) (A) (A) (A)
                 (A) (A) (A) (A) (A) (A) (A) (A) (A) (A) (A) (A)
                 (A) (A) (A) (A) (A) (A) (A) (A) (A) (A) (A) (A)
                 (A) (A) (A) (A) (A) (A) (A) (A) (A) (A) (A) (A)
                 (A) (A) (A) (A) (A) (A) (A) (A) (A) (A) (A) (A)
                 (A) (A) (A) (A) (A) (A) (A) (A) (A) (A) (A) (A)
                 (A) (A) (A) (A) (A) (A) (A) (A) (A) (A) (A) (A)
                 (A) (A) (A) (A) (A) (A) (A) (A) (A) (A) (A) (A)
                 (A) (A) (A) (A) (A) (A) (A) (A) (A) (A) (A) (A)
                 (A) (A) (A) (A) (A) (A) (A) (A) (A) (A) (A) (A)
                 (A) (A) (A) (A) (A) (A) (A) (A) (A) (A) (A) (A)
                 (A) (A) (A) (A) (A) (A) (A) (A) (A) (A) (A) (A)
                 (A) (A) (A) (A) (A) (A) (A) (A) (A) (A) (A) (A)
                 (A) (A) (A) (A) (A) (A) (A) (A) (A) (A) (A) (A)
                 (A) (A) (A) (A) (A) (A) (A) (A) (A) (A) (A) (A)
                 (A) (A) (A) (A) (A) (A) (A) (A) (A) (A) (A) (A)
                 (A) (A) (A) (A) (A) (A) (A) (A) (A) (A) (A) (A)
                 (A) (A) (A) (A) (A) (A) (A) (A) (A) (A) (A) (A)
                 (A) (A) (A) (A) (A) (A) (A) (A) (A) (A) (A) (A)
                 (A) (A) (A) (A) (A) (A) (A) (A) (A) (A) (A) (A)
                 (A) (A) (A) (A) (A) (A) (A) (A) (A) (A) (A) (A)
                 (A) (A) (A) (A) (A) (A) (A) (A) (A) (A) (A) (A)
                 (A) (A) (A) (A) (A) (A) (A) (A) (A) (A) (A) (A)
                 (A) (A) (A) (A) (A) (A) (A) (A) (A) (A) (A) (A)
                 (A) (A) (A) (A) (A) (A) (A) (A) (A) (A) (A) (A)
                 (A) (A) (A) (A) (A) (A) (A) (A) (A) (A) (A) (A)
                 (A) (A) (A) (A) (A) (A) (A) (A) (A) (A) (A) (A)
                 (A) (A) (A) (A) (A) (A) (A) (A) (A) (A) (A) (A)
                 (A) (A) (A) (A) (A) (A) (A) (A) (A) (A) (A) (A)
                 (A) (A) (A) (A) (A) (A) (A) (A) (A) (A) (A) (A)
                 (A) (A) (A) (A) (A) (A) (A) (A) (A) (A) (A) (A)
                 (A) (A) (A) (A) (A) (A) (A) (A) (A) (A) (A) (A)
                 (A) (A) (A) (A) (A) (A) (A) (A) (A) (A) (A) (A)
                 (A) (A) (A) (A) (A) (A) (A) (A) (A) (A) (A) (A)
                 (A) (A) (A) (A) (A) (A) (A) (A) (A) (A) (A) (A)
                 (A) (A) (A) (A) (A) (A) (A) (A) (A) (A) (A) (A)
                 (A) (A) (A) (A) (A) (A) (A) (A) (A) (A) (A) (A)
                 (A) (A) (A) (A) (A) (A) (A) (A) (A) (A) (A) (A)
                 (A) (A) (A) (A) (A) (A) (A) (A) (A) (A) (A) (A)
                 (A) (A) (A) (A) (A) (A) (A) (A) (A) (A) (A) (A)
                 (A) (A) (A) (A) (A) (A) (A) (A) (A) (A) (A) (A)
                 (A) (A) (A) (A) (A) (A) (A) (A) (A) (A) (A) (A)
                 (A) (A) (A) (A) (A) (A) (A) (A) (A) (A) (A) (A)
                 (A) (A) (A) (A) (A) (A) (A) (A) (A) (A) (A) (A)
                 (A) (A) (A) (A) (A) (A) (A) (A) (A) (A) (A) (A)
                 (A) (A) (A) (A) (A) (A) (A) (A) (A) (A) (A) (A)
                 (A) (A) (A) (A) (A) (A) (A) (A) (A) (A) (A) (A)
                 (A) (A) (A) (A) (A) (A) (A) (A) (A) (A) (A) (A)
                 (A) (A) (A) (A) (A) (A) (A) (A) (A) (A) (A) (A)
                 (A) (A) (A) (A) (A) (A) (A) (A) (A) (A) (A) (A)
                 (A) (A) (A) (A) (A) (A) (A) (A) (A) (A) (A) (A)
                 (A) (A) (A) (A) (A) (A) (A) (A) (A) (A) (A) (A)
                 (A) (A) (A) (A) (A) (A) (A) (A) (A) (A) (A) (A)
                 (A) (A) (A) (A) (A) (A) (A) (A) (A) (A) (A) (A)
                 (A) (A) (A) (A) (A) (A) (A) (A) (A) (A) (A) (A)
                 (A) (A) (A) (A) (A) (A) (A) (A) (A) (A) (A) (A)
                 (A) (A) (A) (A) (A) (A) (A) (A) (A) (A) (A) (A)
                 (A) (A) (A) (A) (A) (A) (A) (A) (A) (A) (A) (A)
                 (A) (A) (A) (A) (A) (A) (A) (A) (A) (A) (A) (A)
                 (A) (A) (A) (A) (A) (A) (A) (A) (A) (A) (A) (A)
                 (A) (A) (A) (A) (A) (A) (A) (A) (A) (A) (A) (A)
                 (A) (A) (A) (A) (A) (A) (A) (A) (A) (A) (A) (A)
                 (A) (A) (A) (A) (A) (A) (A) (A) (A) (A) (A) (A)
                 (A) (A) (A) (A) (A) (A) (A) (A) (A) (A) (A) (A)
                 (A) (A) (A) (A) (A) (A) (A) (A) (A) (A) (A) (A)
                 (A) (A) (A) (A) (A) (A) (A) (A) (A) (A) (A) (A)
                 (A) (A) (A) (A) (A) (A) (A) (A) (A) (A) (A) (A)
                 (A) (A) (A) (A) (A) (A) (A) (A) (A) (A) (A) (A)
                 (A) (A) (A) (A) (A) (A) (A) (A) (A) (A) (A) (A)
                 (A) (A) (A) (A) (A) (A) (A) (A) (A) (A) (A) (A)
                 (A) (A) (A) (A) (A) (A) (A) (A) (A) (A) (A) (A)
                 (A) (A) (A) (A) (A) (A) (A) (A) (A) (A) (A) (A)
                 (A) (A) (A) (A) (A) (A) (A) (A) (A) (A) (A) (A)
                 (A) (A) (A) (A) (A) (A) (A) (A) (A) (A) (A) (A)
                 (A) (A) (A) (A) (A) (A) (A) (A) (A) (A) (A) (A)
                 (A) (A) (A) (A) (A) (A) (A) (A) (A) (A) (A) (A)
                 (A) (A) (A) (A) (A) (A) (A) (A) (A) (A) (A) (A)
                 (A) (A) (A) (A) (A) (A) (A) (A) (A) (A) (A) (A)
                 (A) (A) (A) (A) (A) (A) (A) (A) (A) (A) (A) (A)
                 (A) (A) (A) (A) (A) (A) (A) (A) (A) (A) (A) (A)
                 (A) (A) (A) (A) (A) (A) (A) (A) (A) (A) (A) (A)
                 (A) (A) (A) (A) (A) (A) (A) (A) (A) (A) (A) (A)
                 (A) (A) (A) (A) (A) (A) (A) (A) (A) (A) (A) (A)
                 (A) (A) (A) (A) (A) (A) (A) (A) (A) (A) (A) (A)
                 (A) (A) (A) (A) (A) (A) (A) (A) (A) (A) (A) (A)
                 (A) (A) (A) (A) (A) (A) (A) (A) (A) (A) (A) (A)
                 (A) (A) (A) (A) (A) (A) (A) (A) (A) (A) (A) (A)
                 (A) (A) (A) (A) (A) (A) (A) (A) (A) (A) (A) (A)
                 (A) (A) (A) (A) (A) (A) (A) (A) (A) (A) (A) (A)
                 (A) (A) (A) (A) (A) (A) (A) (A) (A) (A) (A) (A)
                 (A) (A) (A) (A) (A) (A) (A) (A) (A) (A) (A) (A)
                 (A) (A) (A) (A) (A) (A) (A) (A) (A) (A) (A) (A)
                 (A) (A) (A) (A) (A) (A) (A) (A) (A) (A) (A) (A)
                 (A) (A) (A) (A) (A) (A) (A) (A) (A) (A) (A) (A)
                 (A) (A) (A) (A) (A) (A) (A) (A) (A) (A) (A) (A)
                 (A) (A) (A) (A) (A) (A) (A) (A) (A) (A) (A) (A)
                 (A) (A) (A) (A) (A) (A) (A) (A) (A) (A) (A) (A)
                 (A) (A) (A) (A) (A) (A) (A) (A) (A) (A) (A) (A)
                 (A) (A) (A) (A) (A) (A) (A) (A) (A) (A) (A) (A)
                 (A) (A) (A) (A) (A) (A) (A) (A) (A) (A) (A) (A)
                 (A) (A) (A) (A) (A) (A) (A) (A) (A) (A) (A) (A)
                 (A) (A) (A) (A) (A) (A) (A) (A) (A) (A) (A) (A)
                 (A) (A) (A) (A) (A) (A) (A) (A) (A) (A) (A) (A)
                 (A) (A) (A) (A) (A) (A) (A) (A) (A) (A) (A) (A)
                 (A) (A) (A) (A) (A) (A) (A) (A) (A) (A) (A) (A)
                 (A) (A) (A) (A) (A) (A) (A) (A) (A) (A) (A) (A)
                 (A) (A) (A) (A) (A) (A) (A) (A) (A) (A) (A) (A)
                 (A) (A) (A) (A) (A) (A) (A) (A) (A) (A) (A) (A)
                 (A) (A) (A) (A) (A) (A) (A) (A) (A) (A) (A) (A)
                 (A) (A) (A) (A) (A) (A) (A) (A) (A) (A) (A) (A)
                 (A) (A) (A) (A) (A) (A) (A) (A) (A) (A) (A) (A)
                 (A) (A) (A) (A) (A) (A) (A) (A) (A) (A) (A) (A)
                 (A) (A) (A) (A) (A) (A) (A) (A) (A) (A) (A) (A)
                 (A) (A) (A) (A) (A) (A) (A) (A) (A) (A) (A) (A)
                 (A) (A) (A) (A) (A) (A) (A) (A) (A) (A)
 The electronic state is 1-A.
 Alpha  occ. eigenvalues --  -19.30228 -19.30206 -14.48216 -14.48197 -14.48183
 Alpha  occ. eigenvalues --  -14.48177 -14.48085 -14.48077 -14.48048 -14.48048
 Alpha  occ. eigenvalues --  -14.41354 -14.41199 -10.32277 -10.32271 -10.32269
 Alpha  occ. eigenvalues --  -10.32260 -10.32257 -10.32251 -10.32133 -10.32111
 Alpha  occ. eigenvalues --  -10.31710 -10.31690 -10.31664 -10.31653 -10.31647
 Alpha  occ. eigenvalues --  -10.31634 -10.31626 -10.31613 -10.31526 -10.31516
 Alpha  occ. eigenvalues --  -10.31328 -10.31311 -10.30851 -10.30849 -10.30822
 Alpha  occ. eigenvalues --  -10.30818 -10.30106 -10.30104 -10.30089 -10.30084
 Alpha  occ. eigenvalues --  -10.29023 -10.29017 -10.28986 -10.28977 -10.28956
 Alpha  occ. eigenvalues --  -10.28931 -10.28791 -10.28773 -10.28769 -10.28768
 Alpha  occ. eigenvalues --  -10.28622 -10.28604 -10.28516 -10.28513 -10.28461
 Alpha  occ. eigenvalues --  -10.28457 -10.27979 -10.27970 -10.27968 -10.27960
 Alpha  occ. eigenvalues --  -10.27949 -10.27948 -10.27917 -10.27909 -10.27887
 Alpha  occ. eigenvalues --  -10.27864 -10.27795 -10.27788 -10.27771 -10.27769
 Alpha  occ. eigenvalues --  -10.27645 -10.27639 -10.27639 -10.27636 -10.27574
 Alpha  occ. eigenvalues --  -10.27571 -10.27303 -10.27291 -10.27279 -10.27241
 Alpha  occ. eigenvalues --  -10.27228 -10.27198 -10.27197 -10.27179 -10.27117
 Alpha  occ. eigenvalues --  -10.27100 -10.27098 -10.27091 -10.27089 -10.27084
 Alpha  occ. eigenvalues --  -10.27009 -10.27007 -10.26980 -10.26976 -10.26925
 Alpha  occ. eigenvalues --  -10.26918 -10.26865 -10.26859 -10.26839 -10.26834
 Alpha  occ. eigenvalues --  -10.26769 -10.26763 -10.26758 -10.26743 -10.26739
 Alpha  occ. eigenvalues --  -10.26736 -10.26733 -10.26732 -10.26731 -10.26728
 Alpha  occ. eigenvalues --  -10.26724 -10.26719 -10.26689 -10.26683 -10.26637
 Alpha  occ. eigenvalues --  -10.26615 -10.26472 -10.26465 -10.26462 -10.26449
 Alpha  occ. eigenvalues --  -10.26448 -10.26438 -10.26436 -10.26427 -10.26389
 Alpha  occ. eigenvalues --  -10.26380 -10.26303 -10.26293 -10.26222 -10.26206
 Alpha  occ. eigenvalues --  -10.25941 -10.25936 -10.25789 -10.25787  -3.56655
 Alpha  occ. eigenvalues --   -3.56651  -2.24559  -2.24557  -2.24404  -2.24400
 Alpha  occ. eigenvalues --   -2.20362  -2.20357  -1.16398  -1.16354  -1.03139
 Alpha  occ. eigenvalues --   -1.03136  -1.02578  -1.02578  -1.02451  -1.02450
 Alpha  occ. eigenvalues --   -1.02426  -1.02425  -0.99729  -0.99483  -0.92579
 Alpha  occ. eigenvalues --   -0.92575  -0.92456  -0.92445  -0.92020  -0.91978
 Alpha  occ. eigenvalues --   -0.91511  -0.91489  -0.90574  -0.90565  -0.90378
 Alpha  occ. eigenvalues --   -0.90369  -0.87626  -0.87537  -0.87241  -0.87153
 Alpha  occ. eigenvalues --   -0.85717  -0.85549  -0.85531  -0.85399  -0.84615
 Alpha  occ. eigenvalues --   -0.84480  -0.84349  -0.84160  -0.82964  -0.82929
 Alpha  occ. eigenvalues --   -0.82790  -0.82668  -0.82534  -0.82531  -0.82452
 Alpha  occ. eigenvalues --   -0.82426  -0.82358  -0.82294  -0.82183  -0.81986
 Alpha  occ. eigenvalues --   -0.81933  -0.81698  -0.80520  -0.80475  -0.79518
 Alpha  occ. eigenvalues --   -0.79340  -0.79027  -0.78934  -0.78796  -0.78673
 Alpha  occ. eigenvalues --   -0.78506  -0.78401  -0.78373  -0.78342  -0.77127
 Alpha  occ. eigenvalues --   -0.77109  -0.76467  -0.76292  -0.74916  -0.74777
 Alpha  occ. eigenvalues --   -0.70997  -0.70894  -0.70876  -0.70752  -0.70671
 Alpha  occ. eigenvalues --   -0.70582  -0.70416  -0.70375  -0.69790  -0.69639
 Alpha  occ. eigenvalues --   -0.69500  -0.69393  -0.69356  -0.69282  -0.69120
 Alpha  occ. eigenvalues --   -0.69078  -0.68432  -0.68421  -0.68310  -0.68293
 Alpha  occ. eigenvalues --   -0.67278  -0.67196  -0.66882  -0.66746  -0.66651
 Alpha  occ. eigenvalues --   -0.66494  -0.64679  -0.64659  -0.64527  -0.64521
 Alpha  occ. eigenvalues --   -0.64493  -0.64410  -0.63266  -0.63205  -0.63155
 Alpha  occ. eigenvalues --   -0.63085  -0.62985  -0.62891  -0.62533  -0.62497
 Alpha  occ. eigenvalues --   -0.59894  -0.59780  -0.59670  -0.59331  -0.59045
 Alpha  occ. eigenvalues --   -0.58431  -0.58215  -0.58142  -0.58040  -0.57992
 Alpha  occ. eigenvalues --   -0.57553  -0.57468  -0.57250  -0.57194  -0.57106
 Alpha  occ. eigenvalues --   -0.57100  -0.57050  -0.56900  -0.56654  -0.56551
 Alpha  occ. eigenvalues --   -0.56353  -0.56231  -0.55834  -0.55751  -0.55681
 Alpha  occ. eigenvalues --   -0.55638  -0.54823  -0.54723  -0.54044  -0.53870
 Alpha  occ. eigenvalues --   -0.53812  -0.53705  -0.52969  -0.52885  -0.51884
 Alpha  occ. eigenvalues --   -0.51826  -0.51700  -0.51676  -0.51448  -0.51360
 Alpha  occ. eigenvalues --   -0.51237  -0.51183  -0.51181  -0.51118  -0.51057
 Alpha  occ. eigenvalues --   -0.50926  -0.50907  -0.50754  -0.50708  -0.50590
 Alpha  occ. eigenvalues --   -0.50543  -0.50387  -0.50193  -0.50083  -0.50077
 Alpha  occ. eigenvalues --   -0.49918  -0.49798  -0.49676  -0.49333  -0.49249
 Alpha  occ. eigenvalues --   -0.49221  -0.49105  -0.49054  -0.48924  -0.48675
 Alpha  occ. eigenvalues --   -0.48607  -0.48539  -0.48375  -0.48275  -0.48076
 Alpha  occ. eigenvalues --   -0.47966  -0.47806  -0.47781  -0.47670  -0.47641
 Alpha  occ. eigenvalues --   -0.47575  -0.47522  -0.47405  -0.47345  -0.47185
 Alpha  occ. eigenvalues --   -0.47160  -0.46929  -0.46802  -0.46757  -0.46657
 Alpha  occ. eigenvalues --   -0.46626  -0.46561  -0.46548  -0.46331  -0.45878
 Alpha  occ. eigenvalues --   -0.45816  -0.45742  -0.45732  -0.45589  -0.45555
 Alpha  occ. eigenvalues --   -0.45514  -0.45453  -0.44713  -0.44621  -0.44558
 Alpha  occ. eigenvalues --   -0.44376  -0.44094  -0.43985  -0.43891  -0.43449
 Alpha  occ. eigenvalues --   -0.43407  -0.43382  -0.43344  -0.42706  -0.42615
 Alpha  occ. eigenvalues --   -0.42485  -0.42440  -0.42320  -0.42181  -0.42134
 Alpha  occ. eigenvalues --   -0.41968  -0.41896  -0.41816  -0.41803  -0.41641
 Alpha  occ. eigenvalues --   -0.41508  -0.41447  -0.41429  -0.41345  -0.41314
 Alpha  occ. eigenvalues --   -0.41280  -0.41156  -0.41108  -0.40979  -0.40751
 Alpha  occ. eigenvalues --   -0.40630  -0.40605  -0.40430  -0.40199  -0.39817
 Alpha  occ. eigenvalues --   -0.39754  -0.39726  -0.39617  -0.38669  -0.38664
 Alpha  occ. eigenvalues --   -0.38467  -0.38316  -0.38251  -0.38177  -0.37916
 Alpha  occ. eigenvalues --   -0.37908  -0.37700  -0.37685  -0.37515  -0.37463
 Alpha  occ. eigenvalues --   -0.37351  -0.37215  -0.36995  -0.36509  -0.36277
 Alpha  occ. eigenvalues --   -0.36074  -0.36025  -0.35820  -0.35470  -0.35054
 Alpha  occ. eigenvalues --   -0.34899  -0.34846  -0.34739  -0.34596  -0.34180
 Alpha  occ. eigenvalues --   -0.33930  -0.33727  -0.33608  -0.33459  -0.33307
 Alpha  occ. eigenvalues --   -0.33241  -0.33221  -0.33119  -0.33047  -0.32610
 Alpha  occ. eigenvalues --   -0.32461  -0.32257  -0.32143  -0.31879  -0.31871
 Alpha  occ. eigenvalues --   -0.31322  -0.31314  -0.31004  -0.30989  -0.30919
 Alpha  occ. eigenvalues --   -0.30695  -0.30517  -0.30181  -0.30000  -0.29900
 Alpha  occ. eigenvalues --   -0.29846  -0.29596  -0.29588  -0.29193  -0.29175
 Alpha  occ. eigenvalues --   -0.29162  -0.29004  -0.28482  -0.28471  -0.28306
 Alpha  occ. eigenvalues --   -0.28202  -0.27954  -0.27208  -0.26779  -0.26144
 Alpha  occ. eigenvalues --   -0.26128  -0.26117  -0.26101  -0.25696  -0.25480
 Alpha  occ. eigenvalues --   -0.24974  -0.24356
 Alpha virt. eigenvalues --   -0.09705  -0.09687  -0.09185  -0.09176  -0.08756
 Alpha virt. eigenvalues --   -0.08453  -0.08244  -0.08029  -0.07551  -0.07449
 Alpha virt. eigenvalues --   -0.07261  -0.07163  -0.06788  -0.06710  -0.06433
 Alpha virt. eigenvalues --   -0.06297  -0.06290  -0.06244  -0.05583  -0.05569
 Alpha virt. eigenvalues --   -0.05467  -0.05340  -0.04546  -0.04392  -0.04177
 Alpha virt. eigenvalues --   -0.04164  -0.03699  -0.03317  -0.03160  -0.03073
 Alpha virt. eigenvalues --   -0.02708  -0.02640  -0.01523  -0.01338  -0.00439
 Alpha virt. eigenvalues --   -0.00323  -0.00299  -0.00059   0.00068   0.00336
 Alpha virt. eigenvalues --    0.00962   0.01320   0.01368   0.01513   0.01935
 Alpha virt. eigenvalues --    0.02010   0.02719   0.03799   0.04392   0.04785
 Alpha virt. eigenvalues --    0.04902   0.05095   0.05177   0.05666   0.05716
 Alpha virt. eigenvalues --    0.05892   0.05933   0.06042   0.06381   0.06501
 Alpha virt. eigenvalues --    0.06740   0.07116   0.07273   0.07477   0.07514
 Alpha virt. eigenvalues --    0.07588   0.07601   0.07704   0.08005   0.08053
 Alpha virt. eigenvalues --    0.08169   0.08294   0.08340   0.08556   0.08596
 Alpha virt. eigenvalues --    0.08774   0.08945   0.09121   0.09283   0.09435
 Alpha virt. eigenvalues --    0.09468   0.09688   0.09721   0.09855   0.09877
 Alpha virt. eigenvalues --    0.10009   0.10022   0.10070   0.10182   0.10246
 Alpha virt. eigenvalues --    0.10349   0.10418   0.10575   0.10739   0.10750
 Alpha virt. eigenvalues --    0.10877   0.11164   0.11284   0.11968   0.12120
 Alpha virt. eigenvalues --    0.12468   0.12520   0.12643   0.12763   0.12938
 Alpha virt. eigenvalues --    0.13266   0.13521   0.13637   0.13794   0.13839
 Alpha virt. eigenvalues --    0.13869   0.13993   0.14038   0.14107   0.14164
 Alpha virt. eigenvalues --    0.14258   0.14357   0.14375   0.14420   0.14500
 Alpha virt. eigenvalues --    0.14502   0.14919   0.14949   0.14986   0.15159
 Alpha virt. eigenvalues --    0.15272   0.15515   0.15529   0.15532   0.15686
 Alpha virt. eigenvalues --    0.15756   0.15882   0.15918   0.16040   0.16275
 Alpha virt. eigenvalues --    0.16305   0.16433   0.16511   0.16732   0.16782
 Alpha virt. eigenvalues --    0.16834   0.16881   0.17009   0.17049   0.17116
 Alpha virt. eigenvalues --    0.17210   0.17476   0.17672   0.17738   0.17864
 Alpha virt. eigenvalues --    0.18172   0.18211   0.18285   0.18324   0.18631
 Alpha virt. eigenvalues --    0.18784   0.18890   0.19056   0.19265   0.19376
 Alpha virt. eigenvalues --    0.19409   0.19579   0.19997   0.20084   0.20347
 Alpha virt. eigenvalues --    0.20619   0.20750   0.20887   0.21049   0.21712
 Alpha virt. eigenvalues --    0.21738   0.21979   0.22330   0.22452   0.22882
 Alpha virt. eigenvalues --    0.23036   0.23107   0.23393   0.23557   0.23579
 Alpha virt. eigenvalues --    0.23641   0.23743   0.23778   0.23879   0.23888
 Alpha virt. eigenvalues --    0.24105   0.24251   0.24359   0.24369   0.24466
 Alpha virt. eigenvalues --    0.24558   0.24701   0.24824   0.25118   0.25331
 Alpha virt. eigenvalues --    0.25445   0.25526   0.25728   0.25761   0.25946
 Alpha virt. eigenvalues --    0.25978   0.26126   0.26360   0.26502   0.26674
 Alpha virt. eigenvalues --    0.26725   0.26751   0.26884   0.26954   0.27052
 Alpha virt. eigenvalues --    0.27126   0.27241   0.27282   0.27431   0.27731
 Alpha virt. eigenvalues --    0.27763   0.27794   0.27851   0.27863   0.28035
 Alpha virt. eigenvalues --    0.28261   0.28375   0.28499   0.28509   0.28549
 Alpha virt. eigenvalues --    0.28568   0.28601   0.28877   0.29060   0.29116
 Alpha virt. eigenvalues --    0.29122   0.29273   0.29553   0.29671   0.29765
 Alpha virt. eigenvalues --    0.29870   0.30070   0.30141   0.30232   0.30355
 Alpha virt. eigenvalues --    0.30381   0.30427   0.30431   0.30635   0.30760
 Alpha virt. eigenvalues --    0.30808   0.30927   0.30974   0.31090   0.31288
 Alpha virt. eigenvalues --    0.31513   0.31753   0.31797   0.32080   0.32096
 Alpha virt. eigenvalues --    0.32645   0.32806   0.32864   0.33055   0.33117
 Alpha virt. eigenvalues --    0.33240   0.33447   0.33555   0.33597   0.33793
 Alpha virt. eigenvalues --    0.33902   0.34048   0.34281   0.34296   0.34453
 Alpha virt. eigenvalues --    0.34545   0.34579   0.34655   0.34817   0.34933
 Alpha virt. eigenvalues --    0.34981   0.35124   0.35437   0.35659   0.35848
 Alpha virt. eigenvalues --    0.36070   0.36194   0.36236   0.36363   0.36400
 Alpha virt. eigenvalues --    0.36462   0.36489   0.36553   0.36719   0.36863
 Alpha virt. eigenvalues --    0.37166   0.37367   0.37587   0.37722   0.37792
 Alpha virt. eigenvalues --    0.37995   0.38020   0.38040   0.38340   0.38489
 Alpha virt. eigenvalues --    0.38532   0.38559   0.38651   0.38792   0.38987
 Alpha virt. eigenvalues --    0.39031   0.39139   0.39225   0.39280   0.39304
 Alpha virt. eigenvalues --    0.39410   0.39432   0.39666   0.39817   0.39854
 Alpha virt. eigenvalues --    0.40052   0.40152   0.40211   0.40413   0.40517
 Alpha virt. eigenvalues --    0.40545   0.40987   0.41094   0.41114   0.41179
 Alpha virt. eigenvalues --    0.41273   0.41342   0.41603   0.41782   0.41829
 Alpha virt. eigenvalues --    0.41936   0.42019   0.42089   0.42335   0.42370
 Alpha virt. eigenvalues --    0.42681   0.42796   0.43209   0.43228   0.43341
 Alpha virt. eigenvalues --    0.43409   0.43504   0.43673   0.43699   0.43827
 Alpha virt. eigenvalues --    0.43874   0.44080   0.44164   0.44281   0.44457
 Alpha virt. eigenvalues --    0.44491   0.44630   0.44678   0.44849   0.45010
 Alpha virt. eigenvalues --    0.45016   0.45145   0.45204   0.45301   0.45437
 Alpha virt. eigenvalues --    0.45494   0.45547   0.45638   0.45749   0.45841
 Alpha virt. eigenvalues --    0.45896   0.46001   0.46129   0.46248   0.46419
 Alpha virt. eigenvalues --    0.46468   0.46513   0.46654   0.46763   0.46790
 Alpha virt. eigenvalues --    0.46865   0.47046   0.47124   0.47168   0.47395
 Alpha virt. eigenvalues --    0.47473   0.47630   0.47804   0.47930   0.47950
 Alpha virt. eigenvalues --    0.48160   0.48295   0.48434   0.48520   0.48613
 Alpha virt. eigenvalues --    0.48669   0.48885   0.48951   0.49207   0.49270
 Alpha virt. eigenvalues --    0.49379   0.49510   0.49540   0.49556   0.49745
 Alpha virt. eigenvalues --    0.49844   0.50021   0.50133   0.50311   0.50602
 Alpha virt. eigenvalues --    0.50791   0.50831   0.50976   0.51055   0.51281
 Alpha virt. eigenvalues --    0.51394   0.51507   0.51589   0.51640   0.51736
 Alpha virt. eigenvalues --    0.51789   0.51965   0.52160   0.52183   0.52285
 Alpha virt. eigenvalues --    0.52415   0.52562   0.52664   0.52797   0.52859
 Alpha virt. eigenvalues --    0.52935   0.53161   0.53456   0.53717   0.53883
 Alpha virt. eigenvalues --    0.54030   0.54088   0.54098   0.54179   0.54540
 Alpha virt. eigenvalues --    0.54714   0.54831   0.54942   0.55086   0.55140
 Alpha virt. eigenvalues --    0.55225   0.55447   0.55657   0.55872   0.55918
 Alpha virt. eigenvalues --    0.56121   0.56214   0.56386   0.56476   0.56509
 Alpha virt. eigenvalues --    0.56784   0.56823   0.57023   0.57216   0.57336
 Alpha virt. eigenvalues --    0.57430   0.57573   0.57642   0.57752   0.57895
 Alpha virt. eigenvalues --    0.58116   0.58172   0.58393   0.58598   0.58675
 Alpha virt. eigenvalues --    0.58777   0.58904   0.59019   0.59078   0.59140
 Alpha virt. eigenvalues --    0.59345   0.59482   0.59533   0.59788   0.60014
 Alpha virt. eigenvalues --    0.60113   0.60190   0.60266   0.60444   0.60519
 Alpha virt. eigenvalues --    0.60817   0.60859   0.60964   0.61143   0.61224
 Alpha virt. eigenvalues --    0.61357   0.61476   0.61478   0.61670   0.61802
 Alpha virt. eigenvalues --    0.61817   0.61909   0.61964   0.62266   0.62395
 Alpha virt. eigenvalues --    0.62480   0.62565   0.62613   0.62744   0.62858
 Alpha virt. eigenvalues --    0.62890   0.63235   0.63338   0.63415   0.63500
 Alpha virt. eigenvalues --    0.63632   0.63758   0.63817   0.63860   0.63960
 Alpha virt. eigenvalues --    0.64185   0.64210   0.64316   0.64393   0.64433
 Alpha virt. eigenvalues --    0.64506   0.64509   0.64656   0.64780   0.64880
 Alpha virt. eigenvalues --    0.65001   0.65066   0.65172   0.65265   0.65368
 Alpha virt. eigenvalues --    0.65397   0.65474   0.65550   0.65593   0.65748
 Alpha virt. eigenvalues --    0.65812   0.65844   0.65879   0.65907   0.66035
 Alpha virt. eigenvalues --    0.66065   0.66150   0.66332   0.66369   0.66468
 Alpha virt. eigenvalues --    0.66512   0.66557   0.66724   0.66780   0.66812
 Alpha virt. eigenvalues --    0.66888   0.66999   0.67072   0.67219   0.67256
 Alpha virt. eigenvalues --    0.67339   0.67472   0.67557   0.67700   0.67848
 Alpha virt. eigenvalues --    0.67868   0.67959   0.68069   0.68132   0.68176
 Alpha virt. eigenvalues --    0.68259   0.68360   0.68408   0.68453   0.68520
 Alpha virt. eigenvalues --    0.68588   0.68805   0.68861   0.68912   0.68943
 Alpha virt. eigenvalues --    0.69027   0.69108   0.69235   0.69412   0.69444
 Alpha virt. eigenvalues --    0.69478   0.69597   0.69744   0.69834   0.69866
 Alpha virt. eigenvalues --    0.69963   0.70010   0.70105   0.70201   0.70404
 Alpha virt. eigenvalues --    0.70498   0.70589   0.70726   0.70746   0.70891
 Alpha virt. eigenvalues --    0.71016   0.71162   0.71180   0.71293   0.71416
 Alpha virt. eigenvalues --    0.71474   0.71551   0.71641   0.71663   0.71727
 Alpha virt. eigenvalues --    0.71845   0.72006   0.72131   0.72193   0.72235
 Alpha virt. eigenvalues --    0.72337   0.72392   0.72640   0.72700   0.72831
 Alpha virt. eigenvalues --    0.72928   0.72963   0.73025   0.73140   0.73173
 Alpha virt. eigenvalues --    0.73409   0.73475   0.73638   0.73762   0.74014
 Alpha virt. eigenvalues --    0.74080   0.74152   0.74348   0.74374   0.74536
 Alpha virt. eigenvalues --    0.74778   0.74800   0.74936   0.74972   0.75131
 Alpha virt. eigenvalues --    0.75252   0.75463   0.75558   0.75711   0.75798
 Alpha virt. eigenvalues --    0.75952   0.76016   0.76112   0.76220   0.76262
 Alpha virt. eigenvalues --    0.76327   0.76532   0.76666   0.76685   0.76736
 Alpha virt. eigenvalues --    0.77063   0.77108   0.77152   0.77285   0.77412
 Alpha virt. eigenvalues --    0.77483   0.77579   0.77747   0.77802   0.77872
 Alpha virt. eigenvalues --    0.77903   0.77982   0.78288   0.78409   0.78537
 Alpha virt. eigenvalues --    0.78729   0.78773   0.78830   0.79144   0.79246
 Alpha virt. eigenvalues --    0.79340   0.79463   0.79568   0.79663   0.79817
 Alpha virt. eigenvalues --    0.79908   0.79983   0.80163   0.80283   0.80354
 Alpha virt. eigenvalues --    0.80535   0.80726   0.80856   0.80903   0.80940
 Alpha virt. eigenvalues --    0.81100   0.81183   0.81279   0.81410   0.81459
 Alpha virt. eigenvalues --    0.81575   0.81870   0.81882   0.82022   0.82170
 Alpha virt. eigenvalues --    0.82247   0.82272   0.82365   0.82541   0.82583
 Alpha virt. eigenvalues --    0.82842   0.82918   0.83298   0.83474   0.84028
 Alpha virt. eigenvalues --    0.84106   0.84405   0.84580   0.84672   0.84785
 Alpha virt. eigenvalues --    0.84896   0.85121   0.85259   0.85444   0.85529
 Alpha virt. eigenvalues --    0.85786   0.85878   0.86307   0.86372   0.86441
 Alpha virt. eigenvalues --    0.86589   0.86849   0.86911   0.87127   0.87144
 Alpha virt. eigenvalues --    0.87287   0.87615   0.87808   0.87906   0.88122
 Alpha virt. eigenvalues --    0.88351   0.88537   0.88821   0.89012   0.89233
 Alpha virt. eigenvalues --    0.89268   0.89624   0.89842   0.90127   0.90163
 Alpha virt. eigenvalues --    0.90384   0.90491   0.90655   0.90854   0.90954
 Alpha virt. eigenvalues --    0.91238   0.91322   0.91421   0.91936   0.92356
 Alpha virt. eigenvalues --    0.92612   0.92781   0.93011   0.93236   0.93541
 Alpha virt. eigenvalues --    0.93787   0.93872   0.94024   0.94144   0.94408
 Alpha virt. eigenvalues --    0.94634   0.94890   0.95042   0.95109   0.95229
 Alpha virt. eigenvalues --    0.95485   0.95865   0.96189   0.96621   0.97206
 Alpha virt. eigenvalues --    0.97905   0.98126   0.98654   0.99143   0.99316
 Alpha virt. eigenvalues --    0.99585   0.99995   1.00334   1.00453   1.00488
 Alpha virt. eigenvalues --    1.01047   1.01230   1.01707   1.01833   1.01904
 Alpha virt. eigenvalues --    1.02201   1.02429   1.02435   1.02658   1.02703
 Alpha virt. eigenvalues --    1.02842   1.02923   1.02967   1.03314   1.03483
 Alpha virt. eigenvalues --    1.03991   1.04253   1.04284   1.04426   1.04596
 Alpha virt. eigenvalues --    1.04636   1.05138   1.05338   1.05364   1.05648
 Alpha virt. eigenvalues --    1.05987   1.06271   1.06524   1.06667   1.06791
 Alpha virt. eigenvalues --    1.07023   1.07387   1.07500   1.07633   1.07828
 Alpha virt. eigenvalues --    1.08175   1.08481   1.08723   1.09188   1.09265
 Alpha virt. eigenvalues --    1.09379   1.09509   1.09863   1.10118   1.10381
 Alpha virt. eigenvalues --    1.10641   1.10947   1.11324   1.11795   1.11929
 Alpha virt. eigenvalues --    1.12154   1.12258   1.12313   1.12599   1.12749
 Alpha virt. eigenvalues --    1.12799   1.13417   1.13860   1.13939   1.14102
 Alpha virt. eigenvalues --    1.14787   1.14870   1.15123   1.15578   1.16041
 Alpha virt. eigenvalues --    1.16241   1.17095   1.17287   1.17388   1.17778
 Alpha virt. eigenvalues --    1.17886   1.17951   1.18216   1.18405   1.18500
 Alpha virt. eigenvalues --    1.18587   1.18685   1.18773   1.18954   1.19027
 Alpha virt. eigenvalues --    1.19241   1.19328   1.19561   1.19727   1.19882
 Alpha virt. eigenvalues --    1.19984   1.20258   1.20449   1.20754   1.20911
 Alpha virt. eigenvalues --    1.21185   1.21310   1.21487   1.21617   1.21637
 Alpha virt. eigenvalues --    1.21950   1.22115   1.22200   1.22235   1.22255
 Alpha virt. eigenvalues --    1.22301   1.22397   1.22485   1.22588   1.22657
 Alpha virt. eigenvalues --    1.22752   1.22774   1.22950   1.23030   1.23062
 Alpha virt. eigenvalues --    1.23139   1.23172   1.23225   1.23245   1.23267
 Alpha virt. eigenvalues --    1.23433   1.23554   1.23714   1.23873   1.24068
 Alpha virt. eigenvalues --    1.24153   1.24240   1.24282   1.24442   1.24619
 Alpha virt. eigenvalues --    1.24747   1.24792   1.24876   1.24988   1.25100
 Alpha virt. eigenvalues --    1.25247   1.25380   1.25452   1.25542   1.25831
 Alpha virt. eigenvalues --    1.25924   1.26212   1.26348   1.26457   1.26570
 Alpha virt. eigenvalues --    1.26605   1.26856   1.26910   1.26996   1.27105
 Alpha virt. eigenvalues --    1.27287   1.27468   1.27547   1.27788   1.27909
 Alpha virt. eigenvalues --    1.28024   1.28118   1.28550   1.28587   1.28827
 Alpha virt. eigenvalues --    1.28878   1.29094   1.29129   1.29365   1.29430
 Alpha virt. eigenvalues --    1.29508   1.29624   1.29669   1.29860   1.30014
 Alpha virt. eigenvalues --    1.30343   1.30367   1.30501   1.30604   1.30762
 Alpha virt. eigenvalues --    1.30839   1.30953   1.31149   1.31520   1.31658
 Alpha virt. eigenvalues --    1.31939   1.31970   1.32144   1.32726   1.32961
 Alpha virt. eigenvalues --    1.33085   1.33209   1.33474   1.33586   1.33755
 Alpha virt. eigenvalues --    1.33949   1.34176   1.34273   1.34522   1.34677
 Alpha virt. eigenvalues --    1.34760   1.35206   1.35503   1.35755   1.35944
 Alpha virt. eigenvalues --    1.36293   1.36522   1.36720   1.36815   1.36922
 Alpha virt. eigenvalues --    1.37156   1.37442   1.37587   1.37777   1.38001
 Alpha virt. eigenvalues --    1.38584   1.38702   1.38910   1.39128   1.39320
 Alpha virt. eigenvalues --    1.39617   1.40042   1.40229   1.41588   1.42254
 Alpha virt. eigenvalues --    1.42595   1.42938   1.43120   1.43484   1.44328
 Alpha virt. eigenvalues --    1.44449   1.44614   1.45242   1.45582   1.45795
 Alpha virt. eigenvalues --    1.46699   1.46854   1.47771   1.47830   1.48110
 Alpha virt. eigenvalues --    1.48215   1.48367   1.48675   1.49057   1.49079
 Alpha virt. eigenvalues --    1.49484   1.49827   1.50096   1.50387   1.50907
 Alpha virt. eigenvalues --    1.51268   1.51661   1.51678   1.51817   1.52100
 Alpha virt. eigenvalues --    1.52242   1.52405   1.52505   1.52565   1.52705
 Alpha virt. eigenvalues --    1.52896   1.53255   1.53408   1.53710   1.53825
 Alpha virt. eigenvalues --    1.54228   1.54739   1.55053   1.55561   1.56016
 Alpha virt. eigenvalues --    1.56256   1.56501   1.56647   1.56846   1.57394
 Alpha virt. eigenvalues --    1.57564   1.57631   1.57984   1.58158   1.58221
 Alpha virt. eigenvalues --    1.58340   1.58561   1.58735   1.59512   1.59652
 Alpha virt. eigenvalues --    1.60541   1.60606   1.61311   1.61485   1.61664
 Alpha virt. eigenvalues --    1.61914   1.63303   1.63425   1.63741   1.63790
 Alpha virt. eigenvalues --    1.64139   1.64291   1.64434   1.64636   1.65647
 Alpha virt. eigenvalues --    1.65889   1.65920   1.66430   1.66537   1.66686
 Alpha virt. eigenvalues --    1.66778   1.66994   1.67040   1.67309   1.67435
 Alpha virt. eigenvalues --    1.67454   1.67582   1.67678   1.67765   1.68216
 Alpha virt. eigenvalues --    1.68300   1.68363   1.68431   1.68506   1.68734
 Alpha virt. eigenvalues --    1.68871   1.68885   1.69137   1.69164   1.69192
 Alpha virt. eigenvalues --    1.69392   1.69500   1.69582   1.69639   1.69723
 Alpha virt. eigenvalues --    1.69789   1.69984   1.70071   1.70084   1.70196
 Alpha virt. eigenvalues --    1.70294   1.70482   1.70655   1.70683   1.70752
 Alpha virt. eigenvalues --    1.70788   1.70863   1.70978   1.71019   1.71208
 Alpha virt. eigenvalues --    1.71228   1.71289   1.71379   1.71497   1.71710
 Alpha virt. eigenvalues --    1.71761   1.71960   1.72052   1.72087   1.72353
 Alpha virt. eigenvalues --    1.72421   1.72567   1.72606   1.72629   1.72731
 Alpha virt. eigenvalues --    1.72918   1.72965   1.73029   1.73167   1.73301
 Alpha virt. eigenvalues --    1.73415   1.73546   1.73647   1.73713   1.73864
 Alpha virt. eigenvalues --    1.73924   1.74072   1.74208   1.74249   1.74435
 Alpha virt. eigenvalues --    1.74542   1.74614   1.74728   1.74831   1.74930
 Alpha virt. eigenvalues --    1.75026   1.75122   1.75169   1.75264   1.75442
 Alpha virt. eigenvalues --    1.75520   1.75603   1.75873   1.75963   1.76079
 Alpha virt. eigenvalues --    1.76136   1.76296   1.76532   1.76664   1.76730
 Alpha virt. eigenvalues --    1.76835   1.76880   1.77063   1.77139   1.77270
 Alpha virt. eigenvalues --    1.77396   1.77665   1.77708   1.77972   1.78034
 Alpha virt. eigenvalues --    1.78173   1.78288   1.78367   1.78462   1.78701
 Alpha virt. eigenvalues --    1.78769   1.78819   1.78969   1.79040   1.79091
 Alpha virt. eigenvalues --    1.79330   1.79525   1.79716   1.79793   1.79853
 Alpha virt. eigenvalues --    1.80194   1.80230   1.80386   1.80562   1.80609
 Alpha virt. eigenvalues --    1.80857   1.81016   1.81025   1.81146   1.81318
 Alpha virt. eigenvalues --    1.81570   1.81667   1.81801   1.82218   1.82366
 Alpha virt. eigenvalues --    1.82419   1.82655   1.82888   1.82968   1.83082
 Alpha virt. eigenvalues --    1.83136   1.83425   1.83563   1.83803   1.83885
 Alpha virt. eigenvalues --    1.83975   1.84324   1.84405   1.84479   1.84715
 Alpha virt. eigenvalues --    1.84897   1.85149   1.85268   1.85325   1.85912
 Alpha virt. eigenvalues --    1.86010   1.86194   1.86333   1.86687   1.87022
 Alpha virt. eigenvalues --    1.87096   1.87257   1.87460   1.88304   1.88545
 Alpha virt. eigenvalues --    1.88700   1.88749   1.88843   1.89049   1.89177
 Alpha virt. eigenvalues --    1.89413   1.89453   1.89759   1.89902   1.90006
 Alpha virt. eigenvalues --    1.90124   1.90405   1.90620   1.90790   1.91061
 Alpha virt. eigenvalues --    1.91380   1.91543   1.91599   1.91731   1.91769
 Alpha virt. eigenvalues --    1.92117   1.92175   1.92302   1.92411   1.92502
 Alpha virt. eigenvalues --    1.92809   1.92860   1.92975   1.93235   1.93361
 Alpha virt. eigenvalues --    1.93448   1.93487   1.93695   1.93790   1.93941
 Alpha virt. eigenvalues --    1.94130   1.94174   1.94276   1.94335   1.94489
 Alpha virt. eigenvalues --    1.94527   1.94981   1.95129   1.95191   1.95326
 Alpha virt. eigenvalues --    1.95363   1.95387   1.95464   1.95549   1.95685
 Alpha virt. eigenvalues --    1.95829   1.96008   1.96045   1.96140   1.96198
 Alpha virt. eigenvalues --    1.96269   1.96339   1.96403   1.96469   1.96498
 Alpha virt. eigenvalues --    1.96949   1.97202   1.97239   1.97301   1.97334
 Alpha virt. eigenvalues --    1.97432   1.97507   1.97604   1.97840   1.98002
 Alpha virt. eigenvalues --    1.98204   1.98342   1.98576   1.98738   1.98946
 Alpha virt. eigenvalues --    1.99217   1.99463   1.99536   1.99969   2.00082
 Alpha virt. eigenvalues --    2.00277   2.00383   2.00555   2.00783   2.00916
 Alpha virt. eigenvalues --    2.01161   2.01168   2.01386   2.01451   2.01556
 Alpha virt. eigenvalues --    2.01622   2.01939   2.01995   2.02113   2.02185
 Alpha virt. eigenvalues --    2.02296   2.02355   2.02447   2.02867   2.03188
 Alpha virt. eigenvalues --    2.03231   2.03817   2.03894   2.04613   2.04813
 Alpha virt. eigenvalues --    2.05011   2.05198   2.05207   2.05680   2.05919
 Alpha virt. eigenvalues --    2.05991   2.06172   2.06321   2.06353   2.06447
 Alpha virt. eigenvalues --    2.06751   2.06981   2.07137   2.07165   2.08186
 Alpha virt. eigenvalues --    2.08264   2.08609   2.08670   2.08769   2.08993
 Alpha virt. eigenvalues --    2.09296   2.09376   2.09494   2.09615   2.09745
 Alpha virt. eigenvalues --    2.09809   2.10027   2.10257   2.10410   2.10563
 Alpha virt. eigenvalues --    2.10635   2.10658   2.10953   2.11035   2.11551
 Alpha virt. eigenvalues --    2.11707   2.11840   2.11921   2.12013   2.12185
 Alpha virt. eigenvalues --    2.12351   2.12378   2.12836   2.12879   2.13042
 Alpha virt. eigenvalues --    2.13082   2.13178   2.13200   2.13463   2.13562
 Alpha virt. eigenvalues --    2.13628   2.13850   2.13947   2.14598   2.14780
 Alpha virt. eigenvalues --    2.14878   2.15181   2.15193   2.15359   2.15408
 Alpha virt. eigenvalues --    2.15533   2.16028   2.16131   2.16439   2.16640
 Alpha virt. eigenvalues --    2.17299   2.17438   2.17742   2.17801   2.17999
 Alpha virt. eigenvalues --    2.18188   2.18415   2.18841   2.19232   2.19302
 Alpha virt. eigenvalues --    2.19368   2.19580   2.20232   2.20373   2.20648
 Alpha virt. eigenvalues --    2.20872   2.21112   2.21223   2.21345   2.21406
 Alpha virt. eigenvalues --    2.21474   2.21608   2.21866   2.22317   2.22416
[...]
 Alpha virt. eigenvalues --    2.60017   2.60073   2.60185   2.60241   2.60377
 Alpha virt. eigenvalues --    2.60576   2.60910   2.61029   2.61233   2.61410
 Alpha virt. eigenvalues --    2.62115   2.62288   2.62348   2.62711   2.62942
 Alpha virt. eigenvalues --    2.63335   2.63476   2.63707   2.63798   2.64127
 Alpha virt. eigenvalues --    2.64232   2.64549   2.64755   2.64874   2.65126
 Alpha virt. eigenvalues --    2.65314   2.65361   2.65614   2.65657   2.65858
 Alpha virt. eigenvalues --    2.65875   2.66485   2.66549   2.66705   2.66926
 Alpha virt. eigenvalues --    2.67082   2.67197   2.67285   2.67738   2.67916
 Alpha virt. eigenvalues --    2.68230   2.68758   2.69265   2.69409   2.69511
 Alpha virt. eigenvalues --    2.69612   2.69661   2.70019   2.70335   2.70652
 Alpha virt. eigenvalues --    2.70785   2.70885   2.70925   2.71180   2.71426
 Alpha virt. eigenvalues --    2.71855   2.72022   2.72141   2.72183   2.72300
 Alpha virt. eigenvalues --    2.72358   2.72460   2.72996   2.73084   2.73356
 Alpha virt. eigenvalues --    2.73431   2.73878   2.74162   2.74386   2.74556
 Alpha virt. eigenvalues --    2.74824   2.74847   2.75222   2.75510   2.75911
 Alpha virt. eigenvalues --    2.76227   2.76615   2.76639   2.76765   2.76827
 Alpha virt. eigenvalues --    2.76842   2.77061   2.77130   2.77284   2.77303
 Alpha virt. eigenvalues --    2.77321   2.77525   2.77587   2.77933   2.78204
 Alpha virt. eigenvalues --    2.79105   2.79151   2.80545   2.80709   2.80784
 Alpha virt. eigenvalues --    2.80864   2.80868   2.80912   2.81479   2.81718
 Alpha virt. eigenvalues --    2.82057   2.82961   2.83660   2.84320   2.84779
 Alpha virt. eigenvalues --    2.84869   2.84900   2.84980   2.86053   2.86133
 Alpha virt. eigenvalues --    2.86411   2.86858   2.86964   2.87207   2.87779
 Alpha virt. eigenvalues --    2.87848   2.88117   2.88143   2.88460   2.88528
 Alpha virt. eigenvalues --    2.88608   2.88902   2.89428   2.89532   2.89817
 Alpha virt. eigenvalues --    2.90141   2.90236   2.90454   2.90818   2.90922
 Alpha virt. eigenvalues --    2.91327   2.91492   2.91540   2.91628   2.91720
 Alpha virt. eigenvalues --    2.92879   2.93512   2.94323   2.94661   2.95011
 Alpha virt. eigenvalues --    2.95105   2.95297   2.95950   2.96003   2.96844
 Alpha virt. eigenvalues --    2.96988   2.97511   2.97896   2.97965   2.98640
 Alpha virt. eigenvalues --    2.98828   2.99015   2.99796   2.99990   3.00174
 Alpha virt. eigenvalues --    3.00195   3.00960   3.01654   3.02381   3.02967
 Alpha virt. eigenvalues --    3.03050   3.03766   3.03877   3.04161   3.04277
 Alpha virt. eigenvalues --    3.04606   3.04941   3.05628   3.05732   3.05864
 Alpha virt. eigenvalues --    3.06215   3.06489   3.06835   3.07331   3.07612
 Alpha virt. eigenvalues --    3.08461   3.08656   3.08686   3.08907   3.09500
 Alpha virt. eigenvalues --    3.09604   3.10852   3.11577   3.11913   3.12451
 Alpha virt. eigenvalues --    3.13228   3.13802   3.14364   3.14626   3.14679
 Alpha virt. eigenvalues --    3.15087   3.15532   3.15703   3.16048   3.16322
 Alpha virt. eigenvalues --    3.16370   3.16611   3.16951   3.17387   3.18580
 Alpha virt. eigenvalues --    3.18685   3.18900   3.19668   3.24026   3.25823
 Alpha virt. eigenvalues --    3.26459   3.27753   3.27881   3.29154   3.29526
 Alpha virt. eigenvalues --    3.29722   3.31200   3.31208   3.31976   3.33758
 Alpha virt. eigenvalues --    3.36855   3.37192   3.40493   3.40761   3.42512
 Alpha virt. eigenvalues --    3.42793   3.43206   3.44409   3.44625   3.45041
 Alpha virt. eigenvalues --    3.48903   3.49036   3.49616   3.49799   3.52340
 Alpha virt. eigenvalues --    3.52538   3.54501   3.54632   3.59939   3.60659
 Alpha virt. eigenvalues --    3.61637   3.61795   3.63374   3.63464   3.63609
 Alpha virt. eigenvalues --    3.63658   3.64984   3.65169   3.73668   3.74176
 Alpha virt. eigenvalues --    3.79562   3.79595   3.79755   3.80068  51.69444
 Alpha virt. eigenvalues --   51.69582
          Condensed to atoms (all electrons):
 Mulliken charges:
               1
     1  Pd   0.511525
     2  Pd   0.510554
     3  C    0.145594
     4  N   -0.320546
     5  C    0.151896
     6  C   -0.045620
     7  C    0.059235
     8  C    0.022502
     9  C   -0.032339
    10  C   -0.073529
    11  C    0.207300
    12  O   -0.264993
    13  C    0.207391
    14  C   -0.073404
    15  C   -0.032867
    16  C    0.022760
    17  C    0.059048
    18  C   -0.053208
    19  C    0.146760
    20  N   -0.319714
    21  C    0.151192
    22  C   -0.044970
    23  C   -0.050812
    24  C    0.017552
    25  C    0.017809
    26  C   -0.051518
    27  C   -0.052227
    28  H    0.100567
    29  H    0.104922
    30  H    0.065136
    31  H    0.052080
    32  H    0.048113
    33  H    0.048072
    34  H    0.052207
    35  H    0.066098
    36  H    0.099681
    37  H    0.105765
    38  H    0.065058
    39  H    0.039905
    40  H    0.040353
    41  H    0.065983
    42  C    0.144956
    43  N   -0.320202
    44  C    0.152137
    45  C   -0.044717
    46  C    0.057169
    47  C    0.020080
    48  C   -0.032875
    49  C   -0.072061
    50  C    0.204293
    51  O   -0.263484
    52  C    0.204043
    53  C   -0.072344
    54  C   -0.031031
    55  C    0.016696
    56  C    0.054657
    57  C   -0.049285
    58  C    0.144437
    59  N   -0.321076
    60  C    0.152394
    61  C   -0.043781
    62  C   -0.046447
    63  C    0.018369
    64  C    0.018021
    65  C   -0.047853
    66  C   -0.051988
    67  H    0.098389
    68  H    0.104626
    69  H    0.065622
    70  H    0.052442
    71  H    0.048025
    72  H    0.048040
    73  H    0.052237
    74  H    0.065672
    75  H    0.100147
    76  H    0.103758
    77  H    0.065599
    78  H    0.040052
    79  H    0.039724
    80  H    0.065749
    81  C   -0.031614
    82  C    0.138650
    83  N   -0.316917
    84  C    0.138791
    85  C   -0.019104
    86  C    0.056747
    87  C   -0.025205
    88  C   -0.026633
    89  C   -0.007355
    90  C   -0.089148
    91  C    0.009643
    92  C    0.020377
    93  C   -0.060622
    94  N   -0.177437
    95  C   -0.061494
    96  C    0.028258
    97  C    0.005149
    98  C   -0.100518
    99  C   -0.006957
   100  C   -0.017140
   101  C   -0.031760
   102  C    0.055535
   103  C   -0.029534
   104  C    0.005407
   105  C   -0.004541
   106  C    0.026190
   107  C   -0.031216
   108  C    0.137391
   109  N   -0.316940
   110  C    0.138690
   111  C   -0.020474
   112  C   -0.033995
   113  C    0.013180
   114  C    0.012443
   115  C    0.033824
   116  C    0.009523
   117  C    0.011271
   118  C   -0.035085
   119  C   -0.031850
   120  C    0.005738
   121  C   -0.004414
   122  C    0.024954
   123  H    0.060154
   124  H    0.097051
   125  H    0.095990
   126  H    0.046578
   127  H    0.045544
   128  H    0.045544
   129  H    0.045891
   130  H    0.049437
   131  H    0.060136
   132  H    0.047453
   133  H    0.060386
   134  H    0.098308
   135  H    0.097833
   136  H    0.053577
   137  H    0.042078
   138  H    0.049448
   139  H    0.062489
   140  H    0.049407
   141  H    0.041970
   142  H    0.053556
   143  H    0.049776
   144  H    0.060016
   145  H    0.047445
   146  C   -0.033999
   147  C    0.138650
   148  N   -0.318191
   149  C    0.143183
   150  C   -0.013562
   151  C    0.041228
   152  C   -0.055939
   153  C   -0.001646
   154  C    0.002197
   155  C   -0.069278
   156  C   -0.033867
   157  C    0.039112
   158  C   -0.059011
   159  N   -0.182748
   160  C   -0.062373
   161  C    0.038415
   162  C   -0.033388
   163  C   -0.069094
   164  C    0.001774
   165  C   -0.001792
   166  C   -0.057112
   167  C    0.037951
   168  C   -0.024239
   169  C    0.003976
   170  C   -0.005069
   171  C    0.029570
   172  C   -0.033877
   173  C    0.139510
   174  N   -0.318356
   175  C    0.144463
   176  C   -0.012474
   177  C   -0.030763
   178  C    0.005917
   179  C    0.028859
   180  C    0.024426
   181  C    0.022725
   182  C    0.007543
   183  C   -0.033912
   184  C   -0.025025
   185  C    0.003802
   186  C   -0.005298
   187  C    0.030409
   188  H    0.060078
   189  H    0.095147
   190  H    0.105937
   191  H    0.042531
   192  H    0.041708
   193  H    0.041709
   194  H    0.042651
   195  H    0.046546
   196  H    0.060114
   197  H    0.046905
   198  H    0.060081
   199  H    0.094740
   200  H    0.104285
   201  H    0.047742
   202  H    0.044068
   203  H    0.048412
   204  H    0.062766
   205  H    0.047966
   206  H    0.041076
   207  H    0.047982
   208  H    0.046446
   209  H    0.060197
   210  H    0.046841
 Sum of Mulliken charges =   4.00000
 Mulliken charges with hydrogens summed into heavy atoms:
               1
     1  Pd   0.511525
     2  Pd   0.510554
     3  C    0.246161
     4  N   -0.320546
     5  C    0.256818
     6  C    0.019516
     7  C    0.059235
     8  C    0.022502
     9  C    0.019741
    10  C   -0.025416
    11  C    0.207300
    12  O   -0.264993
    13  C    0.207391
    14  C   -0.025331
    15  C    0.019340
    16  C    0.022760
    17  C    0.059048
    18  C    0.012890
    19  C    0.246441
    20  N   -0.319714
    21  C    0.256957
    22  C    0.020088
    23  C   -0.010908
    24  C    0.017552
    25  C    0.017809
    26  C   -0.011165
    27  C    0.013756
    42  C    0.243345
    43  N   -0.320202
    44  C    0.256763
    45  C    0.020904
    46  C    0.057169
    47  C    0.020080
    48  C    0.019567
    49  C   -0.024037
    50  C    0.204293
    51  O   -0.263484
    52  C    0.204043
    53  C   -0.024304
    54  C    0.021206
    55  C    0.016696
    56  C    0.054657
    57  C    0.016387
    58  C    0.244584
    59  N   -0.321076
    60  C    0.256152
    61  C    0.021818
    62  C   -0.006395
    63  C    0.018369
    64  C    0.018021
    65  C   -0.008129
    66  C    0.013762
    81  C    0.028540
    82  C    0.235701
    83  N   -0.316917
    84  C    0.234780
    85  C   -0.019104
    86  C    0.056747
    87  C   -0.025205
    88  C    0.019944
    89  C    0.038189
    90  C   -0.089148
    91  C    0.009643
    92  C    0.020377
    93  C   -0.060622
    94  N   -0.177437
    95  C   -0.061494
    96  C    0.028258
    97  C    0.005149
    98  C   -0.100518
    99  C    0.038587
   100  C    0.028751
   101  C   -0.031760
   102  C    0.055535
   103  C    0.019903
   104  C    0.065542
   105  C    0.042912
   106  C    0.026190
   107  C    0.029169
   108  C    0.235699
   109  N   -0.316940
   110  C    0.236523
   111  C   -0.020474
   112  C    0.019582
   113  C    0.055258
   114  C    0.061891
   115  C    0.096313
   116  C    0.058930
   117  C    0.053240
   118  C    0.018471
   119  C    0.017926
   120  C    0.065754
   121  C    0.043031
   122  C    0.024954
   146  C    0.026079
   147  C    0.233798
   148  N   -0.318191
   149  C    0.249119
   150  C   -0.013562
   151  C    0.041228
   152  C   -0.055939
   153  C    0.040884
   154  C    0.043905
   155  C   -0.069278
   156  C   -0.033867
   157  C    0.039112
   158  C   -0.059011
   159  N   -0.182748
   160  C   -0.062373
   161  C    0.038415
   162  C   -0.033388
   163  C   -0.069094
   164  C    0.043484
   165  C    0.040859
   166  C   -0.057112
   167  C    0.037951
   168  C    0.022307
   169  C    0.064090
   170  C    0.041837
   171  C    0.029570
   172  C    0.026204
   173  C    0.234250
   174  N   -0.318356
   175  C    0.248748
   176  C   -0.012474
   177  C    0.016980
   178  C    0.049985
   179  C    0.077270
   180  C    0.087192
   181  C    0.070691
   182  C    0.048619
   183  C    0.014071
   184  C    0.021421
   185  C    0.063998
   186  C    0.041544
   187  C    0.030409
 Electronic spatial extent (au):  <R**2>=         219743.3582
 Charge=              4.0000 electrons
 Dipole moment (field-independent basis, Debye):
    X=              0.0468    Y=            -21.6025    Z=              3.6751  Tot=             21.9129
 Quadrupole moment (field-independent basis, Debye-Ang):
   XX=            427.1968   YY=           -481.4598   ZZ=           -604.5560
   XY=              1.8304   XZ=              3.9007   YZ=              2.5982
 Traceless Quadrupole moment (field-independent basis, Debye-Ang):
   XX=            646.8031   YY=           -261.8535   ZZ=           -384.9496
   XY=              1.8304   XZ=              3.9007   YZ=              2.5982
 Octapole moment (field-independent basis, Debye-Ang**2):
  XXX=             -1.9209  YYY=            128.3477  ZZZ=            -30.4554  XYY=              6.7431
  XXY=           -835.4242  XXZ=             13.0904  XZZ=             -7.4595  YZZ=           -405.9691
  YYZ=             15.7544  XYZ=             10.9494
 Hexadecapole moment (field-independent basis, Debye-Ang**3):
 XXXX=         -81009.3154 YYYY=         -57344.8001 ZZZZ=         -42397.8927 XXXY=             34.5191
 XXXZ=             50.6746 YYYX=            123.8685 YYYZ=           1972.2402 ZZZX=            103.5443
 ZZZY=          -2016.8473 XXYY=         -32576.2122 XXZZ=         -26482.6074 YYZZ=         -17726.0070
 XXYZ=           1465.7061 YYXZ=             95.6516 ZZXY=            -85.9769
 N-N= 2.861226739793D+04 E-N=-7.000351130218D+04  KE= 5.421584419336D+03
 Unable to Open any file for archive entry.
 1\1\GINC-CX3-14-13\SP\RPBE1PBE\def2SVP\C122H74N10O2Pd2(4+)\VPOSLIGU\02
 -Jun-2023\0\\# SP PBE1PBE/def2svp empiricaldispersion=GD3BJ scrf=(solv
 ent=dmso)\\cis_l1_lb\\4,1\Pd,0,7.2203,-1.7231,0.3022\Pd,0,-7.2,-1.765,
 0.1616\C,0,4.8842,-2.349,-1.3415\N,0,5.9843,-2.895,-0.8027\C,0,6.1988,
 -4.2109,-0.9426\C,0,5.3005,-5.0337,-1.603\C,0,4.1228,-4.4938,-2.14\C,0
 ,3.0923,-5.3334,-2.7771\C,0,3.4406,-6.4841,-3.5179\C,0,2.48,-7.2981,-4
 .1113\C,0,1.1518,-6.935,-3.9307\O,0,0.0656,-7.6053,-4.4037\C,0,-1.0334
 ,-6.9248,-3.9769\C,0,-2.3562,-7.2763,-4.2121\C,0,-3.3332,-6.4555,-3.65
 62\C,0,-3.0057,-5.3072,-2.902\C,0,-4.0531,-4.4693,-2.2907\C,0,-3.875,-
 3.0855,-2.1402\C,0,-4.8286,-2.3344,-1.4779\N,0,-5.94,-2.8867,-0.97\C,0
 ,-6.1553,-4.1992,-1.138\C,0,-5.245,-5.014,-1.7911\C,0,-1.6627,-4.9706,
 -2.6944\C,0,-0.6738,-5.7907,-3.2271\C,0,0.7714,-5.7981,-3.1955\C,0,1.7
 446,-4.9886,-2.6192\C,0,3.9432,-3.1079,-2.012\H,0,4.7596,-1.2699,-1.22
 8\H,0,7.1086,-4.6127,-0.4921\H,0,5.5089,-6.1027,-1.6572\H,0,4.4945,-6.
 7359,-3.652\H,0,2.756,-8.1798,-4.6907\H,0,-2.6158,-8.1556,-4.8025\H,0,
 -4.3829,-6.7004,-3.8303\H,0,-2.9955,-2.5816,-2.5416\H,0,-4.7027,-1.258
 ,-1.3433\H,0,-7.0763,-4.6046,-0.7146\H,0,-5.4545,-6.0816,-1.8658\H,0,-
 1.3901,-4.1015,-2.0933\H,0,1.4552,-4.1214,-2.0228\H,0,3.0744,-2.6082,-
 2.4411\C,0,4.9175,-1.2784,2.0576\N,0,6.0037,-2.0485,1.8957\C,0,6.1871,
 -3.1015,2.7051\C,0,5.2653,-3.4449,3.6808\C,0,4.0946,-2.6873,3.8346\C,0
 ,3.035,-3.0763,4.7836\C,0,3.3562,-3.6822,6.0179\C,0,2.3745,-4.0957,6.9
 124\C,0,1.0545,-3.9022,6.5278\O,0,-0.0435,-4.2702,7.2411\C,0,-1.129,-3
 .9336,6.4934\C,0,-2.4539,-4.1653,6.837\C,0,-3.4191,-3.7752,5.9144\C,0,
 -3.077,-3.1559,4.6926\C,0,-4.1209,-2.779,3.7214\C,0,-3.9981,-1.623,2.9
 355\C,0,-4.9511,-1.3383,1.974\N,0,-6.0055,-2.1403,1.7603\C,0,-6.1688,-
 3.2281,2.5261\C,0,-5.2588,-3.572,3.5129\C,0,-1.7318,-2.9233,4.3788\C,0
 ,-0.7509,-3.3238,5.2829\C,0,0.6971,-3.3034,5.3057\C,0,1.6938,-2.8774,4
 .4315\C,0,3.9533,-1.5622,3.0081\H,0,4.8159,-0.4135,1.3978\H,0,7.0886,-
 3.695,2.5406\H,0,5.4466,-4.3349,4.2845\H,0,4.4047,-3.8148,6.2921\H,0,2
 .627,-4.5553,7.8686\H,0,-2.7225,-4.6343,7.7842\H,0,-4.4717,-3.9354,6.1
 562\H,0,-3.1639,-0.9339,3.0715\H,0,-4.8701,-0.4447,1.3508\H,0,-7.0439,
 -3.8482,2.3214\H,0,-5.4226,-4.4867,4.0838\H,0,-1.4527,-2.4732,3.4241\H
 ,0,1.4302,-2.4336,3.4698\H,0,3.0931,-0.8984,3.0995\C,0,10.4726,-0.0894
 ,2.4903\C,0,9.5876,-0.9358,1.8799\N,0,8.4134,-0.48,1.3658\C,0,8.0783,0
 .7921,1.4874\C,0,8.8925,1.7366,2.1486\C,0,8.5124,3.1086,2.3053\C,0,7.1
 66,3.6119,1.9542\C,0,7.0244,4.8253,1.2624\C,0,5.7716,5.3815,1.0424\C,0
 ,4.6121,4.7313,1.504\C,0,3.3354,5.3462,1.362\C,0,2.2562,5.9081,1.3062\
 C,0,1.0283,6.6449,1.3002\N,0,-0.1162,5.9521,1.2952\C,0,-1.2663,6.6364,
 1.3114\C,0,-2.4874,5.8889,1.3408\C,0,-3.5578,5.3136,1.4228\C,0,-4.8182
 ,4.6712,1.5857\C,0,-6.0024,5.3022,1.1613\C,0,-7.2363,4.7076,1.3879\C,0
 ,-7.3325,3.4733,2.0491\C,0,-8.6565,2.9116,2.3966\C,0,-9.604,3.7187,3.0
 016\C,0,-10.8451,3.2076,3.4381\C,0,-11.1524,1.8751,3.2907\C,0,-10.2297
 ,1.0127,2.6541\C,0,-10.4886,-0.3661,2.4538\C,0,-9.5814,-1.1454,1.7886\
 N,0,-8.4356,-0.6169,1.2785\C,0,-8.1494,0.6595,1.4581\C,0,-8.9881,1.536
 ,2.1787\C,0,-6.1466,2.8373,2.4535\C,0,-4.9081,3.4193,2.2207\C,0,-1.321
 3,8.0416,1.3308\C,0,-0.1269,8.7509,1.3405\C,0,1.0724,8.0505,1.324\C,0,
 4.7463,3.4966,2.164\C,0,6.0039,2.9533,2.3904\C,0,9.4375,3.978,2.8571\C
 ,0,10.7035,3.5367,3.2974\C,0,11.0596,2.2115,3.2076\C,0,10.1612,1.2858,
 2.6277\H,0,11.4209,-0.4762,2.8663\H,0,9.7897,-2.0015,1.7669\H,0,7.1372
 ,1.0989,1.027\H,0,7.9132,5.3428,0.8952\H,0,5.6807,6.3329,0.5154\H,0,-5
 .9454,6.268,0.6561\H,0,-8.145,5.2099,1.0493\H,0,-9.3696,4.7695,3.1836\
 H,0,-11.5553,3.8817,3.9216\H,0,-12.0995,1.4708,3.6531\H,0,-11.4141,-0.
 8088,2.8252\H,0,-9.7415,-2.2117,1.6228\H,0,-7.231,1.0288,0.9981\H,0,-6
 .1936,1.893,3.0005\H,0,-3.9985,2.9215,2.5611\H,0,-2.2865,8.5491,1.3428
 \H,0,-0.1308,9.8426,1.3588\H,0,2.0338,8.5653,1.329\H,0,3.8565,2.9832,2
 .5326\H,0,6.0833,2.0256,2.9612\H,0,9.1659,5.0266,2.9939\H,0,11.3936,4.
 2598,3.7373\H,0,12.0265,1.8605,3.5733\C,0,10.2771,-1.6417,-2.6802\C,0,
 9.4992,-1.984,-1.6059\N,0,8.3494,-1.3133,-1.3238\C,0,7.9657,-0.3012,-2
 .0791\C,0,8.7104,0.1529,-3.1857\C,0,8.2799,1.2587,-3.9843\C,0,7.056,2.
 0175,-3.6374\C,0,6.0136,2.1258,-4.5682\C,0,4.8471,2.8103,-4.2535\C,0,4
 .695,3.4179,-2.9944\C,0,3.4929,4.1231,-2.6879\C,0,2.4533,4.7216,-2.478
 1\C,0,1.2424,5.4675,-2.2875\N,0,0.0872,4.8029,-2.4091\C,0,-1.0547,5.48
 63,-2.2729\C,0,-2.2802,4.7613,-2.4513\C,0,-3.3322,4.1822,-2.6534\C,0,-
 4.5487,3.502,-2.9609\C,0,-4.7242,2.9344,-4.2355\C,0,-5.9054,2.2797,-4.
 5575\C,0,-6.9403,2.1616,-3.6194\C,0,-8.1844,1.4457,-3.9868\C,0,-8.9304
 ,1.8446,-5.0795\C,0,-10.1221,1.1775,-5.442\C,0,-10.5806,0.0994,-4.7208
 \C,0,-9.8391,-0.3629,-3.6081\C,0,-10.2299,-1.4842,-2.8343\C,0,-9.4568,
 -1.8977,-1.7821\N,0,-8.2983,-1.2603,-1.4614\C,0,-7.8976,-0.2147,-2.161
 3\C,0,-8.633,0.3086,-3.2439\C,0,-6.7669,2.7352,-2.3497\C,0,-5.59,3.397
 4,-2.022\C,0,-1.091,6.8659,-2.0084\C,0,0.1133,7.5483,-1.8908\C,0,1.304
 7,6.8459,-2.0252\C,0,5.7458,3.3261,-2.0648\C,0,6.9075,2.6349,-2.3848\C
 ,0,9.0259,1.5837,-5.1009\C,0,10.2022,0.8741,-5.4324\C,0,10.6463,-0.170
 8,-4.655\C,0,9.903,-0.5589,-3.5154\H,0,11.1848,-2.2089,-2.8922\H,0,9.7
 577,-2.8095,-0.9413\H,0,7.0247,0.1846,-1.8162\H,0,6.113,1.6473,-5.545\
 H,0,4.0385,2.8774,-4.9836\H,0,-3.9229,3.0109,-4.9725\H,0,-6.0241,1.834
 4,-5.5478\H,0,-8.6023,2.7079,-5.6624\H,0,-10.6876,1.5351,-6.3052\H,0,-
 11.5055,-0.4106,-4.9969\H,0,-11.1469,-2.024,-3.0758\H,0,-9.7282,-2.754
 7,-1.1643\H,0,-6.9514,0.2435,-1.8684\H,0,-7.5706,2.6804,-1.6106\H,0,-5
 .4751,3.8444,-1.0334\H,0,-2.0484,7.3782,-1.9071\H,0,0.1236,8.6216,-1.6
 935\H,0,2.2718,7.3419,-1.9351\H,0,5.649,3.8063,-1.09\H,0,7.7189,2.5886
 ,-1.6537\H,0,8.7124,2.4218,-5.727\H,0,10.7693,1.1732,-6.3166\H,0,11.56
 11,-0.7104,-4.9073\\Version=ES64L-G16RevC.01\State=1-A\HF=-5637.044459
 \RMSD=2.491e-09\Dipole=0.018402,-8.4990843,1.4458927\Quadrupole=480.88
 22836,-194.6816672,-286.2006164,1.3609021,2.9000843,1.9317252\PG=C01 [
 X(C122H74N10O2Pd2)]\\@
 The archive entry for this job was punched.


 NOT WHAT WE DID SHALL BE THE TEST
 WHEN ACT AND WILL ARE DONE,
 BUT WHAT OUR LORD INFERS WE WOULD-
 HAD WE DIVINER BEEN.
           EMILY DICKINSON  POEMS NO. CLXXV
 Job cpu time:       0 days 23 hours 15 minutes 34.5 seconds.
 Elapsed time:       0 days  0 hours 30 minutes 16.9 seconds.
 File lengths (MBytes):  RWF=   6464 Int=      0 D2E=      0 Chk=    320 Scr=     16
 Normal termination of Gaussian 16 at Fri Jun  2 05:18:46 2023.
