 Entering Gaussian System, Link 0=g16
 Initial command:
 /apps/gaussian/g16-c01-avx/g16/l1.exe "/rds/general/ephemeral/user/atarzia/ephemeral/unsymm/single_point_dft/s_3d1_a/Gau-2989647.inp" -scrdir="/rds/general/ephemeral/user/atarzia/ephemeral/unsymm/single_point_dft/s_3d1_a/"
 Entering Link 1 = /apps/gaussian/g16-c01-avx/g16/l1.exe PID=   2989648.
  
 Copyright (c) 1988-2019, Gaussian, Inc.  All Rights Reserved.
  
 This is part of the Gaussian(R) 16 program.  It is based on
 the Gaussian(R) 09 system (copyright 2009, Gaussian, Inc.),
 the Gaussian(R) 03 system (copyright 2003, Gaussian, Inc.),
 the Gaussian(R) 98 system (copyright 1998, Gaussian, Inc.),
 the Gaussian(R) 94 system (copyright 1995, Gaussian, Inc.),
 the Gaussian 92(TM) system (copyright 1992, Gaussian, Inc.),
 the Gaussian 90(TM) system (copyright 1990, Gaussian, Inc.),
 the Gaussian 88(TM) system (copyright 1988, Gaussian, Inc.),
 the Gaussian 86(TM) system (copyright 1986, Carnegie Mellon
 University), and the Gaussian 82(TM) system (copyright 1983,
 Carnegie Mellon University). Gaussian is a federally registered
 trademark of Gaussian, Inc.
  
 This software contains proprietary and confidential information,
 including trade secrets, belonging to Gaussian, Inc.
  
 This software is provided under written license and may be
 used, copied, transmitted, or stored only in accord with that
 written license.
  
 The following legend is applicable only to US Government
 contracts under FAR:
  
                    RESTRICTED RIGHTS LEGEND
  
 Use, reproduction and disclosure by the US Government is
 subject to restrictions as set forth in subparagraphs (a)
 and (c) of the Commercial Computer Software - Restricted
 Rights clause in FAR 52.227-19.
  
 Gaussian, Inc.
 340 Quinnipiac St., Bldg. 40, Wallingford CT 06492
  
  
 ---------------------------------------------------------------
 Warning -- This program may not be used in any manner that
 competes with the business of Gaussian, Inc. or will provide
 assistance to any competitor of Gaussian, Inc.  The licensee
 of this program is prohibited from giving any competitor of
 Gaussian, Inc. access to this program.  By using this program,
 the user acknowledges that Gaussian, Inc. is engaged in the
 business of creating and licensing software in the field of
 computational chemistry and represents and warrants to the
 licensee that it is not a competitor of Gaussian, Inc. and that
 it will not use this program in any manner prohibited above.
 ---------------------------------------------------------------
  

 Cite this work as:
 Gaussian 16, Revision C.01,
 M. J. Frisch, G. W. Trucks, H. B. Schlegel, G. E. Scuseria, 
 M. A. Robb, J. R. Cheeseman, G. Scalmani, V. Barone, 
 G. A. Petersson, H. Nakatsuji, X. Li, M. Caricato, A. V. Marenich, 
 J. Bloino, B. G. Janesko, R. Gomperts, B. Mennucci, H. P. Hratchian, 
 J. V. Ortiz, A. F. Izmaylov, J. L. Sonnenberg, D. Williams-Young, 
 F. Ding, F. Lipparini, F. Egidi, J. Goings, B. Peng, A. Petrone, 
 T. Henderson, D. Ranasinghe, V. G. Zakrzewski, J. Gao, N. Rega, 
 G. Zheng, W. Liang, M. Hada, M. Ehara, K. Toyota, R. Fukuda, 
 J. Hasegawa, M. Ishida, T. Nakajima, Y. Honda, O. Kitao, H. Nakai, 
 T. Vreven, K. Throssell, J. A. Montgomery, Jr., J. E. Peralta, 
 F. Ogliaro, M. J. Bearpark, J. J. Heyd, E. N. Brothers, K. N. Kudin, 
 V. N. Staroverov, T. A. Keith, R. Kobayashi, J. Normand, 
 K. Raghavachari, A. P. Rendell, J. C. Burant, S. S. Iyengar, 
 J. Tomasi, M. Cossi, J. M. Millam, M. Klene, C. Adamo, R. Cammi, 
 J. W. Ochterski, R. L. Martin, K. Morokuma, O. Farkas, 
 J. B. Foresman, and D. J. Fox, Gaussian, Inc., Wallingford CT, 2019.
 
 ******************************************
 Gaussian 16:  ES64L-G16RevC.01  3-Jul-2019
                26-Feb-2021 
 ******************************************
 %chk=_s_3d1_a.chk
 %mem=60000mb
 %nprocshared=32
 Will use up to   32 processors via shared memory.
 ----------------------------------------------------------------------
 #P PBE1PBE/Def2SVP SP SCF=(YQC,MaxCycle=900) int=(Grid=Superfinegrid) 
 EmpiricalDispersion=GD3BJ SCRF=(PCM,Solvent=DiMethylSulfoxide)
 ----------------------------------------------------------------------
 1/38=1,172=1/1;
 2/12=2,17=6,18=5,40=1/2;
 3/5=43,7=101,11=2,25=1,30=1,70=2201,72=21,74=-13,75=-7,124=41/1,2,3;
 4//1;
 5/5=2,7=900,8=4,13=1,38=1,53=21/8,2,8;
 6/7=2,8=2,9=2,10=2,28=1/1;
 99/5=1,9=1/99;
 Leave Link    1 at Fri Feb 26 09:59:48 2021, MaxMem=  7864320000 cpu:               3.3 elap:               0.1
 (Enter /apps/gaussian/g16-c01-avx/g16/l101.exe)
 --------
 _s_3d1_a
 --------
 Symbolic Z-matrix:
 Charge =  4 Multiplicity = 1
 Pd                   -0.093     6.2308    0.2423 
 Pd                   -0.0156   -3.3658    0.1238 
 C                     4.8787    2.4748    0.2542 
 C                     4.4515    3.6035    0.3142 
 C                     3.8778    4.8895    0.3555 
 C                     4.6449    6.0612    0.4063 
 C                     3.9981    7.2846    0.425 
 C                     2.6118    7.3247    0.3883 
 N                     1.886     6.2058    0.3402 
 C                     2.4875    5.0173    0.3273 
 H                     5.7219    6.0019    0.4297 
 H                     4.5617    8.2027    0.4647 
 H                     2.0631    8.2622    0.3966 
 H                     1.8485    4.1351    0.2887 
 C                     5.359     1.1529    0.1413 
 C                     6.659     0.9124   -0.31 
 C                     7.0977   -0.3902   -0.4589 
 C                     6.2615   -1.4521   -0.1592 
 C                     4.9632   -1.2247    0.3044 
 C                     4.5163    0.0844    0.4517 
 H                     7.3096    1.7402   -0.5457 
 H                     8.0985   -0.5818   -0.8145 
 H                     6.6147   -2.46     -0.3111 
 H                     3.5312    0.2912    0.8389 
 C                     4.0898   -2.3682    0.6148 
 C                     4.6051   -3.538     1.1826 
 C                     3.768    -4.6161    1.4151 
 C                     2.4279   -4.5092    1.0872 
 N                     1.9268   -3.384     0.569 
 C                     2.7243   -2.3403    0.3346 
 H                     5.6487   -3.596     1.4491 
 H                     4.1502   -5.5276    1.8453 
 H                     1.7342   -5.3326    1.2427 
 H                     2.2507   -1.4697   -0.112 
 C                    -0.1092    2.3739    5.1361 
 C                    -0.1665    3.5113    4.7321 
 C                    -0.205     4.8089    4.1849 
 C                    -0.2492    5.9647    4.976 
 C                    -0.2652    7.2012    4.3544 
 C                    -0.232     7.2695    2.9691 
 N                    -0.1902    6.1655    2.2204 
 C                    -0.1803    4.965     2.7974 
 H                    -0.2697    5.8835    6.0516 
 H                    -0.3       8.1077    4.9367 
 H                    -0.2384    8.2181    2.4398 
 H                    -0.1471    4.0959    2.1404 
 C                     0.0001    1.042     5.5887 
 C                     0.4557    0.7728    6.8815 
 C                     0.6005   -0.5392    7.2927 
 C                     0.2925   -1.5824    6.4362 
 C                    -0.1752   -1.3262    5.1448 
 C                    -0.3185   -0.0076    4.7255 
 H                     0.6978    1.586     7.548 
 H                     0.9594   -0.7529    8.2879 
 H                     0.4413   -2.598     6.768 
 H                    -0.7089    0.221     3.7465 
 C                    -0.4942   -2.45      4.2492 
 C                    -1.066    -3.6275    4.7422 
 C                    -1.3067   -4.6868    3.8837 
 C                    -0.9824   -4.554     2.5451 
 N                    -0.4599   -3.4214    2.0656 
 C                    -0.2181   -2.3954    2.8837 
 H                    -1.3292   -3.7058    5.7854 
 H                    -1.7404   -5.6039    4.2484 
 H                    -1.1443   -5.3621    1.8351 
 H                     0.2312   -1.5173    2.4267 
 C                    -5.0033    2.3954    0.1252 
 C                    -4.5939    3.5319    0.0958 
 C                    -4.0411    4.8277    0.0887 
 C                    -4.8272    5.9876    0.0652 
 C                    -4.2006    7.2214    0.0792 
 C                    -2.8152    7.2833    0.1206 
 N                    -2.0712    6.1755    0.1426 
 C                    -2.6532    4.9774    0.1242 
 H                    -5.9031    5.9113    0.0372 
 H                    -4.779     8.131     0.061 
 H                    -2.282     8.2295    0.1371 
 H                    -1.9999    4.1051    0.1428 
 C                    -5.463     1.0637    0.2025 
 C                    -6.7612    0.7916    0.6409 
 C                    -7.1799   -0.521     0.7549 
 C                    -6.3256   -1.5618    0.4331 
 C                    -5.0289   -1.3026   -0.018 
 C                    -4.6021    0.0166   -0.1304 
 H                    -7.4259    1.6029    0.8939 
 H                    -8.1793   -0.7372    1.1005 
 H                    -6.6636   -2.5786    0.5582 
 H                    -3.6187    0.2486   -0.5074 
 C                    -4.1361   -2.4241   -0.3524 
 C                    -4.6306   -3.588    -0.9503 
 C                    -3.7755   -4.6468   -1.2052 
 C                    -2.4385   -4.5264   -0.8698 
 N                    -1.9572   -3.406    -0.3231 
 C                    -2.7722   -2.3812   -0.0664 
 H                    -5.6721   -3.6562   -1.2223 
 H                    -4.1416   -5.5537   -1.6584 
 H                    -1.7312   -5.3347   -1.0424 
 H                    -2.3141   -1.5144    0.4031 
 C                    -0.008     2.496    -4.745 
 C                     0.0292    3.624    -4.313 
 C                     0.0449    4.9082   -3.734 
 C                     0.0701    6.0837   -4.4964 
 C                     0.0643    7.3046   -3.8446 
 C                     0.0288    7.3383   -2.4581 
 N                     0.0051    6.2157   -1.7368 
 C                     0.0162    5.0296   -2.3432 
 H                     0.0929    6.0294   -5.5737 
 H                     0.084     8.2257   -4.4044 
 H                     0.0186    8.2735   -1.9056 
 H                    -0.003     4.1443   -1.7077 
 C                    -0.0939    1.1742   -5.2309 
 C                    -0.5412    0.93     -6.5316 
 C                    -0.6633   -0.3735   -6.9758 
 C                    -0.3409   -1.4326   -6.1445 
 C                     0.1188   -1.2012   -4.8456 
 C                     0.2393    0.1087   -4.393 
 H                    -0.7946    1.7555   -7.1785 
 H                    -1.0156   -0.5682   -7.9772 
 H                    -0.4721   -2.4419   -6.5019 
 H                     0.623     0.3193   -3.4074 
 C                     0.4535   -2.3417   -3.9772 
 C                     1.045    -3.4974   -4.4978 
 C                     1.3003   -4.5739   -3.6653 
 C                     0.9711   -4.4795   -2.3246 
 N                     0.43     -3.3674   -1.8185 
 C                     0.1736   -2.3253   -2.6115 
 H                     1.3118   -3.5455   -5.5418 
 H                     1.749    -5.4748   -4.0516 
 H                     1.1441   -5.3023   -1.6345 
 H                    -0.2905   -1.4662   -2.1339 
 
 ITRead=  0  0  0  0  0  0  0  0  0  0  0  0  0  0  0  0  0  0  0  0
 ITRead=  0  0  0  0  0  0  0  0  0  0  0  0  0  0  0  0  0  0  0  0
 ITRead=  0  0  0  0  0  0  0  0  0  0  0  0  0  0  0  0  0  0  0  0
 ITRead=  0  0  0  0  0  0  0  0  0  0  0  0  0  0  0  0  0  0  0  0
 ITRead=  0  0  0  0  0  0  0  0  0  0  0  0  0  0  0  0  0  0  0  0
 ITRead=  0  0  0  0  0  0  0  0  0  0  0  0  0  0  0  0  0  0  0  0
 ITRead=  0  0  0  0  0  0  0  0  0  0
 MicOpt= -1 -1 -1 -1 -1 -1 -1 -1 -1 -1 -1 -1 -1 -1 -1 -1 -1 -1 -1 -1
 MicOpt= -1 -1 -1 -1 -1 -1 -1 -1 -1 -1 -1 -1 -1 -1 -1 -1 -1 -1 -1 -1
 MicOpt= -1 -1 -1 -1 -1 -1 -1 -1 -1 -1 -1 -1 -1 -1 -1 -1 -1 -1 -1 -1
 MicOpt= -1 -1 -1 -1 -1 -1 -1 -1 -1 -1 -1 -1 -1 -1 -1 -1 -1 -1 -1 -1
 MicOpt= -1 -1 -1 -1 -1 -1 -1 -1 -1 -1 -1 -1 -1 -1 -1 -1 -1 -1 -1 -1
 MicOpt= -1 -1 -1 -1 -1 -1 -1 -1 -1 -1 -1 -1 -1 -1 -1 -1 -1 -1 -1 -1
 MicOpt= -1 -1 -1 -1 -1 -1 -1 -1 -1 -1
 NAtoms=    130 NQM=      130 NQMF=       0 NMMI=      0 NMMIF=      0
                NMic=       0 NMicF=      0.
                    Isotopes and Nuclear Properties:
 (Nuclear quadrupole moments (NQMom) in fm**2, nuclear magnetic moments (NMagM)
  in nuclear magnetons)

  Atom         1           2           3           4           5           6           7           8           9          10
 IAtWgt=         106         106          12          12          12          12          12          12          14          12
 AtmWgt= 105.9032000 105.9032000  12.0000000  12.0000000  12.0000000  12.0000000  12.0000000  12.0000000  14.0030740  12.0000000
 NucSpn=           0           0           0           0           0           0           0           0           2           0
 AtZEff=  -0.0000000  -0.0000000  -0.0000000  -0.0000000  -0.0000000  -0.0000000  -0.0000000  -0.0000000  -0.0000000  -0.0000000
 NQMom=    0.0000000   0.0000000   0.0000000   0.0000000   0.0000000   0.0000000   0.0000000   0.0000000   2.0440000   0.0000000
 NMagM=    0.0000000   0.0000000   0.0000000   0.0000000   0.0000000   0.0000000   0.0000000   0.0000000   0.4037610   0.0000000
 AtZNuc=  46.0000000  46.0000000   6.0000000   6.0000000   6.0000000   6.0000000   6.0000000   6.0000000   7.0000000   6.0000000

  Atom        11          12          13          14          15          16          17          18          19          20
 IAtWgt=           1           1           1           1          12          12          12          12          12          12
 AtmWgt=   1.0078250   1.0078250   1.0078250   1.0078250  12.0000000  12.0000000  12.0000000  12.0000000  12.0000000  12.0000000
 NucSpn=           1           1           1           1           0           0           0           0           0           0
 AtZEff=  -0.0000000  -0.0000000  -0.0000000  -0.0000000  -0.0000000  -0.0000000  -0.0000000  -0.0000000  -0.0000000  -0.0000000
 NQMom=    0.0000000   0.0000000   0.0000000   0.0000000   0.0000000   0.0000000   0.0000000   0.0000000   0.0000000   0.0000000
 NMagM=    2.7928460   2.7928460   2.7928460   2.7928460   0.0000000   0.0000000   0.0000000   0.0000000   0.0000000   0.0000000
 AtZNuc=   1.0000000   1.0000000   1.0000000   1.0000000   6.0000000   6.0000000   6.0000000   6.0000000   6.0000000   6.0000000

  Atom        21          22          23          24          25          26          27          28          29          30
 IAtWgt=           1           1           1           1          12          12          12          12          14          12
 AtmWgt=   1.0078250   1.0078250   1.0078250   1.0078250  12.0000000  12.0000000  12.0000000  12.0000000  14.0030740  12.0000000
 NucSpn=           1           1           1           1           0           0           0           0           2           0
 AtZEff=  -0.0000000  -0.0000000  -0.0000000  -0.0000000  -0.0000000  -0.0000000  -0.0000000  -0.0000000  -0.0000000  -0.0000000
 NQMom=    0.0000000   0.0000000   0.0000000   0.0000000   0.0000000   0.0000000   0.0000000   0.0000000   2.0440000   0.0000000
 NMagM=    2.7928460   2.7928460   2.7928460   2.7928460   0.0000000   0.0000000   0.0000000   0.0000000   0.4037610   0.0000000
 AtZNuc=   1.0000000   1.0000000   1.0000000   1.0000000   6.0000000   6.0000000   6.0000000   6.0000000   7.0000000   6.0000000

  Atom        31          32          33          34          35          36          37          38          39          40
 IAtWgt=           1           1           1           1          12          12          12          12          12          12
 AtmWgt=   1.0078250   1.0078250   1.0078250   1.0078250  12.0000000  12.0000000  12.0000000  12.0000000  12.0000000  12.0000000
 NucSpn=           1           1           1           1           0           0           0           0           0           0
 AtZEff=  -0.0000000  -0.0000000  -0.0000000  -0.0000000  -0.0000000  -0.0000000  -0.0000000  -0.0000000  -0.0000000  -0.0000000
 NQMom=    0.0000000   0.0000000   0.0000000   0.0000000   0.0000000   0.0000000   0.0000000   0.0000000   0.0000000   0.0000000
 NMagM=    2.7928460   2.7928460   2.7928460   2.7928460   0.0000000   0.0000000   0.0000000   0.0000000   0.0000000   0.0000000
 AtZNuc=   1.0000000   1.0000000   1.0000000   1.0000000   6.0000000   6.0000000   6.0000000   6.0000000   6.0000000   6.0000000

  Atom        41          42          43          44          45          46          47          48          49          50
 IAtWgt=          14          12           1           1           1           1          12          12          12          12
 AtmWgt=  14.0030740  12.0000000   1.0078250   1.0078250   1.0078250   1.0078250  12.0000000  12.0000000  12.0000000  12.0000000
 NucSpn=           2           0           1           1           1           1           0           0           0           0
 AtZEff=  -0.0000000  -0.0000000  -0.0000000  -0.0000000  -0.0000000  -0.0000000  -0.0000000  -0.0000000  -0.0000000  -0.0000000
 NQMom=    2.0440000   0.0000000   0.0000000   0.0000000   0.0000000   0.0000000   0.0000000   0.0000000   0.0000000   0.0000000
 NMagM=    0.4037610   0.0000000   2.7928460   2.7928460   2.7928460   2.7928460   0.0000000   0.0000000   0.0000000   0.0000000
 AtZNuc=   7.0000000   6.0000000   1.0000000   1.0000000   1.0000000   1.0000000   6.0000000   6.0000000   6.0000000   6.0000000

  Atom        51          52          53          54          55          56          57          58          59          60
 IAtWgt=          12          12           1           1           1           1          12          12          12          12
 AtmWgt=  12.0000000  12.0000000   1.0078250   1.0078250   1.0078250   1.0078250  12.0000000  12.0000000  12.0000000  12.0000000
 NucSpn=           0           0           1           1           1           1           0           0           0           0
 AtZEff=  -0.0000000  -0.0000000  -0.0000000  -0.0000000  -0.0000000  -0.0000000  -0.0000000  -0.0000000  -0.0000000  -0.0000000
 NQMom=    0.0000000   0.0000000   0.0000000   0.0000000   0.0000000   0.0000000   0.0000000   0.0000000   0.0000000   0.0000000
 NMagM=    0.0000000   0.0000000   2.7928460   2.7928460   2.7928460   2.7928460   0.0000000   0.0000000   0.0000000   0.0000000
 AtZNuc=   6.0000000   6.0000000   1.0000000   1.0000000   1.0000000   1.0000000   6.0000000   6.0000000   6.0000000   6.0000000

  Atom        61          62          63          64          65          66          67          68          69          70
 IAtWgt=          14          12           1           1           1           1          12          12          12          12
 AtmWgt=  14.0030740  12.0000000   1.0078250   1.0078250   1.0078250   1.0078250  12.0000000  12.0000000  12.0000000  12.0000000
 NucSpn=           2           0           1           1           1           1           0           0           0           0
 AtZEff=  -0.0000000  -0.0000000  -0.0000000  -0.0000000  -0.0000000  -0.0000000  -0.0000000  -0.0000000  -0.0000000  -0.0000000
 NQMom=    2.0440000   0.0000000   0.0000000   0.0000000   0.0000000   0.0000000   0.0000000   0.0000000   0.0000000   0.0000000
 NMagM=    0.4037610   0.0000000   2.7928460   2.7928460   2.7928460   2.7928460   0.0000000   0.0000000   0.0000000   0.0000000
 AtZNuc=   7.0000000   6.0000000   1.0000000   1.0000000   1.0000000   1.0000000   6.0000000   6.0000000   6.0000000   6.0000000

  Atom        71          72          73          74          75          76          77          78          79          80
 IAtWgt=          12          12          14          12           1           1           1           1          12          12
 AtmWgt=  12.0000000  12.0000000  14.0030740  12.0000000   1.0078250   1.0078250   1.0078250   1.0078250  12.0000000  12.0000000
 NucSpn=           0           0           2           0           1           1           1           1           0           0
 AtZEff=  -0.0000000  -0.0000000  -0.0000000  -0.0000000  -0.0000000  -0.0000000  -0.0000000  -0.0000000  -0.0000000  -0.0000000
 NQMom=    0.0000000   0.0000000   2.0440000   0.0000000   0.0000000   0.0000000   0.0000000   0.0000000   0.0000000   0.0000000
 NMagM=    0.0000000   0.0000000   0.4037610   0.0000000   2.7928460   2.7928460   2.7928460   2.7928460   0.0000000   0.0000000
 AtZNuc=   6.0000000   6.0000000   7.0000000   6.0000000   1.0000000   1.0000000   1.0000000   1.0000000   6.0000000   6.0000000

  Atom        81          82          83          84          85          86          87          88          89          90
 IAtWgt=          12          12          12          12           1           1           1           1          12          12
 AtmWgt=  12.0000000  12.0000000  12.0000000  12.0000000   1.0078250   1.0078250   1.0078250   1.0078250  12.0000000  12.0000000
 NucSpn=           0           0           0           0           1           1           1           1           0           0
 AtZEff=  -0.0000000  -0.0000000  -0.0000000  -0.0000000  -0.0000000  -0.0000000  -0.0000000  -0.0000000  -0.0000000  -0.0000000
 NQMom=    0.0000000   0.0000000   0.0000000   0.0000000   0.0000000   0.0000000   0.0000000   0.0000000   0.0000000   0.0000000
 NMagM=    0.0000000   0.0000000   0.0000000   0.0000000   2.7928460   2.7928460   2.7928460   2.7928460   0.0000000   0.0000000
 AtZNuc=   6.0000000   6.0000000   6.0000000   6.0000000   1.0000000   1.0000000   1.0000000   1.0000000   6.0000000   6.0000000

  Atom        91          92          93          94          95          96          97          98          99         100
 IAtWgt=          12          12          14          12           1           1           1           1          12          12
 AtmWgt=  12.0000000  12.0000000  14.0030740  12.0000000   1.0078250   1.0078250   1.0078250   1.0078250  12.0000000  12.0000000
 NucSpn=           0           0           2           0           1           1           1           1           0           0
 AtZEff=  -0.0000000  -0.0000000  -0.0000000  -0.0000000  -0.0000000  -0.0000000  -0.0000000  -0.0000000  -0.0000000  -0.0000000
 NQMom=    0.0000000   0.0000000   2.0440000   0.0000000   0.0000000   0.0000000   0.0000000   0.0000000   0.0000000   0.0000000
 NMagM=    0.0000000   0.0000000   0.4037610   0.0000000   2.7928460   2.7928460   2.7928460   2.7928460   0.0000000   0.0000000
 AtZNuc=   6.0000000   6.0000000   7.0000000   6.0000000   1.0000000   1.0000000   1.0000000   1.0000000   6.0000000   6.0000000

  Atom       101         102         103         104         105         106         107         108         109         110
 IAtWgt=          12          12          12          12          14          12           1           1           1           1
 AtmWgt=  12.0000000  12.0000000  12.0000000  12.0000000  14.0030740  12.0000000   1.0078250   1.0078250   1.0078250   1.0078250
 NucSpn=           0           0           0           0           2           0           1           1           1           1
 AtZEff=  -0.0000000  -0.0000000  -0.0000000  -0.0000000  -0.0000000  -0.0000000  -0.0000000  -0.0000000  -0.0000000  -0.0000000
 NQMom=    0.0000000   0.0000000   0.0000000   0.0000000   2.0440000   0.0000000   0.0000000   0.0000000   0.0000000   0.0000000
 NMagM=    0.0000000   0.0000000   0.0000000   0.0000000   0.4037610   0.0000000   2.7928460   2.7928460   2.7928460   2.7928460
 AtZNuc=   6.0000000   6.0000000   6.0000000   6.0000000   7.0000000   6.0000000   1.0000000   1.0000000   1.0000000   1.0000000

  Atom       111         112         113         114         115         116         117         118         119         120
 IAtWgt=          12          12          12          12          12          12           1           1           1           1
 AtmWgt=  12.0000000  12.0000000  12.0000000  12.0000000  12.0000000  12.0000000   1.0078250   1.0078250   1.0078250   1.0078250
 NucSpn=           0           0           0           0           0           0           1           1           1           1
 AtZEff=  -0.0000000  -0.0000000  -0.0000000  -0.0000000  -0.0000000  -0.0000000  -0.0000000  -0.0000000  -0.0000000  -0.0000000
 NQMom=    0.0000000   0.0000000   0.0000000   0.0000000   0.0000000   0.0000000   0.0000000   0.0000000   0.0000000   0.0000000
 NMagM=    0.0000000   0.0000000   0.0000000   0.0000000   0.0000000   0.0000000   2.7928460   2.7928460   2.7928460   2.7928460
 AtZNuc=   6.0000000   6.0000000   6.0000000   6.0000000   6.0000000   6.0000000   1.0000000   1.0000000   1.0000000   1.0000000

  Atom       121         122         123         124         125         126         127         128         129         130
 IAtWgt=          12          12          12          12          14          12           1           1           1           1
 AtmWgt=  12.0000000  12.0000000  12.0000000  12.0000000  14.0030740  12.0000000   1.0078250   1.0078250   1.0078250   1.0078250
 NucSpn=           0           0           0           0           2           0           1           1           1           1
 AtZEff=  -0.0000000  -0.0000000  -0.0000000  -0.0000000  -0.0000000  -0.0000000  -0.0000000  -0.0000000  -0.0000000  -0.0000000
 NQMom=    0.0000000   0.0000000   0.0000000   0.0000000   2.0440000   0.0000000   0.0000000   0.0000000   0.0000000   0.0000000
 NMagM=    0.0000000   0.0000000   0.0000000   0.0000000   0.4037610   0.0000000   2.7928460   2.7928460   2.7928460   2.7928460
 AtZNuc=   6.0000000   6.0000000   6.0000000   6.0000000   7.0000000   6.0000000   1.0000000   1.0000000   1.0000000   1.0000000
 Leave Link  101 at Fri Feb 26 09:59:48 2021, MaxMem=  7864320000 cpu:               3.8 elap:               0.1
 (Enter /apps/gaussian/g16-c01-avx/g16/l202.exe)
 Stoichiometry    C72H48N8Pd2(4+)
 Framework group  C1[X(C72H48N8Pd2)]
 Deg. of freedom   384
 Full point group                 C1      NOp   1
 Largest Abelian subgroup         C1      NOp   1
 Largest concise Abelian subgroup C1      NOp   1
                         Standard orientation:                         
 ---------------------------------------------------------------------
 Center     Atomic      Atomic             Coordinates (Angstroms)
 Number     Number       Type             X           Y           Z
 ---------------------------------------------------------------------
      1         46           0       -5.159329    0.000077   -0.001282
      2         46           0        4.438315   -0.000918   -0.003045
      3          6           0       -1.363545   -3.613877    3.368710
      4          6           0       -2.496340   -3.343234    3.046851
      5          6           0       -3.787371   -2.953296    2.639640
      6          6           0       -4.953351   -3.539820    3.149917
      7          6           0       -6.182099   -3.081586    2.707641
      8          6           0       -6.232986   -2.053641    1.777306
      9          7           0       -5.119498   -1.498699    1.294377
     10          6           0       -3.926087   -1.928084    1.701685
     11          1           0       -4.885610   -4.334967    3.875966
     12          1           0       -7.096021   -3.513996    3.081671
     13          1           0       -7.174939   -1.659964    1.406106
     14          1           0       -3.048687   -1.441809    1.275311
     15          6           0       -0.036478   -3.886921    3.762655
     16          6           0        0.220211   -4.515959    4.983283
     17          6           0        1.528095   -4.734001    5.374809
     18          6           0        2.579328   -4.339291    4.564997
     19          6           0        2.335597   -3.720014    3.336457
     20          6           0        1.021167   -3.494919    2.940520
     21          1           0       -0.599258   -4.821315    5.615198
     22          1           0        1.732260   -5.212640    6.320317
     23          1           0        3.591888   -4.492607    4.903968
     24          1           0        0.801535   -3.049417    1.983231
     25          6           0        3.467985   -3.306022    2.492018
     26          6           0        4.634710   -4.074109    2.420201
     27          6           0        5.702977   -3.632379    1.658118
     28          6           0        5.589328   -2.436524    0.971219
     29          7           0        4.466690   -1.713089    1.016327
     30          6           0        3.432522   -2.124967    1.751929
     31          1           0        4.697829   -5.013008    2.947432
     32          1           0        6.612078   -4.208453    1.597655
     33          1           0        6.405054   -2.044594    0.367589
     34          1           0        2.563780   -1.471586    1.760522
     35          6           0       -1.364414   -3.379154   -3.607477
     36          6           0       -2.497081   -3.055491   -3.338247
     37          6           0       -3.787981   -2.646066   -2.950142
     38          6           0       -4.953940   -3.157279   -3.535690
     39          6           0       -6.182630   -2.712908   -3.079149
     40          6           0       -6.233265   -1.779898   -2.053599
     41          7           0       -5.119652   -1.296090   -1.499604
     42          6           0       -3.926448   -1.705144   -1.927583
     43          1           0       -4.886415   -3.885599   -4.328735
     44          1           0       -7.096619   -3.087399   -3.510897
     45          1           0       -7.175168   -1.407027   -1.661391
     46          1           0       -3.048930   -1.277797   -1.442381
     47          6           0       -0.037456   -3.774533   -3.878788
     48          6           0        0.219185   -4.997685   -4.502813
     49          6           0        1.527053   -5.390084   -4.719380
     50          6           0        2.578386   -4.578695   -4.328142
     51          6           0        2.334628   -3.347798   -3.713676
     52          6           0        1.020275   -2.950869   -3.490120
     53          1           0       -0.600324   -5.630830   -4.805567
     54          1           0        1.731151   -6.337601   -5.194203
     55          1           0        3.590916   -4.918316   -4.480185
     56          1           0        0.800819   -1.991722   -3.048547
     57          6           0        3.466954   -2.501673   -3.302948
     58          6           0        4.633494   -2.431996   -4.071609
     59          6           0        5.701497   -1.667938   -3.632680
     60          6           0        5.588145   -0.977509   -2.438898
     61          7           0        4.465931   -1.020985   -1.714706
     62          6           0        3.431740   -1.758028   -2.124154
     63          1           0        4.696555   -2.962424   -5.008808
     64          1           0        6.610397   -1.608780   -4.209373
     65          1           0        6.403752   -0.372299   -2.049227
     66          1           0        2.563120   -1.764825   -1.470523
     67          6           0       -1.362741    3.621034   -3.364264
     68          6           0       -2.495422    3.348471   -3.043565
     69          6           0       -3.786502    2.957254   -2.637611
     70          6           0       -4.952357    3.545191   -3.146515
     71          6           0       -6.181110    3.085859   -2.705757
     72          6           0       -6.232278    2.055604   -1.777945
     73          7           0       -5.118839    1.499293   -1.296267
     74          6           0       -3.925366    1.929512   -1.702517
     75          1           0       -4.884447    4.342339   -3.870469
     76          1           0       -7.095074    3.519239   -3.078719
     77          1           0       -7.174252    1.661281   -1.407724
     78          1           0       -3.048094    1.441798   -1.277566
     79          6           0       -0.035891    3.896340   -3.757202
     80          6           0        0.220139    4.531551   -4.974786
     81          6           0        1.527764    4.751913   -5.365662
     82          6           0        2.579420    4.353490   -4.558242
     83          6           0        2.336435    3.728100   -3.332701
     84          6           0        1.022258    3.500794   -2.937291
     85          1           0       -0.599640    4.839744   -5.604882
     86          1           0        1.731490    5.235304   -6.308960
     87          1           0        3.591793    4.508656   -4.897065
     88          1           0        0.802997    3.050705   -1.982108
     89          6           0        3.469254    3.310313   -2.490766
     90          6           0        4.636514    4.077614   -2.417083
     91          6           0        5.705336    3.632355   -1.657746
     92          6           0        5.591591    2.434198   -0.975075
     93          7           0        4.468361    1.711684   -1.021493
     94          6           0        3.433839    2.126607   -1.754935
     95          1           0        4.699668    5.018440   -2.940740
     96          1           0        6.614851    4.207580   -1.596233
     97          1           0        6.407708    2.039675   -0.373645
     98          1           0        2.564961    1.473482   -1.765282
     99          6           0       -1.361659    3.372879    3.608570
    100          6           0       -2.494653    3.050754    3.338474
    101          6           0       -3.785850    2.643082    2.949536
    102          6           0       -4.951445    3.154740    3.535440
    103          6           0       -6.180436    2.712155    3.078087
    104          6           0       -6.231823    1.780266    2.051578
    105          7           0       -5.118594    1.296059    1.497204
    106          6           0       -3.924925    1.703551    1.925902
    107          1           0       -4.883444    3.882191    4.329313
    108          1           0       -7.094247    3.087142    3.509970
    109          1           0       -7.173936    1.408649    1.658789
    110          1           0       -3.047856    1.276016    1.440156
    111          6           0       -0.034605    3.766906    3.881157
    112          6           0        0.222262    4.988074    4.509089
    113          6           0        1.530201    5.379527    4.726793
    114          6           0        2.581365    4.569244    4.332854
    115          6           0        2.337420    3.340316    3.714599
    116          6           0        1.022963    2.944236    3.489811
    117          1           0       -0.597083    5.620442    4.813927
    118          1           0        1.734589    6.325410    5.204661
    119          1           0        3.593974    4.908149    4.485833
    120          1           0        0.803131    1.986604    3.045287
    121          6           0        3.469609    2.495285    3.301136
    122          6           0        4.636515    2.423892    4.069102
    123          6           0        5.704518    1.661254    3.627697
    124          6           0        5.590629    0.973553    2.432349
    125          7           0        4.467910    1.018394    1.709035
    126          6           0        3.433798    1.754449    2.120616
    127          1           0        4.699879    2.951915    5.007510
    128          1           0        6.613808    1.601077    4.203676
    129          1           0        6.406080    0.369495    2.040787
    130          1           0        2.565033    1.762584    1.467374
 ---------------------------------------------------------------------
 Rotational constants (GHZ):           0.0244683           0.0160259           0.0159994
 Leave Link  202 at Fri Feb 26 09:59:48 2021, MaxMem=  7864320000 cpu:               0.8 elap:               0.0
 (Enter /apps/gaussian/g16-c01-avx/g16/l301.exe)
 Standard basis: def2SVP (5D, 7F)
 Ernie: Thresh=  0.10000D-02 Tol=  0.10000D-05 Strict=F.
 There are  1512 symmetry adapted cartesian basis functions of A   symmetry.
 There are  1422 symmetry adapted basis functions of A   symmetry.
  1422 basis functions,  2466 primitive gaussians,  1512 cartesian basis functions
   284 alpha electrons      284 beta electrons
       nuclear repulsion energy     13817.0805717257 Hartrees.
 IExCor= 1009 DFT=T Ex+Corr=PBE1PBE ExCW=0 ScaHFX=  0.250000
 ScaDFX=  0.750000  0.750000  1.000000  1.000000 ScalE2=  1.000000  1.000000
 IRadAn=      7 IRanWt=     -1 IRanGd=            0 ICorTp=0 IEmpDi=141
 NAtoms=  130 NActive=  130 NUniq=  130 SFac= 1.00D+00 NAtFMM=   60 NAOKFM=T Big=T
 Integral buffers will be    131072 words long.
 Raffenetti 2 integral format.
 Two-electron integral symmetry is turned on.
 R6Disp:  Grimme-D3(BJ) Dispersion energy=       -0.2062305224 Hartrees.
 Nuclear repulsion after empirical dispersion term =    13816.8743412033 Hartrees.
 ------------------------------------------------------------------------------
 Polarizable Continuum Model (PCM)
 =================================
 Model                : PCM.
 Atomic radii         : UFF (Universal Force Field).
 Polarization charges : Total charges.
 Charge compensation  : None.
 Solution method      : On-the-fly selection.
 Cavity type          : Scaled VdW (van der Waals Surface) (Alpha=1.100).
 Cavity algorithm     : GePol (No added spheres)
                        Default sphere list used, NSphG=  130.
                        Lebedev-Laikov grids with approx.  5.0 points / Ang**2.
                        Smoothing algorithm: York/Karplus (Gamma=1.0000).
                        Polarization charges: spherical gaussians, with
                                              point-specific exponents (IZeta= 3).
                        Self-potential: point-specific (ISelfS= 7).
                        Self-field    : sphere-specific E.n sum rule (ISelfD= 2).
 Solvent              : DiMethylSulfoxide, Eps=  46.826000 Eps(inf)=   2.007889
 ------------------------------------------------------------------------------
 GePol: Number of generator spheres                  =     130
 GePol: Total number of spheres                      =     130
 GePol: Number of exposed spheres                    =     130 (100.00%)
 GePol: Number of points                             =    9295
 GePol: Average weight of points                     =       0.13
 GePol: Minimum weight of points                     =   0.45D-11
 GePol: Maximum weight of points                     =    0.20577
 GePol: Number of points with low weight             =     679
 GePol: Fraction of low-weight points (<1% of avg)   =       7.31%
 GePol: Cavity surface area                          =   1193.945 Ang**2
 GePol: Cavity volume                                =   1426.101 Ang**3
 Leave Link  301 at Fri Feb 26 09:59:48 2021, MaxMem=  7864320000 cpu:               5.1 elap:               0.2
 (Enter /apps/gaussian/g16-c01-avx/g16/l302.exe)
 NPDir=0 NMtPBC=     1 NCelOv=     1 NCel=       1 NClECP=     1 NCelD=      1
         NCelK=      1 NCelE2=     1 NClLst=     1 CellRange=     0.0.
 One-electron integrals computed using PRISM.
 One-electron integral symmetry used in STVInt
   1 Symmetry operations used in ECPInt.
 ECPInt:  NShTT=  208981 NPrTT=  768155 LenC2=  136467 LenP2D=  289725.
 LDataN:  DoStor=T MaxTD1= 7 Len=  274
 NBasis=  1422 RedAO= T EigKep=  2.61D-04  NBF=  1422
 NBsUse=  1422 1.00D-06 EigRej= -1.00D+00 NBFU=  1422
 Precomputing XC quadrature grid using
 IXCGrd= 4 IRadAn=           7 IRanWt=          -1 IRanGd=           0 AccXCQ= 0.00D+00.
 Generated NRdTot=       0 NPtTot=           0 NUsed=           0 NTot=          32
 NSgBfM=  1335  1306  1316  1333  1335 MxSgAt=   130 MxSgA2=   130.
 Leave Link  302 at Fri Feb 26 09:59:57 2021, MaxMem=  7864320000 cpu:             287.5 elap:               9.1
 (Enter /apps/gaussian/g16-c01-avx/g16/l303.exe)
 DipDrv:  MaxL=1.
 Leave Link  303 at Fri Feb 26 09:59:58 2021, MaxMem=  7864320000 cpu:              13.9 elap:               0.6
 (Enter /apps/gaussian/g16-c01-avx/g16/l401.exe)
 ExpMin= 3.70D-02 ExpMax= 1.71D+03 ExpMxC= 2.58D+02 IAcc=3 IRadAn=         7 AccDes= 0.00D+00
 Harris functional with IExCor= 1009 and IRadAn=       7 diagonalized for initial guess.
 HarFok:  IExCor= 1009 AccDes= 0.00D+00 IRadAn=         7 IDoV= 1 UseB2=F ITyADJ=14
 ICtDFT=  3500011 ScaDFX=  1.000000  1.000000  1.000000  1.000000
 FoFCou: FMM=F IPFlag=           0 FMFlag=      100000 FMFlg1=        2001
         NFxFlg=           0 DoJE=T BraDBF=F KetDBF=T FulRan=T
         wScrn=  0.000000 ICntrl=       500 IOpCl=  0 I1Cent=   200000004 NGrid=           0
         NMat0=    1 NMatS0=      1 NMatT0=    0 NMatD0=    1 NMtDS0=    0 NMtDT0=    0
 Petite list used in FoFCou.
 Harris En= -3461.43190158634    
 JPrj=0 DoOrth=F DoCkMO=F.
 Leave Link  401 at Fri Feb 26 10:00:23 2021, MaxMem=  7864320000 cpu:             787.3 elap:              24.8
 (Enter /apps/gaussian/g16-c01-avx/g16/l508.exe)
 Integral symmetry usage will be decided dynamically.
 Tight linear equation convergence will be used.
 RPBE1PBE wavefunction.
 Linear searches until partial convergence.
 Full line searches.
 Fock matrices will be formed incrementally for  20 cycles.
 Inv3:  Mode=1 IEnd=   259191075.
 Iteration    1 A*A^-1 deviation from unit magnitude is 1.19D-14 for   9288.
 Iteration    1 A*A^-1 deviation from orthogonality  is 3.29D-15 for   9289   9247.
 Iteration    1 A^-1*A deviation from unit magnitude is 1.18D-14 for   9288.
 Iteration    1 A^-1*A deviation from orthogonality  is 4.52D-14 for   7636   7624.
 FoFJK:  IHMeth= 1 ICntrl=       0 DoSepK=F KAlg= 0 I1Cent=           0 FoldK=F
 IRaf= 650000000 NMat=       1 IRICut=       1 DoRegI=T DoRafI=F ISym2E= 1 IDoP0=0 IntGTp=1.
 Iteration   1 EE= -3434.78710591173                                    Grad=5.683D+00 Max rot=   47.9320 deg.
 Gradient too large for Newton-Raphson -- use scaled steepest descent instead.
 Alpha Gap=     0.337 HL deriv= 5.83D-04
     ILin= 1 X=0.000D+00 Y=-3.434787105912D+03 DE= 0.00D+00 F= -6.88D+01
 RMSU=  2.74D-03    CP:  9.65D-01
     ILin= 2 X=3.000D-01 Y=-3.449608294685D+03 DE=-1.48D+01 F= -2.41D+01 OKLS=F
 RMSU=  6.17D-04    CP:  9.53D-01  1.34D+00
     ILin= 3 X=4.000D-01 Y=-3.451183610347D+03 DE=-1.64D+01 F= -7.96D+00
 RMSU=  7.44D-04    CP:  9.29D-01  1.84D+00  3.00D+00
     ILin= 4 X=6.000D-01 Y=-3.450425235639D+03 DE=-1.56D+01 F=  1.29D+01
     An  expanding polynomial of degree  4 produced  0.4660
 RMSU=  5.36D-05    CP:  9.45D-01  1.54D+00  1.83D+00  1.04D-01
 Iteration   2 EE= -3451.41412076717     Delta-E=      -16.627014855436 Grad=2.498D+00 Max rot=   20.4544 deg.
 Gradient too large for Newton-Raphson -- use scaled steepest descent instead.
 Alpha Gap=     0.545 HL deriv= 7.67D-03
     ILin= 1 X=0.000D+00 Y=-3.451414120767D+03 DE= 0.00D+00 F= -3.31D+01
 RMSU=  2.53D-03    CP:  9.36D-01  1.10D+00  1.20D+00  1.43D+00  3.00D+00
     ILin= 2 X=3.000D-01 Y=-3.454961600602D+03 DE=-3.55D+00 F=  1.90D+00 OKLS=F
 RMSU=  1.24D-03    CP:  9.34D-01  1.06D+00  1.54D+00  1.22D+00  3.00D+00
                    CP:  1.18D+00
     ILin= 3 X=4.000D-01 Y=-3.454590228551D+03 DE=-3.18D+00 F=  5.47D+00
     An  expanding polynomial of degree  3 produced  0.3022
     Minimum is close to point  2 DX=  2.20D-03 DF= -1.88D-04 DXR=  7.28D-03 DFR=  5.30D-05 which will be used.
 Iteration   3 EE= -3454.96160060235     Delta-E=       -3.547479835179 Grad=1.498D+00 Max rot=   11.5593 deg.
 Gradient too large for Newton-Raphson -- use scaled steepest descent instead.
 Alpha Gap=     0.149 HL deriv= 4.93D-03
     ILin= 1 X=0.000D+00 Y=-3.454961600602D+03 DE= 0.00D+00 F= -1.15D+01
 RMSU=  1.91D-03    CP:  9.29D-01  8.60D-01  3.17D-01  6.69D-01  3.00D+00
                    CP:  5.76D-01 -2.42D-01
     ILin= 2 X=4.000D-01 Y=-3.456633699047D+03 DE=-1.67D+00 F=  1.08D+00 OKLS=T
     Accept linear search using points  1 and  2.
     An  expanding polynomial of degree  2 produced  0.1946
 RMSU=  3.01D-04    CP:  9.33D-01  9.59D-01  6.11D-01  1.24D+00  3.00D+00
                    CP:  8.14D-01 -3.60D-01  5.12D-01
 Iteration   4 EE= -3456.44081346148     Delta-E=       -1.479212859133 Grad=1.073D+00 Max rot=    7.6773 deg.
 Gradient too large for Newton-Raphson -- use scaled steepest descent instead.
 Alpha Gap=     0.340 HL deriv= 1.21D-03
     ILin= 1 X=0.000D+00 Y=-3.456440813461D+03 DE= 0.00D+00 F= -5.18D+00
 RMSU=  8.78D-04    CP:  9.29D-01  7.52D-01  2.52D-01  1.02D+00  3.00D+00
                    CP:  7.03D-01 -1.43D-01  6.25D-01  6.05D-01
     ILin= 2 X=3.000D-01 Y=-3.457804479477D+03 DE=-1.36D+00 F= -3.69D+00 OKLS=F
 RMSU=  1.41D-04    CP:  9.27D-01  6.89D-01  2.25D-01  9.17D-01  3.00D+00
                    CP:  6.52D-01 -7.71D-02  6.48D-01  3.33D-01  1.27D+00
     ILin= 3 X=4.000D-01 Y=-3.458135437217D+03 DE=-1.69D+00 F= -2.91D+00
 RMSU=  1.73D-04    CP:  9.25D-01  5.80D-01  2.89D-01  6.71D-01  3.00D+00
                    CP:  5.46D-01  1.52D-02  6.65D-01 -3.30D-01  1.62D+00
                    CP:  3.00D+00
     ILin= 4 X=6.000D-01 Y=-3.458523108329D+03 DE=-2.08D+00 F= -8.57D-01
 RMSU=  5.28D-04    CP:  9.24D-01  4.70D-01  5.49D-01  2.57D-01  3.00D+00
                    CP:  4.13D-01  1.18D-02  6.16D-01 -1.31D+00  1.54D+00
                    CP:  3.00D+00  3.00D+00
     ILin= 5 X=9.000D-01 Y=-3.458184132502D+03 DE=-1.74D+00 F=  3.23D+00
     An  expanding polynomial of degree  5 produced  0.6708
 RMSU=  2.23D-05    CP:  9.24D-01  5.49D-01  3.40D-01  5.75D-01  3.00D+00
                    CP:  5.09D-01  3.06D-02  6.61D-01 -5.78D-01  1.67D+00
                    CP:  3.00D+00  2.12D+00 -2.38D-03
 Iteration   5 EE= -3458.55290516609     Delta-E=       -2.112091704614 Grad=5.798D-01 Max rot=    6.4925 deg.
 Gradient too large for Newton-Raphson -- use scaled steepest descent instead.
 Alpha Gap=     0.443 HL deriv= 7.63D-04
     ILin= 1 X=0.000D+00 Y=-3.458552905166D+03 DE= 0.00D+00 F= -1.13D+00
 RMSU=  4.13D-04    CP:  9.22D-01  5.03D-01  4.35D-02  5.77D-01  3.00D+00
                    CP:  4.70D-01 -7.08D-02  6.67D-01 -6.77D-01  1.60D+00
                    CP:  3.00D+00  1.87D+00  1.96D-02 -3.00D+00
     ILin= 2 X=4.000D-01 Y=-3.458867375244D+03 DE=-3.14D-01 F= -4.33D-01 OKLS=F
 RMSU=  2.75D-05    CP:  9.21D-01  4.94D-01 -1.72D-02  5.67D-01  3.00D+00
                    CP:  4.60D-01 -8.80D-02  6.67D-01 -7.12D-01  1.58D+00
                    CP:  3.00D+00  1.81D+00  2.55D-02 -3.00D+00  1.25D+00
     ILin= 3 X=5.000D-01 Y=-3.458901757265D+03 DE=-3.49D-01 F= -2.54D-01
 RMSU=  1.71D-05    CP:  9.20D-01  4.81D-01 -1.21D-01  5.34D-01  3.00D+00
                    CP:  4.39D-01 -1.12D-01  6.67D-01 -7.92D-01  1.52D+00
                    CP:  3.00D+00  1.70D+00  3.78D-02 -3.00D+00  1.74D+00
                    CP:  3.00D+00
     ILin= 4 X=7.000D-01 Y=-3.458916756277D+03 DE=-3.64D-01 F=  1.04D-01
     Accept linear search using points  3 and  4.
     An  expanding polynomial of degree  4 produced  0.5912
 RMSU=  2.34D-06    CP:  9.20D-01  4.88D-01 -6.75D-02  5.54D-01  3.00D+00
                    CP:  4.51D-01 -1.01D-01  6.67D-01 -7.46D-01  1.55D+00
                    CP:  3.00D+00  1.76D+00  3.11D-02 -3.00D+00  1.48D+00
                    CP:  2.02D+00  1.93D-01
 Iteration   6 EE= -3458.91749363381     Delta-E=       -0.364588467717 Grad=3.233D-01 Max rot=    1.4205 deg.
 Gradient too large for Newton-Raphson -- use scaled steepest descent instead.
 Alpha Gap=     0.375 HL deriv= 6.04D-04
     ILin= 1 X=0.000D+00 Y=-3.458917493634D+03 DE= 0.00D+00 F= -3.15D-01
 RMSU=  2.86D-04    CP:  9.19D-01  4.40D-01 -1.22D-01  4.74D-01  3.00D+00
                    CP:  4.19D-01 -1.03D-01  6.68D-01 -8.91D-01  1.55D+00
                    CP:  3.00D+00  2.02D+00  5.55D-02 -3.00D+00  1.59D+00
                    CP:  3.00D+00  1.36D+00 -3.00D+00
     ILin= 2 X=6.000D-01 Y=-3.459006866284D+03 DE=-8.94D-02 F=  1.71D-02 OKLS=T
     Accept linear search using points  1 and  2.
     An  expanding polynomial of degree  2 produced  0.4755
 RMSU=  6.41D-06    CP:  9.19D-01  4.50D-01 -1.13D-01  4.90D-01  3.00D+00
                    CP:  4.25D-01 -1.03D-01  6.68D-01 -8.60D-01  1.55D+00
                    CP:  3.00D+00  1.97D+00  5.03D-02 -3.00D+00  1.57D+00
                    CP:  3.00D+00  8.56D-01 -3.00D+00  7.85D-01
 Iteration   7 EE= -3459.00470569396     Delta-E=       -0.087212060145 Grad=1.731D-01 Max rot=    1.0344 deg.
 Gradient too large for Newton-Raphson -- use scaled steepest descent instead.
 Alpha Gap=     0.424 HL deriv= 6.79D-04
     ILin= 1 X=0.000D+00 Y=-3.459004705694D+03 DE= 0.00D+00 F= -1.19D-01
 Restarting incremental Fock formation.
     ILin= 2 X=5.000D-01 Y=-3.459044575446D+03 DE=-3.99D-02 F= -3.87D-02 OKLS=F
 RMSU=  1.18D-04    CP:  1.00D+00
     ILin= 3 X=8.000D-01 Y=-3.459048485842D+03 DE=-4.38D-02 F=  1.29D-02
     Accept linear search using points  2 and  3.
     An  expanding polynomial of degree  3 produced  0.6463
 RMSU=  1.43D-06    CP:  1.00D+00  4.87D-01
 Iteration   8 EE= -3459.04841850534     Delta-E=       -0.043712811381 Grad=1.745D-01 Max rot=    0.9885 deg.
 Gradient too large for Newton-Raphson -- use scaled steepest descent instead.
 Alpha Gap=     0.350 HL deriv= 4.19D-04
     ILin= 1 X=0.000D+00 Y=-3.459048418505D+03 DE= 0.00D+00 F= -1.05D-01
 RMSU=  1.91D-04    CP:  9.98D-01  8.07D-01  1.61D+00
     ILin= 2 X=6.000D-01 Y=-3.459072835389D+03 DE=-2.44D-02 F=  2.34D-02 OKLS=T
     Accept linear search using points  1 and  2.
     An  expanding polynomial of degree  2 produced  0.3908
 RMSU=  1.86D-06    CP:  9.99D-01  6.94D-01  2.24D+00  6.52D-01
 Iteration   9 EE= -3459.07305911920     Delta-E=       -0.024640613858 Grad=9.630D-02 Max rot=    0.9804 deg.
 Gradient too large for Newton-Raphson -- use scaled steepest descent instead.
 Alpha Gap=     0.383 HL deriv= 4.60D-04
     ILin= 1 X=0.000D+00 Y=-3.459073059119D+03 DE= 0.00D+00 F= -5.15D-02
 RMSU=  5.59D-05    CP:  9.99D-01  1.69D+00 -3.00D+00  7.23D-01 -9.38D-01
     ILin= 2 X=5.000D-01 Y=-3.459092358461D+03 DE=-1.93D-02 F= -2.49D-02 OKLS=F
 RMSU=  8.36D-06    CP:  9.99D-01  2.08D+00 -3.00D+00  7.50D-01 -2.25D+00
                    CP:  1.41D+00
     ILin= 3 X=7.000D-01 Y=-3.459096174944D+03 DE=-2.31D-02 F= -1.32D-02
 RMSU=  1.07D-05    CP:  9.98D-01  2.86D+00 -3.00D+00  8.01D-01 -3.00D+00
                    CP:  2.21D+00  3.00D+00
     ILin= 4 X=1.100D+00 Y=-3.459096547402D+03 DE=-2.35D-02 F=  1.15D-02
     Accept linear search using points  3 and  4.
     An  expanding polynomial of degree  4 produced  0.9023
 RMSU=  1.50D-06    CP:  9.99D-01  2.48D+00 -3.00D+00  7.77D-01 -3.00D+00
                    CP:  1.82D+00  2.39D+00  8.26D-02
 Iteration  10 EE= -3459.09759777658     Delta-E=       -0.024538657388 Grad=1.684D-01 Max rot=    1.3666 deg.
 Gradient too large for Newton-Raphson -- use scaled steepest descent instead.
 Alpha Gap=     0.314 HL deriv= 2.11D-04
     ILin= 1 X=0.000D+00 Y=-3.459097597777D+03 DE= 0.00D+00 F= -1.02D-01
 RMSU=  7.57D-05    CP:  9.97D-01  2.16D+00 -3.00D+00  1.72D+00 -3.00D+00
                    CP:  1.60D+00  2.76D+00  7.95D-01  3.00D+00
     ILin= 2 X=6.000D-01 Y=-3.459106755430D+03 DE=-9.16D-03 F=  7.26D-02 OKLS=T
     Accept linear search using points  1 and  2.
     An  expanding polynomial of degree  2 produced  0.3219
 RMSU=  3.62D-06    CP:  9.98D-01  2.31D+00 -3.00D+00  1.28D+00 -3.00D+00
                    CP:  1.71D+00  2.37D+00  4.10D-01  3.00D+00  5.38D-01
 Iteration  11 EE= -3459.11558008558     Delta-E=       -0.017982308993 Grad=7.366D-02 Max rot=    1.2989 deg.
 Gradient too large for Newton-Raphson -- use scaled steepest descent instead.
 Alpha Gap=     0.348 HL deriv= 2.67D-04
     ILin= 1 X=0.000D+00 Y=-3.459115580086D+03 DE= 0.00D+00 F= -3.13D-02
 RMSU=  1.74D-05    CP:  9.98D-01  2.87D+00 -3.00D+00  1.35D+00 -3.00D+00
                    CP:  2.80D+00  3.00D+00  2.74D+00  3.00D+00  6.64D-01
                    CP:  1.51D+00
     ILin= 2 X=5.000D-01 Y=-3.459128221269D+03 DE=-1.26D-02 F= -1.90D-02 OKLS=F
 RMSU=  3.90D-05    CP:  9.97D-01  3.00D+00 -3.00D+00  1.39D+00 -3.00D+00
                    CP:  3.00D+00  3.00D+00  3.00D+00  3.00D+00  7.31D-01
                    CP:  2.40D+00  1.61D+00
     ILin= 3 X=8.000D-01 Y=-3.459132750162D+03 DE=-1.72D-02 F= -1.11D-02
 RMSU=  6.67D-06    CP:  9.97D-01  3.00D+00 -3.00D+00  1.43D+00 -3.00D+00
                    CP:  3.00D+00  3.00D+00  3.00D+00  2.40D+00  8.12D-01
                    CP:  3.00D+00  2.44D+00  2.95D+00
     ILin= 4 X=1.200D+00 Y=-3.459134999669D+03 DE=-1.94D-02 F= -9.75D-05
 RMSU=  1.13D-04    CP:  9.97D-01  3.00D+00 -3.00D+00  1.48D+00 -3.00D+00
                    CP:  3.00D+00  3.00D+00  3.00D+00 -1.38D+00  9.15D-01
                    CP:  3.00D+00  3.00D+00  3.00D+00  1.93D+00
     ILin= 5 X=1.800D+00 Y=-3.459130041473D+03 DE=-1.45D-02 F=  1.66D-02
     An  expanding polynomial of degree  5 produced  1.2035
     Minimum is close to point  4 DX=  3.51D-03 DF= -1.71D-07 DXR=  2.92D-03 DFR=  8.83D-06 which will be used.
 Iteration  12 EE= -3459.13499966942     Delta-E=       -0.019419583841 Grad=1.608D-01 Max rot=    1.5007 deg.
 Gradient too large for Newton-Raphson -- use scaled steepest descent instead.
 Alpha Gap=     0.291 HL deriv= 6.16D-05
     ILin= 1 X=0.000D+00 Y=-3.459134999669D+03 DE= 0.00D+00 F= -9.64D-02
 RMSU=  4.63D-05    CP:  9.96D-01  3.00D+00 -3.00D+00  2.22D+00 -3.00D+00
                    CP:  3.00D+00  3.00D+00  3.00D+00  3.00D+00  2.19D+00
                    CP:  3.00D+00  2.36D+00  1.48D+00 -3.00D+00  3.65D-02
     ILin= 2 X=6.000D-01 Y=-3.459136792414D+03 DE=-1.79D-03 F=  9.19D-02 OKLS=T
     Accept linear search using points  1 and  2.
     An  expanding polynomial of degree  2 produced  0.3050
 RMSU=  7.82D-06    CP:  9.96D-01  3.00D+00 -3.00D+00  1.83D+00 -3.00D+00
                    CP:  3.00D+00  3.00D+00  3.00D+00  3.00D+00  1.52D+00
                    CP:  3.00D+00  2.42D+00  2.18D+00 -1.74D+00  1.82D-02
                    CP:  4.73D-01
 Iteration  13 EE= -3459.15005799431     Delta-E=       -0.015058324891 Grad=6.875D-02 Max rot=    1.8013 deg.
 Gradient too large for Newton-Raphson -- use scaled steepest descent instead.
 Alpha Gap=     0.319 HL deriv= 9.79D-05
     ILin= 1 X=0.000D+00 Y=-3.459150057994D+03 DE= 0.00D+00 F= -2.25D-02
 RMSU=  3.18D-05    CP:  9.96D-01  3.00D+00 -3.00D+00  1.83D+00 -3.00D+00
                    CP:  3.00D+00  3.00D+00  3.00D+00  3.00D+00  1.65D+00
                    CP:  3.00D+00  3.00D+00  3.00D+00 -2.02D+00  5.01D-01
                    CP:  5.93D-01  1.56D+00
     ILin= 2 X=6.000D-01 Y=-3.459160534635D+03 DE=-1.05D-02 F= -1.23D-02 OKLS=F
 RMSU=  3.07D-06    CP:  9.96D-01  3.00D+00 -3.00D+00  1.82D+00 -3.00D+00
                    CP:  3.00D+00  3.00D+00  3.00D+00  3.00D+00  1.70D+00
                    CP:  3.00D+00  3.00D+00  3.00D+00 -2.30D+00  8.88D-01
                    CP:  6.70D-01  1.80D+00  1.57D+00
     ILin= 3 X=9.000D-01 Y=-3.459163443421D+03 DE=-1.34D-02 F= -7.03D-03
 RMSU=  6.78D-06    CP:  9.96D-01  3.00D+00 -3.00D+00  1.80D+00 -3.00D+00
                    CP:  3.00D+00  3.00D+00  3.00D+00  3.00D+00  1.78D+00
                    CP:  3.00D+00  3.00D+00  3.00D+00 -3.00D+00  1.66D+00
                    CP:  9.23D-01  2.14D+00  2.66D+00  3.00D+00
     ILin= 4 X=1.500D+00 Y=-3.459164411394D+03 DE=-1.44D-02 F=  3.85D-03
     Accept linear search using points  3 and  4.
     An  expanding polynomial of degree  4 produced  1.2373
 Restarting incremental Fock formation.
 Iteration  14 EE= -3459.16479212743     Delta-E=       -0.014734133118 Grad=1.482D-01 Max rot=    2.0802 deg.
 Gradient too large for Newton-Raphson -- use scaled steepest descent instead.
 Alpha Gap=     0.287 HL deriv= 3.98D-05
     ILin= 1 X=0.000D+00 Y=-3.459164792127D+03 DE= 0.00D+00 F= -8.42D-02
 RMSU=  1.92D-04    CP:  9.99D-01
     ILin= 2 X=6.000D-01 Y=-3.459167510396D+03 DE=-2.72D-03 F=  7.66D-02 OKLS=T
     Accept linear search using points  1 and  2.
     An  expanding polynomial of degree  2 produced  0.3082
 RMSU=  4.45D-06    CP:  9.99D-01  5.16D-01
 Iteration  15 EE= -3459.17826910837     Delta-E=       -0.013476980941 Grad=7.908D-02 Max rot=    2.4897 deg.
 Gradient too large for Newton-Raphson -- use scaled steepest descent instead.
 Alpha Gap=     0.302 HL deriv= 1.25D-05
     ILin= 1 X=0.000D+00 Y=-3.459178269108D+03 DE= 0.00D+00 F= -2.61D-02
 RMSU=  1.04D-04    CP:  1.00D+00  4.27D-01  2.13D-01
     ILin= 2 X=6.000D-01 Y=-3.459192008449D+03 DE=-1.37D-02 F= -1.96D-02 OKLS=F
 RMSU=  7.99D-06    CP:  1.00D+00  3.66D-01 -8.74D-01  1.66D+00
     ILin= 3 X=1.000D+00 Y=-3.459198902463D+03 DE=-2.06D-02 F= -1.49D-02
 RMSU=  7.93D-06    CP:  1.00D+00  2.72D-01 -3.00D+00  2.63D+00  3.00D+00
     ILin= 4 X=1.600D+00 Y=-3.459205655904D+03 DE=-2.74D-02 F= -7.58D-03
 RMSU=  1.14D-04    CP:  9.99D-01  1.21D-01 -3.00D+00  3.00D+00  3.00D+00
                    CP:  3.00D+00
     ILin= 5 X=2.500D+00 Y=-3.459207422542D+03 DE=-2.92D-02 F=  3.69D-03
     Accept linear search using points  4 and  5.
     An  expanding polynomial of degree  5 produced  2.1859
 RMSU=  3.33D-06    CP:  1.00D+00  1.75D-01 -3.00D+00  3.00D+00  3.00D+00
                    CP:  3.00D+00  5.24D-01
 Iteration  16 EE= -3459.20796060301     Delta-E=       -0.029691494648 Grad=2.745D-01 Max rot=    3.0555 deg.
 Gradient too large for Newton-Raphson -- use scaled steepest descent instead.
 Alpha Gap=     0.269 HL deriv= 1.55D-04
     ILin= 1 X=0.000D+00 Y=-3.459207960603D+03 DE= 0.00D+00 F= -3.07D-01
 RMSU=  1.94D-04    CP:  9.96D-01  2.58D+00 -3.00D+00  2.70D+00  3.00D+00
                    CP:  3.00D+00  3.11D-01 -3.00D+00
     ILin= 2 X=8.000D-01 Y=-3.459132751506D+03 DE= 7.52D-02 F=  5.11D-01 OKLS=T
     Reject lnstep IMin12=  1  2 Big=F Turn=F Min= 3.382D-01 FVal=-3.459274811998D+03 Lims=  0.00D+00  8.00D-01
 RMSU=  2.32D-05    CP:  9.98D-01  1.10D+00 -3.00D+00  3.00D+00  3.00D+00
                    CP:  3.00D+00  3.33D-01 -3.00D+00  3.44D-01
     ILin= 3 X=3.000D-01 Y=-3.459256992263D+03 DE=-4.90D-02 F= -1.38D-02
     A contracting polynomial of degree  3 produced  0.3087
     Minimum is close to point  3 DX=  8.71D-03 DF= -3.91D-05 DXR=  2.82D-02 DFR=  7.97D-04 which will be used.
 Iteration  17 EE= -3459.25699226292     Delta-E=       -0.049031659910 Grad=1.316D-01 Max rot=    3.8777 deg.
 Gradient too large for Newton-Raphson -- use scaled steepest descent instead.
 Alpha Gap=     0.286 HL deriv= 9.06D-05
     ILin= 1 X=0.000D+00 Y=-3.459256992263D+03 DE= 0.00D+00 F= -1.00D-01
 RMSU=  1.62D-04    CP:  9.97D-01  8.78D-01 -3.00D+00  3.00D+00  3.00D+00
                    CP:  3.00D+00  2.35D+00 -3.00D+00  8.61D-01  1.43D+00
     ILin= 2 X=8.000D-01 Y=-3.459340081993D+03 DE=-8.31D-02 F= -1.04D-01 OKLS=F
 RMSU=  5.28D-05    CP:  9.96D-01  7.40D-01 -3.00D+00  3.00D+00  3.00D+00
                    CP:  3.00D+00  3.00D+00 -3.00D+00  1.11D+00  4.98D-01
                    CP:  1.58D+00
     ILin= 3 X=1.200D+00 Y=-3.459380240711D+03 DE=-1.23D-01 F= -9.57D-02
 RMSU=  3.65D-05    CP:  9.95D-01  5.84D-01 -3.00D+00  3.00D+00  3.00D+00
                    CP:  3.00D+00  3.00D+00 -3.00D+00  1.33D+00 -1.12D+00
                    CP:  2.14D+00  2.88D+00
     ILin= 4 X=1.600D+00 Y=-3.459415558891D+03 DE=-1.59D-01 F= -7.96D-02
 RMSU=  1.99D-04    CP:  9.94D-01  2.74D-01 -3.00D+00  3.00D+00  3.00D+00
                    CP:  3.00D+00  3.00D+00 -3.00D+00  1.54D+00 -3.00D+00
                    CP:  2.92D+00  3.00D+00  7.41D-01
     ILin= 5 X=2.300D+00 Y=-3.459456255167D+03 DE=-1.99D-01 F= -3.30D-02
 RMSU=  1.28D-04    CP:  9.92D-01 -2.15D-01 -3.00D+00  3.00D+00  3.00D+00
                    CP:  3.00D+00  3.00D+00 -3.00D+00  1.38D+00 -3.00D+00
                    CP:  3.00D+00  3.00D+00 -3.00D+00  2.50D+00
     ILin= 6 X=3.300D+00 Y=-3.459443414066D+03 DE=-1.86D-01 F=  6.23D-02
     An  expanding polynomial of degree  6 produced  2.6746
 RMSU=  1.67D-05    CP:  9.93D-01  9.37D-02 -3.00D+00  3.00D+00  3.00D+00
                    CP:  3.00D+00  3.00D+00 -3.00D+00  1.54D+00 -3.00D+00
                    CP:  3.00D+00  3.00D+00 -3.15D-01  1.60D+00  3.35D-01
 Iteration  18 EE= -3459.46258186763     Delta-E=       -0.205589604710 Grad=3.943D-01 Max rot=    4.5730 deg.
 Gradient too large for Newton-Raphson -- use scaled steepest descent instead.
 Alpha Gap=     0.276 HL deriv= 1.23D-05
     ILin= 1 X=0.000D+00 Y=-3.459462581868D+03 DE= 0.00D+00 F= -5.43D-01
 RMSU=  3.83D-04    CP:  9.89D-01  2.63D+00 -3.00D+00  2.82D+00  3.00D+00
                    CP:  3.00D+00  2.42D+00 -3.00D+00  2.37D+00 -3.00D+00
                    CP:  2.88D+00  3.00D+00 -3.00D+00  1.44D+00  5.32D-01
                    CP:  7.42D-01
     ILin= 2 X=9.000D-01 Y=-3.459338616134D+03 DE= 1.24D-01 F=  8.18D-01 OKLS=T
     Reject lnstep IMin12=  1  2 Big=F Turn=F Min= 3.721D-01 FVal=-3.459575768085D+03 Lims=  0.00D+00  9.00D-01
 RMSU=  3.70D-05    CP:  9.91D-01  1.26D+00 -3.00D+00  3.00D+00  3.00D+00
                    CP:  3.00D+00  3.00D+00 -3.00D+00  1.93D+00 -3.00D+00
                    CP:  3.00D+00  3.00D+00 -3.00D+00  1.50D+00  3.32D-01
                    CP:  8.00D-01  4.28D-01
     ILin= 3 X=4.000D-01 Y=-3.459560678467D+03 DE=-9.81D-02 F=  6.02D-02
     A contracting polynomial of degree  3 produced  0.3601
 RMSU=  7.75D-06    CP:  9.91D-01  1.15D+00 -3.00D+00  3.00D+00  3.00D+00
                    CP:  3.00D+00  3.00D+00 -3.00D+00  1.89D+00 -3.00D+00
                    CP:  3.00D+00  3.00D+00 -3.00D+00  1.51D+00  3.22D-01
                    CP:  8.68D-01  3.80D-01  1.05D+00
 Iteration  19 EE= -3459.56184813452     Delta-E=       -0.099266266887 Grad=1.926D-01 Max rot=    5.8468 deg.
 Gradient too large for Newton-Raphson -- use scaled steepest descent instead.
 Alpha Gap=     0.283 HL deriv= 4.41D-06
     ILin= 1 X=0.000D+00 Y=-3.459561848135D+03 DE= 0.00D+00 F= -1.28D-01
 RMSU=  2.73D-04    CP:  9.91D-01  5.61D-01 -3.00D+00  3.00D+00  3.00D+00
                    CP:  3.00D+00  3.00D+00 -3.00D+00  2.17D+00 -3.00D+00
                    CP:  2.62D+00  3.00D+00 -2.73D+00  1.78D+00  9.34D-01
                    CP: -3.00D+00  5.19D-01  2.68D+00  1.12D-01
     ILin= 2 X=1.000D+00 Y=-3.459608315110D+03 DE=-4.65D-02 F=  2.75D-02 OKLS=T
     Accept linear search using points  1 and  2.
     An  expanding polynomial of degree  2 produced  0.7999
 Restarting incremental Fock formation.
 Iteration  20 EE= -3459.61113987588     Delta-E=       -0.049291741358 Grad=2.402D-01 Max rot=    5.2749 deg.
 Gradient too large for Newton-Raphson -- use scaled steepest descent instead.
 Alpha Gap=     0.273 HL deriv= 2.73D-05
     ILin= 1 X=0.000D+00 Y=-3.459611139876D+03 DE= 0.00D+00 F= -4.79D-01
 RMSU=  6.03D-04    CP:  9.96D-01
     ILin= 2 X=5.000D-01 Y=-3.459794556027D+03 DE=-1.83D-01 F= -2.09D-01 OKLS=F
 RMSU=  2.55D-04    CP:  9.94D-01  1.42D+00
     ILin= 3 X=8.000D-01 Y=-3.459817744682D+03 DE=-2.07D-01 F=  6.35D-02
     Accept linear search using points  2 and  3.
     An  expanding polynomial of degree  3 produced  0.6482
 RMSU=  2.84D-06    CP:  9.95D-01  1.24D+00  4.16D-01
 Iteration  21 EE= -3459.81623869500     Delta-E=       -0.205098819126 Grad=1.624D-01 Max rot=    2.0159 deg.
 Gradient too large for Newton-Raphson -- use scaled steepest descent instead.
 Alpha Gap=     0.279 HL deriv= 1.75D-05
     ILin= 1 X=0.000D+00 Y=-3.459816238695D+03 DE= 0.00D+00 F= -1.00D-01
 RMSU=  2.03D-04    CP:  9.95D-01  1.25D+00  6.69D-01  3.00D+00
     ILin= 2 X=7.000D-01 Y=-3.459850049306D+03 DE=-3.38D-02 F=  8.96D-04 OKLS=T
     Accept linear search using points  1 and  2.
     An  expanding polynomial of degree  2 produced  0.6741
     Minimum is close to point  2 DX= -2.59D-02 DF= -1.70D-05 DXR=  3.84D-02 DFR=  5.02D-04 which will be used.
 Iteration  22 EE= -3459.85004930586     Delta-E=       -0.033810610857 Grad=1.373D-01 Max rot=    1.1664 deg.
 Gradient too large for Newton-Raphson -- use scaled steepest descent instead.
 Alpha Gap=     0.275 HL deriv= 1.85D-05
     ILin= 1 X=0.000D+00 Y=-3.459850049306D+03 DE= 0.00D+00 F= -6.26D-02
 RMSU=  1.44D-04    CP:  9.94D-01  1.32D+00  9.25D-01 -3.00D+00  9.59D-01
     ILin= 2 X=7.000D-01 Y=-3.459859622784D+03 DE=-9.57D-03 F=  3.62D-02 OKLS=T
     Accept linear search using points  1 and  2.
     An  expanding polynomial of degree  2 produced  0.4061
 RMSU=  5.87D-06    CP:  9.94D-01  1.29D+00  8.16D-01  3.00D+00  9.58D-01
                    CP:  6.31D-01
 Iteration  23 EE= -3459.86404076486     Delta-E=       -0.013991459000 Grad=5.572D-02 Max rot=    0.8200 deg.
 Gradient too large for Newton-Raphson -- use scaled steepest descent instead.
 Alpha Gap=     0.277 HL deriv= 9.75D-06
     ILin= 1 X=0.000D+00 Y=-3.459864040765D+03 DE= 0.00D+00 F= -1.28D-02
 RMSU=  2.15D-05    CP:  9.94D-01  1.28D+00  8.74D-01  3.00D+00  1.17D+00
                    CP:  7.26D-01  2.70D-01
     ILin= 2 X=5.000D-01 Y=-3.459868850249D+03 DE=-4.81D-03 F= -6.51D-03 OKLS=F
 RMSU=  2.47D-06    CP:  9.94D-01  1.27D+00  9.19D-01  3.00D+00  1.34D+00
                    CP:  8.03D-01 -4.48D-01  1.85D+00
     ILin= 3 X=9.000D-01 Y=-3.459870480211D+03 DE=-6.44D-03 F= -1.66D-03
 RMSU=  1.02D-05    CP:  9.94D-01  1.25D+00  9.98D-01  3.00D+00  1.62D+00
                    CP:  9.37D-01 -1.97D+00  3.00D+00  3.00D+00
     ILin= 4 X=1.600D+00 Y=-3.459868763239D+03 DE=-4.72D-03 F=  6.49D-03
     An  expanding polynomial of degree  4 produced  1.0397
 RMSU=  1.32D-08    CP:  9.94D-01  1.27D+00  9.35D-01  3.00D+00  1.40D+00
                    CP:  8.30D-01 -7.25D-01  2.15D+00  1.56D+00  2.65D-05
 Iteration  24 EE= -3459.87059580620     Delta-E=       -0.006555041342 Grad=5.841D-02 Max rot=    0.4036 deg.
 Gradient too large for Newton-Raphson -- use scaled steepest descent instead.
 Alpha Gap=     0.276 HL deriv= 3.79D-06
     ILin= 1 X=0.000D+00 Y=-3.459870595806D+03 DE= 0.00D+00 F= -1.05D-02
 RMSU=  1.84D-05    CP:  9.93D-01  1.28D+00  1.00D+00 -3.32D-01  1.35D+00
                    CP:  1.12D+00 -1.59D+00  1.94D+00  2.77D+00 -1.71D-02
                    CP: -3.00D+00
     ILin= 2 X=6.000D-01 Y=-3.459871756795D+03 DE=-1.16D-03 F=  6.70D-03 OKLS=T
     Accept linear search using points  1 and  2.
     An  expanding polynomial of degree  2 produced  0.3278
 RMSU=  7.16D-07    CP:  9.94D-01  1.28D+00  9.71D-01  3.00D+00  1.36D+00
                    CP:  1.01D+00 -7.36D-01  2.04D+00  2.39D+00 -9.26D-03
                    CP: -3.00D+00  5.47D-01
 Iteration  25 EE= -3459.87251132912     Delta-E=       -0.001915522917 Grad=1.515D-02 Max rot=    0.2348 deg.
 Gradient too large for Newton-Raphson -- use scaled steepest descent instead.
 Alpha Gap=     0.277 HL deriv= 1.39D-06
     ILin= 1 X=0.000D+00 Y=-3.459872511329D+03 DE= 0.00D+00 F= -9.93D-04
 RMSU=  4.34D-06    CP:  9.94D-01  1.27D+00  9.89D-01  3.00D+00  1.41D+00
                    CP:  1.08D+00 -1.05D+00  2.51D+00  2.72D+00 -1.38D-02
                    CP: -3.00D+00  7.43D-01  1.54D+00
     ILin= 2 X=6.000D-01 Y=-3.459872990845D+03 DE=-4.80D-04 F= -6.05D-04 OKLS=F
 RMSU=  4.92D-07    CP:  9.93D-01  1.27D+00  1.01D+00  3.00D+00  1.45D+00
                    CP:  1.15D+00 -1.38D+00  2.99D+00  3.00D+00  5.37D-03
                    CP: -3.00D+00  9.39D-01  2.15D+00  2.00D+00
     ILin= 3 X=1.200D+00 Y=-3.459873237388D+03 DE=-7.26D-04 F= -2.16D-04
 RMSU=  5.63D-06    CP:  9.93D-01  1.26D+00  1.04D+00  2.26D+00  1.53D+00
                    CP:  1.26D+00 -2.23D+00  3.00D+00  3.00D+00  1.79D+00
                    CP: -3.00D+00  1.30D+00  2.90D+00  3.00D+00 -3.00D+00
     ILin= 4 X=2.300D+00 Y=-3.459873079564D+03 DE=-5.68D-04 F=  5.04D-04
     An  expanding polynomial of degree  4 produced  1.5311
 RMSU=  6.37D-07    CP:  9.93D-01  1.27D+00  1.02D+00  3.00D+00  1.48D+00
                    CP:  1.19D+00 -1.58D+00  3.00D+00  3.00D+00  5.29D-01
                    CP: -3.00D+00  1.05D+00  2.50D+00  2.56D+00 -2.36D+00
                    CP:  5.64D-02
 Iteration  26 EE= -3459.87327316611     Delta-E=       -0.000761836993 Grad=1.107D-02 Max rot=    0.0578 deg.
 Gradient too large for Newton-Raphson -- use scaled steepest descent instead.
 Alpha Gap=     0.277 HL deriv= 2.94D-06
     ILin= 1 X=0.000D+00 Y=-3.459873273166D+03 DE= 0.00D+00 F= -3.77D-04
 RMSU=  4.99D-06    CP:  9.93D-01  1.26D+00  1.01D+00  3.00D+00  1.49D+00
                    CP:  1.18D+00 -2.04D+00  3.00D+00  3.00D+00  4.72D-01
                    CP: -3.00D+00  1.43D+00  1.31D+00  1.31D+00 -1.24D+00
                    CP:  9.55D-02  1.71D+00
     ILin= 2 X=7.000D-01 Y=-3.459873258938D+03 DE= 1.42D-05 F=  4.18D-04 OKLS=T
     Reject lnstep IMin12=  1  2 Big=F Turn=F Min= 3.401D-01 FVal=-3.459873365545D+03 Lims=  0.00D+00  7.00D-01
 RMSU=  5.89D-09    CP:  9.93D-01  1.26D+00  1.01D+00  3.00D+00  1.48D+00
                    CP:  1.18D+00 -1.78D+00  3.00D+00  3.00D+00  5.04D-01
                    CP: -3.00D+00  1.21D+00  1.99D+00  2.03D+00 -1.88D+00
                    CP:  7.32D-02  1.30D+00  4.28D-01
     ILin= 3 X=3.000D-01 Y=-3.459873335245D+03 DE=-6.21D-05 F= -3.65D-05
     A contracting polynomial of degree  3 produced  0.3321
     Minimum is close to point  3 DX=  3.21D-02 DF= -5.86D-07 DXR=  9.67D-02 DFR=  9.44D-03 which will be used.
 Iteration  27 EE= -3459.87333524514     Delta-E=       -0.000062079027 Grad=1.937D-03 Max rot=    0.0180 deg.
 SCF Done:  E(RPBE1PBE) =  -3459.87333525     a.u. after   27 cycles
            Convg  =    0.1937D-02                    79 Fock formations.
              S**2 =  0.0000                  -V/T =  2.0585
 Leave Link  508 at Fri Feb 26 11:21:07 2021, MaxMem=  7864320000 cpu:          152705.9 elap:            4843.8
 (Enter /apps/gaussian/g16-c01-avx/g16/l502.exe)
 Integral symmetry usage will be decided dynamically.
 Closed shell SCF:
 Using DIIS extrapolation, IDIIS=  1040.
 NGot=  7864320000 LenX=  7859681002 LenY=  7857393346
 Requested convergence on RMS density matrix=1.00D-08 within 128 cycles.
 Requested convergence on MAX density matrix=1.00D-06.
 Requested convergence on             energy=1.00D-06.
 No special actions if energy rises.
 Fock matrices will be formed incrementally for  20 cycles.

 Cycle   1  Pass 1  IDiag  1:
 FoFJK:  IHMeth= 1 ICntrl=       0 DoSepK=F KAlg= 0 I1Cent=           0 FoldK=F
 IRaf= 650000000 NMat=       1 IRICut=       1 DoRegI=T DoRafI=F ISym2E= 0 IDoP0=0 IntGTp=1.
 FoFCou: FMM=T IPFlag=           0 FMFlag=      100000 FMFlg1=        2001
         NFxFlg=           0 DoJE=F BraDBF=F KetDBF=F FulRan=T
         wScrn=  0.000000 ICntrl=         0 IOpCl=  0 I1Cent=           0 NGrid=           0
         NMat0=    1 NMatS0=      1 NMatT0=    0 NMatD0=    1 NMtDS0=    0 NMtDT0=    0
 Symmetry not used in FoFCou.
 FMM levels:  10  Number of levels for PrismC:   9
 E= -3459.87333524511    
 DIIS: error= 1.43D-04 at cycle   1 NSaved=   1.
 NSaved= 1 IEnMin= 1 EnMin= -3459.87333524511     IErMin= 1 ErrMin= 1.43D-04
 ErrMax= 1.43D-04  0.00D+00 EMaxC= 1.00D-01 BMatC= 1.88D-06 BMatP= 1.88D-06
 IDIUse=3 WtCom= 9.99D-01 WtEn= 1.43D-03
 Coeff-Com:  0.100D+01
 Coeff-En:   0.100D+01
 Coeff:      0.100D+01
 Gap=     0.277 Goal=   None    Shift=    0.000
 RMSDP=5.28D-06 MaxDP=1.43D-03              OVMax= 3.25D-03

 Cycle   2  Pass 1  IDiag  1:
 RMSU=  5.28D-06    CP:  1.00D+00
 E= -3459.87334365622     Delta-E=       -0.000008411103 Rises=F Damp=F
 DIIS: error= 7.11D-05 at cycle   2 NSaved=   2.
 NSaved= 2 IEnMin= 2 EnMin= -3459.87334365622     IErMin= 2 ErrMin= 7.11D-05
 ErrMax= 7.11D-05  0.00D+00 EMaxC= 1.00D-01 BMatC= 1.87D-06 BMatP= 1.88D-06
 IDIUse=1 WtCom= 1.00D+00 WtEn= 0.00D+00
 Coeff-Com:  0.499D+00 0.501D+00
 Coeff:      0.499D+00 0.501D+00
 Gap=     0.166 Goal=   None    Shift=    0.000
 RMSDP=1.54D-06 MaxDP=4.80D-04 DE=-8.41D-06 OVMax= 4.28D-04

 Cycle   3  Pass 1  IDiag  1:
 RMSU=  1.53D-06    CP:  1.00D+00  9.80D-01
 E= -3459.87334514016     Delta-E=       -0.000001483941 Rises=F Damp=F
 DIIS: error= 3.75D-05 at cycle   3 NSaved=   3.
 NSaved= 3 IEnMin= 3 EnMin= -3459.87334514016     IErMin= 3 ErrMin= 3.75D-05
 ErrMax= 3.75D-05  0.00D+00 EMaxC= 1.00D-01 BMatC= 4.34D-07 BMatP= 1.87D-06
 IDIUse=1 WtCom= 1.00D+00 WtEn= 0.00D+00
 Coeff-Com: -0.748D-01 0.315D+00 0.760D+00
 Coeff:     -0.748D-01 0.315D+00 0.760D+00
 Gap=     0.166 Goal=   None    Shift=    0.000
 RMSDP=8.63D-07 MaxDP=2.91D-04 DE=-1.48D-06 OVMax= 4.32D-04

 Cycle   4  Pass 1  IDiag  1:
 RMSU=  4.85D-07    CP:  1.00D+00  1.10D+00  7.86D-01
 E= -3459.87334562375     Delta-E=       -0.000000483595 Rises=F Damp=F
 DIIS: error= 8.01D-06 at cycle   4 NSaved=   4.
 NSaved= 4 IEnMin= 4 EnMin= -3459.87334562375     IErMin= 4 ErrMin= 8.01D-06
 ErrMax= 8.01D-06  0.00D+00 EMaxC= 1.00D-01 BMatC= 5.05D-08 BMatP= 4.34D-07
 IDIUse=1 WtCom= 1.00D+00 WtEn= 0.00D+00
 Coeff-Com: -0.761D-01 0.129D+00 0.418D+00 0.530D+00
 Coeff:     -0.761D-01 0.129D+00 0.418D+00 0.530D+00
 Gap=     0.166 Goal=   None    Shift=    0.000
 RMSDP=2.25D-07 MaxDP=4.59D-05 DE=-4.84D-07 OVMax= 4.94D-05

 Cycle   5  Pass 1  IDiag  1:
 RMSU=  1.74D-07    CP:  1.00D+00  1.11D+00  8.40D-01  7.95D-01
 E= -3459.87334567928     Delta-E=       -0.000000055532 Rises=F Damp=F
 DIIS: error= 1.75D-06 at cycle   5 NSaved=   5.
 NSaved= 5 IEnMin= 5 EnMin= -3459.87334567928     IErMin= 5 ErrMin= 1.75D-06
 ErrMax= 1.75D-06  0.00D+00 EMaxC= 1.00D-01 BMatC= 2.24D-09 BMatP= 5.05D-08
 IDIUse=1 WtCom= 1.00D+00 WtEn= 0.00D+00
 Coeff-Com: -0.193D-01 0.189D-01 0.876D-01 0.200D+00 0.712D+00
 Coeff:     -0.193D-01 0.189D-01 0.876D-01 0.200D+00 0.712D+00
 Gap=     0.166 Goal=   None    Shift=    0.000
 RMSDP=6.73D-08 MaxDP=1.80D-05 DE=-5.55D-08 OVMax= 2.21D-05

 Cycle   6  Pass 1  IDiag  1:
 RMSU=  6.21D-08    CP:  1.00D+00  1.11D+00  8.46D-01  8.40D-01  9.97D-01
 E= -3459.87334568132     Delta-E=       -0.000000002035 Rises=F Damp=F
 DIIS: error= 1.24D-06 at cycle   6 NSaved=   6.
 NSaved= 6 IEnMin= 6 EnMin= -3459.87334568132     IErMin= 6 ErrMin= 1.24D-06
 ErrMax= 1.24D-06  0.00D+00 EMaxC= 1.00D-01 BMatC= 1.23D-09 BMatP= 2.24D-09
 IDIUse=1 WtCom= 1.00D+00 WtEn= 0.00D+00
 Coeff-Com:  0.240D-02-0.123D-01-0.243D-01 0.283D-01 0.469D+00 0.537D+00
 Coeff:      0.240D-02-0.123D-01-0.243D-01 0.283D-01 0.469D+00 0.537D+00
 Gap=     0.166 Goal=   None    Shift=    0.000
 RMSDP=3.43D-08 MaxDP=8.44D-06 DE=-2.04D-09 OVMax= 9.30D-06

 Cycle   7  Pass 1  IDiag  1:
 RMSU=  2.27D-08    CP:  1.00D+00  1.11D+00  8.46D-01  8.69D-01  1.06D+00
                    CP:  7.15D-01
 E= -3459.87334568251     Delta-E=       -0.000000001190 Rises=F Damp=F
 DIIS: error= 3.82D-07 at cycle   7 NSaved=   7.
 NSaved= 7 IEnMin= 7 EnMin= -3459.87334568251     IErMin= 7 ErrMin= 3.82D-07
 ErrMax= 3.82D-07  0.00D+00 EMaxC= 1.00D-01 BMatC= 1.14D-10 BMatP= 1.23D-09
 IDIUse=1 WtCom= 1.00D+00 WtEn= 0.00D+00
 Coeff-Com:  0.370D-02-0.100D-01-0.266D-01-0.655D-02 0.198D+00 0.305D+00
 Coeff-Com:  0.536D+00
 Coeff:      0.370D-02-0.100D-01-0.266D-01-0.655D-02 0.198D+00 0.305D+00
 Coeff:      0.536D+00
 Gap=     0.166 Goal=   None    Shift=    0.000
 RMSDP=1.20D-08 MaxDP=3.41D-06 DE=-1.19D-09 OVMax= 3.55D-06

 Cycle   8  Pass 1  IDiag  1:
 RMSU=  9.80D-09    CP:  1.00D+00  1.11D+00  8.48D-01  8.76D-01  1.08D+00
                    CP:  7.65D-01  8.71D-01
 E= -3459.87334568270     Delta-E=       -0.000000000193 Rises=F Damp=F
 DIIS: error= 1.65D-07 at cycle   8 NSaved=   8.
 NSaved= 8 IEnMin= 8 EnMin= -3459.87334568270     IErMin= 8 ErrMin= 1.65D-07
 ErrMax= 1.65D-07  0.00D+00 EMaxC= 1.00D-01 BMatC= 1.88D-11 BMatP= 1.14D-10
 IDIUse=1 WtCom= 1.00D+00 WtEn= 0.00D+00
 Coeff-Com:  0.171D-02-0.332D-02-0.110D-01-0.915D-02 0.196D-01 0.629D-01
 Coeff-Com:  0.313D+00 0.627D+00
 Coeff:      0.171D-02-0.332D-02-0.110D-01-0.915D-02 0.196D-01 0.629D-01
 Coeff:      0.313D+00 0.627D+00
 Gap=     0.166 Goal=   None    Shift=    0.000
 RMSDP=5.53D-09 MaxDP=2.07D-06 DE=-1.93D-10 OVMax= 2.13D-06

 Cycle   9  Pass 1  IDiag  1:
 RMSU=  3.75D-09    CP:  1.00D+00  1.11D+00  8.47D-01  8.79D-01  1.09D+00
                    CP:  7.85D-01  9.90D-01  9.05D-01
 E= -3459.87334568255     Delta-E=        0.000000000155 Rises=F Damp=F
 DIIS: error= 6.26D-08 at cycle   9 NSaved=   9.
 NSaved= 9 IEnMin= 8 EnMin= -3459.87334568270     IErMin= 9 ErrMin= 6.26D-08
 ErrMax= 6.26D-08  0.00D+00 EMaxC= 1.00D-01 BMatC= 2.14D-12 BMatP= 1.88D-11
 IDIUse=1 WtCom= 1.00D+00 WtEn= 0.00D+00
 Coeff-Com:  0.143D-03 0.299D-03-0.427D-03-0.359D-02-0.303D-01-0.297D-01
 Coeff-Com:  0.479D-01 0.305D+00 0.710D+00
 Coeff:      0.143D-03 0.299D-03-0.427D-03-0.359D-02-0.303D-01-0.297D-01
 Coeff:      0.479D-01 0.305D+00 0.710D+00
 Gap=     0.166 Goal=   None    Shift=    0.000
 RMSDP=2.35D-09 MaxDP=9.85D-07 DE= 1.55D-10 OVMax= 9.05D-07

 Error on total polarization charges =  0.02339
 SCF Done:  E(RPBE1PBE) =  -3459.87334568     A.U. after    9 cycles
            NFock=  9  Conv=0.24D-08     -V/T= 2.0585
 KE= 3.268580428782D+03 PE=-3.541756536919D+04 EE= 1.487223725352D+04
 Leave Link  502 at Fri Feb 26 11:29:34 2021, MaxMem=  7864320000 cpu:           16019.6 elap:             506.3
 (Enter /apps/gaussian/g16-c01-avx/g16/l508.exe)
 QCSCF skips out because SCF is already converged.
 Leave Link  508 at Fri Feb 26 11:29:34 2021, MaxMem=  7864320000 cpu:               0.2 elap:               0.2
 (Enter /apps/gaussian/g16-c01-avx/g16/l601.exe)
 Copying SCF densities to generalized density rwf, IOpCl= 0 IROHF=0.
 Hyperfine terms turned off by default for NAtoms > 100.

 **********************************************************************

            Population analysis using the SCF Density.

 **********************************************************************

 Orbital symmetries:
       Occupied  (A) (A) (A) (A) (A) (A) (A) (A) (A) (A) (A) (A)
                 (A) (A) (A) (A) (A) (A) (A) (A) (A) (A) (A) (A)
                 (A) (A) (A) (A) (A) (A) (A) (A) (A) (A) (A) (A)
                 (A) (A) (A) (A) (A) (A) (A) (A) (A) (A) (A) (A)
                 (A) (A) (A) (A) (A) (A) (A) (A) (A) (A) (A) (A)
                 (A) (A) (A) (A) (A) (A) (A) (A) (A) (A) (A) (A)
                 (A) (A) (A) (A) (A) (A) (A) (A) (A) (A) (A) (A)
                 (A) (A) (A) (A) (A) (A) (A) (A) (A) (A) (A) (A)
                 (A) (A) (A) (A) (A) (A) (A) (A) (A) (A) (A) (A)
                 (A) (A) (A) (A) (A) (A) (A) (A) (A) (A) (A) (A)
                 (A) (A) (A) (A) (A) (A) (A) (A) (A) (A) (A) (A)
                 (A) (A) (A) (A) (A) (A) (A) (A) (A) (A) (A) (A)
                 (A) (A) (A) (A) (A) (A) (A) (A) (A) (A) (A) (A)
                 (A) (A) (A) (A) (A) (A) (A) (A) (A) (A) (A) (A)
                 (A) (A) (A) (A) (A) (A) (A) (A) (A) (A) (A) (A)
                 (A) (A) (A) (A) (A) (A) (A) (A) (A) (A) (A) (A)
                 (A) (A) (A) (A) (A) (A) (A) (A) (A) (A) (A) (A)
                 (A) (A) (A) (A) (A) (A) (A) (A) (A) (A) (A) (A)
                 (A) (A) (A) (A) (A) (A) (A) (A) (A) (A) (A) (A)
                 (A) (A) (A) (A) (A) (A) (A) (A) (A) (A) (A) (A)
                 (A) (A) (A) (A) (A) (A) (A) (A) (A) (A) (A) (A)
                 (A) (A) (A) (A) (A) (A) (A) (A) (A) (A) (A) (A)
                 (A) (A) (A) (A) (A) (A) (A) (A) (A) (A) (A) (A)
                 (A) (A) (A) (A) (A) (A) (A) (A)
       Virtual   (A) (A) (A) (A) (A) (A) (A) (A) (A) (A) (A) (A)
                 (A) (A) (A) (A) (A) (A) (A) (A) (A) (A) (A) (A)
                 (A) (A) (A) (A) (A) (A) (A) (A) (A) (A) (A) (A)
                 (A) (A) (A) (A) (A) (A) (A) (A) (A) (A) (A) (A)
                 (A) (A) (A) (A) (A) (A) (A) (A) (A) (A) (A) (A)
                 (A) (A) (A) (A) (A) (A) (A) (A) (A) (A) (A) (A)
                 (A) (A) (A) (A) (A) (A) (A) (A) (A) (A) (A) (A)
                 (A) (A) (A) (A) (A) (A) (A) (A) (A) (A) (A) (A)
                 (A) (A) (A) (A) (A) (A) (A) (A) (A) (A) (A) (A)
                 (A) (A) (A) (A) (A) (A) (A) (A) (A) (A) (A) (A)
                 (A) (A) (A) (A) (A) (A) (A) (A) (A) (A) (A) (A)
[...]
 Alpha virt. eigenvalues --    1.26252   1.26257   1.26439   1.26969   1.26974
 Alpha virt. eigenvalues --    1.27043   1.27269   1.28121   1.28250   1.28260
 Alpha virt. eigenvalues --    1.28419   1.28532   1.28538   1.28834   1.29330
 Alpha virt. eigenvalues --    1.29424   1.29438   1.29742   1.29811   1.30322
 Alpha virt. eigenvalues --    1.30759   1.30767   1.30802   1.31614   1.31909
 Alpha virt. eigenvalues --    1.31929   1.32317   1.32537   1.33113   1.33126
 Alpha virt. eigenvalues --    1.33700   1.35659   1.35668   1.35802   1.36038
 Alpha virt. eigenvalues --    1.36240   1.36244   1.37915   1.38531   1.40128
 Alpha virt. eigenvalues --    1.40137   1.40962   1.40974   1.44663   1.45590
 Alpha virt. eigenvalues --    1.46416   1.48409   1.48419   1.48458   1.49034
 Alpha virt. eigenvalues --    1.49163   1.49166   1.49401   1.50191   1.50394
 Alpha virt. eigenvalues --    1.50483   1.50509   1.51376   1.51390   1.51765
 Alpha virt. eigenvalues --    1.51887   1.51942   1.51953   1.52153   1.52731
 Alpha virt. eigenvalues --    1.52745   1.52771   1.53284   1.53444   1.53464
 Alpha virt. eigenvalues --    1.53541   1.54492   1.54544   1.54724   1.55104
 Alpha virt. eigenvalues --    1.55806   1.55815   1.56504   1.59353   1.59657
 Alpha virt. eigenvalues --    1.61426   1.61681   1.62901   1.62916   1.63279
 Alpha virt. eigenvalues --    1.63562   1.65887   1.65889   1.66700   1.67231
 Alpha virt. eigenvalues --    1.67236   1.67314   1.67452   1.67599   1.67601
 Alpha virt. eigenvalues --    1.67726   1.68031   1.68097   1.68668   1.68670
 Alpha virt. eigenvalues --    1.69106   1.69167   1.69168   1.69592   1.69601
 Alpha virt. eigenvalues --    1.69700   1.69943   1.69945   1.70294   1.70552
 Alpha virt. eigenvalues --    1.70712   1.70714   1.70810   1.71146   1.71163
 Alpha virt. eigenvalues --    1.71166   1.71281   1.71324   1.71920   1.71928
 Alpha virt. eigenvalues --    1.72147   1.73297   1.73298   1.73355   1.73524
 Alpha virt. eigenvalues --    1.73632   1.73714   1.73717   1.73947   1.74011
 Alpha virt. eigenvalues --    1.74013   1.74027   1.74308   1.74667   1.74669
 Alpha virt. eigenvalues --    1.74829   1.74953   1.75067   1.75108   1.75111
 Alpha virt. eigenvalues --    1.75452   1.75597   1.75601   1.75672   1.76163
 Alpha virt. eigenvalues --    1.76166   1.76209   1.76222   1.76509   1.76887
 Alpha virt. eigenvalues --    1.76894   1.77629   1.77646   1.77652   1.77855
 Alpha virt. eigenvalues --    1.78390   1.78921   1.78944   1.78951   1.79426
 Alpha virt. eigenvalues --    1.79907   1.80242   1.80251   1.80271   1.80568
 Alpha virt. eigenvalues --    1.80635   1.81184   1.81186   1.81645   1.81651
 Alpha virt. eigenvalues --    1.81766   1.81939   1.83257   1.83626   1.84000
 Alpha virt. eigenvalues --    1.84011   1.84842   1.85163   1.85172   1.85210
 Alpha virt. eigenvalues --    1.85643   1.85653   1.85931   1.86591   1.86974
 Alpha virt. eigenvalues --    1.87083   1.87106   1.87428   1.87524   1.87548
 Alpha virt. eigenvalues --    1.87587   1.88376   1.88464   1.88850   1.88869
 Alpha virt. eigenvalues --    1.89412   1.90143   1.90217   1.90219   1.91267
 Alpha virt. eigenvalues --    1.91270   1.91279   1.91303   1.91436   1.92206
 Alpha virt. eigenvalues --    1.92378   1.92388   1.92565   1.93023   1.93147
 Alpha virt. eigenvalues --    1.93153   1.93339   1.93950   1.93953   1.94046
 Alpha virt. eigenvalues --    1.94548   1.94661   1.94784   1.94790   1.95137
 Alpha virt. eigenvalues --    1.95141   1.95290   1.95507   1.95672   1.95678
 Alpha virt. eigenvalues --    1.95830   1.95992   1.96232   1.96233   1.96273
 Alpha virt. eigenvalues --    1.96447   1.96927   1.96938   1.96954   1.96983
 Alpha virt. eigenvalues --    1.97658   1.97660   1.97711   1.98014   1.98621
 Alpha virt. eigenvalues --    1.99019   1.99682   2.00163   2.00172   2.01170
 Alpha virt. eigenvalues --    2.01291   2.01989   2.01994   2.02601   2.03162
 Alpha virt. eigenvalues --    2.03164   2.04137   2.04196   2.04210   2.04240
 Alpha virt. eigenvalues --    2.05289   2.05298   2.05641   2.06635   2.07045
 Alpha virt. eigenvalues --    2.07050   2.07224   2.07882   2.08585   2.08828
 Alpha virt. eigenvalues --    2.09136   2.09279   2.09286   2.09600   2.09805
 Alpha virt. eigenvalues --    2.09806   2.09847   2.10272   2.10337   2.10343
 Alpha virt. eigenvalues --    2.10637   2.11203   2.11215   2.11400   2.11410
 Alpha virt. eigenvalues --    2.12537   2.13418   2.13423   2.14147   2.14215
 Alpha virt. eigenvalues --    2.14228   2.15273   2.15539   2.16461   2.16878
 Alpha virt. eigenvalues --    2.16883   2.17668   2.18454   2.18460   2.18639
 Alpha virt. eigenvalues --    2.19040   2.19138   2.19380   2.19384   2.20031
 Alpha virt. eigenvalues --    2.20034   2.20083   2.20457   2.20893   2.21150
 Alpha virt. eigenvalues --    2.21153   2.21579   2.21793   2.22919   2.23871
 Alpha virt. eigenvalues --    2.23878   2.23953   2.24246   2.25549   2.25553
 Alpha virt. eigenvalues --    2.25642   2.25952   2.25955   2.26690   2.26801
 Alpha virt. eigenvalues --    2.26954   2.26960   2.26990   2.27136   2.27449
 Alpha virt. eigenvalues --    2.27456   2.27630   2.27947   2.28079   2.28439
 Alpha virt. eigenvalues --    2.28440   2.29409   2.29487   2.29488   2.29727
 Alpha virt. eigenvalues --    2.30065   2.30178   2.30179   2.30243   2.30851
 Alpha virt. eigenvalues --    2.31056   2.32016   2.32670   2.33038   2.33048
 Alpha virt. eigenvalues --    2.33169   2.33449   2.33620   2.33622   2.33877
 Alpha virt. eigenvalues --    2.34696   2.35266   2.35746   2.35823   2.35825
 Alpha virt. eigenvalues --    2.36230   2.36254   2.36492   2.36496   2.37151
 Alpha virt. eigenvalues --    2.37164   2.37261   2.37624   2.37681   2.37692
 Alpha virt. eigenvalues --    2.37786   2.37865   2.38367   2.38396   2.38410
 Alpha virt. eigenvalues --    2.38415   2.38959   2.38964   2.39314   2.39659
 Alpha virt. eigenvalues --    2.40128   2.40141   2.40489   2.40745   2.41469
 Alpha virt. eigenvalues --    2.41481   2.42725   2.42742   2.43273   2.43334
 Alpha virt. eigenvalues --    2.44959   2.44964   2.46188   2.46190   2.46275
 Alpha virt. eigenvalues --    2.46732   2.47962   2.48784   2.50604   2.50624
 Alpha virt. eigenvalues --    2.50722   2.51131   2.52638   2.53876   2.53897
 Alpha virt. eigenvalues --    2.53997   2.54971   2.55456   2.55957   2.55966
 Alpha virt. eigenvalues --    2.56252   2.56257   2.56275   2.57093   2.57915
 Alpha virt. eigenvalues --    2.57936   2.57980   2.58695   2.59048   2.59492
 Alpha virt. eigenvalues --    2.59499   2.60239   2.60670   2.60689   2.60857
 Alpha virt. eigenvalues --    2.61424   2.61817   2.63345   2.63923   2.63964
 Alpha virt. eigenvalues --    2.63966   2.64374   2.65543   2.65558   2.65566
 Alpha virt. eigenvalues --    2.65697   2.65822   2.65829   2.66319   2.66641
 Alpha virt. eigenvalues --    2.67309   2.69289   2.69580   2.69584   2.70033
 Alpha virt. eigenvalues --    2.70047   2.70882   2.71278   2.71282   2.71869
 Alpha virt. eigenvalues --    2.72109   2.72567   2.72839   2.72841   2.72846
 Alpha virt. eigenvalues --    2.73673   2.73937   2.73951   2.74883   2.74971
 Alpha virt. eigenvalues --    2.75509   2.75529   2.75672   2.75965   2.76051
 Alpha virt. eigenvalues --    2.76072   2.76073   2.76202   2.76226   2.76440
 Alpha virt. eigenvalues --    2.76507   2.76828   2.76897   2.76900   2.77100
 Alpha virt. eigenvalues --    2.77103   2.77135   2.77297   2.77898   2.77906
 Alpha virt. eigenvalues --    2.78065   2.85131   2.86438   2.86449   2.86489
 Alpha virt. eigenvalues --    2.88267   2.88327   2.88329   2.88333   2.88691
 Alpha virt. eigenvalues --    2.89715   2.93501   2.93513   2.93785   2.93791
 Alpha virt. eigenvalues --    2.94078   2.94323   2.94836   2.95199   2.95585
 Alpha virt. eigenvalues --    2.95595   2.96078   2.96766   2.97077   2.97097
 Alpha virt. eigenvalues --    2.97948   2.97954   2.98900   2.99274   2.99600
 Alpha virt. eigenvalues --    2.99606   3.00184   3.00323   3.01131   3.01189
 Alpha virt. eigenvalues --    3.01196   3.02364   3.03605   3.03836   3.03838
 Alpha virt. eigenvalues --    3.05859   3.07546   3.08974   3.08978   3.09353
 Alpha virt. eigenvalues --    3.10870   3.10871   3.11116   3.11377   3.11422
 Alpha virt. eigenvalues --    3.12008   3.12356   3.12360   3.12954   3.12957
 Alpha virt. eigenvalues --    3.13081   3.13955   3.14737   3.15483   3.15485
 Alpha virt. eigenvalues --    3.16238   3.16544   3.18710   3.24218   3.24652
 Alpha virt. eigenvalues --    3.24656   3.26861   3.32549   3.33042   3.33046
 Alpha virt. eigenvalues --    3.34148   3.40475   3.40556   3.40563   3.41132
 Alpha virt. eigenvalues --    3.49849   3.49853   3.50008   3.50138   3.60120
 Alpha virt. eigenvalues --    3.60121   3.60611   3.60617   3.67088   3.67091
 Alpha virt. eigenvalues --    3.67509   3.67641   3.80277   3.80286   3.80597
 Alpha virt. eigenvalues --    3.80608  51.72394  51.73735
          Condensed to atoms (all electrons):
 Mulliken charges:
               1
     1  Pd   0.503773
     2  Pd   0.482255
     3  C    0.011400
     4  C   -0.006808
     5  C   -0.119037
     6  C    0.112315
     7  C   -0.035452
     8  C    0.158058
     9  N   -0.312270
    10  C    0.177040
    11  H    0.064848
    12  H    0.073134
    13  H    0.109453
    14  H    0.093004
    15  C   -0.078492
    16  C    0.025927
    17  C   -0.011252
    18  C   -0.017067
    19  C    0.031741
    20  C   -0.005077
    21  H    0.038607
    22  H    0.046701
    23  H    0.041645
    24  H    0.032694
    25  C   -0.031597
    26  C    0.063866
    27  C   -0.029382
    28  C    0.145602
    29  N   -0.321434
    30  C    0.157006
    31  H    0.064767
    32  H    0.068429
    33  H    0.112805
    34  H    0.092326
    35  C    0.011424
    36  C   -0.006824
    37  C   -0.119060
    38  C    0.112311
    39  C   -0.035441
    40  C    0.158018
    41  N   -0.312179
    42  C    0.177098
    43  H    0.064834
    44  H    0.073108
    45  H    0.109438
    46  H    0.093029
    47  C   -0.078520
    48  C    0.025918
    49  C   -0.011314
    50  C   -0.017001
    51  C    0.031673
    52  C   -0.005054
    53  H    0.038606
    54  H    0.046729
    55  H    0.041636
    56  H    0.032707
    57  C   -0.031754
    58  C    0.063945
    59  C   -0.029552
    60  C    0.145755
    61  N   -0.321425
    62  C    0.157126
    63  H    0.064798
    64  H    0.068480
    65  H    0.112612
    66  H    0.092356
    67  C    0.011282
    68  C   -0.006734
    69  C   -0.119025
    70  C    0.112297
    71  C   -0.035488
    72  C    0.158116
    73  N   -0.312311
    74  C    0.177105
    75  H    0.064892
    76  H    0.073162
    77  H    0.109406
    78  H    0.093017
    79  C   -0.078519
    80  C    0.025939
    81  C   -0.011282
    82  C   -0.017215
    83  C    0.031946
    84  C   -0.005121
    85  H    0.038595
    86  H    0.046745
    87  H    0.041671
    88  H    0.032672
    89  C   -0.031496
    90  C    0.063791
    91  C   -0.029370
    92  C    0.145712
    93  N   -0.321473
    94  C    0.157010
    95  H    0.064751
    96  H    0.068399
    97  H    0.112734
    98  H    0.092319
    99  C    0.011372
   100  C   -0.006782
   101  C   -0.118995
   102  C    0.112300
   103  C   -0.035473
   104  C    0.158056
   105  N   -0.312330
   106  C    0.177105
   107  H    0.064874
   108  H    0.073151
   109  H    0.109431
   110  H    0.092978
   111  C   -0.078565
   112  C    0.025940
   113  C   -0.011269
   114  C   -0.017042
   115  C    0.031758
   116  C   -0.005031
   117  H    0.038626
   118  H    0.046713
   119  H    0.041631
   120  H    0.032684
   121  C   -0.031594
   122  C    0.063925
   123  C   -0.029499
   124  C    0.145731
   125  N   -0.321481
   126  C    0.157077
   127  H    0.064754
   128  H    0.068489
   129  H    0.112624
   130  H    0.092311
 Sum of Mulliken charges =   4.00000
 Mulliken charges with hydrogens summed into heavy atoms:
               1
     1  Pd   0.503773
     2  Pd   0.482255
     3  C    0.011400
     4  C   -0.006808
     5  C   -0.119037
     6  C    0.177163
     7  C    0.037682
     8  C    0.267511
     9  N   -0.312270
    10  C    0.270045
    15  C   -0.078492
    16  C    0.064534
    17  C    0.035449
    18  C    0.024578
    19  C    0.031741
    20  C    0.027617
    25  C   -0.031597
    26  C    0.128632
    27  C    0.039047
    28  C    0.258407
    29  N   -0.321434
    30  C    0.249332
    35  C    0.011424
    36  C   -0.006824
    37  C   -0.119060
    38  C    0.177145
    39  C    0.037667
    40  C    0.267455
    41  N   -0.312179
    42  C    0.270127
    47  C   -0.078520
    48  C    0.064525
    49  C    0.035416
    50  C    0.024635
    51  C    0.031673
    52  C    0.027653
    57  C   -0.031754
    58  C    0.128743
    59  C    0.038928
    60  C    0.258367
    61  N   -0.321425
    62  C    0.249482
    67  C    0.011282
    68  C   -0.006734
    69  C   -0.119025
    70  C    0.177189
    71  C    0.037674
    72  C    0.267522
    73  N   -0.312311
    74  C    0.270122
    79  C   -0.078519
    80  C    0.064534
    81  C    0.035464
    82  C    0.024456
    83  C    0.031946
    84  C    0.027550
    89  C   -0.031496
    90  C    0.128542
    91  C    0.039029
    92  C    0.258446
    93  N   -0.321473
    94  C    0.249329
    99  C    0.011372
   100  C   -0.006782
   101  C   -0.118995
   102  C    0.177174
   103  C    0.037677
   104  C    0.267486
   105  N   -0.312330
   106  C    0.270083
   111  C   -0.078565
   112  C    0.064566
   113  C    0.035444
   114  C    0.024588
   115  C    0.031758
   116  C    0.027653
   121  C   -0.031594
   122  C    0.128679
   123  C    0.038990
   124  C    0.258355
   125  N   -0.321481
   126  C    0.249388
 Electronic spatial extent (au):  <R**2>=          73460.4507
 Charge=              4.0000 electrons
 Dipole moment (field-independent basis, Debye):
    X=             -1.6718    Y=              0.0012    Z=             -0.0028  Tot=              1.6718
 Quadrupole moment (field-independent basis, Debye-Ang):
   XX=             79.7124   YY=           -302.7088   ZZ=           -303.7025
   XY=             -0.0563   XZ=             -0.0060   YZ=             -0.0120
 Traceless Quadrupole moment (field-independent basis, Debye-Ang):
   XX=            255.2787   YY=           -127.1425   ZZ=           -128.1362
   XY=             -0.0563   XZ=             -0.0060   YZ=             -0.0120
 Octapole moment (field-independent basis, Debye-Ang**2):
  XXX=           -574.9789  YYY=              0.4479  ZZZ=              1.2469  XYY=             79.6566
  XXY=             -0.0148  XXZ=             -0.3668  XZZ=             79.2730  YZZ=             -0.0057
  YYZ=             -1.5249  XYZ=              0.2298
 Hexadecapole moment (field-independent basis, Debye-Ang**3):
 XXXX=         -25426.0911 YYYY=         -24411.5228 ZZZZ=         -24322.3112 XXXY=             -1.0052
 XXXZ=             -0.0578 YYYX=             -0.8729 YYYZ=            200.5913 ZZZX=              0.3712
 ZZZY=           -206.9456 XXYY=          -8255.3729 XXZZ=          -8250.0175 YYZZ=          -5343.6728
 XXYZ=              2.5058 YYXZ=             -1.3084 ZZXY=             -0.4436
 N-N= 1.381687434120D+04 E-N=-3.541756540182D+04  KE= 3.268580428782D+03
 Leave Link  601 at Fri Feb 26 11:29:35 2021, MaxMem=  7864320000 cpu:              32.1 elap:               1.2
 (Enter /apps/gaussian/g16-c01-avx/g16/l9999.exe)
 Unable to Open any file for archive entry.
 1\1\GINC-CX3-2-4\SP\RPBE1PBE\def2SVP\C72H48N8Pd2(4+)\ATARZIA\26-Feb-20
 21\0\\#P PBE1PBE/Def2SVP SP SCF=(YQC,MaxCycle=900) int=(Grid=Superfine
 grid) EmpiricalDispersion=GD3BJ SCRF=(PCM,Solvent=DiMethylSulfoxide)\\
 _s_3d1_a\\4,1\Pd,0,-0.093,6.2308,0.2423\Pd,0,-0.0156,-3.3658,0.1238\C,
 0,4.8787,2.4748,0.2542\C,0,4.4515,3.6035,0.3142\C,0,3.8778,4.8895,0.35
 55\C,0,4.6449,6.0612,0.4063\C,0,3.9981,7.2846,0.425\C,0,2.6118,7.3247,
 0.3883\N,0,1.886,6.2058,0.3402\C,0,2.4875,5.0173,0.3273\H,0,5.7219,6.0
 019,0.4297\H,0,4.5617,8.2027,0.4647\H,0,2.0631,8.2622,0.3966\H,0,1.848
 5,4.1351,0.2887\C,0,5.359,1.1529,0.1413\C,0,6.659,0.9124,-0.31\C,0,7.0
 977,-0.3902,-0.4589\C,0,6.2615,-1.4521,-0.1592\C,0,4.9632,-1.2247,0.30
 44\C,0,4.5163,0.0844,0.4517\H,0,7.3096,1.7402,-0.5457\H,0,8.0985,-0.58
 18,-0.8145\H,0,6.6147,-2.46,-0.3111\H,0,3.5312,0.2912,0.8389\C,0,4.089
 8,-2.3682,0.6148\C,0,4.6051,-3.538,1.1826\C,0,3.768,-4.6161,1.4151\C,0
 ,2.4279,-4.5092,1.0872\N,0,1.9268,-3.384,0.569\C,0,2.7243,-2.3403,0.33
 46\H,0,5.6487,-3.596,1.4491\H,0,4.1502,-5.5276,1.8453\H,0,1.7342,-5.33
 26,1.2427\H,0,2.2507,-1.4697,-0.112\C,0,-0.1092,2.3739,5.1361\C,0,-0.1
 665,3.5113,4.7321\C,0,-0.205,4.8089,4.1849\C,0,-0.2492,5.9647,4.976\C,
 0,-0.2652,7.2012,4.3544\C,0,-0.232,7.2695,2.9691\N,0,-0.1902,6.1655,2.
 2204\C,0,-0.1803,4.965,2.7974\H,0,-0.2697,5.8835,6.0516\H,0,-0.3,8.107
 7,4.9367\H,0,-0.2384,8.2181,2.4398\H,0,-0.1471,4.0959,2.1404\C,0,0.000
 1,1.042,5.5887\C,0,0.4557,0.7728,6.8815\C,0,0.6005,-0.5392,7.2927\C,0,
 0.2925,-1.5824,6.4362\C,0,-0.1752,-1.3262,5.1448\C,0,-0.3185,-0.0076,4
 .7255\H,0,0.6978,1.586,7.548\H,0,0.9594,-0.7529,8.2879\H,0,0.4413,-2.5
 98,6.768\H,0,-0.7089,0.221,3.7465\C,0,-0.4942,-2.45,4.2492\C,0,-1.066,
 -3.6275,4.7422\C,0,-1.3067,-4.6868,3.8837\C,0,-0.9824,-4.554,2.5451\N,
 0,-0.4599,-3.4214,2.0656\C,0,-0.2181,-2.3954,2.8837\H,0,-1.3292,-3.705
 8,5.7854\H,0,-1.7404,-5.6039,4.2484\H,0,-1.1443,-5.3621,1.8351\H,0,0.2
 312,-1.5173,2.4267\C,0,-5.0033,2.3954,0.1252\C,0,-4.5939,3.5319,0.0958
 \C,0,-4.0411,4.8277,0.0887\C,0,-4.8272,5.9876,0.0652\C,0,-4.2006,7.221
 4,0.0792\C,0,-2.8152,7.2833,0.1206\N,0,-2.0712,6.1755,0.1426\C,0,-2.65
 32,4.9774,0.1242\H,0,-5.9031,5.9113,0.0372\H,0,-4.779,8.131,0.061\H,0,
 -2.282,8.2295,0.1371\H,0,-1.9999,4.1051,0.1428\C,0,-5.463,1.0637,0.202
 5\C,0,-6.7612,0.7916,0.6409\C,0,-7.1799,-0.521,0.7549\C,0,-6.3256,-1.5
 618,0.4331\C,0,-5.0289,-1.3026,-0.018\C,0,-4.6021,0.0166,-0.1304\H,0,-
 7.4259,1.6029,0.8939\H,0,-8.1793,-0.7372,1.1005\H,0,-6.6636,-2.5786,0.
 5582\H,0,-3.6187,0.2486,-0.5074\C,0,-4.1361,-2.4241,-0.3524\C,0,-4.630
 6,-3.588,-0.9503\C,0,-3.7755,-4.6468,-1.2052\C,0,-2.4385,-4.5264,-0.86
 98\N,0,-1.9572,-3.406,-0.3231\C,0,-2.7722,-2.3812,-0.0664\H,0,-5.6721,
 -3.6562,-1.2223\H,0,-4.1416,-5.5537,-1.6584\H,0,-1.7312,-5.3347,-1.042
 4\H,0,-2.3141,-1.5144,0.4031\C,0,-0.008,2.496,-4.745\C,0,0.0292,3.624,
 -4.313\C,0,0.0449,4.9082,-3.734\C,0,0.0701,6.0837,-4.4964\C,0,0.0643,7
 .3046,-3.8446\C,0,0.0288,7.3383,-2.4581\N,0,0.0051,6.2157,-1.7368\C,0,
 0.0162,5.0296,-2.3432\H,0,0.0929,6.0294,-5.5737\H,0,0.084,8.2257,-4.40
 44\H,0,0.0186,8.2735,-1.9056\H,0,-0.003,4.1443,-1.7077\C,0,-0.0939,1.1
 742,-5.2309\C,0,-0.5412,0.93,-6.5316\C,0,-0.6633,-0.3735,-6.9758\C,0,-
 0.3409,-1.4326,-6.1445\C,0,0.1188,-1.2012,-4.8456\C,0,0.2393,0.1087,-4
 .393\H,0,-0.7946,1.7555,-7.1785\H,0,-1.0156,-0.5682,-7.9772\H,0,-0.472
 1,-2.4419,-6.5019\H,0,0.623,0.3193,-3.4074\C,0,0.4535,-2.3417,-3.9772\
 C,0,1.045,-3.4974,-4.4978\C,0,1.3003,-4.5739,-3.6653\C,0,0.9711,-4.479
 5,-2.3246\N,0,0.43,-3.3674,-1.8185\C,0,0.1736,-2.3253,-2.6115\H,0,1.31
 18,-3.5455,-5.5418\H,0,1.749,-5.4748,-4.0516\H,0,1.1441,-5.3023,-1.634
 5\H,0,-0.2905,-1.4662,-2.1339\\Version=ES64L-G16RevC.01\State=1-A\HF=-
 3459.8733457\RMSD=2.351e-09\Dipole=-0.0064417,0.6576345,0.0087461\Quad
 rupole=-94.8516794,189.7301183,-94.8784389,-2.3420059,0.3394808,3.5439
 777\PG=C01 [X(C72H48N8Pd2)]\\@
 The archive entry for this job was punched.


 Not by the face shall a man be known, but by the mask.
                               -- Karen Blixen
 Job cpu time:       1 days 23 hours 11 minutes 10.7 seconds.
 Elapsed time:       0 days  1 hours 29 minutes 47.0 seconds.
 File lengths (MBytes):  RWF=   2602 Int=      0 D2E=      0 Chk=    121 Scr=      2
 Normal termination of Gaussian 16 at Fri Feb 26 11:29:35 2021.
