 Entering Gaussian System, Link 0=g16
 Input=m6_l1_opt_FINAL.com
 Output=m6_l1_opt_FINAL.log
 Initial command:
 /apps/gaussian/g16-c01-avx/g16/l1.exe "/rds/general/user/vposligu/home/work/Pd2L4_cages/New_Cages/opt/PBE0-def2svp-solvent/SP-more_LoT/m6_l1/B97D/opt/Gau-1156463.inp" -scrdir="/rds/general/user/vposligu/home/work/Pd2L4_cages/New_Cages/opt/PBE0-def2svp-solvent/SP-more_LoT/m6_l1/B97D/opt/"
 Entering Link 1 = /apps/gaussian/g16-c01-avx/g16/l1.exe PID=   1168264.
  
 Copyright (c) 1988-2019, Gaussian, Inc.  All Rights Reserved.
  
 This is part of the Gaussian(R) 16 program.  It is based on
 the Gaussian(R) 09 system (copyright 2009, Gaussian, Inc.),
 the Gaussian(R) 03 system (copyright 2003, Gaussian, Inc.),
 the Gaussian(R) 98 system (copyright 1998, Gaussian, Inc.),
 the Gaussian(R) 94 system (copyright 1995, Gaussian, Inc.),
 the Gaussian 92(TM) system (copyright 1992, Gaussian, Inc.),
 the Gaussian 90(TM) system (copyright 1990, Gaussian, Inc.),
 the Gaussian 88(TM) system (copyright 1988, Gaussian, Inc.),
 the Gaussian 86(TM) system (copyright 1986, Carnegie Mellon
 University), and the Gaussian 82(TM) system (copyright 1983,
 Carnegie Mellon University). Gaussian is a federally registered
 trademark of Gaussian, Inc.
  
 This software contains proprietary and confidential information,
 including trade secrets, belonging to Gaussian, Inc.
  
 This software is provided under written license and may be
 used, copied, transmitted, or stored only in accord with that
 written license.
  
 The following legend is applicable only to US Government
 contracts under FAR:
  
                    RESTRICTED RIGHTS LEGEND
  
 Use, reproduction and disclosure by the US Government is
 subject to restrictions as set forth in subparagraphs (a)
 and (c) of the Commercial Computer Software - Restricted
 Rights clause in FAR 52.227-19.
  
 Gaussian, Inc.
 340 Quinnipiac St., Bldg. 40, Wallingford CT 06492
  
  
 ---------------------------------------------------------------
 Warning -- This program may not be used in any manner that
 competes with the business of Gaussian, Inc. or will provide
 assistance to any competitor of Gaussian, Inc.  The licensee
 of this program is prohibited from giving any competitor of
 Gaussian, Inc. access to this program.  By using this program,
 the user acknowledges that Gaussian, Inc. is engaged in the
 business of creating and licensing software in the field of
 computational chemistry and represents and warrants to the
 licensee that it is not a competitor of Gaussian, Inc. and that
 it will not use this program in any manner prohibited above.
 ---------------------------------------------------------------
  

 Cite this work as:
 Gaussian 16, Revision C.01,
 M. J. Frisch, G. W. Trucks, H. B. Schlegel, G. E. Scuseria, 
 M. A. Robb, J. R. Cheeseman, G. Scalmani, V. Barone, 
 G. A. Petersson, H. Nakatsuji, X. Li, M. Caricato, A. V. Marenich, 
 J. Bloino, B. G. Janesko, R. Gomperts, B. Mennucci, H. P. Hratchian, 
 J. V. Ortiz, A. F. Izmaylov, J. L. Sonnenberg, D. Williams-Young, 
 F. Ding, F. Lipparini, F. Egidi, J. Goings, B. Peng, A. Petrone, 
 T. Henderson, D. Ranasinghe, V. G. Zakrzewski, J. Gao, N. Rega, 
 G. Zheng, W. Liang, M. Hada, M. Ehara, K. Toyota, R. Fukuda, 
 J. Hasegawa, M. Ishida, T. Nakajima, Y. Honda, O. Kitao, H. Nakai, 
 T. Vreven, K. Throssell, J. A. Montgomery, Jr., J. E. Peralta, 
 F. Ogliaro, M. J. Bearpark, J. J. Heyd, E. N. Brothers, K. N. Kudin, 
 V. N. Staroverov, T. A. Keith, R. Kobayashi, J. Normand, 
 K. Raghavachari, A. P. Rendell, J. C. Burant, S. S. Iyengar, 
 J. Tomasi, M. Cossi, J. M. Millam, M. Klene, C. Adamo, R. Cammi, 
 J. W. Ochterski, R. L. Martin, K. Morokuma, O. Farkas, 
 J. B. Foresman, and D. J. Fox, Gaussian, Inc., Wallingford CT, 2019.
 
 ******************************************
 Gaussian 16:  ES64L-G16RevC.01  3-Jul-2019
                 2-Sep-2023 
 ******************************************
 %nprocshared=48
 Will use up to   48 processors via shared memory.
 %mem=120GB
 %chk=m6_l1_opt_FINAL.chk
 --------------------------------------
 # SP B97D3/def2svp scrf=(solvent=dmso)
 --------------------------------------
 1/38=1,172=1/1;
 2/12=2,17=6,18=5,40=1/2;
 3/5=43,7=101,11=2,25=1,30=1,70=2201,72=21,74=-59/1,2,3;
 4//1;
 5/5=2,38=5,53=21/2;
 6/7=2,8=2,9=2,10=2,28=1/1;
 99/5=1,9=1/99;
 -----
 m6_l1
 -----
 Symbolic Z-matrix:
 Charge = 12 Multiplicity = 1
 Pd                    6.36439   5.14926   7.00392 
 Pd                   -3.47997   9.47302  -3.81255 
 Pd                   -6.36821  -5.16668  -7.00312 
 Pd                    3.47153  -9.46514   3.81068 
 Pd                   -7.99079  -0.01164   7.23882 
 Pd                    7.98185   0.0108   -7.24707 
 C                     5.37564   7.0667    4.96706 
 N                     5.69914   6.93993   6.27603 
 C                     5.55813   8.00674   7.09813 
 C                     5.08826   9.23226   6.63563 
 C                     4.7343    9.39342   5.27599 
 C                     4.21972   10.67659   4.75142 
 C                     4.65007   11.90653   5.32329 
 C                     4.19107   13.14456   4.85743 
 C                     3.27447   13.11877   3.80615 
 O                     2.69655   14.22018   3.21525 
 C                     1.85394   13.74664   2.23455 
 C                     1.06141   14.52793   1.39342 
 C                     0.26118   13.84573   0.46899 
 C                     0.2563    12.42573   0.37544 
 C                    -0.60855   11.74906  -0.61483 
 C                    -0.24668   10.50997  -1.19324 
 C                    -1.08653   9.89415  -2.11533 
 N                    -2.26652   10.44583  -2.48665 
 C                    -2.63859   11.63357  -1.95303 
 C                    -1.8418    12.30364  -1.02944 
 C                     1.07824   11.66467   1.23713 
 C                     1.87777   12.32813   2.17613 
 C                     2.81492   11.9145   3.2106 
 C                     3.29598   10.68662   3.68202 
 C                     4.89486   8.26201   4.44259 
 H                     5.51691   6.18581   4.33352 
 H                     5.82002   7.86043   8.15041 
 H                     4.97337   10.04881   7.35306 
 H                     5.38672   11.89532   6.13254 
 H                     4.5379    14.08606   5.2927 
 H                     1.06864   15.62013   1.45027 
 H                    -0.35517   14.43287  -0.21875 
 H                     0.70326   10.02637  -0.95172 
 H                    -0.81589   8.94137  -2.58077 
 H                    -3.60268   12.04169  -2.2723 
 H                    -2.20767   13.24706  -0.61624 
 H                     1.06965   10.57107   1.19979 
 H                     2.93191   9.75115   3.24636 
 H                     4.67388   8.30867   3.37308 
 C                     6.18949   2.28349   7.74577 
 N                     7.02028   3.35295   7.7252 
 C                     8.29273   3.21061   8.16633 
 C                     8.77283   1.99297   8.63917 
 C                     7.93217   0.85594   8.66592 
 C                     8.41128  -0.4573    9.1481 
 C                     9.41556  -0.52775   10.15394 
 C                     9.89802  -1.74914   10.63955 
 C                     9.35416  -2.90579   10.08057 
 O                     9.69978  -4.19763   10.40879 
 C                     8.93311  -5.02521   9.61905 
 C                     8.97093  -6.4197    9.62207 
 C                     8.11578  -7.07495   8.72767 
 C                     7.2382   -6.36384   7.86219 
 C                     6.35324  -7.09903   6.93328 
 C                     5.0903   -6.58888   6.55213 
 C                     4.28424  -7.29912   5.66839 
 N                     4.67329  -8.48494   5.14256 
 C                     5.87578  -9.00026   5.49169 
 C                     6.72685  -8.34373   6.3756 
 C                     7.21905  -4.95111   7.89051 
 C                     8.07603  -4.27704   8.76947 
 C                     8.35355  -2.88061   9.07349 
 C                     7.87561  -1.64889   8.60922 
 C                     6.60844   1.038     8.20194 
 H                     5.16601   2.44344   7.39289 
 H                     8.93529   4.0955    8.12341 
 H                     9.8166    1.93489   8.95822 
 H                     9.80729   0.39656   10.58953 
 H                     10.66012  -1.79458   11.4227 
 H                     9.63255  -6.97379   10.29396 
 H                     8.10738  -8.1693    8.72208 
 H                     4.71194  -5.64794   6.95991 
 H                     3.29923  -6.92514   5.37312 
 H                     6.15673  -9.95546   5.03803 
 H                     7.69518  -8.79885   6.59902 
 H                     6.57115  -4.38531   7.21397 
 H                     7.1216   -1.61699   7.81686 
 H                     5.88483   0.21882   8.21544 
 C                     3.55319   5.19255   7.93917 
 N                     4.8386    5.14395   8.36324 
 C                     5.0959    5.09022   9.6917 
 C                     4.07411   5.08465   10.63671 
 C                     2.72184   5.1297    10.22534 
 C                     1.60818   5.11759   11.19803 
 C                     1.77597   5.69877   12.48613 
 C                     0.74549   5.7171    13.43398 
 C                    -0.46146   5.12543   13.06067 
 O                    -1.58971   5.03371   13.84481 
 C                    -2.53968   4.3753    13.09618 
 C                    -3.83872   4.07614   13.50744 
 C                    -4.65222   3.40462   12.58659 
 C                    -4.18369   3.03033   11.29612 
 C                    -5.07676   2.31578   10.35883 
 C                    -4.57231   1.38793   9.41781 
 C                    -5.43555   0.73393   8.54497 
 N                    -6.77058   0.96124   8.55793 
 C                    -7.28327   1.84352   9.44807 
 C                    -6.47521   2.52554   10.35298 
 C                    -2.86051   3.34532   10.91284 
 C                    -2.03511   4.02725   11.81544 
 C                    -0.66851   4.52823   11.78925 
 C                     0.37091   4.5297    10.85093 
 C                     2.48635   5.18497   8.83159 
 H                     3.38831   5.24725   6.85855 
 H                     6.14692   5.04098   9.99275 
 H                     4.34465   5.01647   11.69358 
 H                     2.72665   6.1769    12.7417 
 H                     0.87786   6.17889   14.41655 
 H                    -4.20168   4.34736   14.50291 
 H                    -5.66907   3.13587   12.88906 
 H                    -3.50727   1.14565   9.37466 
 H                    -5.06358   0.0035    7.81994 
 H                    -8.36492   2.00587   9.41792 
 H                    -6.94483   3.24245   11.03134 
 H                    -2.49047   3.09191   9.91473 
 H                     0.23019   4.05329   9.87591 
 H                     1.47205   5.25083   8.42955 
 C                     7.99359   4.12044   4.75077 
 N                     7.8752    5.14614   5.62752 
 C                     8.75835   6.17116   5.56955 
 C                     9.78539   6.20228   4.63083 
 C                     9.93012   5.15039   3.69668 
 C                     10.99944   5.15498   2.67543 
 C                     12.24727   5.78246   2.94791 
 C                     13.28609   5.81158   2.00956 
 C                     13.03806   5.20205   0.77947 
 O                     13.91872   5.13278  -0.27683 
 C                     13.272    4.45755  -1.28786 
 C                     13.80159   4.17168  -2.5464 
 C                     12.97018   3.48282  -3.43791 
 C                     11.65246   3.07854  -3.08422 
 C                     10.81071   2.35186  -4.05881 
 C                     9.84553   1.40487  -3.64362 
 C                     9.06232   0.74296  -4.58354 
 N                     9.18814   0.97896  -5.91113 
 C                     10.10605   1.87783  -6.3391 
 C                     10.92483   2.56957  -5.45155 
 C                     11.14958   3.37756  -1.79791 
 C                     11.96147   4.07669  -0.89613 
 C                     11.80714   4.56769   0.46567 
 C                     10.78436   4.53925   1.42173 
 C                     8.99467   4.09307   3.7854 
 H                     7.26911   3.30469   4.83849 
 H                     8.62261   6.98446   6.28894 
 H                     10.45138   7.06886   4.61838 
 H                     12.42028   6.2334    3.92993 
 H                     14.24696   6.28441   2.23188 
 H                     14.81837   4.46657  -2.82109 
 H                     13.36577   3.22462  -4.42511 
 H                     9.71385   1.15463  -2.58769 
 H                     8.31944  -0.00104  -4.28063 
 H                     10.16918   2.04716  -7.41833 
 H                     11.62946   3.30037  -5.8568 
 H                     10.12954   3.09935  -1.51571 
 H                     9.8229    4.07479   1.1823 
 H                     9.05316   3.22639   3.1219 
 C                    -5.2225    7.28092  -4.7879 
 N                    -4.68558   8.47696  -5.12814 
 C                    -4.94938   8.99736  -6.35003 
 C                    -5.75974   8.33734  -7.26909 
 C                    -6.32978   7.08431  -6.94576 
 C                    -7.18882   6.34875  -7.89833 
 C                    -8.00638   7.06063  -8.82008 
 C                    -8.84157   6.40565  -9.7334 
 C                    -8.82806   5.01093  -9.70777 
 O                    -9.5673    4.18371  -10.52359 
 C                    -9.24746   2.89149  -10.17119 
 C                    -9.77592   1.73513  -10.74533 
 C                    -9.31962   0.51339  -10.23564 
 C                    -8.35595   0.44286  -9.19102 
 C                    -7.89482  -0.87059  -8.69225 
 C                    -6.58432  -1.05353  -8.19254 
 C                    -6.17855  -2.29992  -7.72731 
 N                    -7.01101  -3.36833  -7.7294 
 C                    -8.27182  -3.22439  -8.20176 
 C                    -8.73796  -2.00602  -8.68721 
 C                    -7.83828   1.63387  -8.63385 
 C                    -8.2911    2.86587  -9.12198 
 C                    -8.02117   4.26217  -8.81083 
 C                    -7.20174   4.93569  -7.89638 
 C                    -6.03569   6.56738  -5.66243 
 H                    -4.99657   6.90247  -3.78617 
 H                    -4.48774   9.96019  -6.58941 
 H                    -5.9167    8.79701  -8.24825 
 H                    -8.01272   8.15486  -8.80029 
 H                    -9.47834   6.96014  -10.42857 
 H                    -10.50551   1.7809   -11.55885 
 H                    -9.69763  -0.41127  -10.6826 
 H                    -5.85998  -0.23487  -8.18667 
 H                    -5.16399  -2.46139  -7.34996 
 H                    -8.91567  -4.10897  -8.17475 
 H                    -9.77304  -1.94611  -9.03334 
 H                    -7.11671   1.60106  -7.81179 
 H                    -6.55921   4.36981  -7.21474 
 H                    -6.46034   5.6194   -5.32206 
 C                    -5.37519  -7.07181  -4.96206 
 N                    -5.71433  -6.95797  -6.26835 
 C                    -5.60091  -8.03724  -7.07837 
 C                    -5.14387  -9.26385  -6.60524 
 C                    -4.77427  -9.41195  -5.24825 
 C                    -4.27125  -10.69464  -4.7114 
 C                    -4.73065  -11.92733  -5.25383 
 C                    -4.28519  -13.16422  -4.77157 
 C                    -3.35321  -13.13465  -3.73389 
 O                    -2.78691  -14.23438  -3.12844 
 C                    -1.92099  -13.75657  -2.17012 
 C                    -1.13946  -14.53467  -1.31572 
 C                    -0.32615  -13.84832  -0.40557 
 C                    -0.28256  -12.42692  -0.35316 
 C                     0.59935  -11.74493   0.61835 
 C                     1.17967  -10.48669   0.33426 
 C                     2.00234  -9.86644   1.26863 
 N                     2.27193  -10.43237   2.4691 
 C                     1.73143  -11.63691   2.76992 
 C                     0.90403  -12.3122   1.87736 
 C                    -1.08487  -11.6688  -1.23549 
 C                    -1.91355  -12.33694  -2.1453 
 C                    -2.86305  -11.92739  -3.1698 
 C                    -3.33034  -10.70056  -3.65716 
 C                    -4.90606  -8.26732  -4.42798 
 H                    -5.49532  -6.18052  -4.33873 
 H                    -5.87411  -7.9005   -8.12931 
 H                    -5.0503   -10.09178  -7.31272 
 H                    -5.47925  -11.91836  -6.05212 
 H                    -4.65413  -14.10761  -5.18398 
 H                    -1.15592  -15.62737  -1.3597 
 H                     0.31629  -14.43164   0.26128 
 H                     1.01906  -9.99192  -0.62707 
 H                     2.46827  -8.89844   1.06025 
 H                     1.96473  -12.05354   3.75461 
 H                     0.47761  -13.26983   2.1866 
 H                    -1.08703  -10.57535  -1.19242 
 H                    -2.94358  -9.7634   -3.24534 
 H                    -4.67134  -8.30366  -3.36101 
 C                    -8.00574  -4.12798  -4.75875 
 N                    -7.88298  -5.15699  -5.6307 
 C                    -8.7618   -6.18541  -5.56803 
 C                    -9.78799  -6.21697  -4.62849 
 C                    -9.93656  -5.16194  -3.6986 
 C                    -11.00519  -5.16831  -2.6764 
 C                    -12.25106  -5.80034  -2.94729 
 C                    -13.28881  -5.83273  -2.00786 
 C                    -13.04153  -5.22212  -0.77819 
 O                    -13.92115  -5.15641   0.27927 
 C                    -13.27562  -4.47928   1.28969 
 C                    -13.80453  -4.19606   2.54912 
 C                    -12.97451  -3.50464   3.43992 
 C                    -11.65876  -3.09514   3.08479 
 C                    -10.81843  -2.36544   4.05837 
 C                    -9.85561  -1.41697   3.64137 
 C                    -9.07267  -0.75263   4.57963 
 N                    -9.19641  -0.98763   5.90775 
 C                    -10.11272  -1.88726   6.33786 
 C                    -10.93091  -2.58149   5.45156 
 C                    -11.15674  -3.39146   1.79742 
 C                    -11.96712  -4.09314   0.8963 
 C                    -11.81261  -4.58317  -0.46591 
 C                    -10.79105  -4.55103  -1.42331 
 C                    -9.00623  -4.10069  -3.79263 
 H                    -7.28543  -3.30954  -4.85189 
 H                    -8.62293  -7.00107  -6.28403 
 H                    -10.45074  -7.08599  -4.61219 
 H                    -12.42324  -6.25264  -3.92883 
 H                    -14.24819  -6.30917  -2.22891 
 H                    -14.81981  -4.49496   2.82503 
 H                    -13.36997  -3.24855   4.42768 
 H                    -9.7255   -1.16748   2.58515 
 H                    -8.33202  -0.00729   4.2744 
 H                    -10.17501  -2.05394   7.41751 
 H                    -11.63387  -3.31312   5.85808 
 H                    -10.13817  -3.10946   1.51377 
 H                    -9.83101  -4.08284  -1.18547 
 H                    -9.0689   -3.23118  -3.13324 
 C                    -3.5566   -5.23351  -7.94151 
 N                    -4.84216  -5.16912  -8.36262 
 C                    -5.10107  -5.09415  -9.68968 
 C                    -4.08073  -5.0815   -10.6361 
 C                    -2.72815  -5.14083  -10.22747 
 C                    -1.61699  -5.11953  -11.20306 
 C                    -1.78945  -5.68921  -12.49561 
 C                    -0.76316  -5.69694  -13.44806 
 C                     0.44387  -5.10545  -13.07491 
 O                     1.56782  -5.00347  -13.86392 
 C                     2.51926  -4.34807  -13.11472 
 C                     3.81475  -4.0403   -13.53078 
 C                     4.6306   -3.37285  -12.60913 
 C                     4.16757  -3.01075  -11.31319 
 C                     5.06274  -2.29924  -10.37555 
 C                     4.55987  -1.38005  -9.4254 
 C                     5.42532  -0.72969  -8.55204 
 N                     6.76119  -0.95134  -8.57409 
 C                     7.2728   -1.82422  -9.47409 
 C                     6.46218  -2.50329  -10.379 
 C                     2.84781  -3.33422  -10.92516 
 C                     2.02012  -4.01247  -11.8285 
 C                     0.6555   -4.519    -11.7992 
 C                    -0.37954  -4.53207  -10.85587 
 C                    -2.49078  -5.21941  -8.83526 
 H                    -3.39081  -5.30663  -6.86227 
 H                    -6.15234  -5.03286  -9.98758 
 H                    -4.35196  -4.99587  -11.69151 
 H                    -2.74045  -6.16678  -12.75105 
 H                    -0.89876  -6.1501   -14.43419 
 H                     4.17307  -4.3018   -14.53053 
 H                     5.64444  -3.09704  -12.91528 
 H                     3.49431  -1.14162  -9.37547 
 H                     5.05447  -0.00646  -7.81944 
 H                     8.35538  -1.98256  -9.45167 
 H                     6.93048  -3.21436  -11.06437 
 H                     2.4823   -3.08996  -9.9231 
 H                    -0.23638  -4.06355  -9.87732 
 H                    -1.47635  -5.29855  -8.43594 
 C                    -4.79706   8.89662  -1.21843 
 N                    -4.98657   9.46765  -2.4317 
 C                    -6.18935   10.01665  -2.72407 
 C                    -7.2404    10.00892  -1.81191 
 C                    -7.0765    9.41231  -0.54 
 C                    -8.17441   9.37102   0.44973 
 C                    -9.14751   10.40882   0.48333 
 C                    -10.20389   10.40891   1.40237 
 C                    -10.26802   9.3305    2.28498 
 O                    -11.23013   9.13714   3.2509 
 C                    -10.92234   7.95415   3.88488 
 C                    -11.64608   7.37573   4.9278 
 C                    -11.16897   6.15716   5.42558 
 C                    -9.99727   5.53595   4.9094 
 C                    -9.53139   4.24809   5.46722 
 C                    -8.15981   3.90375   5.49392 
 C                    -7.75307   2.6807    6.01682 
 N                    -8.64048   1.78452   6.5108 
 C                    -9.96052   2.08724   6.50176 
 C                    -10.43234   3.29512   5.99666 
 C                    -9.283     6.15335   3.85778 
 C                    -9.75131   7.36641   3.33777 
 C                    -9.32029   8.2732    2.28351 
 C                    -8.26421   8.2973    1.36415 
 C                    -5.80774   8.8512   -0.26368 
 H                    -3.80672   8.47711  -1.0168 
 H                    -6.30369   10.45877  -3.71856 
 H                    -8.195     10.44557  -2.11638 
 H                    -9.05861   11.25302  -0.20732 
 H                    -10.94001   11.21732   1.43058 
 H                    -12.53966   7.85349   5.33948 
 H                    -11.70377   5.69028   6.25838 
 H                    -7.39374   4.59482   5.13305 
 H                    -6.69491   2.40417   6.05347 
 H                    -10.64645   1.33292   6.89981 
 H                    -11.51122   3.47078   5.99401 
 H                    -8.39499   5.67949   3.42845 
 H                    -7.54178   7.47586   1.33739 
 H                    -5.58685   8.39721   0.70581 
 C                    -1.51232   8.28767  -5.68637 
 N                    -1.96916   9.46126  -5.18827 
 C                    -1.40352   10.62031  -5.60067 
 C                    -0.36232   10.64029  -6.5241 
 C                     0.1418    9.4311   -7.05676 
 C                     1.25476   9.41024  -8.03017 
 C                     1.4258    10.48659  -8.94515 
 C                     2.46058   10.50406  -9.88835 
 C                     3.33222   9.41491  -9.8841 
 O                     4.41146   9.24407  -10.72219 
 C                     4.9968    8.047    -10.37479 
 C                     6.12042   7.48266  -10.97906 
 C                     6.55179   6.24819  -10.47851 
 C                     5.89164   5.59752  -9.39875 
 C                     6.38683   4.2966   -8.89981 
 C                     6.24334   3.91968  -7.54391 
 C                     6.71599   2.68768  -7.1039 
 N                     7.31802   1.81297  -7.94463 
 C                     7.46977   2.14524  -9.24852 
 C                     7.02441   3.36436  -9.75091 
 C                     4.75892   6.19954  -8.80585 
 C                     4.30436   7.4281   -9.30076 
 C                     3.20255   8.32504  -8.98332 
 C                     2.15384   8.32025  -8.05536 
 C                    -0.4714    8.23809  -6.60763 
 H                    -2.00563   7.37466  -5.3386 
 H                    -1.79442   11.54532  -5.16598 
 H                     0.06902   11.60612  -6.79951 
 H                     0.71205   11.31614  -8.9401 
 H                     2.57605   11.32794  -10.59836 
 H                     6.64231   7.98314  -11.79964 
 H                     7.44433   5.79169  -10.91737 
 H                     5.78889   4.59281  -6.81232 
 H                     6.62478   2.3868   -6.05529 
 H                     7.95147   1.4066   -9.89668 
 H                     7.15494   3.56537  -10.81733 
 H                     4.22022   5.70277  -7.9932 
 H                     2.05715   7.49689  -7.34109 
 H                    -0.16367   7.26224  -6.99194 
 C                     0.76386  -8.89782   4.87297 
 N                     1.95274  -9.47057   5.17803 
 C                     2.12585  -10.02344   6.40205 
 C                     1.11586  -10.01536   7.35956 
 C                    -0.13381  -9.41777   7.07397 
 C                    -1.22472  -9.37772   8.07142 
 C                    -1.35048  -10.41661   9.03577 
 C                    -2.36612  -10.41839   9.9995 
 C                    -3.25198  -9.34101   9.97963 
 O                    -4.306    -9.14998   10.84483 
 C                    -4.90952  -7.96784   10.4784 
 C                    -6.01839  -7.39213   11.09886 
 C                    -6.47086  -6.17452   10.57648 
 C                    -5.8458   -5.55137   9.46015 
 C                    -6.36023  -4.26519   8.94283 
 C                    -6.2516   -3.91793   7.57595 
 C                    -6.74005  -2.69748   7.12114 
 N                    -7.32563  -1.80632   7.95629 
 C                    -7.44584  -2.11137   9.27028 
 C                    -6.98242  -3.31715   9.78804 
 C                    -4.72891  -6.1659    8.85013 
 C                    -4.25364  -7.37819   9.3656 
 C                    -3.161    -8.28273   9.03733 
 C                    -2.14421  -8.30446   8.07454 
 C                    -0.28528  -8.85477   5.78527 
 H                     0.65994  -8.47312   3.86969 
 H                     3.10301  -10.4693   6.61243 
 H                     1.3256   -10.45371   8.33857 
 H                    -0.65381  -11.26023   9.01236 
 H                    -2.4638   -11.22742   10.72896 
 H                    -6.51322  -7.87142   11.94835 
 H                    -7.35238  -5.70985   11.02876 
 H                    -5.81129  -4.60488   6.84864 
 H                    -6.67424  -2.41828   6.06506 
 H                    -7.91631  -1.36159   9.91411 
 H                    -7.08655  -3.49552   10.8613 
 H                    -4.21752  -5.69039   8.00768 
 H                    -2.04898  -7.48186   7.35919 
 H                    -1.22865  -8.40045   5.47151 
 C                     5.50605  -8.25988   2.02129 
 N                     4.98271  -9.43843   2.43542 
 C                     5.47108  -10.59478   1.9277 
 C                     6.50013  -10.60782   0.99064 
 C                     7.06442  -9.39379   0.535 
 C                     8.15328  -9.36467  -0.46502 
 C                     9.09725  -10.42766  -0.52664 
 C                     10.14942  -10.43571  -1.45062 
 C                     10.22628  -9.35049  -2.32386 
 O                     11.17688  -9.17138  -3.30391 
 C                     10.87982  -7.98179  -3.93086 
 C                     11.598   -7.41259  -4.98272 
 C                     11.13121  -6.18723  -5.47391 
 C                     9.97506  -5.55058  -4.94204 
 C                     9.51492  -4.25944  -5.49675 
 C                     8.14511  -3.90771  -5.51415 
 C                     7.74194  -2.68274  -6.03513 
 N                     8.63148  -1.7911   -6.53367 
 C                     9.94983  -2.10082  -6.53304 
 C                     10.41806  -3.31203  -6.03205 
 C                     9.26801  -6.15683  -3.87924 
 C                     9.7265   -7.37631  -3.36578 
 C                     9.30073  -8.27393  -2.30175 
 C                     8.26179  -8.27882  -1.36287 
 C                     6.53239  -8.20353   1.08398 
 H                     5.09175  -7.34885   2.46455 
 H                     5.01283  -11.52405   2.28024 
 H                     6.83571  -11.57224   0.60079 
 H                     9.02512  -11.25377   0.18747 
 H                     10.8797  -11.24931  -1.48158 
 H                     12.47903  -7.90268  -5.40677 
 H                     11.66062  -5.72744  -6.31413 
 H                     7.37856  -4.59513  -5.1473 
 H                     6.68519  -2.40015  -6.0664 
 H                     10.63715  -1.34976  -6.93468 
 H                     11.49577  -3.49432  -6.03588 
 H                     8.39322  -5.66986  -3.43744 
 H                     7.52962  -7.46564  -1.3507 
 H                     6.93075  -7.22422   0.80655 
 
 Stoichiometry    C264H168N24O12Pd6(12+)
 Framework group  C1[X(C264H168N24O12Pd6)]
 Deg. of freedom  1416
 Full point group                 C1      NOp   1
 Largest Abelian subgroup         C1      NOp   1
 Largest concise Abelian subgroup C1      NOp   1
                         Standard orientation:                         
 ---------------------------------------------------------------------
 Center     Atomic      Atomic             Coordinates (Angstroms)
 Number     Number       Type             X           Y           Z
 ---------------------------------------------------------------------
      1         46           0       -6.364369    5.149283   -7.003925
      2         46           0        3.480000    9.473008    3.812552
      3         46           0        6.368194   -5.166702    7.003123
      4         46           0       -3.471565   -9.465129   -3.810682
      5         46           0        7.990790   -0.011673   -7.238819
      6         46           0       -7.981846    0.010826    7.247074
      7          6           0       -5.375614    7.066716   -4.967060
      8          7           0       -5.699114    6.939954   -6.276032
      9          6           0       -5.558096    8.006759   -7.098133
     10          6           0       -5.088225    9.232284   -6.635630
     11          6           0       -4.734267    9.393433   -5.275986
     12          6           0       -4.219681   10.676603   -4.751416
     13          6           0       -4.650027   11.906545   -5.323291
     14          6           0       -4.191020   13.144570   -4.857428
     15          6           0       -3.274426   13.118778   -3.806148
     16          8           0       -2.696499   14.220193   -3.215250
     17          6           0       -1.853888   13.746644   -2.234553
     18          6           0       -1.061357   14.527935   -1.393421
     19          6           0       -0.261127   13.845730   -0.468985
     20          6           0       -0.256256   12.425734   -0.375436
     21          6           0        0.608590   11.749054    0.614827
     22          6           0        0.246715   10.509966    1.193244
     23          6           0        1.086566    9.894144    2.115331
     24          7           0        2.266558   10.445823    2.486647
     25          6           0        2.638633   11.633556    1.953033
     26          6           0        1.841840   12.303631    1.029440
     27          6           0       -1.078195   11.664676   -1.237134
     28          6           0       -1.877722   12.328139   -2.176128
     29          6           0       -2.814875   11.914510   -3.210596
     30          6           0       -3.295937   10.686636   -3.682016
     31          6           0       -4.894826    8.262027   -4.442595
     32          1           0       -5.516887    6.185827   -4.333525
     33          1           0       -5.819994    7.860446   -8.150413
     34          1           0       -4.973333   10.048824   -7.353057
     35          1           0       -5.386678   11.895343   -6.132537
     36          1           0       -4.537852   14.086074   -5.292697
     37          1           0       -1.068586   15.620134   -1.450267
     38          1           0        0.355221   14.432872    0.218754
     39          1           0       -0.703221   10.026377    0.951724
     40          1           0        0.815926    8.941370    2.580767
     41          1           0        3.602722   12.041676    2.272295
     42          1           0        2.207715   13.247048    0.616237
     43          1           0       -1.069607   10.571075   -1.199787
     44          1           0       -2.931874    9.751164   -3.246357
     45          1           0       -4.673845    8.308685   -3.373080
     46          6           0       -6.189477    2.283513   -7.745771
     47          7           0       -7.020266    3.352973   -7.725197
     48          6           0       -8.292719    3.210641   -8.166331
     49          6           0       -8.772823    1.993006   -8.639165
     50          6           0       -7.932169    0.855973   -8.665917
     51          6           0       -8.411280   -0.457272   -9.148104
     52          6           0       -9.415558   -0.527712  -10.153936
     53          6           0       -9.898022   -1.749106  -10.639546
     54          6           0       -9.354170   -2.905753  -10.080571
     55          8           0       -9.699799   -4.197591  -10.408790
     56          6           0       -8.933130   -5.025178   -9.619046
     57          6           0       -8.970955   -6.419671   -9.622066
     58          6           0       -8.115807   -7.074924   -8.727668
     59          6           0       -7.238225   -6.363817   -7.862190
     60          6           0       -6.353264   -7.099004   -6.933280
     61          6           0       -5.090326   -6.588857   -6.552134
     62          6           0       -4.284268   -7.299099   -5.668391
     63          7           0       -4.673321   -8.484922   -5.142560
     64          6           0       -5.875810   -9.000238   -5.491693
     65          6           0       -6.726880   -8.343701   -6.375595
     66          6           0       -7.219070   -4.951086   -7.890514
     67          6           0       -8.076045   -4.277014   -8.769468
     68          6           0       -8.353561   -2.880578   -9.073487
     69          6           0       -7.875617   -1.648860   -8.609220
     70          6           0       -6.608436    1.038020   -8.201944
     71          1           0       -5.165998    2.443458   -7.392893
     72          1           0       -8.935275    4.095529   -8.123411
     73          1           0       -9.816589    1.934928   -8.958220
     74          1           0       -9.807286    0.396594  -10.589525
     75          1           0      -10.660131   -1.794540  -11.422701
     76          1           0       -9.632572   -6.973754  -10.293958
     77          1           0       -8.107408   -8.169269   -8.722077
     78          1           0       -4.711959   -5.647918   -6.959906
     79          1           0       -3.299253   -6.925132   -5.373121
     80          1           0       -6.156766   -9.955433   -5.038030
     81          1           0       -7.695209   -8.798817   -6.599018
     82          1           0       -6.571169   -4.385288   -7.213974
     83          1           0       -7.121602   -1.616965   -7.816856
     84          1           0       -5.884824    0.218840   -8.215441
     85          6           0       -3.553171    5.192567   -7.939173
     86          7           0       -4.838583    5.143972   -8.363236
     87          6           0       -5.095881    5.090240   -9.691701
     88          6           0       -4.074090    5.084665  -10.636712
     89          6           0       -2.721816    5.129710  -10.225338
     90          6           0       -1.608159    5.117596  -11.198034
     91          6           0       -1.775950    5.698772  -12.486131
     92          6           0       -0.745472    5.717102  -13.433981
     93          6           0        0.461474    5.125424  -13.060671
     94          8           0        1.589724    5.033702  -13.844810
     95          6           0        2.539700    4.375289  -13.096178
     96          6           0        3.838733    4.076123  -13.507442
     97          6           0        4.652236    3.404598  -12.586586
     98          6           0        4.183702    3.030312  -11.296119
     99          6           0        5.076766    2.315765  -10.358834
    100          6           0        4.572316    1.387910   -9.417814
    101          6           0        5.435554    0.733913   -8.544971
    102          7           0        6.770584    0.961219   -8.557928
    103          6           0        7.283279    1.843489   -9.448066
    104          6           0        6.475216    2.525512  -10.352977
    105          6           0        2.860522    3.345306  -10.912843
    106          6           0        2.035129    4.027245  -11.815440
    107          6           0        0.668526    4.528230  -11.789245
    108          6           0       -0.370889    4.529701  -10.850926
    109          6           0       -2.486330    5.184974   -8.831587
    110          1           0       -3.388290    5.247262   -6.858554
    111          1           0       -6.146899    5.041006   -9.992745
    112          1           0       -4.344635    5.016485  -11.693579
    113          1           0       -2.726622    6.176915  -12.741705
    114          1           0       -0.877835    6.178892  -14.416549
    115          1           0        4.201698    4.347348  -14.502911
    116          1           0        5.669082    3.135845  -12.889061
    117          1           0        3.507271    1.145634   -9.374661
    118          1           0        5.063575    0.003477   -7.819943
    119          1           0        8.364929    2.005837   -9.417919
    120          1           0        6.944840    3.242421  -11.031344
    121          1           0        2.490477    3.091900   -9.914730
    122          1           0       -0.230171    4.053295   -9.875912
    123          1           0       -1.472027    5.250833   -8.429547
    124          6           0       -7.993577    4.120469   -4.750768
    125          7           0       -7.875180    5.146174   -5.627518
    126          6           0       -8.758325    6.171194   -5.569550
    127          6           0       -9.785364    6.202317   -4.630826
    128          6           0       -9.930099    5.150423   -3.696681
    129          6           0      -10.999420    5.155025   -2.675428
    130          6           0      -12.247245    5.782508   -2.947907
    131          6           0      -13.286072    5.811627   -2.009560
    132          6           0      -13.038037    5.202097   -0.779469
    133          8           0      -13.918699    5.132832    0.276831
    134          6           0      -13.271986    4.457599    1.287856
    135          6           0      -13.801576    4.171730    2.546399
    136          6           0      -12.970166    3.482870    3.437914
    137          6           0      -11.652454    3.078582    3.084221
    138          6           0      -10.810704    2.351895    4.058810
    139          6           0       -9.845530    1.404902    3.643623
    140          6           0       -9.062316    0.742989    4.583544
    141          7           0       -9.188137    0.978996    5.911130
    142          6           0      -10.106041    1.877862    6.339104
    143          6           0      -10.924820    2.569614    5.451554
    144          6           0      -11.149572    3.377597    1.797906
    145          6           0      -11.961450    4.076729    0.896126
    146          6           0      -11.807118    4.567731   -0.465674
    147          6           0      -10.784346    4.539291   -1.421725
    148          6           0       -8.994655    4.093106   -3.785402
    149          1           0       -7.269101    3.304714   -4.838492
    150          1           0       -8.622590    6.984487   -6.288940
    151          1           0      -10.451357    7.068895   -4.618385
    152          1           0      -12.420254    6.233447   -3.929926
    153          1           0      -14.246936    6.284464   -2.231876
    154          1           0      -14.818357    4.466619    2.821086
    155          1           0      -13.365755    3.224670    4.425108
    156          1           0       -9.713850    1.154665    2.587693
    157          1           0       -8.319435   -0.001009    4.280630
    158          1           0      -10.169175    2.047197    7.418329
    159          1           0      -11.629453    3.300409    5.856797
    160          1           0      -10.129529    3.099384    1.515705
    161          1           0       -9.822886    4.074822   -1.182296
    162          1           0       -9.053144    3.226425   -3.121904
    163          6           0        5.222531    7.280905    4.787904
    164          7           0        4.685615    8.476947    5.128138
    165          6           0        4.949408    8.997343    6.350025
    166          6           0        5.759769    8.337321    7.269087
    167          6           0        6.329805    7.084288    6.945762
    168          6           0        7.188839    6.348720    7.898332
    169          6           0        8.006401    7.060597    8.820077
    170          6           0        8.841590    6.405620    9.733400
    171          6           0        8.828082    5.010896    9.707766
    172          8           0        9.567316    4.183675   10.523590
    173          6           0        9.247466    2.891458   10.171188
    174          6           0        9.775928    1.735096   10.745332
    175          6           0        9.319620    0.513357   10.235636
    176          6           0        8.355949    0.442824    9.191023
    177          6           0        7.894813   -0.870617    8.692246
    178          6           0        6.584320   -1.053549    8.192541
    179          6           0        6.178539   -2.299943    7.727313
    180          7           0        7.010998   -3.368353    7.729401
    181          6           0        8.271808   -3.224419    8.201759
    182          6           0        8.737956   -2.006047    8.687212
    183          6           0        7.838282    1.633841    8.633854
    184          6           0        8.291114    2.865836    9.121976
    185          6           0        8.021188    4.262136    8.810829
    186          6           0        7.201763    4.935666    7.896379
    187          6           0        6.035712    6.567363    5.662431
    188          1           0        4.996599    6.902453    3.786173
    189          1           0        4.487772    9.960172    6.589405
    190          1           0        5.916736    8.796987    8.248253
    191          1           0        8.012751    8.154827    8.800293
    192          1           0        9.478366    6.960102   10.428571
    193          1           0       10.505520    1.780865   11.558850
    194          1           0        9.697632   -0.411303   10.682602
    195          1           0        5.859980   -0.234890    8.186669
    196          1           0        5.163978   -2.461412    7.349959
    197          1           0        8.915658   -4.109007    8.174754
    198          1           0        9.773028   -1.946141    9.033343
    199          1           0        7.116712    1.601031    7.811785
    200          1           0        6.559229    4.369790    7.214743
    201          1           0        6.460361    5.619379    5.322057
    202          6           0        5.375164   -7.071832    4.962057
    203          7           0        5.714303   -6.957989    6.268355
    204          6           0        5.600884   -8.037255    7.078367
    205          6           0        5.143840   -9.263869    6.605241
    206          6           0        4.774238   -9.411971    5.248252
    207          6           0        4.271214  -10.694655    4.711400
    208          6           0        4.730610  -11.927343    5.253833
    209          6           0        4.285138  -13.164236    4.771570
    210          6           0        3.353161  -13.134666    3.733887
    211          8           0        2.786859  -14.234391    3.128435
    212          6           0        1.920941  -13.756573    2.170117
    213          6           0        1.139405  -14.534670    1.315721
    214          6           0        0.326102  -13.848316    0.405570
    215          6           0        0.282512  -12.426923    0.353155
    216          6           0       -0.599394  -11.744925   -0.618345
    217          6           0       -1.179712  -10.486688   -0.334256
    218          6           0       -2.002374   -9.866435   -1.268626
    219          7           0       -2.271972  -10.432362   -2.469096
    220          6           0       -1.731473  -11.636906   -2.769919
    221          6           0       -0.904077  -12.312200   -1.877360
    222          6           0        1.084824  -11.668799    1.235492
    223          6           0        1.913501  -12.336945    2.145296
    224          6           0        2.863003  -11.927403    3.169796
    225          6           0        3.330297  -10.700574    3.657157
    226          6           0        4.906034   -8.267343    4.427984
    227          1           0        5.495301   -6.180537    4.338730
    228          1           0        5.874078   -7.900521    8.129311
    229          1           0        5.050264  -10.091794    7.312721
    230          1           0        5.479203  -11.918375    6.052117
    231          1           0        4.654080  -14.107629    5.183976
    232          1           0        1.155864  -15.627374    1.359701
    233          1           0       -0.316340  -14.431640   -0.261278
    234          1           0       -1.019100   -9.991912    0.627070
    235          1           0       -2.468300   -8.898426   -1.060252
    236          1           0       -1.964770  -12.053537   -3.754611
    237          1           0       -0.477656  -13.269828   -2.186597
    238          1           0        1.086993  -10.575354    1.192415
    239          1           0        2.943548   -9.763408    3.245337
    240          1           0        4.671306   -8.303680    3.361006
    241          6           0        8.005730   -4.128011    4.758751
    242          7           0        7.882961   -5.157015    5.630697
    243          6           0        8.761779   -6.185443    5.568025
    244          6           0        9.787965   -6.217008    4.628494
    245          6           0        9.936542   -5.161972    3.698601
    246          6           0       11.005171   -5.168354    2.676402
    247          6           0       12.251035   -5.800388    2.947288
    248          6           0       13.288789   -5.832782    2.007860
    249          6           0       13.041514   -5.222170    0.778191
    250          8           0       13.921128   -5.156463   -0.279274
    251          6           0       13.275606   -4.479326   -1.289686
    252          6           0       13.804518   -4.196106   -2.549118
    253          6           0       12.974497   -3.504683   -3.439915
    254          6           0       11.658749   -3.095186   -3.084789
    255          6           0       10.818425   -2.365483   -4.058374
    256          6           0        9.855602   -1.417001   -3.641366
    257          6           0        9.072662   -0.752662   -4.579626
    258          7           0        9.196406   -0.987659   -5.907751
    259          6           0       10.112712   -1.887297   -6.337855
    260          6           0       10.930897   -2.581526   -5.451557
    261          6           0       11.156729   -3.391496   -1.797420
    262          6           0       11.967101   -4.093185   -0.896296
    263          6           0       11.812595   -4.583210    0.465905
    264          6           0       10.791037   -4.551073    1.423313
    265          6           0        9.006217   -4.100723    3.792632
    266          1           0        7.285413   -3.309565    4.851886
    267          1           0        8.622904   -7.001102    6.284026
    268          1           0       10.450717   -7.086032    4.612188
    269          1           0       12.423215   -6.252682    3.928829
    270          1           0       14.248167   -6.309222    2.228911
    271          1           0       14.819793   -4.495010   -2.825032
    272          1           0       13.369962   -3.248599   -4.427679
    273          1           0        9.725493   -1.167516   -2.585145
    274          1           0        8.332023   -0.007315   -4.274405
    275          1           0       10.175004   -2.053972   -7.417514
    276          1           0       11.633861   -3.313158   -5.858075
    277          1           0       10.138158   -3.109499   -1.513770
    278          1           0        9.830998   -4.082877    1.185471
    279          1           0        9.068888   -3.231209    3.133238
    280          6           0        3.556583   -5.233526    7.941509
    281          7           0        4.842138   -5.169139    8.362616
    282          6           0        5.101053   -5.094168    9.689678
    283          6           0        4.080706   -5.081512   10.636098
    284          6           0        2.728129   -5.140839   10.227471
    285          6           0        1.616973   -5.119541   11.203056
    286          6           0        1.789426   -5.689217   12.495607
    287          6           0        0.763134   -5.696940   13.448059
    288          6           0       -0.443884   -5.105443   13.074906
    289          8           0       -1.567834   -5.003464   13.863923
    290          6           0       -2.519278   -4.348056   13.114724
    291          6           0       -3.814764   -4.040290   13.530785
    292          6           0       -4.630616   -3.372829   12.609134
    293          6           0       -4.167584   -3.010732   11.313191
    294          6           0       -5.062751   -2.299225   10.375546
    295          6           0       -4.559878   -1.380033    9.425399
    296          6           0       -5.425320   -0.729668    8.552043
    297          7           0       -6.761192   -0.951310    8.574088
    298          6           0       -7.272806   -1.824194    9.474094
    299          6           0       -6.462191   -2.503268   10.378998
    300          6           0       -2.847822   -3.334211   10.925159
    301          6           0       -2.020139   -4.012465   11.828503
    302          6           0       -0.655519   -4.518999   11.799195
    303          6           0        0.379525   -4.532068   10.855872
    304          6           0        2.490757   -5.219421    8.835260
    305          1           0        3.390792   -5.306647    6.862266
    306          1           0        6.152324   -5.032885    9.987579
    307          1           0        4.351937   -4.995886   11.691511
    308          1           0        2.740427   -6.166793   12.751054
    309          1           0        0.898739   -6.150099   14.434194
    310          1           0       -4.173085   -4.301784   14.530530
    311          1           0       -5.644451   -3.097021   12.915277
    312          1           0       -3.494310   -1.141610    9.375474
    313          1           0       -5.054468   -0.006442    7.819443
    314          1           0       -8.355383   -1.982527    9.451673
    315          1           0       -6.930488   -3.214332   11.064372
    316          1           0       -2.482315   -3.089946    9.923102
    317          1           0        0.236366   -4.063554    9.877321
    318          1           0        1.476326   -5.298559    8.435939
    319          6           0        4.797093    8.896601    1.218428
    320          7           0        4.986606    9.467627    2.431698
    321          6           0        6.189390   10.016630    2.724071
    322          6           0        7.240437   10.008897    1.811907
    323          6           0        7.076529    9.412285    0.539998
    324          6           0        8.174441    9.370991   -0.449728
    325          6           0        9.147546   10.408782   -0.483331
    326          6           0       10.203924   10.408875   -1.402371
    327          6           0       10.268049    9.330459   -2.284981
    328          8           0       11.230167    9.137098   -3.250901
    329          6           0       10.922371    7.954112   -3.884882
    330          6           0       11.646109    7.375686   -4.927798
    331          6           0       11.168987    6.157120   -5.425585
    332          6           0        9.997287    5.535911   -4.909404
    333          6           0        9.531410    4.248052   -5.467216
    334          6           0        8.159820    3.903716   -5.493922
    335          6           0        7.753083    2.680674   -6.016816
    336          7           0        8.640488    1.784483   -6.510798
    337          6           0        9.960525    2.087200   -6.501755
    338          6           0       10.432357    3.295086   -5.996658
    339          6           0        9.283024    6.153314   -3.857783
    340          6           0        9.751338    7.366369   -3.337772
    341          6           0        9.320316    8.273164   -2.283508
    342          6           0        8.264243    8.297275   -1.364146
    343          6           0        5.807770    8.851177    0.263676
    344          1           0        3.806755    8.477093    1.016795
    345          1           0        6.303728   10.458743    3.718557
    346          1           0        8.195035   10.445545    2.116378
    347          1           0        9.058652   11.252986    0.207320
    348          1           0       10.940050   11.217281   -1.430581
    349          1           0       12.539693    7.853441   -5.339479
    350          1           0       11.703793    5.690237   -6.258381
    351          1           0        7.393760    4.594797   -5.133053
    352          1           0        6.694919    2.404146   -6.053474
    353          1           0       10.646457    1.332881   -6.899810
    354          1           0       11.511233    3.470742   -5.994014
    355          1           0        8.395016    5.679456   -3.428453
    356          1           0        7.541810    7.475828   -1.337386
    357          1           0        5.586877    8.397188   -0.705814
    358          6           0        1.512354    8.287660    5.686373
    359          7           0        1.969195    9.461249    5.188275
    360          6           0        1.403557   10.620304    5.600667
    361          6           0        0.362355   10.640284    6.524104
    362          6           0       -0.141766    9.431098    7.056762
    363          6           0       -1.254722    9.410249    8.030169
    364          6           0       -1.425759   10.486600    8.945149
    365          6           0       -2.460543   10.504070    9.888350
    366          6           0       -3.332188    9.414921    9.884097
    367          8           0       -4.411429    9.244090   10.722188
    368          6           0       -4.996773    8.047015   10.374785
    369          6           0       -6.120395    7.482684   10.979057
    370          6           0       -6.551764    6.248210   10.478508
    371          6           0       -5.891615    5.597544    9.398747
    372          6           0       -6.386817    4.296619    8.899813
    373          6           0       -6.243325    3.919706    7.543911
    374          6           0       -6.715979    2.687703    7.103896
    375          7           0       -7.318009    1.812997    7.944627
    376          6           0       -7.469758    2.145262    9.248516
    377          6           0       -7.024397    3.364387    9.750908
    378          6           0       -4.758900    6.199558    8.805851
    379          6           0       -4.304332    7.428118    9.300764
    380          6           0       -3.202521    8.325048    8.983319
    381          6           0       -2.153806    8.320255    8.055360
    382          6           0        0.471426    8.238093    6.607628
    383          1           0        2.005654    7.374655    5.338599
    384          1           0        1.794459   11.545316    5.165980
    385          1           0       -0.068982   11.606116    6.799509
    386          1           0       -0.712007   11.316141    8.940102
    387          1           0       -2.576004   11.327947   10.598359
    388          1           0       -6.642277    7.983164   11.799645
    389          1           0       -7.444311    5.791717   10.917370
    390          1           0       -5.788868    4.592833    6.812319
    391          1           0       -6.624772    2.386825    6.055291
    392          1           0       -7.951468    1.406632    9.896678
    393          1           0       -7.154931    3.565400   10.817326
    394          1           0       -4.220203    5.702783    7.993197
    395          1           0       -2.057120    7.496897    7.341091
    396          1           0        0.163699    7.262235    6.991944
    397          6           0       -0.763893   -8.897820   -4.872974
    398          7           0       -1.952771   -9.470567   -5.178031
    399          6           0       -2.125883  -10.023429   -6.402051
    400          6           0       -1.115898  -10.015353   -7.359561
    401          6           0        0.133776   -9.417767   -7.073969
    402          6           0        1.224682   -9.377726   -8.071418
    403          6           0        1.350442  -10.416619   -9.035768
    404          6           0        2.366085  -10.418399   -9.999500
    405          6           0        3.251946   -9.341017   -9.979628
    406          8           0        4.305966   -9.149993  -10.844833
    407          6           0        4.909491   -7.967858  -10.478397
    408          6           0        6.018366   -7.392154  -11.098857
    409          6           0        6.470842   -6.174540  -10.576481
    410          6           0        5.845780   -5.551386   -9.460153
    411          6           0        6.360217   -4.265210   -8.942825
    412          6           0        6.251581   -3.917955   -7.575953
    413          6           0        6.740036   -2.697501   -7.121142
    414          7           0        7.325623   -1.806348   -7.956292
    415          6           0        7.445835   -2.111398   -9.270283
    416          6           0        6.982412   -3.317180   -9.788037
    417          6           0        4.728886   -6.165920   -8.850132
    418          6           0        4.253611   -7.378206   -9.365598
    419          6           0        3.160967   -8.282737   -9.037331
    420          6           0        2.144179   -8.304471   -8.074543
    421          6           0        0.285243   -8.854773   -5.785273
    422          1           0       -0.659966   -8.473123   -3.869690
    423          1           0       -3.103049  -10.469293   -6.612429
    424          1           0       -1.325637  -10.453708   -8.338571
    425          1           0        0.653770  -11.260227   -9.012364
    426          1           0        2.463761  -11.227432  -10.728963
    427          1           0        6.513188   -7.871448  -11.948349
    428          1           0        7.352359   -5.709881  -11.028764
    429          1           0        5.811270   -4.604903   -6.848637
    430          1           0        6.674236   -2.418306   -6.065056
    431          1           0        7.916307   -1.361619   -9.914114
    432          1           0        7.086539   -3.495545  -10.861305
    433          1           0        4.217501   -5.690400   -8.007677
    434          1           0        2.048957   -7.481873   -7.359190
    435          1           0        1.228617   -8.400451   -5.471510
    436          6           0       -5.506075   -8.259862   -2.021286
    437          7           0       -4.982740   -9.438408   -2.435417
    438          6           0       -5.471117  -10.594762   -1.927698
    439          6           0       -6.500169  -10.607794   -0.990637
    440          6           0       -7.064454   -9.393767   -0.534998
    441          6           0       -8.153311   -9.364642    0.465020
    442          6           0       -9.097284  -10.427623    0.526644
    443          6           0      -10.149454  -10.435675    1.450616
    444          6           0      -10.226310   -9.350450    2.323856
    445          8           0      -11.176910   -9.171340    3.303909
    446          6           0      -10.879845   -7.981746    3.930855
    447          6           0      -11.598025   -7.412549    4.982718
    448          6           0      -11.131233   -6.187192    5.473914
    449          6           0       -9.975083   -5.550549    4.942037
    450          6           0       -9.514941   -4.259409    5.496745
    451          6           0       -8.145126   -3.907679    5.514154
    452          6           0       -7.741954   -2.682709    6.035128
    453          7           0       -8.631492   -1.791070    6.533667
    454          6           0       -9.949841   -2.100783    6.533038
    455          6           0      -10.418075   -3.311989    6.032052
    456          6           0       -9.268030   -6.156800    3.879241
    457          6           0       -9.726523   -7.376270    3.365775
    458          6           0       -9.300761   -8.273894    2.301745
    459          6           0       -8.261817   -8.278789    1.362867
    460          6           0       -6.532419   -8.203501   -1.083976
    461          1           0       -5.091779   -7.348834   -2.464548
    462          1           0       -5.012873  -11.524030   -2.280240
    463          1           0       -6.835748  -11.572219   -0.600790
    464          1           0       -9.025162  -11.253736   -0.187473
    465          1           0      -10.879740  -11.249266    1.481578
    466          1           0      -12.479062   -7.902635    5.406774
    467          1           0      -11.660645   -5.727396    6.314131
    468          1           0       -7.378579   -4.595100    5.147298
    469          1           0       -6.685195   -2.400121    6.066405
    470          1           0      -10.637154   -1.349723    6.934675
    471          1           0      -11.495784   -3.494280    6.035884
    472          1           0       -8.393243   -5.669831    3.437439
    473          1           0       -7.529649   -7.465611    1.350699
    474          1           0       -6.930776   -7.224192   -0.806550
 ---------------------------------------------------------------------
 Rotational constants (GHZ):           0.0011218           0.0011208           0.0011194
 Standard basis: def2SVP (5D, 7F)
 There are  5556 symmetry adapted cartesian basis functions of A   symmetry.
 There are  5226 symmetry adapted basis functions of A   symmetry.
  5226 basis functions,  9066 primitive gaussians,  5556 cartesian basis functions
  1056 alpha electrons     1056 beta electrons
       nuclear repulsion energy     95581.2900642635 Hartrees.
 NAtoms=  474 NActive=  474 NUniq=  474 SFac= 1.00D+00 NAtFMM=   60 NAOKFM=T Big=T
 Integral buffers will be    131072 words long.
 Raffenetti 2 integral format.
 Two-electron integral symmetry is turned on.
 Nuclear repulsion after empirical dispersion term =    95579.1987882759 Hartrees.
 ------------------------------------------------------------------------------
 Polarizable Continuum Model (PCM)
 =================================
 Model                : PCM.
 Atomic radii         : UFF (Universal Force Field).
 Polarization charges : Total charges.
 Charge compensation  : None.
 Solution method      : On-the-fly selection.
 Cavity type          : Scaled VdW (van der Waals Surface) (Alpha=1.100).
 Cavity algorithm     : GePol (No added spheres)
                        Default sphere list used, NSphG=  474.
                        Lebedev-Laikov grids with approx.  5.0 points / Ang**2.
                        Smoothing algorithm: York/Karplus (Gamma=1.0000).
                        Polarization charges: spherical gaussians, with
                                              point-specific exponents (IZeta= 3).
                        Self-potential: point-specific (ISelfS= 7).
                        Self-field    : sphere-specific E.n sum rule (ISelfD= 2).
 Solvent              : DiMethylSulfoxide, Eps=  46.826000 Eps(inf)=   2.007889
 ------------------------------------------------------------------------------
 One-electron integrals computed using PRISM.
   1 Symmetry operations used in ECPInt.
 ECPInt:  NShTT= 2809635 NPrTT=10376229 LenC2=  499900 LenP2D= 1006564.
 LDataN:  DoStor=T MaxTD1= 7 Len=  274
 Number of processors reduced to  26 by ecpmxn.
 NBasis=  5226 RedAO= T EigKep=  2.43D-04  NBF=  5226
 NBsUse=  5226 1.00D-06 EigRej= -1.00D+00 NBFU=  5226
 Defaulting to unpruned grid for atomic number  46.
 ExpMin= 3.70D-02 ExpMax= 2.27D+03 ExpMxC= 3.41D+02 IAcc=3 IRadAn=         5 AccDes= 0.00D+00
 Harris functional with IExCor= 3630 and IRadAn=       5 diagonalized for initial guess.
 HarFok:  IExCor= 3630 AccDes= 0.00D+00 IRadAn=         5 IDoV= 1 UseB2=F ITyADJ=14
 ICtDFT=  3500011 ScaDFX=  1.000000  1.000000  1.000000  1.000000
 Defaulting to unpruned grid for atomic number  46.
 FoFCou: FMM=F IPFlag=           0 FMFlag=      100000 FMFlg1=        2001
         NFxFlg=           0 DoJE=T BraDBF=F KetDBF=T FulRan=T
         wScrn=  0.000000 ICntrl=       500 IOpCl=  0 I1Cent=   200000004 NGrid=           0
         NMat0=    1 NMatS0=      1 NMatT0=    0 NMatD0=    1 NMtDS0=    0 NMtDT0=    0
 Petite list used in FoFCou.
 Requested convergence on RMS density matrix=1.00D-08 within 128 cycles.
 Requested convergence on MAX density matrix=1.00D-06.
 Requested convergence on             energy=1.00D-06.
 No special actions if energy rises.
 Defaulting to unpruned grid for atomic number  46.
 Defaulting to unpruned grid for atomic number  46.
 Defaulting to unpruned grid for atomic number  46.
 Defaulting to unpruned grid for atomic number  46.
 Defaulting to unpruned grid for atomic number  46.
 Defaulting to unpruned grid for atomic number  46.
 Defaulting to unpruned grid for atomic number  46.
 Defaulting to unpruned grid for atomic number  46.
 Defaulting to unpruned grid for atomic number  46.
 Defaulting to unpruned grid for atomic number  46.
 Defaulting to unpruned grid for atomic number  46.
 Defaulting to unpruned grid for atomic number  46.
 Defaulting to unpruned grid for atomic number  46.
 Defaulting to unpruned grid for atomic number  46.
 Defaulting to unpruned grid for atomic number  46.
 Defaulting to unpruned grid for atomic number  46.
 Defaulting to unpruned grid for atomic number  46.
 Defaulting to unpruned grid for atomic number  46.
 Defaulting to unpruned grid for atomic number  46.
 Defaulting to unpruned grid for atomic number  46.
 Defaulting to unpruned grid for atomic number  46.
 Defaulting to unpruned grid for atomic number  46.
 Defaulting to unpruned grid for atomic number  46.
 Defaulting to unpruned grid for atomic number  46.
 Defaulting to unpruned grid for atomic number  46.
 Defaulting to unpruned grid for atomic number  46.
 Defaulting to unpruned grid for atomic number  46.
 Defaulting to unpruned grid for atomic number  46.
 Defaulting to unpruned grid for atomic number  46.
 Defaulting to unpruned grid for atomic number  46.
 Defaulting to unpruned grid for atomic number  46.
 Defaulting to unpruned grid for atomic number  46.
 Defaulting to unpruned grid for atomic number  46.
 Defaulting to unpruned grid for atomic number  46.
 Defaulting to unpruned grid for atomic number  46.
 Defaulting to unpruned grid for atomic number  46.
 Defaulting to unpruned grid for atomic number  46.
 Defaulting to unpruned grid for atomic number  46.
 Defaulting to unpruned grid for atomic number  46.
 Defaulting to unpruned grid for atomic number  46.
 Defaulting to unpruned grid for atomic number  46.
 Defaulting to unpruned grid for atomic number  46.
 Defaulting to unpruned grid for atomic number  46.
 Defaulting to unpruned grid for atomic number  46.
 Defaulting to unpruned grid for atomic number  46.
 Defaulting to unpruned grid for atomic number  46.
 Defaulting to unpruned grid for atomic number  46.
 Defaulting to unpruned grid for atomic number  46.
 Inv3:  Mode=1 IEnd=  3179288748.
 Iteration    1 A*A^-1 deviation from unit magnitude is 2.04D-14 for  32540.
 Iteration    1 A*A^-1 deviation from orthogonality  is 1.42D-14 for  14251   7277.
 Iteration    1 A^-1*A deviation from unit magnitude is 2.08D-14 for  32540.
 Iteration    1 A^-1*A deviation from orthogonality  is 4.27D-13 for  22820  22800.
 EnCoef did   100 forward-backward iterations
 EnCoef did   100 forward-backward iterations
 EnCoef did     3 forward-backward iterations
 Error on total polarization charges =  0.04984
 SCF Done:  E(RB97D3) =  -13129.5695244     A.U. after   20 cycles
            NFock= 20  Conv=0.20D-08     -V/T= 2.0485
 Hyperfine terms turned off by default for NAtoms > 100.

 **********************************************************************

            Population analysis using the SCF Density.

 **********************************************************************

 Orbital symmetries:
       Occupied  (A) (A) (A) (A) (A) (A) (A) (A) (A) (A) (A) (A)
                 (A) (A) (A) (A) (A) (A) (A) (A) (A) (A) (A) (A)
                 (A) (A) (A) (A) (A) (A) (A) (A) (A) (A) (A) (A)
                 (A) (A) (A) (A) (A) (A) (A) (A) (A) (A) (A) (A)
                 (A) (A) (A) (A) (A) (A) (A) (A) (A) (A) (A) (A)
                 (A) (A) (A) (A) (A) (A) (A) (A) (A) (A) (A) (A)
                 (A) (A) (A) (A) (A) (A) (A) (A) (A) (A) (A) (A)
                 (A) (A) (A) (A) (A) (A) (A) (A) (A) (A) (A) (A)
                 (A) (A) (A) (A) (A) (A) (A) (A) (A) (A) (A) (A)
                 (A) (A) (A) (A) (A) (A) (A) (A) (A) (A) (A) (A)
                 (A) (A) (A) (A) (A) (A) (A) (A) (A) (A) (A) (A)
                 (A) (A) (A) (A) (A) (A) (A) (A) (A) (A) (A) (A)
                 (A) (A) (A) (A) (A) (A) (A) (A) (A) (A) (A) (A)
                 (A) (A) (A) (A) (A) (A) (A) (A) (A) (A) (A) (A)
                 (A) (A) (A) (A) (A) (A) (A) (A) (A) (A) (A) (A)
                 (A) (A) (A) (A) (A) (A) (A) (A) (A) (A) (A) (A)
                 (A) (A) (A) (A) (A) (A) (A) (A) (A) (A) (A) (A)
                 (A) (A) (A) (A) (A) (A) (A) (A) (A) (A) (A) (A)
                 (A) (A) (A) (A) (A) (A) (A) (A) (A) (A) (A) (A)
                 (A) (A) (A) (A) (A) (A) (A) (A) (A) (A) (A) (A)
                 (A) (A) (A) (A) (A) (A) (A) (A) (A) (A) (A) (A)
                 (A) (A) (A) (A) (A) (A) (A) (A) (A) (A) (A) (A)
                 (A) (A) (A) (A) (A) (A) (A) (A) (A) (A) (A) (A)
                 (A) (A) (A) (A) (A) (A) (A) (A) (A) (A) (A) (A)
                 (A) (A) (A) (A) (A) (A) (A) (A) (A) (A) (A) (A)
                 (A) (A) (A) (A) (A) (A) (A) (A) (A) (A) (A) (A)
                 (A) (A) (A) (A) (A) (A) (A) (A) (A) (A) (A) (A)
                 (A) (A) (A) (A) (A) (A) (A) (A) (A) (A) (A) (A)
                 (A) (A) (A) (A) (A) (A) (A) (A) (A) (A) (A) (A)
                 (A) (A) (A) (A) (A) (A) (A) (A) (A) (A) (A) (A)
                 (A) (A) (A) (A) (A) (A) (A) (A) (A) (A) (A) (A)
                 (A) (A) (A) (A) (A) (A) (A) (A) (A) (A) (A) (A)
                 (A) (A) (A) (A) (A) (A) (A) (A) (A) (A) (A) (A)
                 (A) (A) (A) (A) (A) (A) (A) (A) (A) (A) (A) (A)
                 (A) (A) (A) (A) (A) (A) (A) (A) (A) (A) (A) (A)
                 (A) (A) (A) (A) (A) (A) (A) (A) (A) (A) (A) (A)
                 (A) (A) (A) (A) (A) (A) (A) (A) (A) (A) (A) (A)
                 (A) (A) (A) (A) (A) (A) (A) (A) (A) (A) (A) (A)
                 (A) (A) (A) (A) (A) (A) (A) (A) (A) (A) (A) (A)
                 (A) (A) (A) (A) (A) (A) (A) (A) (A) (A) (A) (A)
                 (A) (A) (A) (A) (A) (A) (A) (A) (A) (A) (A) (A)
                 (A) (A) (A) (A) (A) (A) (A) (A) (A) (A) (A) (A)
                 (A) (A) (A) (A) (A) (A) (A) (A) (A) (A) (A) (A)
                 (A) (A) (A) (A) (A) (A) (A) (A) (A) (A) (A) (A)
                 (A) (A) (A) (A) (A) (A) (A) (A) (A) (A) (A) (A)
                 (A) (A) (A) (A) (A) (A) (A) (A) (A) (A) (A) (A)
                 (A) (A) (A) (A) (A) (A) (A) (A) (A) (A) (A) (A)
                 (A) (A) (A) (A) (A) (A) (A) (A) (A) (A) (A) (A)
                 (A) (A) (A) (A) (A) (A) (A) (A) (A) (A) (A) (A)
                 (A) (A) (A) (A) (A) (A) (A) (A) (A) (A) (A) (A)
                 (A) (A) (A) (A) (A) (A) (A) (A) (A) (A) (A) (A)
                 (A) (A) (A) (A) (A) (A) (A) (A) (A) (A) (A) (A)
                 (A) (A) (A) (A) (A) (A) (A) (A) (A) (A) (A) (A)
                 (A) (A) (A) (A) (A) (A) (A) (A) (A) (A) (A) (A)
                 (A) (A) (A) (A) (A) (A) (A) (A) (A) (A) (A) (A)
                 (A) (A) (A) (A) (A) (A) (A) (A) (A) (A) (A) (A)
                 (A) (A) (A) (A) (A) (A) (A) (A) (A) (A) (A) (A)
                 (A) (A) (A) (A) (A) (A) (A) (A) (A) (A) (A) (A)
                 (A) (A) (A) (A) (A) (A) (A) (A) (A) (A) (A) (A)
                 (A) (A) (A) (A) (A) (A) (A) (A) (A) (A) (A) (A)
                 (A) (A) (A) (A) (A) (A) (A) (A) (A) (A) (A) (A)
                 (A) (A) (A) (A) (A) (A) (A) (A) (A) (A) (A) (A)
                 (A) (A) (A) (A) (A) (A) (A) (A) (A) (A) (A) (A)
                 (A) (A) (A) (A) (A) (A) (A) (A) (A) (A) (A) (A)
                 (A) (A) (A) (A) (A) (A) (A) (A) (A) (A) (A) (A)
                 (A) (A) (A) (A) (A) (A) (A) (A) (A) (A) (A) (A)
                 (A) (A) (A) (A) (A) (A) (A) (A) (A) (A) (A) (A)
                 (A) (A) (A) (A) (A) (A) (A) (A) (A) (A) (A) (A)
                 (A) (A) (A) (A) (A) (A) (A) (A) (A) (A) (A) (A)
                 (A) (A) (A) (A) (A) (A) (A) (A) (A) (A) (A) (A)
                 (A) (A) (A) (A) (A) (A) (A) (A) (A) (A) (A) (A)
                 (A) (A) (A) (A) (A) (A) (A) (A) (A) (A) (A) (A)
                 (A) (A) (A) (A) (A) (A) (A) (A) (A) (A) (A) (A)
                 (A) (A) (A) (A) (A) (A) (A) (A) (A) (A) (A) (A)
                 (A) (A) (A) (A) (A) (A) (A) (A) (A) (A) (A) (A)
                 (A) (A) (A) (A) (A) (A) (A) (A) (A) (A) (A) (A)
                 (A) (A) (A) (A) (A) (A) (A) (A) (A) (A) (A) (A)
                 (A) (A) (A) (A) (A) (A) (A) (A) (A) (A) (A) (A)
                 (A) (A) (A) (A) (A) (A) (A) (A) (A) (A) (A) (A)
                 (A) (A) (A) (A) (A) (A) (A) (A) (A) (A) (A) (A)
                 (A) (A) (A) (A) (A) (A) (A) (A) (A) (A) (A) (A)
                 (A) (A) (A) (A) (A) (A) (A) (A) (A) (A) (A) (A)
                 (A) (A) (A) (A) (A) (A) (A) (A) (A) (A) (A) (A)
                 (A) (A) (A) (A) (A) (A) (A) (A) (A) (A) (A) (A)
                 (A) (A) (A) (A) (A) (A) (A) (A) (A) (A) (A) (A)
                 (A) (A) (A) (A) (A) (A) (A) (A) (A) (A) (A) (A)
                 (A) (A) (A) (A) (A) (A) (A) (A) (A) (A) (A) (A)
                 (A) (A) (A) (A) (A) (A) (A) (A) (A) (A) (A) (A)
       Virtual   (A) (A) (A) (A) (A) (A) (A) (A) (A) (A) (A) (A)
                 (A) (A) (A) (A) (A) (A) (A) (A) (A) (A) (A) (A)
                 (A) (A) (A) (A) (A) (A) (A) (A) (A) (A) (A) (A)
                 (A) (A) (A) (A) (A) (A) (A) (A) (A) (A) (A) (A)
                 (A) (A) (A) (A) (A) (A) (A) (A) (A) (A) (A) (A)
                 (A) (A) (A) (A) (A) (A) (A) (A) (A) (A) (A) (A)
                 (A) (A) (A) (A) (A) (A) (A) (A) (A) (A) (A) (A)
                 (A) (A) (A) (A) (A) (A) (A) (A) (A) (A) (A) (A)
                 (A) (A) (A) (A) (A) (A) (A) (A) (A) (A) (A) (A)
                 (A) (A) (A) (A) (A) (A) (A) (A) (A) (A) (A) (A)
                 (A) (A) (A) (A) (A) (A) (A) (A) (A) (A) (A) (A)
                 (A) (A) (A) (A) (A) (A) (A) (A) (A) (A) (A) (A)
                 (A) (A) (A) (A) (A) (A) (A) (A) (A) (A) (A) (A)
                 (A) (A) (A) (A) (A) (A) (A) (A) (A) (A) (A) (A)
                 (A) (A) (A) (A) (A) (A) (A) (A) (A) (A) (A) (A)
                 (A) (A) (A) (A) (A) (A) (A) (A) (A) (A) (A) (A)
                 (A) (A) (A) (A) (A) (A) (A) (A) (A) (A) (A) (A)
                 (A) (A) (A) (A) (A) (A) (A) (A) (A) (A) (A) (A)
                 (A) (A) (A) (A) (A) (A) (A) (A) (A) (A) (A) (A)
                 (A) (A) (A) (A) (A) (A) (A) (A) (A) (A) (A) (A)
                 (A) (A) (A) (A) (A) (A) (A) (A) (A) (A) (A) (A)
                 (A) (A) (A) (A) (A) (A) (A) (A) (A) (A) (A) (A)
                 (A) (A) (A) (A) (A) (A) (A) (A) (A) (A) (A) (A)
                 (A) (A) (A) (A) (A) (A) (A) (A) (A) (A) (A) (A)
                 (A) (A) (A) (A) (A) (A) (A) (A) (A) (A) (A) (A)
                 (A) (A) (A) (A) (A) (A) (A) (A) (A) (A) (A) (A)
                 (A) (A) (A) (A) (A) (A) (A) (A) (A) (A) (A) (A)
                 (A) (A) (A) (A) (A) (A) (A) (A) (A) (A) (A) (A)
                 (A) (A) (A) (A) (A) (A) (A) (A) (A) (A) (A) (A)
                 (A) (A) (A) (A) (A) (A) (A) (A) (A) (A) (A) (A)
                 (A) (A) (A) (A) (A) (A) (A) (A) (A) (A) (A) (A)
                 (A) (A) (A) (A) (A) (A) (A) (A) (A) (A) (A) (A)
                 (A) (A) (A) (A) (A) (A) (A) (A) (A) (A) (A) (A)
                 (A) (A) (A) (A) (A) (A) (A) (A) (A) (A) (A) (A)
                 (A) (A) (A) (A) (A) (A) (A) (A) (A) (A) (A) (A)
                 (A) (A) (A) (A) (A) (A) (A) (A) (A) (A) (A) (A)
                 (A) (A) (A) (A) (A) (A) (A) (A) (A) (A) (A) (A)
                 (A) (A) (A) (A) (A) (A) (A) (A) (A) (A) (A) (A)
                 (A) (A) (A) (A) (A) (A) (A) (A) (A) (A) (A) (A)
                 (A) (A) (A) (A) (A) (A) (A) (A) (A) (A) (A) (A)
                 (A) (A) (A) (A) (A) (A) (A) (A) (A) (A) (A) (A)
                 (A) (A) (A) (A) (A) (A) (A) (A) (A) (A) (A) (A)
                 (A) (A) (A) (A) (A) (A) (A) (A) (A) (A) (A) (A)
                 (A) (A) (A) (A) (A) (A) (A) (A) (A) (A) (A) (A)
                 (A) (A) (A) (A) (A) (A) (A) (A) (A) (A) (A) (A)
                 (A) (A) (A) (A) (A) (A) (A) (A) (A) (A) (A) (A)
                 (A) (A) (A) (A) (A) (A) (A) (A) (A) (A) (A) (A)
                 (A) (A) (A) (A) (A) (A) (A) (A) (A) (A) (A) (A)
                 (A) (A) (A) (A) (A) (A) (A) (A) (A) (A) (A) (A)
                 (A) (A) (A) (A) (A) (A) (A) (A) (A) (A) (A) (A)
                 (A) (A) (A) (A) (A) (A) (A) (A) (A) (A) (A) (A)
                 (A) (A) (A) (A) (A) (A) (A) (A) (A) (A) (A) (A)
                 (A) (A) (A) (A) (A) (A) (A) (A) (A) (A) (A) (A)
                 (A) (A) (A) (A) (A) (A) (A) (A) (A) (A) (A) (A)
                 (A) (A) (A) (A) (A) (A) (A) (A) (A) (A) (A) (A)
                 (A) (A) (A) (A) (A) (A) (A) (A) (A) (A) (A) (A)
                 (A) (A) (A) (A) (A) (A) (A) (A) (A) (A) (A) (A)
                 (A) (A) (A) (A) (A) (A) (A) (A) (A) (A) (A) (A)
                 (A) (A) (A) (A) (A) (A) (A) (A) (A) (A) (A) (A)
                 (A) (A) (A) (A) (A) (A) (A) (A) (A) (A) (A) (A)
                 (A) (A) (A) (A) (A) (A) (A) (A) (A) (A) (A) (A)
[...]
   342  C   -0.073290
   343  C    0.007402
   358  C    0.223721
   359  N   -0.255132
   360  C    0.227264
   361  C    0.011933
   362  C    0.093496
   363  C    0.072155
   364  C   -0.003025
   365  C   -0.045271
   366  C    0.214237
   367  O   -0.232593
   368  C    0.214274
   369  C   -0.045313
   370  C   -0.003236
   371  C    0.072528
   372  C    0.093827
   373  C    0.007247
   374  C    0.223885
   375  N   -0.255429
   376  C    0.226996
   377  C    0.011425
   378  C   -0.072665
   379  C    0.065377
   380  C    0.065428
   381  C   -0.072594
   382  C    0.007238
   397  C    0.223686
   398  N   -0.254818
   399  C    0.226602
   400  C    0.010928
   401  C    0.094047
   402  C    0.072922
   403  C   -0.003711
   404  C   -0.044866
   405  C    0.213908
   406  O   -0.232349
   407  C    0.214006
   408  C   -0.045033
   409  C   -0.003819
   410  C    0.073356
   411  C    0.094451
   412  C    0.007155
   413  C    0.223905
   414  N   -0.255925
   415  C    0.227271
   416  C    0.010544
   417  C   -0.073016
   418  C    0.065667
   419  C    0.065517
   420  C   -0.072773
   421  C    0.007323
   436  C    0.224152
   437  N   -0.255152
   438  C    0.226913
   439  C    0.011938
   440  C    0.093523
   441  C    0.072536
   442  C   -0.002999
   443  C   -0.045251
   444  C    0.214221
   445  O   -0.232575
   446  C    0.214156
   447  C   -0.045373
   448  C   -0.002623
   449  C    0.071807
   450  C    0.093091
   451  C    0.007747
   452  C    0.223451
   453  N   -0.255360
   454  C    0.226723
   455  C    0.011676
   456  C   -0.072542
   457  C    0.065405
   458  C    0.065476
   459  C   -0.073084
   460  C    0.007092
 Electronic spatial extent (au):  <R**2>=        1165344.5506
 Charge=             12.0000 electrons
 Dipole moment (field-independent basis, Debye):
    X=              0.0694    Y=             -0.0071    Z=              0.0628  Tot=              0.0939
 Quadrupole moment (field-independent basis, Debye-Ang):
   XX=           1021.1696   YY=           1016.5964   ZZ=           1010.9695
   XY=             -0.1114   XZ=             -1.1496   YZ=              0.2862
 Traceless Quadrupole moment (field-independent basis, Debye-Ang):
   XX=              4.9245   YY=              0.3512   ZZ=             -5.2757
   XY=             -0.1114   XZ=             -1.1496   YZ=              0.2862
 Octapole moment (field-independent basis, Debye-Ang**2):
  XXX=            -10.2775  YYY=              8.0359  ZZZ=              7.3481  XYY=             17.1227
  XXY=            -13.7783  XXZ=              8.3263  XZZ=             11.4201  YZZ=              7.4750
  YYZ=              9.1410  XYZ=            -20.8401
 Hexadecapole moment (field-independent basis, Debye-Ang**3):
 XXXX=        -300513.5396 YYYY=        -257686.3993 ZZZZ=        -306492.7672 XXXY=         -13711.0391
 XXXZ=         -25407.6513 YYYX=          30845.7406 YYYZ=          33181.4574 ZZZX=         -10022.7924
 ZZZY=         -18362.4487 XXYY=         -96577.7915 XXZZ=         -47556.7252 YYZZ=         -89976.9248
 XXYZ=         -14703.6359 YYXZ=          35237.3107 ZZXY=         -17031.2081
 N-N= 9.557919878828D+04 E-N=-2.203858804908D+05  KE= 1.252256827574D+04
 Unable to Open any file for archive entry.
 1\1\GINC-CX3-12-1\SP\RB97D3\def2SVP\C264H168N24O12Pd6(12+)\VPOSLIGU\02
 -Sep-2023\0\\# SP B97D3/def2svp scrf=(solvent=dmso)\\m6_l1\\12,1\Pd,0,
 6.364388,5.14926,7.003925\Pd,0,-3.479965,9.473021,-3.812552\Pd,0,-6.36
 8213,-5.166679,-7.003123\Pd,0,3.47153,-9.465142,3.810682\Pd,0,-7.99079
 ,-0.011644,7.238819\Pd,0,7.981846,0.010797,-7.247074\C,0,5.37564,7.066
 696,4.96706\N,0,5.699139,6.939933,6.276032\C,0,5.558125,8.006739,7.098
 133\C,0,5.088259,9.232265,6.63563\C,0,4.734301,9.393416,5.275986\C,0,4
 .21972,10.676588,4.751416\C,0,4.65007,11.906528,5.323291\C,0,4.191068,
 13.144555,4.857428\C,0,3.274474,13.118766,3.806148\O,0,2.696551,14.220
 183,3.21525\C,0,1.853938,13.746637,2.234553\C,0,1.06141,14.527931,1.39
 3421\C,0,0.261178,13.845729,0.468985\C,0,0.256301,12.425733,0.375436\C
 ,0,-0.608547,11.749056,-0.614827\C,0,-0.246677,10.509967,-1.193244\C,0
 ,-1.08653,9.894148,-2.115331\N,0,-2.26652,10.445831,-2.486647\C,0,-2.6
 38591,11.633566,-1.953033\C,0,-1.841795,12.303638,-1.02944\C,0,1.07823
 8,11.664672,1.237134\C,0,1.877767,12.328132,2.176128\C,0,2.814918,11.9
 145,3.210596\C,0,3.295976,10.686624,3.682016\C,0,4.894856,8.262009,4.4
 42595\H,0,5.51691,6.185807,4.333525\H,0,5.820023,7.860425,8.150413\H,0
 ,4.97337,10.048806,7.353057\H,0,5.386721,11.895323,6.132537\H,0,4.5379
 03,14.086057,5.292697\H,0,1.068643,15.62013,1.450267\H,0,-0.355168,14.
 432873,-0.218754\H,0,0.703258,10.026374,-0.951724\H,0,-0.815893,8.9413
 73,-2.580767\H,0,-3.602678,12.041689,-2.272295\H,0,-2.207667,13.247056
 ,-0.616237\H,0,1.069646,10.571071,1.199787\H,0,2.93191,9.751153,3.2463
 57\H,0,4.673875,8.308668,3.37308\C,0,6.189485,2.28349,7.745771\N,0,7.0
 20278,3.352947,7.725197\C,0,8.292731,3.210611,8.166331\C,0,8.77283,1.9
 92974,8.639165\C,0,7.932172,0.855944,8.665917\C,0,8.411278,-0.457303,9
 .148104\C,0,9.415556,-0.527746,10.153936\C,0,9.898016,-1.749142,10.639
 546\C,0,9.354159,-2.905787,10.080571\O,0,9.699784,-4.197626,10.40879\C
 ,0,8.933112,-5.025211,9.619046\C,0,8.970932,-6.419704,9.622066\C,0,8.1
 15781,-7.074954,8.727668\C,0,7.238202,-6.363843,7.86219\C,0,6.353238,-
 7.099027,6.93328\C,0,5.090302,-6.588876,6.552134\C,0,4.284241,-7.29911
 5,5.668391\N,0,4.67329,-8.484939,5.14256\C,0,5.875777,-9.000259,5.4916
 93\C,0,6.726849,-8.343726,6.375595\C,0,7.219052,-4.951112,7.890514\C,0
 ,8.076029,-4.277043,8.769468\C,0,8.35355,-2.880608,9.073487\C,0,7.8756
 11,-1.648889,8.60922\C,0,6.60844,1.037996,8.201944\H,0,5.166007,2.4434
 39,7.392893\H,0,8.93529,4.095496,8.123411\H,0,9.816596,1.934892,8.9582
 2\H,0,9.807287,0.396558,10.589525\H,0,10.660124,-1.794579,11.422701\H,
 0,9.632546,-6.973789,10.293958\H,0,8.107378,-8.169299,8.722077\H,0,4.7
 11938,-5.647935,6.959906\H,0,3.299228,-6.925144,5.373121\H,0,6.15673,-
 9.955455,5.03803\H,0,7.695177,-8.798845,6.599018\H,0,6.571153,-4.38531
 2,7.213974\H,0,7.121596,-1.616991,7.816856\H,0,5.884825,0.218819,8.215
 441\C,0,3.55319,5.192554,7.939173\N,0,4.838602,5.143954,8.363236\C,0,5
 .0959,5.090221,9.691701\C,0,4.074109,5.08465,10.636712\C,0,2.721835,5.
 1297,10.225338\C,0,1.608178,5.11759,11.198034\C,0,1.775971,5.698766,12
 .486131\C,0,0.745493,5.717099,13.433981\C,0,-0.461455,5.125426,13.0606
 71\O,0,-1.589706,5.033708,13.84481\C,0,-2.539684,4.375298,13.096178\C,
 0,-3.838718,4.076137,13.507442\C,0,-4.652224,3.404615,12.586586\C,0,-4
 .183691,3.030327,11.296119\C,0,-5.076758,2.315784,10.358834\C,0,-4.572
 311,1.387927,9.417814\C,0,-5.435551,0.733933,8.544971\N,0,-6.770581,0.
 961244,8.557928\C,0,-7.283272,1.843516,9.448066\C,0,-6.475207,2.525536
 ,10.352977\C,0,-2.86051,3.345316,10.912843\C,0,-2.035114,4.027252,11.8
 1544\C,0,-0.66851,4.528232,11.789245\C,0,0.370906,4.5297,10.850926\C,0
 ,2.486349,5.184965,8.831587\H,0,3.388309,5.24725,6.858554\H,0,6.146917
 ,5.040984,9.992745\H,0,4.344653,5.016469,11.693579\H,0,2.726645,6.1769
 05,12.741705\H,0,0.877858,6.178889,14.416549\H,0,-4.201682,4.347363,14
 .502911\H,0,-5.669071,3.135866,12.889061\H,0,-3.507267,1.145647,9.3746
 61\H,0,-5.063575,0.003496,7.819943\H,0,-8.364922,2.005868,9.417919\H,0
 ,-6.944828,3.242446,11.031344\H,0,-2.490466,3.091909,9.91473\H,0,0.230
 186,4.053294,9.875912\H,0,1.472046,5.250828,8.429547\C,0,7.993592,4.12
 044,4.750768\N,0,7.875199,5.146145,5.627518\C,0,8.758347,6.171162,5.56
 955\C,0,9.785387,6.202281,4.630826\C,0,9.930118,5.150387,3.696681\C,0,
 10.999439,5.154985,2.675428\C,0,12.247266,5.782463,2.947907\C,0,13.286
 093,5.811578,2.00956\C,0,13.038056,5.202049,0.779469\O,0,13.918718,5.1
 32781,-0.276831\C,0,13.272002,4.457551,-1.287856\C,0,13.801591,4.17168
 ,-2.546399\C,0,12.970179,3.482823,-3.437914\C,0,11.652465,3.078539,-3.
 084221\C,0,10.810713,2.351856,-4.05881\C,0,9.845535,1.404866,-3.643623
 \C,0,9.062319,0.742956,-4.583544\N,0,9.188141,0.978962,-5.91113\C,0,10
 .106048,1.877825,-6.339104\C,0,10.924829,2.569574,-5.451554\C,0,11.149
 584,3.377556,-1.797906\C,0,11.961465,4.076685,-0.896126\C,0,11.807135,
 4.567688,0.465674\C,0,10.784363,4.539252,1.421725\C,0,8.99467,4.093073
 ,3.785402\H,0,7.269113,3.304687,4.838492\H,0,8.622615,6.984456,6.28894
 \H,0,10.451383,7.068857,4.618385\H,0,12.420277,6.233402,3.929926\H,0,1
 4.246959,6.284412,2.231876\H,0,14.818373,4.466565,-2.821086\H,0,13.365
 767,3.224621,-4.425108\H,0,9.713854,1.15463,-2.587693\H,0,8.319435,-0.
 001039,-4.28063\H,0,10.169182,2.04716,-7.418329\H,0,11.629465,3.300367
 ,-5.856797\H,0,10.12954,3.099347,-1.515705\H,0,9.822901,4.074786,1.182
 296\H,0,9.053156,3.226392,3.121904\C,0,-5.222504,7.280924,-4.787904\N,
 0,-4.685584,8.476964,-5.128138\C,0,-4.949375,8.997361,-6.350025\C,0,-5
 .759739,8.337342,-7.269087\C,0,-6.329779,7.084311,-6.945762\C,0,-7.188
 816,6.348746,-7.898332\C,0,-8.006375,7.060626,-8.820077\C,0,-8.841567,
 6.405652,-9.7334\C,0,-8.828064,5.010928,-9.707766\O,0,-9.567301,4.1837
 1,-10.52359\C,0,-9.247455,2.891492,-10.171188\C,0,-9.775922,1.735132,-
 10.745332\C,0,-9.319618,0.513391,-10.235636\C,0,-8.355947,0.442855,-9.
 191023\C,0,-7.894816,-0.870588,-8.692246\C,0,-6.584324,-1.053525,-8.19
 2541\C,0,-6.178547,-2.29992,-7.727313\N,0,-7.01101,-3.368327,-7.729401
 \C,0,-8.27182,-3.224389,-8.201759\C,0,-8.737963,-2.006015,-8.687212\C,
 0,-7.838276,1.63387,-8.633854\C,0,-8.291104,2.865866,-9.121976\C,0,-8.
 021172,4.262165,-8.810829\C,0,-7.201745,4.935692,-7.896379\C,0,-6.0356
 88,6.567385,-5.662431\H,0,-4.996574,6.902471,-3.786173\H,0,-4.487736,9
 .960188,-6.589405\H,0,-5.916704,8.797009,-8.248253\H,0,-8.012721,8.154
 856,-8.800293\H,0,-9.478341,6.960137,-10.428571\H,0,-10.505514,1.78090
 3,-11.55885\H,0,-9.697634,-0.411268,-10.682602\H,0,-5.859981,-0.234869
 ,-8.186669\H,0,-5.163987,-2.461393,-7.349959\H,0,-8.915673,-4.108974,-
 8.174754\H,0,-9.773035,-1.946105,-9.033343\H,0,-7.116706,1.601057,-7.8
 11785\H,0,-6.559213,4.369814,-7.214743\H,0,-6.460341,5.619403,-5.32205
 7\C,0,-5.37519,-7.071812,-4.962057\N,0,-5.714328,-6.957968,-6.268355\C
 ,0,-5.600913,-8.037235,-7.078367\C,0,-5.143874,-9.26385,-6.605241\C,0,
 -4.774272,-9.411954,-5.248252\C,0,-4.271253,-10.694639,-4.7114\C,0,-4.
 730654,-11.927326,-5.253833\C,0,-4.285186,-13.16422,-4.77157\C,0,-3.35
 3209,-13.134654,-3.733887\O,0,-2.786911,-14.234381,-3.128435\C,0,-1.92
 0991,-13.756566,-2.170117\C,0,-1.139458,-14.534666,-1.315721\C,0,-0.32
 6153,-13.848315,-0.40557\C,0,-0.282557,-12.426922,-0.353155\C,0,0.5993
 51,-11.744927,0.618345\C,0,1.179674,-10.486692,0.334256\C,0,2.002338,-
 9.866442,1.268626\N,0,2.271934,-10.43237,2.469096\C,0,1.73143,-11.6369
 12,2.769919\C,0,0.904032,-12.312203,1.87736\C,0,-1.084867,-11.668795,-
 1.235492\C,0,-1.913546,-12.336938,-2.145296\C,0,-2.863047,-11.927393,-
 3.169796\C,0,-3.330336,-10.700562,-3.657157\C,0,-4.906064,-8.267325,-4
 .427984\H,0,-5.495324,-6.180517,-4.33873\H,0,-5.874107,-7.9005,-8.1293
 11\H,0,-5.050301,-10.091776,-7.312721\H,0,-5.479247,-11.918355,-6.0521
 17\H,0,-4.654132,-14.107612,-5.183976\H,0,-1.155921,-15.62737,-1.35970
 1\H,0,0.316287,-14.431641,0.261278\H,0,1.019063,-9.991916,-0.62707\H,0
 ,2.468267,-8.898435,1.060252\H,0,1.964726,-12.053544,3.754611\H,0,0.47
 7607,-13.26983,2.186597\H,0,-1.087032,-10.57535,-1.192415\H,0,-2.94358
 4,-9.763397,-3.245337\H,0,-4.671336,-8.303663,-3.361006\C,0,-8.005745,
 -4.127982,-4.758751\N,0,-7.88298,-5.156986,-5.630697\C,0,-8.761802,-6.
 185411,-5.568025\C,0,-9.787988,-6.216972,-4.628494\C,0,-9.936561,-5.16
 1936,-3.698601\C,0,-11.00519,-5.168314,-2.676402\C,0,-12.251056,-5.800
 343,-2.947288\C,0,-13.28881,-5.832733,-2.00786\C,0,-13.041533,-5.22212
 2,-0.778191\O,0,-13.921147,-5.156412,0.279274\C,0,-13.275622,-4.479277
 ,1.289686\C,0,-13.804533,-4.196056,2.549118\C,0,-12.97451,-3.504636,3.
 439915\C,0,-11.65876,-3.095143,3.084789\C,0,-10.818434,-2.365443,4.058
 374\C,0,-9.855607,-1.416965,3.641366\C,0,-9.072665,-0.752629,4.579626\
 N,0,-9.19641,-0.987625,5.907751\C,0,-10.112719,-1.88726,6.337855\C,0,-
 10.930906,-2.581486,5.451557\C,0,-11.156741,-3.391455,1.79742\C,0,-11.
 967116,-4.093141,0.896296\C,0,-11.812612,-4.583167,-0.465905\C,0,-10.7
 91054,-4.551034,-1.423313\C,0,-9.006232,-4.10069,-3.792632\H,0,-7.2854
 25,-3.309538,-4.851886\H,0,-8.62293,-7.00107,-6.284026\H,0,-10.450743,
 -7.085994,-4.612188\H,0,-12.423238,-6.252637,-3.928829\H,0,-14.24819,-
 6.30917,-2.228911\H,0,-14.819809,-4.494956,2.825032\H,0,-13.369974,-3.
 24855,4.427679\H,0,-9.725497,-1.16748,2.585145\H,0,-8.332023,-0.007285
 ,4.274405\H,0,-10.175012,-2.053935,7.417514\H,0,-11.633873,-3.313115,5
 .858075\H,0,-10.138169,-3.109462,1.51377\H,0,-9.831013,-4.082841,-1.18
 5471\H,0,-9.0689,-3.231176,-3.133238\C,0,-3.556602,-5.233513,-7.941509
 \N,0,-4.842157,-5.169121,-8.362616\C,0,-5.101072,-5.094149,-9.689678\C
 ,0,-4.080725,-5.081497,-10.636098\C,0,-2.728148,-5.140829,-10.227471\C
 ,0,-1.616992,-5.119535,-11.203056\C,0,-1.789447,-5.68921,-12.495607\C,
 0,-0.763155,-5.696937,-13.448059\C,0,0.443865,-5.105445,-13.074906\O,0
 ,1.567816,-5.00347,-13.863923\C,0,2.519262,-4.348065,-13.114724\C,0,3.
 814749,-4.040304,-13.530785\C,0,4.630604,-3.372846,-12.609134\C,0,4.16
 7573,-3.010747,-11.313191\C,0,5.062743,-2.299243,-10.375546\C,0,4.5598
 73,-1.38005,-9.425399\C,0,5.425317,-0.729688,-8.552043\N,0,6.761188,-0
 .951335,-8.574088\C,0,7.272799,-1.824221,-9.474094\C,0,6.462182,-2.503
 292,-10.378998\C,0,2.84781,-3.334221,-10.925159\C,0,2.020124,-4.012472
 ,-11.828503\C,0,0.655502,-4.519001,-11.799195\C,0,-0.379542,-4.532067,
 -10.855872\C,0,-2.490776,-5.219412,-8.83526\H,0,-3.390811,-5.306635,-6
 .862266\H,0,-6.152342,-5.032863,-9.987579\H,0,-4.351955,-4.99587,-11.6
 91511\H,0,-2.74045,-6.166783,-12.751054\H,0,-0.898762,-6.150096,-14.43
 4194\H,0,4.173069,-4.301799,-14.53053\H,0,5.64444,-3.097042,-12.915277
 \H,0,3.494306,-1.141623,-9.375474\H,0,5.054468,-0.00646,-7.819443\H,0,
 8.355376,-1.982558,-9.451673\H,0,6.930476,-3.214357,-11.064372\H,0,2.4
 82304,-3.089955,-9.923102\H,0,-0.236381,-4.063553,-9.877321\H,0,-1.476
 345,-5.298554,-8.435939\C,0,-4.797061,8.896619,-1.218428\N,0,-4.986571
 ,9.467645,-2.431698\C,0,-6.189353,10.016653,-2.724071\C,0,-7.2404,10.0
 08923,-1.811907\C,0,-7.076495,9.412311,-0.539998\C,0,-8.174407,9.37102
 1,0.449728\C,0,-9.147508,10.408815,0.483331\C,0,-10.203886,10.408912,1
 .402371\C,0,-10.268015,9.330497,2.284981\O,0,-11.230134,9.137139,3.250
 901\C,0,-10.922342,7.954152,3.884882\C,0,-11.646082,7.375729,4.927798\
 C,0,-11.168965,6.157161,5.425585\C,0,-9.997267,5.535948,4.909404\C,0,-
 9.531395,4.248087,5.467216\C,0,-8.159806,3.903746,5.493922\C,0,-7.7530
 73,2.680702,6.016816\N,0,-8.640482,1.784515,6.510798\C,0,-9.960517,2.0
 87236,6.501755\C,0,-10.432345,3.295124,5.996658\C,0,-9.283002,6.153348
 ,3.857783\C,0,-9.751311,7.366405,3.337772\C,0,-9.320286,8.273198,2.283
 508\C,0,-8.264213,8.297305,1.364146\C,0,-5.807738,8.851198,-0.263676\H
 ,0,-3.806724,8.477107,-1.016795\H,0,-6.30369,10.458766,-3.718557\H,0,-
 8.194997,10.445575,-2.116378\H,0,-9.058611,11.253019,-0.20732\H,0,-10.
 940009,11.217321,1.430581\H,0,-12.539664,7.853487,5.339479\H,0,-11.703
 772,5.69028,6.258381\H,0,-7.393743,4.594824,5.133053\H,0,-6.69491,2.40
 417,6.053474\H,0,-10.646452,1.33292,6.89981\H,0,-11.51122,3.470784,5.9
 94014\H,0,-8.394995,5.679487,3.428453\H,0,-7.541783,7.475856,1.337386\
 H,0,-5.586846,8.397208,0.705814\C,0,-1.512324,8.287666,-5.686373\N,0,-
 1.96916,9.461256,-5.188275\C,0,-1.403518,10.620309,-5.600667\C,0,-0.36
 2316,10.640285,-6.524104\C,0,0.1418,9.431097,-7.056762\C,0,1.254756,9.
 410244,-8.030169\C,0,1.425797,10.486595,-8.945149\C,0,2.460581,10.5040
 61,-9.88835\C,0,3.332222,9.414909,-9.884097\O,0,4.411463,9.244074,-10.
 722188\C,0,4.996802,8.046997,-10.374785\C,0,6.120422,7.482662,-10.9790
 57\C,0,6.551787,6.248186,-10.478508\C,0,5.891635,5.597522,-9.398747\C,
 0,6.386833,4.296596,-8.899813\C,0,6.243339,3.919683,-7.543911\C,0,6.71
 5989,2.687678,-7.103896\N,0,7.318016,1.81297,-7.944627\C,0,7.469766,2.
 145235,-9.248516\C,0,7.024409,3.364361,-9.750908\C,0,4.758923,6.199541
 ,-8.805851\C,0,4.304359,7.428102,-9.300764\C,0,3.202551,8.325036,-8.98
 3319\C,0,2.153836,8.320247,-8.05536\C,0,-0.471396,8.238095,-6.607628\H
 ,0,-2.005627,7.374662,-5.338599\H,0,-1.794417,11.545323,-5.16598\H,0,0
 .069024,11.606116,-6.799509\H,0,0.712048,11.316138,-8.940102\H,0,2.576
 045,11.327938,-10.598359\H,0,6.642306,7.98314,-11.799645\H,0,7.444332,
 5.79169,-10.91737\H,0,5.788885,4.592812,-6.812319\H,0,6.624781,2.38680
 1,-6.055291\H,0,7.951473,1.406603,-9.896678\H,0,7.154944,3.565374,-10.
 817326\H,0,4.220224,5.702768,-7.993197\H,0,2.057147,7.49689,-7.341091\
 H,0,-0.163673,7.262236,-6.991944\C,0,0.76386,-8.897823,4.872974\N,0,1.
 952736,-9.470574,5.178031\C,0,2.125846,-10.023437,6.402051\C,0,1.11586
 1,-10.015357,7.359561\C,0,-0.13381,-9.417766,7.073969\C,0,-1.224716,-9
 .377722,8.071418\C,0,-1.35048,-10.416614,9.035768\C,0,-2.366123,-10.41
 839,9.9995\C,0,-3.25198,-9.341005,9.979628\O,0,-4.305999,-9.149977,10.
 844833\C,0,-4.90952,-7.96784,10.478397\C,0,-6.018393,-7.392132,11.0988
 57\C,0,-6.470865,-6.174516,10.576481\C,0,-5.8458,-5.551365,9.460153\C,
 0,-6.360233,-4.265187,8.942825\C,0,-6.251595,-3.917932,7.575953\C,0,-6
 .740046,-2.697476,7.121142\N,0,-7.32563,-1.806321,7.956292\C,0,-7.4458
 43,-2.111371,9.270283\C,0,-6.982424,-3.317154,9.788037\C,0,-4.728909,-
 6.165903,8.850132\C,0,-4.253638,-7.37819,9.365598\C,0,-3.160997,-8.282
 725,9.037331\C,0,-2.144209,-8.304463,8.074543\C,0,-0.285275,-8.854772,
 5.785273\H,0,0.659935,-8.473125,3.86969\H,0,3.103011,-10.469304,6.6124
 29\H,0,1.325599,-10.453713,8.338571\H,0,-0.653811,-11.260225,9.012364\
 H,0,-2.463802,-11.227423,10.728963\H,0,-6.513217,-7.871424,11.948349\H
 ,0,-7.35238,-5.709854,11.028764\H,0,-5.811287,-4.604882,6.848637\H,0,-
 6.674245,-2.418282,6.065056\H,0,-7.916312,-1.36159,9.914114\H,0,-7.086
 552,-3.495519,10.861305\H,0,-4.217522,-5.690385,8.007677\H,0,-2.048984
 ,-7.481865,7.35919\H,0,-1.228648,-8.400446,5.47151\C,0,5.506045,-8.259
 882,2.021286\N,0,4.982705,-9.438426,2.435417\C,0,5.471078,-10.594782,1
 .927698\C,0,6.50013,-10.607818,0.990637\C,0,7.06442,-9.393793,0.534998
 \C,0,8.153277,-9.364672,-0.46502\C,0,9.097246,-10.427656,-0.526644\C,0
 ,10.149416,-10.435712,-1.450616\C,0,10.226276,-9.350487,-2.323856\O,0,
 11.176876,-9.171381,-3.303909\C,0,10.879816,-7.981786,-3.930855\C,0,11
 .597998,-7.412591,-4.982718\C,0,11.13121,-6.187233,-5.473914\C,0,9.975
 063,-5.550585,-4.942037\C,0,9.514925,-4.259444,-5.496745\C,0,8.145112,
 -3.907709,-5.514154\C,0,7.741944,-2.682737,-6.035128\N,0,8.631485,-1.7
 91102,-6.533667\C,0,9.949833,-2.100819,-6.533038\C,0,10.418063,-3.3120
 27,-6.032052\C,0,9.268007,-6.156834,-3.879241\C,0,9.726496,-7.376306,-
 3.365775\C,0,9.300731,-8.273928,-2.301745\C,0,8.261787,-8.278819,-1.36
 2867\C,0,6.532389,-8.203525,1.083976\H,0,5.091752,-7.348853,2.464548\H
 ,0,5.012831,-11.524048,2.28024\H,0,6.835706,-11.572244,0.60079\H,0,9.0
 25121,-11.253769,0.187473\H,0,10.879699,-11.249306,-1.481578\H,0,12.47
 9033,-7.902681,-5.406774\H,0,11.660624,-5.727439,-6.314131\H,0,7.37856
 2,-4.595127,-5.147298\H,0,6.685186,-2.400145,-6.066405\H,0,10.637149,-
 1.349762,-6.934675\H,0,11.495771,-3.494322,-6.035884\H,0,8.393222,-5.6
 69862,-3.437439\H,0,7.529622,-7.465638,-1.350699\H,0,6.93075,-7.224217
 ,0.80655\\Version=ES64L-G16RevC.01\State=1-A\HF=-13129.5695244\RMSD=2.
 027e-09\Dipole=-0.0273083,-0.0028038,-0.0247238\Quadrupole=3.6612165,0
 .2611348,-3.9223513,0.0828171,-0.8547363,-0.2127508\PG=C01 [X(C264H168
 N24O12Pd6)]\\@
 The archive entry for this job was punched.


 THE PROBLEM WITH THE LADDER OF SUCCESS IS YOU CAN'T
 CLIMB IT WHILE YOU'RE TWIDDLING YOUR THUMBS.
 Job cpu time:       3 days 16 hours  9 minutes  8.4 seconds.
 Elapsed time:       0 days  1 hours 59 minutes  9.6 seconds.
 File lengths (MBytes):  RWF=  31920 Int=      0 D2E=      0 Chk=   1592 Scr=     16
 Normal termination of Gaussian 16 at Sat Sep  2 11:28:51 2023.
