220
	Energy:    2559.8504902
Fe        11.80805       14.53177       10.69021
Fe         7.43406        4.55092       12.84563
O         13.32959        9.80302       13.43911
O         10.83206        8.59962       15.75029
N         10.40315       15.59308        9.66615
N         11.83924       13.44239        9.12945
N          9.04582        4.15861       11.75050
N          7.74127        2.67773       13.64544
C          9.77085       16.90936        9.89476
C          8.43834       17.11117        9.48016
C          7.80076       18.35794        9.61289
C          8.48330       19.45494       10.13237
C          9.79654       19.30253       10.54790
C         10.42212       18.04655       10.45294
C         10.18355       14.94040        8.44699
C         10.90652       13.84423        8.20712
C         10.75162       13.14285        7.02910
C         11.47283       11.97803        6.87065
C         12.39435       11.58055        7.85012
C         12.63117       12.37940        8.94873
C         14.11390       11.65239       14.71484
C         14.47490       12.20656       15.96170
C         14.34922       11.44892       17.14047
C         14.66912       12.00129       18.39631
C         14.54379       11.22989       19.55906
C         14.11040        9.90718       19.48123
C         13.79657        9.34653       18.24731
C         13.90383       10.10988       17.06441
C         13.56329        9.55806       15.80971
C         13.64646       10.33638       14.64322
C         14.29555        9.29218       12.59856
C         13.21462        8.13155       15.70108
C         14.25297        7.16613       15.58088
C         15.61629        7.53220       15.60495
C         16.61023        6.55734       15.49506
C         16.26692        5.21345       15.34659
C         14.92914        4.83527       15.30295
C         13.92357        5.79890       15.42361
C         12.59707        5.40323       15.40306
C         11.59090        6.33979       15.58143
C         11.87227        7.71318       15.70910
C         10.52030        9.46045       16.78627
C          9.45291        4.78258       10.61065
C         10.42197        4.17501        9.78492
C         10.95794        2.93512       10.13982
C         10.51345        2.29781       11.28231
C          9.51253        2.89897       12.05029
C          8.90754        2.17476       13.00010
C          7.43426        2.00966       14.91280
C          8.51581        1.58281       15.73068
C          8.32073        0.79926       16.86945
C          7.04252        0.39178       17.22562
C          5.95001        0.77530       16.44287
C          6.13184        1.58339       15.29403
O         10.85216        9.29367        7.64687
O         11.75898        6.61899        9.84964
N         13.36457       15.54143        9.75352
N         13.28808       13.59136       11.61554
N          8.37274        5.13882       14.40500
N          5.79078        4.95168       13.95707
C         13.56713       16.20914        8.46625
C         12.98724       17.45715        8.11273
C         13.37960       18.12212        6.92757
C         14.33615       17.56058        6.07886
C         14.91577       16.34236        6.40671
C         14.54908       15.68412        7.58297
C         14.57366       15.05272       10.34432
C         14.50857       14.10919       11.28620
C         15.65964       13.71791       11.97961
C         15.52528       12.90120       13.09497
C         14.25931       12.43988       13.47541
C         13.13837       12.76536       12.68663
C         13.01962       10.28814        7.78624
C         14.39807       10.19673        7.91508
C         15.02138        8.96541        7.82884
C         16.41543        8.89524        7.90250
C         17.05776        7.66645        7.79694
C         16.31216        6.49848        7.63429
C         14.91798        6.55320        7.57099
C         14.24948        7.79277        7.65636
C         12.83183        7.88745        7.58471
C         12.21241        9.14650        7.64050
C          9.97464        8.94336        6.63604
C         12.02804        6.66297        7.47087
C         11.81596        6.06658        6.21004
C         12.26336        6.69154        5.02738
C         12.02642        6.10659        3.78808
C         11.35329        4.88811        3.70590
C         10.91104        4.24604        4.86879
C         11.13394        4.83133        6.12795
C         10.69001        4.20378        7.30329
C         10.87734        4.82505        8.55161
C         11.54175        6.05301        8.63610
C         12.81929        6.23825       10.64744
C          9.70488        5.26188       14.49404
C         10.21917        5.90272       15.60225
C          9.38444        6.23057       16.68041
C          8.02782        5.96701       16.61333
C          7.52193        5.48026       15.42220
C          6.20828        5.32487       15.24143
C          4.37278        4.64461       13.73357
C          3.93597        3.43053       13.14305
C          2.58459        3.05047       13.11184
C          1.62028        3.89282       13.64415
C          2.01026        5.10470       14.21631
C          3.37044        5.46783       14.27795
N         11.56718       15.65352       12.26444
N         10.24605       13.17517       11.48706
N          7.40718        6.67553       12.14037
N          6.34776        4.08852       11.29195
C         12.60407       16.64956       12.73128
C         13.39931       17.42627       11.80324
C         14.35582       18.36576       12.17152
C         14.60881       18.59604       13.49720
C         13.88649       17.88459       14.46157
C         12.88238       16.92922       14.09546
C         10.36954       15.09088       12.96372
C          9.75184       13.83466       12.56553
C          8.66830       13.18963       13.27262
C          8.16569       11.83551       12.97701
C          8.69759       10.97434       11.95819
C          9.77779       11.78963       11.16957
C          8.14080        7.94328       12.46632
C          7.97061        9.32942       11.74044
C          6.92629        9.18615       10.77306
C          6.24386        7.92264       10.46650
C          6.52044        6.65957       11.10951
C          5.95797        5.39272       10.68084
C          6.24419        2.69205       10.72905
C          6.13257        2.40430        9.34162
C          6.03305        1.05427        8.87489
C          6.01286       -0.02652        9.76233
C          6.09987        0.21346       11.10998
C          6.22057        1.51970       11.57778
H          7.88178       16.29101        9.06333
H          6.77370       18.47484        9.29848
H          7.99504       20.42260       10.20931
H         10.33820       20.16568       10.93620
H         11.40190       18.02969       10.76269
H          9.48639       15.33555        7.71796
H         10.04615       13.46475        6.27365
H         11.31345       11.38152        5.99236
H         13.32508       12.07182        9.71821
H         14.83127       13.23089       16.01484
H         15.00957       13.02594       18.48026
H         14.78308       11.65542       20.52511
H         14.01199        9.31079       20.37979
H         13.45401        8.31988       18.22268
H         15.09648       10.03834       12.40781
H         14.74269        8.38530       13.05139
H         13.83185        9.01957       11.63011
H         15.91878        8.56487       15.71629
H         17.65120        6.84530       15.52749
H         17.03800        4.46048       15.26710
H         14.67295        3.78829       15.18789
H         12.33891        4.35643       15.28216
H         11.33935       10.14919       17.03752
H         10.23237        8.88682       17.68925
H          9.64961       10.08071       16.48367
H          9.00230        5.71709       10.31378
H         11.70274        2.45318        9.51761
H         10.88261        1.30292       11.51540
H          9.24474        1.15945       13.21073
H          9.53013        1.84584       15.46753
H          9.17311        0.48788       17.46339
H          6.90552       -0.23783       18.10083
H          4.96316        0.41817       16.71950
H          5.26467        1.79778       14.70057
H         12.29531       17.96363        8.74850
H         12.96221       19.09083        6.67264
H         14.64504       18.07597        5.17350
H         15.67201       15.91253        5.75900
H         15.05143       14.75723        7.82063
H         15.53609       15.48651       10.06917
H         16.63889       14.10668       11.71570
H         16.40246       12.64268       13.67625
H         12.15310       12.46016       13.00110
H         14.98598       11.09873        8.05168
H         17.00334        9.79730        8.02974
H         18.13660        7.62223        7.84027
H         16.81630        5.54639        7.55460
H         14.37088        5.62836        7.44748
H         10.16854        9.54574        5.72676
H         10.01648        7.87755        6.37422
H          8.93878        9.16082        6.97370
H         12.78046        7.64229        5.05727
H         12.36474        6.60556        2.88915
H         11.17359        4.44305        2.73655
H         10.38976        3.30069        4.78357
H         10.17751        3.24842        7.24830
H         12.74279        6.74484       11.63039
H         13.77540        6.53013       10.16878
H         12.81845        5.14031       10.81846
H         10.33777        5.02148       13.65135
H          9.78692        6.70368       17.55946
H          7.37468        6.21731       17.43902
H          5.48969        5.52405       16.02604
H          4.60635        2.73645       12.77738
H          2.28813        2.08659       12.69653
H          0.57397        3.60020       13.62812
H          1.25750        5.75452       14.63842
H          3.64494        6.38901       14.76029
H         13.28826       17.40675       10.77003
H         14.89586       18.92673       11.40294
H         15.36157       19.33527       13.76767
H         14.11463       18.08626       15.49837
H         12.36071       16.41364       14.87921
H         10.00313       15.59602       13.84828
H          8.20967       13.72430       14.09453
H          7.34358       11.45993       13.57490
H         10.24404       11.28397       10.33421
H          8.87126        7.90730       13.26496
H          6.62476       10.07085       10.22448
H          5.49713        7.94010        9.68354
H          5.29246        5.38227        9.82858
H          6.14133        3.19407        8.61316
H          5.96670        0.83078        7.81873
H          5.92137       -1.05513        9.41507
H          6.06352       -0.61917       11.81680
H          6.22621        1.54682       12.62125
