      -----------------------------------------------------------      
     |                   =====================                   |     
     |                           x T B                           |     
     |                   =====================                   |     
     |                         S. Grimme                         |     
     |          Mulliken Center for Theoretical Chemistry        |     
     |                    University of Bonn                     |     
     |                Version 6.2 RC2 (SAW190805)                |     
      -----------------------------------------------------------      

   This program is distributed in the hope that it will be useful,
   but WITHOUT ANY WARRANTY; without even the implied warranty of
   MERCHANTABILITY or FITNESS FOR A PARTICULAR PURPOSE.
   
   FOR NON-COMMERCIAL, ACADEMIA USE ONLY.
   
   Cite this work as:
   * S. Grimme, C. Bannwarth, P. Shushkov, J. Chem. Theory Comput., 2017,
     13, 1989-2009. DOI: 10.1021/acs.jctc.7b00118
   * C. Bannwarth, S. Ehlert and S. Grimme., J. Chem. Theory Comput., 2019,
     15, 1652-1671. DOI: 10.1021/acs.jctc.8b01176
   * P. Pracht, E. Caldeweyher, S. Ehlert, S. Grimme, ChemRxiv, 2019, preprint.
     DOI: 10.26434/chemrxiv.8326202.v1
   
   for DFT-D4:
   * E. Caldeweyher, C. Bannwarth and S. Grimme, J. Chem. Phys., 2017,
     147, 034112. DOI: 10.1063/1.4993215
   * E. Caldeweyher, S. Ehlert, A. Hansen, H. Neugebauer, S. Spicher,
     C. Bannwarth and S. Grimme, J. Chem. Phys., 2019, 150, 154122.
     DOI: 10.1063/1.5090222
   
   for sTDA-xTB:
   * S. Grimme and C. Bannwarth, J. Chem. Phys., 2016, 145, 054103.
     DOI: 10.1063/1.4959605
   
   in the mass-spec context:
   * V. Asgeirsson, C. Bauer and S. Grimme, Chem. Sci., 2017, 8, 4879.
     DOI: 10.1039/c7sc00601b
   
   for metadynamics refer to:
   * S. Grimme, J. Chem. Theory Comput., 2019, 155, 2847-2862
     DOI: 10.1021/acs.jctc.9b00143
   
   with help from (in alphabetical order)
   C. Bannwarth, F. Bohle, G. Brandenburg, E. Caldeweyher, M. Checinski,
   S. Dohm, S. Ehlert, S. Ehrlich, F. März, H. Neugebauer, J. Pisarek,
   P. Pracht, P. Shushkov, and S. Spicher.
   
 * started run on 2021/06/21 at 23:53:05.748     

           -------------------------------------------------
          |                Calculation Setup                |
           -------------------------------------------------

          program call               : /home/atarzia/software/xtb-190806/bin/xtb /data/atarzia/projects/unsymm/screening/production/free_energy_calculations/fe_5a3_c/input_structure.xyz --gfn 2 --hess --parallel 6 --etemp 300 --gbsa dmso --chrg 4 --uhf 0 -I det_control.in
          coordinate file            : /data/atarzia/projects/unsymm/screening/production/free_energy_calculations/fe_5a3_c/input_structure.xyz
          omp threads                :                     6
          number of atoms            :                   186
          number of electrons        :                   568
          charge                     :                     4
          spin                       :                   0.0
          first test random number   :      0.94636057989702


########################################################################
# WARNING! Please study the warnings concerning your input carefully
#  - XTBHOME is not set, using HOME instead
#  - XTBPATH is not set, using XTBHOME instead
#  - Process number higher than OMP_NUM_THREADS, I hope you know what you are doing.
########################################################################

           ------------------------------------------------- 
          |                 G F N 2 - x T B                 |
          | Geometry, Frequencies, Noncovalent interactions |
          |            JCTC 2019 parametrisation            |
           ------------------------------------------------- 
             k(s)              :                1.8500
             k(p)              :                2.2300
             k(d)              :                2.2300
             k(f)              :                2.0000
             kEN (H0ij)        :               -2.0000
             D4 a1             :                0.5200
             D4 a2             :                5.0000
             D4 s6             :                1.0000
             D4 s8             :                2.7000
             D4 s9             :                5.0000
             alphaj            :                2.0000

  Z AO/shell   Hii/eV     exponent
  1     Wed Apr 25 08:07:45 CEST 2018   EN: 2.200 GM2: 0.406  GM3: 0.0800  RAES: 1.40
     1s    -10.707211    1.230000
  6     Wed Apr 25 08:07:45 CEST 2018   EN: 2.550 GM2: 0.538  GM3: 0.1500  RAES: 3.00
     2s    -13.970922    2.096432
     2p    -10.063292    1.800000
  7     Wed Apr 25 08:07:45 CEST 2018   EN: 3.040 GM2: 0.461  GM3:-0.0640  RAES: 1.90
     2s    -16.686243    2.339881
     2p    -12.523956    2.014332
 46     Wed Apr 25 16:26:58 CEST 2018   EN: 2.200 GM2: 0.273  GM3: 0.0800  RAES: 5.00
     4d    -11.963518    2.353691
     5s     -9.714059    1.828354
     5p     -2.035281    1.333352

 Solvent             : dmso
 Using internal parameter file: .param_gbsa2_dmso
 Gsolv ref. state (COSMO-RS): gsolv [1 M gas/solution]
 temperature (mdtemp)       :    298.150000000000     
 dielectric constant        :    46.6800000000000     
 rho                        :    1.10000000000000     
 mass                       :    78.1300000000000     
 surface tension            :    15.5689454083859     
 probe radius               :   0.949087640000000     
 vdW radii scaling          :    1.00000000000000     
 Gshift (Eh)                :   5.161738145414381E-003
 c1                         :    1.63948621000000     
 soset                      :   1.179665000000000E-002
 HB correction              :  T
           ------------------------------------------------- 
          |        Self-Consistent Charge Iterations        |
           ------------------------------------------------- 

          ...................................................
          :                      SETUP                      :
          :.................................................:
          :  # basis functions                 564          :
          :  # atomic orbitals                 562          :
          :  # shells                          310          :
          :  # electrons                       568          :
          :  max. iterations                   250          :
          :  Hamiltonian                  GFN2-xTB          :
          :  restarted?                      false          :
          :  GBSA solvation                   true          :
          :  PC potential                    false          :
          :  electronic temp.          300.0000000     K    :
          :  accuracy                    1.0000000          :
          :  -> integral cutoff          0.2500000E+02      :
          :  -> integral neglect         0.1000000E-07      :
          :  -> SCF convergence          0.1000000E-05 Eh   :
          :  -> wf. convergence          0.1000000E-03 e    :
          :  Broyden damping             0.4000000          :
          ...................................................

 iter      E             dE          RMSdq      gap      omega  full diag
   1   -308.6853872 -0.308685E+03  0.611E+00    2.13       0.0  T
   2   -309.1666758 -0.481289E+00  0.403E+00    1.60       1.0  T
   3   -308.8507870  0.315889E+00  0.214E+00    1.87       1.0  T
   4   -309.3310835 -0.480297E+00  0.936E-01    1.83       1.0  T
   5   -309.4094760 -0.783925E-01  0.467E-01    1.84       1.0  T
   6   -309.4438042 -0.343281E-01  0.192E-01    1.86       1.0  T
   7   -309.4460959 -0.229169E-02  0.878E-02    1.87       1.0  T
   8   -309.4461687 -0.728284E-04  0.315E-02    1.87       1.0  T
   9   -309.4462425 -0.738150E-04  0.154E-02    1.87       1.0  T
  10   -309.4462580 -0.155392E-04  0.610E-03    1.87       1.2  T
  11   -309.4462591 -0.103079E-05  0.348E-03    1.87       2.1  T
  12   -309.4462595 -0.410787E-06  0.172E-03    1.87       4.3  T
  13   -309.4462597 -0.203118E-06  0.946E-04    1.87       7.8  T
  14   -309.4462598 -0.845574E-07  0.496E-04    1.87      14.8  T

   *** convergence criteria satisfied after 14 iterations ***

         #    Occupation            Energy/Eh            Energy/eV
      -------------------------------------------------------------
         1        2.0000           -0.7268431             -19.7784
       ...           ...                  ...                  ...
       278        2.0000           -0.3960082             -10.7759
       279        2.0000           -0.3959844             -10.7753
       280        2.0000           -0.3958610             -10.7719
       281        2.0000           -0.3863875             -10.5141
       282        2.0000           -0.3863538             -10.5132
       283        2.0000           -0.3863432             -10.5129
       284        2.0000           -0.3862886             -10.5114 (HOMO)
       285                         -0.3174623              -8.6386 (LUMO)
       286                         -0.3173656              -8.6360
       287                         -0.3172299              -8.6323
       288                         -0.3171535              -8.6302
       289                         -0.3063636              -8.3366
       ...                                ...                  ...
       562                          1.4087926              38.3352
      -------------------------------------------------------------
                  HL-Gap            0.0688263 Eh            1.8729 eV
             Fermi-level           -0.3518755 Eh           -9.5750 eV

 SCC (total)                   0 d,  0 h,  0 min,  2.737 sec
 SCC setup                      ...        0 min,  0.155 sec (  5.677%)
 Dispersion                     ...        0 min,  0.057 sec (  2.100%)
 integral evaluation            ...        0 min,  0.471 sec ( 17.203%)
 zeroth order Hamiltonian       ...        0 min,  0.005 sec (  0.198%)
 iterations                     ...        0 min,  1.670 sec ( 61.009%)
 molecular gradient             ...        0 min,  0.367 sec ( 13.409%)
 printout                       ...        0 min,  0.011 sec (  0.400%)

         :::::::::::::::::::::::::::::::::::::::::::::::::::::
         ::                     SUMMARY                     ::
         :::::::::::::::::::::::::::::::::::::::::::::::::::::
         :: total energy            -303.576383878825 Eh    ::
         :: total w/o Gsasa/hb      -303.431878241115 Eh    ::
         :: gradient norm              0.000742102810 Eh/a0 ::
         :: HOMO-LUMO gap              1.872859229839 eV    ::
         ::.................................................::
         :: SCC energy              -309.576424651835 Eh    ::
         :: -> isotropic ES            0.590211178497 Eh    ::
         :: -> anisotropic ES         -0.084779181863 Eh    ::
         :: -> anisotropic XC          0.213764000035 Eh    ::
         :: -> dispersion             -0.265019949275 Eh    ::
         :: -> Gsolv                  -0.648455312609 Eh    ::
         ::    -> Gborn               -0.503949674900 Eh    ::
         ::    -> Gsasa               -0.135326614724 Eh    ::
         ::    -> Ghb                 -0.014340761130 Eh    ::
         ::    -> Gshift               0.005161738145 Eh    ::
         :: repulsion energy           5.999335834621 Eh    ::
         :: add. restraining           0.000000000000 Eh    ::
         :::::::::::::::::::::::::::::::::::::::::::::::::::::

           ------------------------------------------------- 
          |                Numerical Hessian                |
           ------------------------------------------------- 
step length          :   0.00500
SCC accuracy         :   0.30000
Hessian scale factor :   1.00000
frozen atoms in %    :   0.00000    0
RMS gradient         :   0.00075
estimated CPU  time    144.78 min
estimated wall time     37.20 min

writing file <hessian>.

 projected vibrational frequencies (cm-1)
eigval :       -0.00    -0.00    -0.00    -0.00     0.00     0.00
eigval :        5.54     5.82     6.32     6.96    10.48    13.73
eigval :       14.07    14.22    15.02    17.05    19.90    19.95
eigval :       21.77    26.90    27.52    32.38    34.29    36.58
eigval :       37.47    39.25    39.37    41.02    44.22    46.88
eigval :       47.70    49.53    50.12    54.28    57.30    62.76
eigval :       73.83    76.35    77.52    77.77    80.87    81.25
eigval :       81.29    84.00    96.31    97.43    99.21   100.36
eigval :      109.32   109.48   109.86   110.89   119.91   120.52
eigval :      126.25   130.65   135.45   136.91   138.94   144.29
eigval :      145.03   145.10   150.57   150.87   155.72   157.33
eigval :      160.96   166.36   179.23   179.47   180.22   181.42
eigval :      189.14   191.06   192.52   194.07   195.01   197.35
eigval :      197.92   198.53   204.59   207.63   215.24   223.29
eigval :      231.74   238.89   247.03   253.97   256.84   265.13
eigval :      272.04   272.76   274.19   275.61   284.04   284.20
eigval :      289.05   289.20   295.03   296.74   299.13   299.80
eigval :      307.04   307.39   307.44   308.39   336.00   336.89
eigval :      337.50   337.77   340.85   341.10   344.29   344.61
eigval :      357.70   358.03   358.48   358.99   384.80   385.19
eigval :      391.72   391.87   393.41   394.22   395.64   396.14
eigval :      430.16   430.26   430.30   430.38   433.09   433.15
eigval :      433.22   433.29   439.45   439.55   439.60   439.75
eigval :      448.29   448.48   452.59   453.10   453.26   453.31
eigval :      454.25   454.43   462.20   462.62   462.74   462.79
eigval :      481.10   481.29   481.80   482.43   490.84   491.04
eigval :      491.36   492.05   492.84   492.93   492.96   493.11
eigval :      510.42   510.64   516.40   516.61   519.98   520.21
eigval :      521.96   522.14   538.73   539.71   539.89   540.42
eigval :      562.46   562.56   564.75   564.83   569.40   569.97
eigval :      570.38   570.43   599.51   599.52   599.61   599.66
eigval :      607.88   608.82   609.61   609.85   614.11   614.71
eigval :      619.46   619.70   623.99   624.32   626.17   626.62
eigval :      632.19   633.35   633.64   634.06   665.94   666.01
eigval :      670.89   670.97   672.94   674.32   674.66   674.78
eigval :      718.51   718.62   718.69   718.71   725.06   725.21
eigval :      725.92   726.08   755.62   755.77   756.31   757.12
eigval :      770.66   771.06   777.47   777.59   778.07   778.21
eigval :      780.52   781.37   789.26   789.50   789.92   790.13
eigval :      796.30   796.32   798.47   798.82   798.92   798.99
eigval :      799.01   799.42   814.37   814.77   826.28   826.79
eigval :      838.21   840.10   840.21   841.53   844.19   844.47
eigval :      844.86   845.01   845.29   845.63   850.90   851.13
eigval :      851.33   851.96   853.99   854.18   855.83   855.97
eigval :      863.49   863.64   864.40   864.54   864.99   865.64
eigval :      878.31   880.10   880.47   881.52   887.55   887.90
eigval :      892.78   892.91   893.16   893.19   895.15   895.21
eigval :      895.45   895.46   897.79   897.83   920.17   920.34
eigval :      920.45   920.78   926.37   926.44   926.62   926.82
eigval :      930.65   930.74   931.20   931.24   933.20   933.46
eigval :      933.56   933.83   946.99   948.02   948.18   948.49
eigval :      975.80   978.00   978.14   978.56  1002.39  1003.24
eigval :     1005.64  1005.89  1045.15  1045.22  1046.14  1046.21
eigval :     1076.82  1076.98  1077.04  1077.14  1085.24  1085.28
eigval :     1087.47  1087.49  1109.44  1109.54  1110.08  1110.16
eigval :     1118.65  1118.69  1122.53  1122.71  1135.44  1135.50
eigval :     1136.08  1136.27  1141.83  1142.64  1143.44  1143.93
eigval :     1151.89  1153.79  1157.89  1159.97  1164.05  1165.58
eigval :     1166.86  1169.45  1169.67  1170.11  1170.60  1170.64
eigval :     1170.70  1170.81  1173.02  1174.31  1186.80  1187.09
eigval :     1189.31  1190.13  1206.07  1206.53  1206.92  1209.14
eigval :     1216.01  1216.76  1218.64  1219.43  1219.68  1219.92
eigval :     1220.30  1220.76  1224.34  1224.47  1224.55  1224.89
eigval :     1228.29  1228.66  1235.01  1235.90  1252.04  1252.13
eigval :     1252.14  1252.29  1285.32  1285.53  1286.28  1286.93
eigval :     1294.11  1294.18  1294.65  1295.81  1295.83  1296.03
eigval :     1296.12  1296.73  1308.89  1308.99  1309.06  1309.98
eigval :     1317.90  1318.09  1318.26  1318.42  1342.75  1343.34
eigval :     1343.58  1344.92  1368.14  1368.26  1368.40  1369.51
eigval :     1372.99  1374.12  1375.05  1375.54  1385.96  1386.56
eigval :     1386.80  1387.28  1393.98  1394.04  1394.11  1394.20
eigval :     1398.66  1398.69  1399.85  1399.91  1415.06  1415.19
eigval :     1415.40  1415.47  1421.62  1421.90  1421.99  1422.02
eigval :     1448.12  1448.24  1448.48  1448.69  1456.73  1457.09
eigval :     1457.67  1457.98  1468.05  1468.13  1468.71  1468.74
eigval :     1493.86  1493.89  1493.97  1494.04  1525.90  1526.06
eigval :     1526.56  1526.69  1534.51  1534.59  1534.62  1534.69
eigval :     1539.35  1539.47  1539.63  1539.76  1547.02  1547.16
eigval :     1547.40  1547.52  1556.98  1557.08  1557.44  1557.51
eigval :     1566.56  1566.59  1566.73  1566.79  1585.19  1585.23
eigval :     1585.24  1585.28  1593.76  1593.90  1593.90  1593.92
eigval :     2303.15  2303.18  2303.31  2303.62  2306.75  2306.82
eigval :     2307.20  2307.26  2977.83  2978.33  2982.10  2982.53
eigval :     2983.72  2983.93  2986.44  2986.87  2987.02  2987.21
eigval :     2988.09  2988.42  2989.07  2989.17  2992.26  2992.36
eigval :     3070.65  3071.01  3071.28  3071.67  3074.29  3074.49
eigval :     3074.62  3074.65  3089.37  3090.37  3090.41  3090.52
eigval :     3092.72  3093.35  3093.38  3093.39  3093.43  3093.55
eigval :     3093.59  3093.61  3094.65  3094.67  3095.31  3095.49
eigval :     3097.98  3098.11  3098.34  3098.93  3101.65  3101.80
eigval :     3101.83  3101.97  3107.51  3107.57  3107.81  3107.83
eigval :     3109.57  3109.80  3110.01  3110.26  3116.08  3116.10
eigval :     3116.62  3117.10  3118.47  3118.61  3118.98  3119.25
           -------------------------------------------------
          |                Property Printout                |
           -------------------------------------------------

    * Orbital Energies and Occupations

         #    Occupation            Energy/Eh            Energy/eV
      -------------------------------------------------------------
         1        2.0000           -0.7268391             -19.7783
       ...           ...                  ...                  ...
       272        2.0000           -0.4183569             -11.3841
       273        2.0000           -0.4174730             -11.3600
       274        2.0000           -0.4172415             -11.3537
       275        2.0000           -0.4166501             -11.3376
       276        2.0000           -0.4154112             -11.3039
       277        2.0000           -0.3960143             -10.7761
       278        2.0000           -0.3960043             -10.7758
       279        2.0000           -0.3959804             -10.7752
       280        2.0000           -0.3958571             -10.7718
       281        2.0000           -0.3863839             -10.5140
       282        2.0000           -0.3863503             -10.5131
       283        2.0000           -0.3863395             -10.5128
       284        2.0000           -0.3862850             -10.5113 (HOMO)
       285                         -0.3174577              -8.6385 (LUMO)
       286                         -0.3173609              -8.6358
       287                         -0.3172252              -8.6321
       288                         -0.3171488              -8.6301
       289                         -0.3063577              -8.3364
       290                         -0.3060901              -8.3291
       291                         -0.3054684              -8.3122
       292                         -0.3050397              -8.3006
       293                         -0.2955560              -8.0425
       294                         -0.2951992              -8.0328
       295                         -0.2950160              -8.0278
       ...                                ...                  ...
       562                          1.4087967              38.3353
      -------------------------------------------------------------
                  HL-Gap            0.0688273 Eh            1.8729 eV
             Fermi-level           -0.3518713 Eh           -9.5749 eV

     #   Z        covCN         q      C6AA      α(0)
     1  46 Pd     3.518    -0.088   274.567    34.173
     2  46 Pd     3.518    -0.088   274.561    34.172
     3   6 C      1.983    -0.024    31.683     9.090
     4   6 C      1.981    -0.036    32.027     9.139
     5   6 C      2.965     0.044    27.017     8.526
     6   6 C      2.924    -0.019    28.486     8.753
     7   6 C      2.914    -0.019    28.492     8.753
     8   6 C      2.914    -0.033    28.817     8.803
     9   6 C      2.981     0.003    27.947     8.672
    10   6 C      2.901     0.059    26.684     8.470
    11   7 N      2.667    -0.100    23.215     7.156
    12   6 C      2.903     0.040    27.093     8.535
    13   6 C      2.911    -0.028    28.693     8.784
    14   6 C      2.996     0.018    27.607     8.619
    15   1 H      0.926     0.057     2.231     2.336
    16   1 H      0.926     0.058     2.222     2.331
    17   1 H      0.926     0.072     2.067     2.248
    18   1 H      0.925     0.118     1.630     1.997
    19   1 H      0.925     0.136     1.487     1.907
    20   1 H      0.926     0.098     1.799     2.097
    21   6 C      2.967     0.038    27.156     8.548
    22   6 C      2.921    -0.029    28.717     8.788
    23   6 C      2.916    -0.033    28.816     8.803
    24   6 C      2.985     0.015    27.666     8.628
    25   6 C      2.916    -0.032    28.807     8.801
    26   6 C      2.921    -0.030    28.740     8.791
    27   6 C      2.968     0.037    27.179     8.551
    28   6 C      2.928    -0.038    28.945     8.823
    29   6 C      2.984     0.011    27.768     8.644
    30   6 C      2.928    -0.039    28.963     8.826
    31   1 H      0.926     0.038     2.482     2.464
    32   1 H      0.926     0.031     2.575     2.509
    33   1 H      0.926     0.032     2.560     2.502
    34   1 H      0.926     0.043     2.410     2.427
    35   1 H      0.926     0.076     2.022     2.224
    36   1 H      0.926     0.069     2.101     2.266
    37   6 C      1.984    -0.009    31.292     9.034
    38   6 C      1.980    -0.037    32.041     9.141
    39   6 C      2.965     0.049    26.895     8.506
    40   6 C      2.930    -0.007    28.187     8.707
    41   6 C      2.912    -0.029    28.719     8.788
    42   6 C      2.908     0.052    26.837     8.495
    43   7 N      2.668    -0.086    22.918     7.110
    44   6 C      2.912     0.048    26.933     8.510
    45   1 H      0.926     0.083     1.950     2.184
    46   1 H      0.926     0.092     1.863     2.135
    47   1 H      0.925     0.123     1.591     1.973
    48   1 H      0.925     0.134     1.502     1.917
    49   6 C      1.983    -0.024    31.683     9.090
    50   6 C      1.981    -0.036    32.027     9.139
    51   6 C      2.965     0.044    27.017     8.526
    52   6 C      2.924    -0.019    28.486     8.753
    53   6 C      2.914    -0.019    28.492     8.753
    54   6 C      2.914    -0.033    28.817     8.803
    55   6 C      2.981     0.003    27.948     8.672
    56   6 C      2.901     0.059    26.682     8.470
    57   7 N      2.667    -0.101    23.229     7.158
    58   6 C      2.903     0.040    27.092     8.535
    59   6 C      2.911    -0.028    28.693     8.784
    60   6 C      2.996     0.018    27.608     8.619
    61   1 H      0.926     0.057     2.230     2.335
    62   1 H      0.926     0.058     2.222     2.331
    63   1 H      0.926     0.072     2.067     2.248
    64   1 H      0.925     0.118     1.631     1.997
    65   1 H      0.925     0.136     1.487     1.907
    66   1 H      0.926     0.099     1.798     2.097
    67   6 C      2.967     0.038    27.156     8.548
    68   6 C      2.921    -0.029    28.717     8.788
    69   6 C      2.916    -0.033    28.816     8.803
    70   6 C      2.985     0.015    27.666     8.628
    71   6 C      2.916    -0.032    28.806     8.801
    72   6 C      2.921    -0.030    28.740     8.791
    73   6 C      2.968     0.037    27.179     8.551
    74   6 C      2.928    -0.038    28.945     8.823
    75   6 C      2.984     0.011    27.769     8.644
    76   6 C      2.928    -0.039    28.963     8.826
    77   1 H      0.926     0.038     2.481     2.463
    78   1 H      0.926     0.031     2.575     2.509
    79   1 H      0.926     0.032     2.560     2.502
    80   1 H      0.926     0.043     2.410     2.427
    81   1 H      0.926     0.076     2.021     2.223
    82   1 H      0.926     0.069     2.100     2.266
    83   6 C      1.984    -0.009    31.292     9.034
    84   6 C      1.980    -0.037    32.041     9.141
    85   6 C      2.965     0.049    26.895     8.507
    86   6 C      2.930    -0.007    28.187     8.707
    87   6 C      2.912    -0.029    28.720     8.788
    88   6 C      2.908     0.052    26.836     8.494
    89   7 N      2.668    -0.086    22.932     7.112
    90   6 C      2.912     0.048    26.933     8.510
    91   1 H      0.926     0.083     1.950     2.184
    92   1 H      0.926     0.092     1.863     2.135
    93   1 H      0.925     0.123     1.591     1.972
    94   1 H      0.925     0.134     1.503     1.917
    95   6 C      1.983    -0.024    31.684     9.090
    96   6 C      1.981    -0.036    32.027     9.139
    97   6 C      2.965     0.044    27.017     8.526
    98   6 C      2.924    -0.019    28.486     8.753
    99   6 C      2.914    -0.019    28.492     8.753
   100   6 C      2.914    -0.033    28.817     8.803
   101   6 C      2.981     0.003    27.947     8.672
   102   6 C      2.901     0.059    26.684     8.470
   103   7 N      2.667    -0.101    23.216     7.156
   104   6 C      2.904     0.040    27.092     8.535
   105   6 C      2.911    -0.028    28.693     8.784
   106   6 C      2.996     0.018    27.607     8.619
   107   1 H      0.926     0.057     2.231     2.336
   108   1 H      0.926     0.058     2.222     2.331
   109   1 H      0.926     0.072     2.067     2.248
   110   1 H      0.925     0.118     1.630     1.997
   111   1 H      0.925     0.136     1.487     1.907
   112   1 H      0.926     0.098     1.799     2.097
   113   6 C      2.968     0.038    27.156     8.548
   114   6 C      2.921    -0.029    28.717     8.788
   115   6 C      2.916    -0.033    28.816     8.803
   116   6 C      2.985     0.015    27.666     8.628
   117   6 C      2.916    -0.032    28.807     8.801
   118   6 C      2.921    -0.030    28.740     8.791
   119   6 C      2.968     0.037    27.179     8.551
   120   6 C      2.928    -0.038    28.945     8.823
   121   6 C      2.984     0.011    27.768     8.644
   122   6 C      2.928    -0.039    28.963     8.826
   123   1 H      0.926     0.038     2.482     2.464
   124   1 H      0.926     0.031     2.575     2.509
   125   1 H      0.926     0.032     2.560     2.502
   126   1 H      0.926     0.043     2.410     2.427
   127   1 H      0.926     0.076     2.021     2.223
   128   1 H      0.926     0.069     2.101     2.266
   129   6 C      1.984    -0.009    31.292     9.034
   130   6 C      1.980    -0.037    32.041     9.141
   131   6 C      2.965     0.049    26.895     8.507
   132   6 C      2.930    -0.007    28.187     8.707
   133   6 C      2.912    -0.029    28.720     8.788
   134   6 C      2.909     0.052    26.838     8.495
   135   7 N      2.668    -0.086    22.920     7.110
   136   6 C      2.912     0.048    26.933     8.510
   137   1 H      0.926     0.083     1.951     2.184
   138   1 H      0.926     0.092     1.864     2.135
   139   1 H      0.925     0.123     1.591     1.972
   140   1 H      0.925     0.134     1.503     1.917
   141   6 C      1.983    -0.024    31.684     9.090
   142   6 C      1.981    -0.036    32.027     9.139
   143   6 C      2.965     0.044    27.018     8.526
   144   6 C      2.924    -0.019    28.487     8.753
   145   6 C      2.914    -0.019    28.493     8.753
   146   6 C      2.914    -0.033    28.818     8.803
   147   6 C      2.981     0.003    27.946     8.672
   148   6 C      2.901     0.059    26.685     8.470
   149   7 N      2.667    -0.100    23.200     7.154
   150   6 C      2.904     0.040    27.093     8.535
   151   6 C      2.911    -0.028    28.693     8.784
   152   6 C      2.996     0.018    27.606     8.619
   153   1 H      0.926     0.057     2.232     2.336
   154   1 H      0.926     0.058     2.222     2.331
   155   1 H      0.926     0.072     2.067     2.248
   156   1 H      0.925     0.118     1.630     1.997
   157   1 H      0.925     0.136     1.487     1.907
   158   1 H      0.926     0.098     1.799     2.098
   159   6 C      2.968     0.038    27.157     8.548
   160   6 C      2.921    -0.029    28.717     8.788
   161   6 C      2.916    -0.033    28.816     8.803
   162   6 C      2.985     0.015    27.666     8.628
   163   6 C      2.916    -0.032    28.807     8.801
   164   6 C      2.921    -0.030    28.740     8.791
   165   6 C      2.968     0.037    27.179     8.551
   166   6 C      2.928    -0.038    28.945     8.823
   167   6 C      2.984     0.011    27.768     8.644
   168   6 C      2.928    -0.039    28.964     8.826
   169   1 H      0.926     0.038     2.482     2.463
   170   1 H      0.926     0.031     2.575     2.510
   171   1 H      0.926     0.032     2.560     2.502
   172   1 H      0.926     0.043     2.410     2.428
   173   1 H      0.926     0.076     2.022     2.224
   174   1 H      0.926     0.069     2.101     2.267
   175   6 C      1.984    -0.009    31.293     9.034
   176   6 C      1.980    -0.037    32.041     9.141
   177   6 C      2.965     0.049    26.894     8.506
   178   6 C      2.930    -0.007    28.187     8.707
   179   6 C      2.912    -0.029    28.720     8.788
   180   6 C      2.909     0.052    26.839     8.495
   181   7 N      2.668    -0.085    22.907     7.108
   182   6 C      2.912     0.048    26.934     8.510
   183   1 H      0.926     0.083     1.951     2.184
   184   1 H      0.926     0.092     1.863     2.135
   185   1 H      0.925     0.123     1.591     1.972
   186   1 H      0.925     0.134     1.502     1.916

 Mol. C6AA /au·bohr⁶  :     576744.125265
 Mol. C8AA /au·bohr⁸  :   16182919.365404
 Mol. α(0) /au        :       1245.578075


Wiberg/Mayer (AO) data.
largest (>0.10) Wiberg bond orders for each atom
          total WBO             WBO to atom ...
     1  Pd  3.522        N  149 0.596    N   43 0.595    N  103 0.595    N   89 0.595
     2  Pd  3.522        N  181 0.596    N   11 0.595    N  135 0.595    N   57 0.594
     3  C   3.945        C    4 2.638    C   21 1.135
     4  C   3.950        C    3 2.638    C    5 1.143
     5  C   3.987        C    6 1.436    C   14 1.215    C    4 1.143
     6  C   3.963        C    5 1.436    C    7 1.349    H   15 0.969
     7  C   3.987        C    8 1.532    C    6 1.349    H   16 0.968
     8  C   3.940        C    7 1.532    C    9 1.272    H   17 0.964
     9  C   3.987        C   10 1.292    C    8 1.272    C   14 1.234
    10  C   3.964        N   11 1.445    C    9 1.292    H   18 0.913    C   13 0.105
    11  N   3.535        C   10 1.445    C   12 1.242    Pd   2 0.595
    12  C   3.961        C   13 1.542    N   11 1.242    H   19 0.902
    13  C   3.981        C   12 1.542    C   14 1.295    H   20 0.956    C   10 0.105
    14  C   3.980        C   13 1.295    C    9 1.234    C    5 1.215
    15  H   0.996        C    6 0.969
    16  H   0.995        C    7 0.968
    17  H   0.994        C    8 0.964
    18  H   0.985        C   10 0.913
    19  H   0.980        C   12 0.902
    20  H   0.989        C   13 0.956
    21  C   3.988        C   30 1.454    C   22 1.245    C    3 1.135
    22  C   3.969        C   23 1.574    C   21 1.245    H   31 0.970
    23  C   3.990        C   22 1.574    C   24 1.275    H   32 0.967    C   30 0.104
    24  C   3.950        C   25 1.275    C   23 1.275    C   29 1.237
    25  C   3.990        C   26 1.574    C   24 1.275    H   33 0.967    C   28 0.104
    26  C   3.969        C   25 1.574    C   27 1.245    H   34 0.970
    27  C   3.987        C   28 1.452    C   26 1.245    C   37 1.137
    28  C   3.952        C   27 1.452    C   29 1.292    H   35 0.963    C   25 0.104
    29  C   3.989        C   28 1.292    C   30 1.290    C   24 1.237
    30  C   3.951        C   21 1.454    C   29 1.290    H   36 0.964    C   23 0.104
    31  H   0.998        C   22 0.970
    32  H   0.997        C   23 0.967
    33  H   0.997        C   25 0.967
    34  H   0.997        C   26 0.970
    35  H   0.994        C   28 0.963
    36  H   0.995        C   30 0.964
    37  C   3.947        C   38 2.640    C   27 1.137
    38  C   3.949        C   37 2.640    C   39 1.142
    39  C   3.985        C   44 1.348    C   40 1.336    C   38 1.142
    40  C   3.964        C   41 1.458    C   39 1.336    H   45 0.965
    41  C   3.981        C   40 1.458    C   42 1.421    H   46 0.961
    42  C   3.929        C   41 1.421    N   43 1.344    H   47 0.909
    43  N   3.544        C   44 1.367    C   42 1.344    Pd   1 0.595
    44  C   3.950        N   43 1.367    C   39 1.348    H   48 0.909
    45  H   0.991        C   40 0.965
    46  H   0.990        C   41 0.961
    47  H   0.984        C   42 0.909
    48  H   0.981        C   44 0.909
    49  C   3.945        C   50 2.638    C   67 1.135
    50  C   3.950        C   49 2.638    C   51 1.143
    51  C   3.987        C   52 1.436    C   60 1.215    C   50 1.143
    52  C   3.963        C   51 1.436    C   53 1.349    H   61 0.969
    53  C   3.987        C   54 1.532    C   52 1.349    H   62 0.968
    54  C   3.940        C   53 1.532    C   55 1.272    H   63 0.964
    55  C   3.987        C   56 1.292    C   54 1.272    C   60 1.234
    56  C   3.964        N   57 1.445    C   55 1.292    H   64 0.913    C   59 0.105
    57  N   3.535        C   56 1.445    C   58 1.242    Pd   2 0.594
    58  C   3.961        C   59 1.542    N   57 1.242    H   65 0.902
    59  C   3.981        C   58 1.542    C   60 1.295    H   66 0.956    C   56 0.105
    60  C   3.980        C   59 1.295    C   55 1.234    C   51 1.215
    61  H   0.996        C   52 0.969
    62  H   0.995        C   53 0.968
    63  H   0.994        C   54 0.964
    64  H   0.985        C   56 0.913
    65  H   0.980        C   58 0.902
    66  H   0.989        C   59 0.956
    67  C   3.988        C   76 1.454    C   68 1.245    C   49 1.135
    68  C   3.969        C   69 1.574    C   67 1.245    H   77 0.970
    69  C   3.990        C   68 1.574    C   70 1.275    H   78 0.967    C   76 0.104
    70  C   3.950        C   71 1.275    C   69 1.275    C   75 1.237
    71  C   3.990        C   72 1.574    C   70 1.275    H   79 0.967    C   74 0.104
    72  C   3.969        C   71 1.574    C   73 1.245    H   80 0.970
    73  C   3.987        C   74 1.452    C   72 1.245    C   83 1.137
    74  C   3.952        C   73 1.452    C   75 1.292    H   81 0.963    C   71 0.104
    75  C   3.989        C   74 1.292    C   76 1.290    C   70 1.237
    76  C   3.951        C   67 1.454    C   75 1.290    H   82 0.964    C   69 0.104
    77  H   0.998        C   68 0.970
    78  H   0.997        C   69 0.967
    79  H   0.997        C   71 0.967
    80  H   0.997        C   72 0.970
    81  H   0.994        C   74 0.963
    82  H   0.995        C   76 0.964
    83  C   3.947        C   84 2.640    C   73 1.137
    84  C   3.949        C   83 2.640    C   85 1.142
    85  C   3.985        C   90 1.348    C   86 1.336    C   84 1.142
    86  C   3.964        C   87 1.458    C   85 1.336    H   91 0.965
    87  C   3.981        C   86 1.458    C   88 1.421    H   92 0.961
    88  C   3.929        C   87 1.421    N   89 1.343    H   93 0.909
    89  N   3.543        C   90 1.367    C   88 1.343    Pd   1 0.595
    90  C   3.950        N   89 1.367    C   85 1.348    H   94 0.909
    91  H   0.991        C   86 0.965
    92  H   0.990        C   87 0.961
    93  H   0.984        C   88 0.909
    94  H   0.981        C   90 0.909
    95  C   3.945        C   96 2.638    C  113 1.134
    96  C   3.950        C   95 2.638    C   97 1.143
    97  C   3.987        C   98 1.437    C  106 1.215    C   96 1.143
    98  C   3.963        C   97 1.437    C   99 1.349    H  107 0.969
    99  C   3.987        C  100 1.532    C   98 1.349    H  108 0.968
   100  C   3.940        C   99 1.532    C  101 1.272    H  109 0.964
   101  C   3.987        C  102 1.292    C  100 1.272    C  106 1.234
   102  C   3.964        N  103 1.445    C  101 1.292    H  110 0.913    C  105 0.105
   103  N   3.535        C  102 1.445    C  104 1.242    Pd   1 0.595
   104  C   3.962        C  105 1.542    N  103 1.242    H  111 0.902
   105  C   3.981        C  104 1.542    C  106 1.295    H  112 0.956    C  102 0.105
   106  C   3.980        C  105 1.295    C  101 1.234    C   97 1.215
   107  H   0.996        C   98 0.969
   108  H   0.995        C   99 0.968
   109  H   0.994        C  100 0.964
   110  H   0.985        C  102 0.913
   111  H   0.980        C  104 0.902
   112  H   0.989        C  105 0.956
   113  C   3.988        C  122 1.454    C  114 1.245    C   95 1.134
   114  C   3.969        C  115 1.574    C  113 1.245    H  123 0.970
   115  C   3.990        C  114 1.574    C  116 1.275    H  124 0.967    C  122 0.104
   116  C   3.950        C  117 1.275    C  115 1.275    C  121 1.237
   117  C   3.990        C  118 1.574    C  116 1.275    H  125 0.967    C  120 0.104
   118  C   3.969        C  117 1.574    C  119 1.244    H  126 0.970
   119  C   3.987        C  120 1.452    C  118 1.244    C  129 1.137
   120  C   3.952        C  119 1.452    C  121 1.292    H  127 0.963    C  117 0.104
   121  C   3.989        C  120 1.292    C  122 1.290    C  116 1.237
   122  C   3.951        C  113 1.454    C  121 1.290    H  128 0.964    C  115 0.104
   123  H   0.998        C  114 0.970
   124  H   0.997        C  115 0.967
   125  H   0.997        C  117 0.967
   126  H   0.997        C  118 0.970
   127  H   0.994        C  120 0.963
   128  H   0.995        C  122 0.964
   129  C   3.947        C  130 2.640    C  119 1.137
   130  C   3.949        C  129 2.640    C  131 1.142
   131  C   3.985        C  136 1.348    C  132 1.336    C  130 1.142
   132  C   3.964        C  133 1.458    C  131 1.336    H  137 0.965
   133  C   3.981        C  132 1.458    C  134 1.421    H  138 0.961
   134  C   3.929        C  133 1.421    N  135 1.343    H  139 0.909
   135  N   3.544        C  136 1.368    C  134 1.343    Pd   2 0.595
   136  C   3.950        N  135 1.368    C  131 1.348    H  140 0.909
   137  H   0.991        C  132 0.965
   138  H   0.990        C  133 0.961
   139  H   0.984        C  134 0.909
   140  H   0.981        C  136 0.909
   141  C   3.945        C  142 2.638    C  159 1.134
   142  C   3.950        C  141 2.638    C  143 1.143
   143  C   3.987        C  144 1.437    C  152 1.215    C  142 1.143
   144  C   3.963        C  143 1.437    C  145 1.349    H  153 0.969
   145  C   3.987        C  146 1.532    C  144 1.349    H  154 0.968
   146  C   3.940        C  145 1.532    C  147 1.272    H  155 0.964
   147  C   3.987        C  148 1.292    C  146 1.272    C  152 1.234
   148  C   3.964        N  149 1.445    C  147 1.292    H  156 0.913    C  151 0.105
   149  N   3.536        C  148 1.445    C  150 1.242    Pd   1 0.596
   150  C   3.962        C  151 1.542    N  149 1.242    H  157 0.902
   151  C   3.981        C  150 1.542    C  152 1.295    H  158 0.956    C  148 0.105
   152  C   3.980        C  151 1.295    C  147 1.234    C  143 1.215
   153  H   0.996        C  144 0.969
   154  H   0.995        C  145 0.968
   155  H   0.994        C  146 0.964
   156  H   0.985        C  148 0.913
   157  H   0.980        C  150 0.902
   158  H   0.989        C  151 0.956
   159  C   3.988        C  168 1.454    C  160 1.245    C  141 1.134
   160  C   3.969        C  161 1.574    C  159 1.245    H  169 0.970
   161  C   3.990        C  160 1.574    C  162 1.275    H  170 0.967    C  168 0.104
   162  C   3.950        C  163 1.275    C  161 1.275    C  167 1.237
   163  C   3.990        C  164 1.574    C  162 1.275    H  171 0.967    C  166 0.104
   164  C   3.969        C  163 1.574    C  165 1.245    H  172 0.970
   165  C   3.987        C  166 1.452    C  164 1.245    C  175 1.137
   166  C   3.952        C  165 1.452    C  167 1.292    H  173 0.963    C  163 0.104
   167  C   3.989        C  166 1.292    C  168 1.290    C  162 1.237
   168  C   3.951        C  159 1.454    C  167 1.290    H  174 0.964    C  161 0.104
   169  H   0.998        C  160 0.970
   170  H   0.997        C  161 0.967
   171  H   0.997        C  163 0.967
   172  H   0.997        C  164 0.970
   173  H   0.994        C  166 0.963
   174  H   0.995        C  168 0.964
   175  C   3.947        C  176 2.640    C  165 1.137
   176  C   3.949        C  175 2.640    C  177 1.142
   177  C   3.985        C  182 1.348    C  178 1.336    C  176 1.142
   178  C   3.964        C  179 1.457    C  177 1.336    H  183 0.965
   179  C   3.981        C  178 1.457    C  180 1.421    H  184 0.961
   180  C   3.929        C  179 1.421    N  181 1.343    H  185 0.909
   181  N   3.544        C  182 1.368    C  180 1.343    Pd   2 0.596
   182  C   3.950        N  181 1.368    C  177 1.348    H  186 0.909
   183  H   0.991        C  178 0.965
   184  H   0.990        C  179 0.961
   185  H   0.984        C  180 0.909
   186  H   0.981        C  182 0.909

molecular dipole:
                 x           y           z       tot (Debye)
 q only:        2.958     -20.289       2.299
   full:        2.953     -20.288       2.316      52.442
molecular quadrupole (traceless):
                xx          xy          yy          xz          yz          zz
 q only:     -302.054     -64.447     602.722      10.008     -68.665    -300.668
  q+dip:     -318.120     -72.696     633.878      12.658     -78.667    -315.758
   full:     -301.511     -68.246     601.085      11.474     -73.312    -299.574

           -------------------------------------------------
          |               Frequency Printout                |
           -------------------------------------------------
 projected vibrational frequencies (cm-1)
eigval :       -0.00    -0.00    -0.00    -0.00     0.00     0.00
eigval :        5.54     5.82     6.32     6.96    10.48    13.73
eigval :       14.07    14.22    15.02    17.05    19.90    19.95
eigval :       21.77    26.90    27.52    32.38    34.29    36.58
eigval :       37.47    39.25    39.37    41.02    44.22    46.88
eigval :       47.70    49.53    50.12    54.28    57.30    62.76
eigval :       73.83    76.35    77.52    77.77    80.87    81.25
eigval :       81.29    84.00    96.31    97.43    99.21   100.36
eigval :      109.32   109.48   109.86   110.89   119.91   120.52
eigval :      126.25   130.65   135.45   136.91   138.94   144.29
eigval :      145.03   145.10   150.57   150.87   155.72   157.33
eigval :      160.96   166.36   179.23   179.47   180.22   181.42
eigval :      189.14   191.06   192.52   194.07   195.01   197.35
eigval :      197.92   198.53   204.59   207.63   215.24   223.29
eigval :      231.74   238.89   247.03   253.97   256.84   265.13
eigval :      272.04   272.76   274.19   275.61   284.04   284.20
eigval :      289.05   289.20   295.03   296.74   299.13   299.80
eigval :      307.04   307.39   307.44   308.39   336.00   336.89
eigval :      337.50   337.77   340.85   341.10   344.29   344.61
eigval :      357.70   358.03   358.48   358.99   384.80   385.19
eigval :      391.72   391.87   393.41   394.22   395.64   396.14
eigval :      430.16   430.26   430.30   430.38   433.09   433.15
eigval :      433.22   433.29   439.45   439.55   439.60   439.75
eigval :      448.29   448.48   452.59   453.10   453.26   453.31
eigval :      454.25   454.43   462.20   462.62   462.74   462.79
eigval :      481.10   481.29   481.80   482.43   490.84   491.04
eigval :      491.36   492.05   492.84   492.93   492.96   493.11
eigval :      510.42   510.64   516.40   516.61   519.98   520.21
eigval :      521.96   522.14   538.73   539.71   539.89   540.42
eigval :      562.46   562.56   564.75   564.83   569.40   569.97
eigval :      570.38   570.43   599.51   599.52   599.61   599.66
eigval :      607.88   608.82   609.61   609.85   614.11   614.71
eigval :      619.46   619.70   623.99   624.32   626.17   626.62
eigval :      632.19   633.35   633.64   634.06   665.94   666.01
eigval :      670.89   670.97   672.94   674.32   674.66   674.78
eigval :      718.51   718.62   718.69   718.71   725.06   725.21
eigval :      725.92   726.08   755.62   755.77   756.31   757.12
eigval :      770.66   771.06   777.47   777.59   778.07   778.21
eigval :      780.52   781.37   789.26   789.50   789.92   790.13
eigval :      796.30   796.32   798.47   798.82   798.92   798.99
eigval :      799.01   799.42   814.37   814.77   826.28   826.79
eigval :      838.21   840.10   840.21   841.53   844.19   844.47
eigval :      844.86   845.01   845.29   845.63   850.90   851.13
eigval :      851.33   851.96   853.99   854.18   855.83   855.97
eigval :      863.49   863.64   864.40   864.54   864.99   865.64
eigval :      878.31   880.10   880.47   881.52   887.55   887.90
eigval :      892.78   892.91   893.16   893.19   895.15   895.21
eigval :      895.45   895.46   897.79   897.83   920.17   920.34
eigval :      920.45   920.78   926.37   926.44   926.62   926.82
eigval :      930.65   930.74   931.20   931.24   933.20   933.46
eigval :      933.56   933.83   946.99   948.02   948.18   948.49
eigval :      975.80   978.00   978.14   978.56  1002.39  1003.24
eigval :     1005.64  1005.89  1045.15  1045.22  1046.14  1046.21
eigval :     1076.82  1076.98  1077.04  1077.14  1085.24  1085.28
eigval :     1087.47  1087.49  1109.44  1109.54  1110.08  1110.16
eigval :     1118.65  1118.69  1122.53  1122.71  1135.44  1135.50
eigval :     1136.08  1136.27  1141.83  1142.64  1143.44  1143.93
eigval :     1151.89  1153.79  1157.89  1159.97  1164.05  1165.58
eigval :     1166.86  1169.45  1169.67  1170.11  1170.60  1170.64
eigval :     1170.70  1170.81  1173.02  1174.31  1186.80  1187.09
eigval :     1189.31  1190.13  1206.07  1206.53  1206.92  1209.14
eigval :     1216.01  1216.76  1218.64  1219.43  1219.68  1219.92
eigval :     1220.30  1220.76  1224.34  1224.47  1224.55  1224.89
eigval :     1228.29  1228.66  1235.01  1235.90  1252.04  1252.13
eigval :     1252.14  1252.29  1285.32  1285.53  1286.28  1286.93
eigval :     1294.11  1294.18  1294.65  1295.81  1295.83  1296.03
eigval :     1296.12  1296.73  1308.89  1308.99  1309.06  1309.98
eigval :     1317.90  1318.09  1318.26  1318.42  1342.75  1343.34
eigval :     1343.58  1344.92  1368.14  1368.26  1368.40  1369.51
eigval :     1372.99  1374.12  1375.05  1375.54  1385.96  1386.56
eigval :     1386.80  1387.28  1393.98  1394.04  1394.11  1394.20
eigval :     1398.66  1398.69  1399.85  1399.91  1415.06  1415.19
eigval :     1415.40  1415.47  1421.62  1421.90  1421.99  1422.02
eigval :     1448.12  1448.24  1448.48  1448.69  1456.73  1457.09
eigval :     1457.67  1457.98  1468.05  1468.13  1468.71  1468.74
eigval :     1493.86  1493.89  1493.97  1494.04  1525.90  1526.06
eigval :     1526.56  1526.69  1534.51  1534.59  1534.62  1534.69
eigval :     1539.35  1539.47  1539.63  1539.76  1547.02  1547.16
eigval :     1547.40  1547.52  1556.98  1557.08  1557.44  1557.51
eigval :     1566.56  1566.59  1566.73  1566.79  1585.19  1585.23
eigval :     1585.24  1585.28  1593.76  1593.90  1593.90  1593.92
eigval :     2303.15  2303.18  2303.31  2303.62  2306.75  2306.82
eigval :     2307.20  2307.26  2977.83  2978.33  2982.10  2982.53
eigval :     2983.72  2983.93  2986.44  2986.87  2987.02  2987.21
eigval :     2988.09  2988.42  2989.07  2989.17  2992.26  2992.36
eigval :     3070.65  3071.01  3071.28  3071.67  3074.29  3074.49
eigval :     3074.62  3074.65  3089.37  3090.37  3090.41  3090.52
eigval :     3092.72  3093.35  3093.38  3093.39  3093.43  3093.55
eigval :     3093.59  3093.61  3094.65  3094.67  3095.31  3095.49
eigval :     3097.98  3098.11  3098.34  3098.93  3101.65  3101.80
eigval :     3101.83  3101.97  3107.51  3107.57  3107.81  3107.83
eigval :     3109.57  3109.80  3110.01  3110.26  3116.08  3116.10
eigval :     3116.62  3117.10  3118.47  3118.61  3118.98  3119.25
 reduced masses (amu)
   1: 23.10   2: 20.48   3: 22.92   4: 20.58   5: 16.97   6: 22.97   7: 14.39   8: 11.54
   9: 15.62  10: 13.38  11: 11.47  12: 18.52  13: 12.28  14: 17.78  15: 15.05  16: 11.47
  17: 24.76  18: 22.31  19: 12.97  20: 12.41  21: 12.76  22: 10.42  23: 10.68  24: 11.47
  25: 10.71  26: 11.18  27: 31.89  28: 11.12  29: 10.70  30: 13.75  31: 11.42  32: 15.07
  33: 11.61  34: 11.46  35: 13.63  36: 21.88  37: 12.61  38: 15.88  39: 11.05  40: 11.46
  41: 10.97  42: 11.95  43: 11.95  44: 15.34  45: 10.78  46: 10.71  47: 10.91  48: 10.93
  49: 11.41  50: 13.02  51: 11.33  52: 14.00  53: 14.44  54: 16.86  55: 12.24  56: 12.49
  57: 11.45  58: 14.66  59: 11.18  60: 11.82  61: 11.00  62: 10.71  63: 10.53  64: 10.51
  65: 26.35  66: 20.00  67: 15.88  68: 19.54  69: 10.55  70: 10.59  71: 11.42  72: 11.59
  73: 13.19  74: 14.47  75: 16.53  76: 12.74  77: 10.82  78: 20.92  79: 10.57  80: 10.53
  81: 12.65  82: 16.40  83: 29.15  84: 27.74  85: 32.23  86: 31.14  87: 15.45  88: 12.77
  89: 29.91  90: 29.00  91: 37.21  92: 40.77  93: 34.67  94: 35.32  95: 13.98  96: 13.57
  97: 14.60  98: 14.72  99: 17.09 100: 20.51 101: 17.62 102: 19.46 103: 12.65 104: 12.70
 105: 12.42 106: 12.33 107: 10.12 108: 10.20 109: 10.54 110: 10.32 111: 12.18 112: 12.20
 113: 15.98 114: 15.91 115: 10.93 116: 10.82 117: 10.92 118: 10.95 119: 12.15 120: 12.21
 121:  9.52 122:  9.53 123: 10.17 124:  9.47 125: 12.38 126: 11.61 127: 10.81 128: 10.82
 129: 10.82 130: 10.83 131: 11.65 132: 11.65 133: 11.67 134: 11.66 135:  8.58 136:  8.58
 137:  8.58 138:  8.59 139: 11.08 140: 11.06 141: 11.47 142: 11.47 143: 11.67 144: 11.69
 145: 10.84 146: 10.83 147: 11.48 148: 11.50 149: 11.52 150: 11.48 151: 11.66 152: 11.77
 153: 11.73 154: 11.91 155: 11.42 156: 11.61 157: 11.44 158: 11.70 159: 11.30 160: 11.24
 161: 11.35 162: 11.29 163: 11.55 164: 11.56 165: 11.58 166: 11.59 167: 11.74 168: 11.78
 169: 12.06 170: 12.13 171: 11.11 172: 11.19 173: 11.02 174: 11.10 175: 11.83 176: 11.88
 177: 11.98 178: 11.97 179: 11.27 180: 11.27 181: 11.31 182: 11.35 183: 11.45 184: 11.45
 185: 11.45 186: 11.45 187: 10.10 188: 10.08 189:  9.85 190:  9.85 191: 10.17 192: 10.13
 193: 10.70 194: 10.71 195: 12.24 196: 12.39 197: 12.06 198: 12.25 199: 11.30 200: 11.34
 201: 11.57 202: 11.64 203:  9.31 204:  9.28 205:  9.71 206:  9.72 207: 11.51 208: 11.57
 209: 11.59 210: 11.51 211: 11.29 212: 11.28 213: 11.28 214: 11.28 215: 10.69 216: 10.68
 217: 10.78 218: 10.77 219: 11.33 220: 11.35 221: 11.33 222: 11.38 223:  4.89 224:  4.93
 225:  4.49 226:  4.36 227:  4.43 228:  4.63 229:  4.14 230:  4.26 231:  4.61 232:  4.61
 233:  4.61 234:  4.60 235: 11.20 236: 11.13 237: 10.83 238: 11.15 239: 10.64 240: 10.66
 241: 10.68 242: 10.94 243:  3.80 244:  3.80 245:  3.80 246:  3.81 247: 11.44 248: 11.53
 249: 11.63 250: 11.68 251:  4.55 252:  4.57 253:  4.51 254:  4.69 255:  4.73 256:  4.61
 257:  3.49 258:  3.47 259:  3.45 260:  3.45 261:  4.07 262:  4.06 263:  4.27 264:  4.28
 265:  4.04 266:  4.04 267:  3.95 268:  3.95 269:  3.95 270:  3.93 271: 11.07 272: 11.13
 273: 11.03 274: 11.08 275:  3.81 276:  3.82 277:  3.70 278:  3.58 279:  3.57 280:  3.71
 281:  4.01 282:  4.01 283:  3.94 284:  3.95 285:  3.56 286:  3.53 287:  3.34 288:  3.34
 289:  3.33 290:  3.34 291:  3.51 292:  3.51 293:  3.51 294:  3.51 295:  3.80 296:  3.80
 297:  3.80 298:  3.80 299:  3.70 300:  3.69 301:  3.69 302:  3.69 303: 10.61 304: 10.60
 305: 10.60 306: 10.61 307: 10.33 308: 10.23 309: 10.29 310: 10.26 311: 10.15 312: 10.13
 313: 10.28 314: 10.22 315:  9.14 316:  9.13 317:  9.11 318:  9.15 319:  7.14 320:  7.13
 321:  7.07 322:  7.07 323:  6.48 324:  6.48 325:  6.63 326:  6.63 327:  5.99 328:  6.00
 329:  6.01 330:  6.01 331:  3.68 332:  3.68 333:  3.65 334:  3.65 335:  5.91 336:  5.97
 337:  5.90 338:  5.91 339:  4.57 340:  4.60 341:  4.75 342:  4.74 343:  3.58 344:  3.60
 345:  4.31 346:  4.43 347:  2.99 348:  2.42 349:  3.62 350:  4.45 351:  3.94 352:  4.01
 353:  1.82 354:  1.82 355:  1.82 356:  1.82 357:  2.30 358:  2.56 359:  3.20 360:  3.21
 361:  3.21 362:  3.29 363:  5.14 364:  5.20 365:  5.40 366:  5.67 367:  4.37 368:  4.77
 369:  4.01 370:  7.44 371:  7.77 372:  5.50 373:  7.82 374:  6.50 375:  6.45 376:  6.64
 377:  6.79 378:  7.31 379:  3.74 380:  3.87 381:  3.09 382:  3.43 383:  4.07 384:  4.07
 385:  4.07 386:  4.07 387:  7.57 388:  7.53 389:  7.66 390:  7.54 391: 10.25 392: 10.00
 393: 10.15 394:  9.15 395:  9.69 396: 10.72 397: 11.55 398: 10.65 399:  9.07 400:  9.09
 401:  9.11 402:  8.93 403: 10.20 404: 10.17 405: 10.19 406: 10.18 407: 10.05 408: 10.03
 409:  9.98 410:  9.86 411:  9.96 412:  9.92 413:  9.97 414:  9.82 415: 10.14 416: 10.17
 417: 10.00 418: 10.11 419: 10.73 420: 10.69 421: 10.79 422: 10.73 423: 10.15 424: 10.09
 425: 10.09 426: 10.13 427: 11.24 428: 11.22 429: 11.23 430: 11.23 431: 10.57 432: 10.54
 433: 10.54 434: 10.55 435: 10.18 436: 10.14 437: 10.13 438: 10.13 439: 11.04 440: 11.04
 441: 11.03 442: 11.02 443: 11.08 444: 11.06 445: 11.05 446: 11.05 447: 11.47 448: 11.45
 449: 11.46 450: 11.46 451: 10.76 452: 10.76 453: 10.77 454: 10.77 455: 11.55 456: 11.55
 457: 11.58 458: 11.58 459: 11.68 460: 11.68 461: 11.67 462: 11.67 463: 11.67 464: 11.67
 465: 11.66 466: 11.66 467: 11.69 468: 11.68 469: 11.70 470: 11.70 471: 11.69 472: 11.69
 473: 11.68 474: 11.68 475: 11.49 476: 11.49 477: 11.49 478: 11.50 479: 11.53 480: 11.53
 481: 11.53 482: 11.53 483: 11.51 484: 11.51 485: 11.51 486: 11.51 487: 12.01 488: 12.01
 489: 12.01 490: 12.01 491: 12.01 492: 12.01 493: 12.01 494: 12.01 495:  1.87 496:  1.87
 497:  1.85 498:  1.85 499:  1.85 500:  1.85 501:  1.85 502:  1.84 503:  1.85 504:  1.85
 505:  1.85 506:  1.84 507:  1.85 508:  1.85 509:  1.84 510:  1.84 511:  1.80 512:  1.79
 513:  1.80 514:  1.80 515:  1.79 516:  1.78 517:  1.78 518:  1.78 519:  1.87 520:  1.87
 521:  1.87 522:  1.87 523:  1.87 524:  1.78 525:  1.78 526:  1.78 527:  1.86 528:  1.87
 529:  1.87 530:  1.78 531:  1.83 532:  1.83 533:  1.83 534:  1.83 535:  1.83 536:  1.83
 537:  1.82 538:  1.83 539:  1.84 540:  1.84 541:  1.84 542:  1.84 543:  1.82 544:  1.81
 545:  1.81 546:  1.81 547:  1.90 548:  1.90 549:  1.90 550:  1.90 551:  1.85 552:  1.85
 553:  1.85 554:  1.85 555:  1.90 556:  1.90 557:  1.90 558:  1.89
 IR intensities (amu)
   1:  0.62   2:  0.41   3:  0.56   4:  0.38   5:  0.27   6:  0.58   7:  0.47   8:  0.09
   9:  0.57  10:  0.39  11:  0.03  12:  0.01  13:  0.13  14:  0.04  15:  0.04  16:  0.06
  17:  0.02  18:  0.02  19:  0.28  20:  0.20  21:  0.10  22:  0.01  23:  0.06  24:  0.08
  25:  0.04  26:  0.04  27:  0.22  28:  0.01  29:  0.01  30:  0.12  31:  0.04  32:  0.19
  33:  0.02  34:  0.00  35:  0.22  36:  0.01  37:  0.00  38:  0.00  39:  0.04  40:  0.06
  41:  0.03  42:  0.01  43:  0.01  44:  0.18  45:  0.01  46:  0.04  47:  0.00  48:  0.05
  49:  0.03  50:  0.17  51:  0.04  52:  0.00  53:  0.01  54:  0.12  55:  0.01  56:  0.41
  57:  0.19  58:  0.04  59:  0.01  60:  0.09  61:  0.15  62:  0.07  63:  0.04  64:  0.01
  65:  0.82  66:  0.54  67:  0.02  68:  0.02  69:  0.01  70:  0.02  71:  0.06  72:  0.00
  73:  0.05  74:  0.48  75:  0.01  76:  0.03  77:  0.10  78:  0.01  79:  0.02  80:  0.04
  81:  0.02  82:  0.86  83:  0.03  84:  0.88  85:  0.62  86:  0.02  87:  0.01  88:  0.22
  89:  0.02  90:  0.25  91:  1.17  92:  1.27  93:  0.02  94:  0.08  95:  0.12  96:  0.28
  97:  0.27  98:  0.31  99:  0.59 100:  0.04 101:  0.53 102:  0.06 103:  0.27 104:  0.28
 105:  0.24 106:  0.01 107:  0.01 108:  0.04 109:  0.13 110:  0.05 111:  0.02 112:  0.19
 113:  0.02 114:  0.18 115:  0.16 116:  0.02 117:  0.01 118:  0.11 119:  0.19 120:  0.01
 121:  0.02 122:  0.08 123:  0.11 124:  0.01 125:  0.01 126:  0.24 127:  0.03 128:  0.02
 129:  0.01 130:  0.02 131:  0.02 132:  0.06 133:  0.21 134:  0.31 135:  0.02 136:  0.02
 137:  0.02 138:  0.01 139:  0.08 140:  0.17 141:  0.10 142:  0.02 143:  0.08 144:  0.02
 145:  0.05 146:  0.07 147:  0.00 148:  0.08 149:  0.29 150:  0.01 151:  0.44 152:  0.10
 153:  0.44 154:  0.03 155:  0.00 156:  0.03 157:  0.00 158:  0.35 159:  0.01 160:  0.07
 161:  0.01 162:  0.25 163:  0.10 164:  0.01 165:  0.13 166:  0.01 167:  0.26 168:  0.02
 169:  0.33 170:  0.01 171:  0.00 172:  0.04 173:  0.00 174:  0.04 175:  0.07 176:  0.54
 177:  0.61 178:  0.02 179:  0.11 180:  0.07 181:  0.00 182:  0.00 183:  0.04 184:  0.09
 185:  0.03 186:  0.32 187:  0.01 188:  0.12 189:  0.01 190:  0.06 191:  0.16 192:  0.02
 193:  0.20 194:  0.13 195:  0.04 196:  0.53 197:  0.02 198:  0.55 199:  0.22 200:  0.32
 201:  0.01 202:  0.01 203:  0.21 204:  0.04 205:  0.07 206:  0.26 207:  0.01 208:  0.11
 209:  0.85 210:  0.04 211:  0.04 212:  0.04 213:  0.04 214:  0.04 215:  0.06 216:  0.06
 217:  0.07 218:  0.07 219:  0.02 220:  0.45 221:  0.01 222:  0.47 223:  0.10 224:  0.29
 225:  0.24 226:  0.13 227:  0.06 228:  0.02 229:  0.01 230:  0.27 231:  0.03 232:  0.04
 233:  0.04 234:  0.03 235:  0.01 236:  0.00 237:  0.01 238:  0.17 239:  0.55 240:  0.54
 241:  0.14 242:  0.01 243:  0.29 244:  0.33 245:  0.23 246:  0.26 247:  0.07 248:  0.10
 249:  0.01 250:  0.00 251:  0.17 252:  0.03 253:  0.12 254:  0.39 255:  0.02 256:  0.42
 257:  0.08 258:  0.06 259:  0.05 260:  0.05 261:  0.03 262:  0.03 263:  0.03 264:  0.06
 265:  0.02 266:  0.07 267:  0.01 268:  0.06 269:  0.05 270:  0.05 271:  0.01 272:  0.54
 273:  0.04 274:  0.66 275:  0.03 276:  0.03 277:  0.05 278:  0.04 279:  0.04 280:  0.06
 281:  0.00 282:  0.01 283:  0.01 284:  0.00 285:  0.08 286:  0.03 287:  0.01 288:  0.01
 289:  0.01 290:  0.00 291:  0.03 292:  0.03 293:  0.04 294:  0.03 295:  0.02 296:  0.02
 297:  0.02 298:  0.02 299:  0.02 300:  0.02 301:  0.02 302:  0.02 303:  0.00 304:  0.00
 305:  0.11 306:  0.14 307:  0.14 308:  0.15 309:  0.02 310:  0.00 311:  0.00 312:  0.22
 313:  0.31 314:  0.00 315:  0.05 316:  0.21 317:  0.37 318:  0.07 319:  0.21 320:  0.46
 321:  0.44 322:  0.36 323:  0.34 324:  0.46 325:  0.83 326:  0.03 327:  0.21 328:  0.18
 329:  0.43 330:  0.37 331:  0.34 332:  0.22 333:  0.38 334:  0.36 335:  0.78 336:  0.26
 337:  0.15 338:  1.35 339:  0.22 340:  0.03 341:  0.01 342:  1.06 343:  0.01 344:  0.22
 345:  0.40 346:  0.02 347:  0.54 348:  0.01 349:  0.01 350:  0.16 351:  0.89 352:  0.71
 353:  0.12 354:  0.19 355:  0.21 356:  0.24 357:  0.47 358:  0.01 359:  0.27 360:  0.05
 361:  0.02 362:  0.32 363:  0.00 364:  0.12 365:  0.83 366:  0.00 367:  0.13 368:  0.01
 369:  0.01 370:  0.03 371:  0.25 372:  0.29 373:  0.02 374:  0.29 375:  0.06 376:  0.02
 377:  0.07 378:  0.45 379:  0.00 380:  0.03 381:  0.18 382:  0.00 383:  0.10 384:  0.12
 385:  0.10 386:  0.12 387:  0.19 388:  0.01 389:  0.33 390:  0.01 391:  0.00 392:  0.01
 393:  0.14 394:  0.48 395:  0.51 396:  0.10 397:  0.24 398:  0.03 399:  0.31 400:  0.16
 401:  0.58 402:  0.01 403:  0.17 404:  0.23 405:  0.65 406:  0.07 407:  0.02 408:  0.28
 409:  0.04 410:  0.79 411:  0.56 412:  0.37 413:  1.50 414:  0.02 415:  0.83 416:  0.05
 417:  1.08 418:  0.02 419:  0.01 420:  0.05 421:  0.30 422:  0.24 423:  0.06 424:  0.56
 425:  0.56 426:  0.07 427:  0.56 428:  1.45 429:  0.39 430:  1.66 431:  0.04 432:  0.20
 433:  1.39 434:  0.56 435:  0.68 436:  0.08 437:  0.75 438:  0.13 439:  0.04 440:  0.83
 441:  0.01 442:  0.00 443:  0.02 444:  0.02 445:  0.04 446:  0.99 447:  0.70 448:  1.48
 449:  0.02 450:  0.03 451:  0.03 452:  0.11 453:  0.38 454:  0.26 455:  0.67 456:  0.04
 457:  0.72 458:  0.05 459:  0.79 460:  0.46 461:  0.15 462:  0.03 463:  0.24 464:  0.28
 465:  2.43 466:  0.54 467:  3.00 468:  0.39 469:  0.79 470:  0.49 471:  0.68 472:  0.25
 473:  0.51 474:  0.36 475:  0.18 476:  0.74 477:  0.46 478:  0.36 479:  0.54 480:  0.68
 481:  0.25 482:  0.28 483:  0.10 484:  0.06 485:  0.09 486:  0.18 487:  0.82 488:  0.40
 489:  2.88 490:  3.12 491:  1.90 492:  1.58 493:  3.49 494:  3.89 495:  0.01 496:  0.01
 497:  0.10 498:  0.10 499:  0.06 500:  0.05 501:  0.06 502:  0.14 503:  0.02 504:  0.13
 505:  0.05 506:  0.05 507:  0.01 508:  0.02 509:  0.05 510:  0.21 511:  0.12 512:  0.12
 513:  0.08 514:  0.05 515:  0.36 516:  0.41 517:  0.28 518:  0.45 519:  0.39 520:  0.32
 521:  0.44 522:  0.42 523:  0.46 524:  0.14 525:  0.20 526:  0.16 527:  0.37 528:  0.53
 529:  0.54 530:  0.13 531:  0.05 532:  0.07 533:  0.05 534:  0.04 535:  0.01 536:  0.01
 537:  0.02 538:  0.03 539:  0.21 540:  0.18 541:  0.24 542:  0.23 543:  0.07 544:  0.07
 545:  0.06 546:  0.08 547:  0.26 548:  0.23 549:  0.33 550:  0.38 551:  0.06 552:  0.04
 553:  0.06 554:  0.05 555:  0.05 556:  0.06 557:  0.06 558:  0.06
 Raman intensities (amu)
   1:  0.00   2:  0.00   3:  0.00   4:  0.00   5:  0.00   6:  0.00   7:  0.00   8:  0.00
   9:  0.00  10:  0.00  11:  0.00  12:  0.00  13:  0.00  14:  0.00  15:  0.00  16:  0.00
  17:  0.00  18:  0.00  19:  0.00  20:  0.00  21:  0.00  22:  0.00  23:  0.00  24:  0.00
  25:  0.00  26:  0.00  27:  0.00  28:  0.00  29:  0.00  30:  0.00  31:  0.00  32:  0.00
  33:  0.00  34:  0.00  35:  0.00  36:  0.00  37:  0.00  38:  0.00  39:  0.00  40:  0.00
  41:  0.00  42:  0.00  43:  0.00  44:  0.00  45:  0.00  46:  0.00  47:  0.00  48:  0.00
  49:  0.00  50:  0.00  51:  0.00  52:  0.00  53:  0.00  54:  0.00  55:  0.00  56:  0.00
  57:  0.00  58:  0.00  59:  0.00  60:  0.00  61:  0.00  62:  0.00  63:  0.00  64:  0.00
  65:  0.00  66:  0.00  67:  0.00  68:  0.00  69:  0.00  70:  0.00  71:  0.00  72:  0.00
  73:  0.00  74:  0.00  75:  0.00  76:  0.00  77:  0.00  78:  0.00  79:  0.00  80:  0.00
  81:  0.00  82:  0.00  83:  0.00  84:  0.00  85:  0.00  86:  0.00  87:  0.00  88:  0.00
  89:  0.00  90:  0.00  91:  0.00  92:  0.00  93:  0.00  94:  0.00  95:  0.00  96:  0.00
  97:  0.00  98:  0.00  99:  0.00 100:  0.00 101:  0.00 102:  0.00 103:  0.00 104:  0.00
 105:  0.00 106:  0.00 107:  0.00 108:  0.00 109:  0.00 110:  0.00 111:  0.00 112:  0.00
 113:  0.00 114:  0.00 115:  0.00 116:  0.00 117:  0.00 118:  0.00 119:  0.00 120:  0.00
 121:  0.00 122:  0.00 123:  0.00 124:  0.00 125:  0.00 126:  0.00 127:  0.00 128:  0.00
 129:  0.00 130:  0.00 131:  0.00 132:  0.00 133:  0.00 134:  0.00 135:  0.00 136:  0.00
 137:  0.00 138:  0.00 139:  0.00 140:  0.00 141:  0.00 142:  0.00 143:  0.00 144:  0.00
 145:  0.00 146:  0.00 147:  0.00 148:  0.00 149:  0.00 150:  0.00 151:  0.00 152:  0.00
 153:  0.00 154:  0.00 155:  0.00 156:  0.00 157:  0.00 158:  0.00 159:  0.00 160:  0.00
 161:  0.00 162:  0.00 163:  0.00 164:  0.00 165:  0.00 166:  0.00 167:  0.00 168:  0.00
 169:  0.00 170:  0.00 171:  0.00 172:  0.00 173:  0.00 174:  0.00 175:  0.00 176:  0.00
 177:  0.00 178:  0.00 179:  0.00 180:  0.00 181:  0.00 182:  0.00 183:  0.00 184:  0.00
 185:  0.00 186:  0.00 187:  0.00 188:  0.00 189:  0.00 190:  0.00 191:  0.00 192:  0.00
 193:  0.00 194:  0.00 195:  0.00 196:  0.00 197:  0.00 198:  0.00 199:  0.00 200:  0.00
 201:  0.00 202:  0.00 203:  0.00 204:  0.00 205:  0.00 206:  0.00 207:  0.00 208:  0.00
 209:  0.00 210:  0.00 211:  0.00 212:  0.00 213:  0.00 214:  0.00 215:  0.00 216:  0.00
 217:  0.00 218:  0.00 219:  0.00 220:  0.00 221:  0.00 222:  0.00 223:  0.00 224:  0.00
 225:  0.00 226:  0.00 227:  0.00 228:  0.00 229:  0.00 230:  0.00 231:  0.00 232:  0.00
 233:  0.00 234:  0.00 235:  0.00 236:  0.00 237:  0.00 238:  0.00 239:  0.00 240:  0.00
 241:  0.00 242:  0.00 243:  0.00 244:  0.00 245:  0.00 246:  0.00 247:  0.00 248:  0.00
 249:  0.00 250:  0.00 251:  0.00 252:  0.00 253:  0.00 254:  0.00 255:  0.00 256:  0.00
 257:  0.00 258:  0.00 259:  0.00 260:  0.00 261:  0.00 262:  0.00 263:  0.00 264:  0.00
 265:  0.00 266:  0.00 267:  0.00 268:  0.00 269:  0.00 270:  0.00 271:  0.00 272:  0.00
 273:  0.00 274:  0.00 275:  0.00 276:  0.00 277:  0.00 278:  0.00 279:  0.00 280:  0.00
 281:  0.00 282:  0.00 283:  0.00 284:  0.00 285:  0.00 286:  0.00 287:  0.00 288:  0.00
 289:  0.00 290:  0.00 291:  0.00 292:  0.00 293:  0.00 294:  0.00 295:  0.00 296:  0.00
 297:  0.00 298:  0.00 299:  0.00 300:  0.00 301:  0.00 302:  0.00 303:  0.00 304:  0.00
 305:  0.00 306:  0.00 307:  0.00 308:  0.00 309:  0.00 310:  0.00 311:  0.00 312:  0.00
 313:  0.00 314:  0.00 315:  0.00 316:  0.00 317:  0.00 318:  0.00 319:  0.00 320:  0.00
 321:  0.00 322:  0.00 323:  0.00 324:  0.00 325:  0.00 326:  0.00 327:  0.00 328:  0.00
 329:  0.00 330:  0.00 331:  0.00 332:  0.00 333:  0.00 334:  0.00 335:  0.00 336:  0.00
 337:  0.00 338:  0.00 339:  0.00 340:  0.00 341:  0.00 342:  0.00 343:  0.00 344:  0.00
 345:  0.00 346:  0.00 347:  0.00 348:  0.00 349:  0.00 350:  0.00 351:  0.00 352:  0.00
 353:  0.00 354:  0.00 355:  0.00 356:  0.00 357:  0.00 358:  0.00 359:  0.00 360:  0.00
 361:  0.00 362:  0.00 363:  0.00 364:  0.00 365:  0.00 366:  0.00 367:  0.00 368:  0.00
 369:  0.00 370:  0.00 371:  0.00 372:  0.00 373:  0.00 374:  0.00 375:  0.00 376:  0.00
 377:  0.00 378:  0.00 379:  0.00 380:  0.00 381:  0.00 382:  0.00 383:  0.00 384:  0.00
 385:  0.00 386:  0.00 387:  0.00 388:  0.00 389:  0.00 390:  0.00 391:  0.00 392:  0.00
 393:  0.00 394:  0.00 395:  0.00 396:  0.00 397:  0.00 398:  0.00 399:  0.00 400:  0.00
 401:  0.00 402:  0.00 403:  0.00 404:  0.00 405:  0.00 406:  0.00 407:  0.00 408:  0.00
 409:  0.00 410:  0.00 411:  0.00 412:  0.00 413:  0.00 414:  0.00 415:  0.00 416:  0.00
 417:  0.00 418:  0.00 419:  0.00 420:  0.00 421:  0.00 422:  0.00 423:  0.00 424:  0.00
 425:  0.00 426:  0.00 427:  0.00 428:  0.00 429:  0.00 430:  0.00 431:  0.00 432:  0.00
 433:  0.00 434:  0.00 435:  0.00 436:  0.00 437:  0.00 438:  0.00 439:  0.00 440:  0.00
 441:  0.00 442:  0.00 443:  0.00 444:  0.00 445:  0.00 446:  0.00 447:  0.00 448:  0.00
 449:  0.00 450:  0.00 451:  0.00 452:  0.00 453:  0.00 454:  0.00 455:  0.00 456:  0.00
 457:  0.00 458:  0.00 459:  0.00 460:  0.00 461:  0.00 462:  0.00 463:  0.00 464:  0.00
 465:  0.00 466:  0.00 467:  0.00 468:  0.00 469:  0.00 470:  0.00 471:  0.00 472:  0.00
 473:  0.00 474:  0.00 475:  0.00 476:  0.00 477:  0.00 478:  0.00 479:  0.00 480:  0.00
 481:  0.00 482:  0.00 483:  0.00 484:  0.00 485:  0.00 486:  0.00 487:  0.00 488:  0.00
 489:  0.00 490:  0.00 491:  0.00 492:  0.00 493:  0.00 494:  0.00 495:  0.00 496:  0.00
 497:  0.00 498:  0.00 499:  0.00 500:  0.00 501:  0.00 502:  0.00 503:  0.00 504:  0.00
 505:  0.00 506:  0.00 507:  0.00 508:  0.00 509:  0.00 510:  0.00 511:  0.00 512:  0.00
 513:  0.00 514:  0.00 515:  0.00 516:  0.00 517:  0.00 518:  0.00 519:  0.00 520:  0.00
 521:  0.00 522:  0.00 523:  0.00 524:  0.00 525:  0.00 526:  0.00 527:  0.00 528:  0.00
 529:  0.00 530:  0.00 531:  0.00 532:  0.00 533:  0.00 534:  0.00 535:  0.00 536:  0.00
 537:  0.00 538:  0.00 539:  0.00 540:  0.00 541:  0.00 542:  0.00 543:  0.00 544:  0.00
 545:  0.00 546:  0.00 547:  0.00 548:  0.00 549:  0.00 550:  0.00 551:  0.00 552:  0.00
 553:  0.00 554:  0.00 555:  0.00 556:  0.00 557:  0.00 558:  0.00
 output can be read by thermo (or use thermo option).
 writing <g98.out> molden fake output.
 recommended (thermochemical) frequency scaling factor: 1.0
           -------------------------------------------------
          |             Thermodynamic Functions             |
           -------------------------------------------------

Refinement of some symmetry elements was terminated before convergence was reached.
Some symmetry elements may remain unidentified.
Molecule has no symmetry elements
It seems to be the C1 point group
c1  symmetry found (for desy threshold:  0.10E+00) used in thermo

          ...................................................
          :                      SETUP                      :
          :.................................................:
          :  # frequencies                         552      :
          :  # imaginary freq.                       0      :
          :  linear?                             false      :
          :  only rotor calc.                    false      :
          :  symmetry                               c1      :
          :  rotational number                       1      :
          :  scaling factor                  1.0000000      :
          :  rotor cutoff                   50.0000000 cm⁻¹ :
          :  imag. cutoff                  -20.0000000 cm⁻¹ :
          :.................................................:

    mode    ω/cm⁻¹     T·S(HO)/kcal·mol⁻¹    T·S(FR)/kcal·mol⁻¹   T·S(vib)
   ------------------------------------------------------------------------
       1      5.54    -2.73885 (  0.02%)    -1.70852 ( 99.98%)    -1.70867
       2      5.82    -2.70865 (  0.02%)    -1.69342 ( 99.98%)    -1.69361
       3      6.32    -2.66037 (  0.03%)    -1.66928 ( 99.97%)    -1.66953
       4      6.96    -2.60318 (  0.04%)    -1.64068 ( 99.96%)    -1.64104
       5     10.48    -2.36073 (  0.19%)    -1.51944 ( 99.81%)    -1.52106
       6     13.73    -2.20052 (  0.57%)    -1.43932 ( 99.43%)    -1.44363
       7     14.07    -2.18629 (  0.62%)    -1.43220 ( 99.38%)    -1.43690
       8     14.22    -2.18010 (  0.65%)    -1.42910 ( 99.35%)    -1.43398
       9     15.02    -2.14766 (  0.81%)    -1.41288 ( 99.19%)    -1.41881
      10     17.05    -2.07248 (  1.33%)    -1.37527 ( 98.67%)    -1.38457
      11     19.90    -1.98084 (  2.45%)    -1.32942 ( 97.55%)    -1.34538
      12     19.95    -1.97934 (  2.47%)    -1.32867 ( 97.53%)    -1.34477
      13     21.77    -1.92787 (  3.47%)    -1.30292 ( 96.53%)    -1.32458
      14     26.90    -1.80257 (  7.73%)    -1.24019 ( 92.27%)    -1.28366
      15     27.52    -1.78913 (  8.40%)    -1.23346 ( 91.60%)    -1.28016
      16     32.38    -1.69287 ( 14.96%)    -1.18525 ( 85.04%)    -1.26119
      17     34.29    -1.65903 ( 18.11%)    -1.16829 ( 81.89%)    -1.25717
      18     36.58    -1.62085 ( 22.26%)    -1.14915 ( 77.74%)    -1.25417
      19     37.47    -1.60655 ( 23.98%)    -1.14199 ( 76.02%)    -1.25340
      20     39.25    -1.57915 ( 27.53%)    -1.12825 ( 72.47%)    -1.25236
      21     39.37    -1.57740 ( 27.76%)    -1.12737 ( 72.24%)    -1.25231
      22     41.02    -1.55312 ( 31.18%)    -1.11519 ( 68.82%)    -1.25173
      23     44.22    -1.50873 ( 37.96%)    -1.09292 ( 62.04%)    -1.25078
      24     46.88    -1.47435 ( 43.59%)    -1.07566 ( 56.41%)    -1.24943
      25     47.70    -1.46406 ( 45.31%)    -1.07049 ( 54.69%)    -1.24881
      26     49.53    -1.44184 ( 49.06%)    -1.05933 ( 50.94%)    -1.24699
      27     50.12    -1.43486 ( 50.25%)    -1.05582 ( 49.75%)    -1.24627
      28     54.28    -1.38791 ( 58.14%)    -1.03223 ( 41.86%)    -1.23901
      29     57.30    -1.35604 ( 63.30%)    -1.01619 ( 36.70%)    -1.23130
      30     62.76    -1.30248 ( 71.28%)    -0.98923 ( 28.72%)    -1.21252
      31     73.83    -1.20705 ( 82.62%)    -0.94108 ( 17.38%)    -1.16083
      32     76.35    -1.18743 ( 84.46%)    -0.93116 ( 15.54%)    -1.14762
      33     77.52    -1.17847 ( 85.25%)    -0.92663 ( 14.75%)    -1.14132
      34     77.77    -1.17659 ( 85.41%)    -0.92568 ( 14.59%)    -1.13998
      35     80.87    -1.15376 ( 87.25%)    -0.91413 ( 12.75%)    -1.12320
      36     81.25    -1.15103 ( 87.45%)    -0.91274 ( 12.55%)    -1.12113
      37     81.29    -1.15071 ( 87.48%)    -0.91258 ( 12.52%)    -1.12090
      38     84.00    -1.13153 ( 88.85%)    -0.90286 ( 11.15%)    -1.10603
      39     96.31    -1.05178 ( 93.23%)    -0.86236 (  6.77%)    -1.03895
      40     97.43    -1.04506 ( 93.51%)    -0.85893 (  6.49%)    -1.03299
      41     99.21    -1.03449 ( 93.94%)    -0.85355 (  6.06%)    -1.02353
      42    100.36    -1.02780 ( 94.20%)    -0.85014 (  5.80%)    -1.01749
      43    109.32    -0.97820 ( 95.81%)    -0.82480 (  4.19%)    -0.97177
      44    109.48    -0.97739 ( 95.83%)    -0.82439 (  4.17%)    -0.97101
      45    109.86    -0.97534 ( 95.89%)    -0.82334 (  4.11%)    -0.96908
      46    110.89    -0.96998 ( 96.03%)    -0.82060 (  3.97%)    -0.96405
      47    119.91    -0.92483 ( 97.07%)    -0.79743 (  2.93%)    -0.92109
      48    120.52    -0.92189 ( 97.12%)    -0.79592 (  2.88%)    -0.91827
      49    126.25    -0.89516 ( 97.60%)    -0.78216 (  2.40%)    -0.89245
      50    130.65    -0.87551 ( 97.90%)    -0.77201 (  2.10%)    -0.87333
      51    135.45    -0.85486 ( 98.18%)    -0.76133 (  1.82%)    -0.85315
      52    136.91    -0.84871 ( 98.25%)    -0.75814 (  1.75%)    -0.84712
      53    138.94    -0.84032 ( 98.35%)    -0.75379 (  1.65%)    -0.83889
      54    144.29    -0.81879 ( 98.58%)    -0.74260 (  1.42%)    -0.81771
      55    145.03    -0.81586 ( 98.61%)    -0.74107 (  1.39%)    -0.81482
      56    145.10    -0.81558 ( 98.61%)    -0.74093 (  1.39%)    -0.81454
      57    150.57    -0.79457 ( 98.80%)    -0.72997 (  1.20%)    -0.79379
      58    150.87    -0.79345 ( 98.81%)    -0.72939 (  1.19%)    -0.79269
      59    155.72    -0.77554 ( 98.95%)    -0.72001 (  1.05%)    -0.77496
      60    157.33    -0.76971 ( 98.99%)    -0.71696 (  1.01%)    -0.76918
      61    160.96    -0.75684 ( 99.08%)    -0.71020 (  0.92%)    -0.75641
      62    166.36    -0.73829 ( 99.19%)    -0.70044 (  0.81%)    -0.73799
      63    179.23    -0.69662 ( 99.40%)    -0.67836 (  0.60%)    -0.69651
      64    179.47    -0.69586 ( 99.40%)    -0.67796 (  0.60%)    -0.69575
      65    180.22    -0.69355 ( 99.41%)    -0.67673 (  0.59%)    -0.69345
      66    181.42    -0.68984 ( 99.43%)    -0.67475 (  0.57%)    -0.68976
      67    189.14    -0.66675 ( 99.51%)    -0.66242 (  0.49%)    -0.66672
      68    191.06    -0.66114 ( 99.53%)    -0.65941 (  0.47%)    -0.66113
      69    192.52    -0.65696 ( 99.55%)    -0.65717 (  0.45%)    -0.65696
      70    194.07    -0.65252 ( 99.56%)    -0.65478 (  0.44%)    -0.65253
      71    195.01    -0.64987 ( 99.57%)    -0.65336 (  0.43%)    -0.64988
      72    197.35    -0.64330 ( 99.59%)    -0.64982 (  0.41%)    -0.64333
      73    197.92    -0.64171 ( 99.59%)    -0.64896 (  0.41%)    -0.64174
      74    198.53    -0.64003 ( 99.60%)    -0.64806 (  0.40%)    -0.64006
      75    204.59    -0.62354 ( 99.64%)    -0.63914 (  0.36%)    -0.62360
      76    207.63    -0.61550 ( 99.66%)    -0.63478 (  0.34%)    -0.61556
      77    215.24    -0.59593 ( 99.71%)    -0.62411 (  0.29%)    -0.59601
      78    223.29    -0.57611 ( 99.75%)    -0.61325 (  0.25%)    -0.57620
      79    231.74    -0.55617 ( 99.78%)    -0.60223 (  0.22%)    -0.55627
      80    238.89    -0.54000 ( 99.81%)    -0.59324 (  0.19%)    -0.54010
      81    247.03    -0.52226 ( 99.83%)    -0.58331 (  0.17%)    -0.52236
      82    253.97    -0.50770 ( 99.85%)    -0.57510 (  0.15%)    -0.50780
      83    256.84    -0.50184 ( 99.86%)    -0.57177 (  0.14%)    -0.50194
      84    265.13    -0.48530 ( 99.87%)    -0.56236 (  0.13%)    -0.48540
      85    272.04    -0.47204 ( 99.89%)    -0.55474 (  0.11%)    -0.47214
      86    272.76    -0.47067 ( 99.89%)    -0.55395 (  0.11%)    -0.47077
      87    274.19    -0.46799 ( 99.89%)    -0.55241 (  0.11%)    -0.46808
      88    275.61    -0.46533 ( 99.89%)    -0.55087 (  0.11%)    -0.46543
      89    284.04    -0.44998 ( 99.90%)    -0.54195 (  0.10%)    -0.45007
      90    284.20    -0.44969 ( 99.90%)    -0.54178 (  0.10%)    -0.44978
      91    289.05    -0.44111 ( 99.91%)    -0.53677 (  0.09%)    -0.44120
      92    289.20    -0.44086 ( 99.91%)    -0.53662 (  0.09%)    -0.44095
      93    295.03    -0.43080 ( 99.92%)    -0.53070 (  0.08%)    -0.43089
      94    296.74    -0.42792 ( 99.92%)    -0.52900 (  0.08%)    -0.42800
      95    299.13    -0.42391 ( 99.92%)    -0.52662 (  0.08%)    -0.42399
      96    299.80    -0.42278 ( 99.92%)    -0.52595 (  0.08%)    -0.42286
   ------------------------------------------------------------------------

   temp. (K)  partition function   enthalpy   heat capacity  entropy
                                   cal/mol     cal/K/mol   cal/K/mol   J/K/mol
 298.15  VIB  0.110E+54            63284.366    403.699    402.217
         ROT  0.142E+10              888.752      2.981     44.867
         INT  0.156E+63            64173.118    406.680    447.083
         TR   0.699E+29             1481.254      4.968     48.201
         TOT                       65654.3720   411.6485   495.2847  2072.2713

       T/K    H(0)-H(T)+PV         H(T)/Eh          T*S/Eh         G(T)/Eh
   ------------------------------------------------------------------------
    298.15    0.104627E+00    0.146629E+01    0.235326E+00    0.123097E+01
   ------------------------------------------------------------------------

         :::::::::::::::::::::::::::::::::::::::::::::::::::::
         ::                  THERMODYNAMIC                  ::
         :::::::::::::::::::::::::::::::::::::::::::::::::::::
         :: total free energy        -302.345415421695 Eh   ::
         ::.................................................::
         :: total energy             -303.576383697680 Eh   ::
         :: zero point energy           1.361667134608 Eh   ::
         :: G(RRHO) w/o ZPVE           -0.130698858622 Eh   ::
         :: G(RRHO) contrib.            1.230968275985 Eh   ::
         :::::::::::::::::::::::::::::::::::::::::::::::::::::

           -------------------------------------------------
          | TOTAL ENERGY             -303.576383697680 Eh   |
          | TOTAL ENTHALPY           -302.110089661533 Eh   |
          | TOTAL FREE ENERGY        -302.345415421695 Eh   |
          | GRADIENT NORM               0.000747806787 Eh/α |
          | HOMO-LUMO GAP               1.872885557429 eV   |
           -------------------------------------------------

------------------------------------------------------------------------
 * finished run on 2021/06/22 at 00:10:32.459     
------------------------------------------------------------------------
 total:
 * wall-time:     0 d,  0 h, 17 min, 26.711 sec
 *  cpu-time:     0 d,  1 h, 12 min, 15.456 sec
 * ratio c/w:     4.142 speedup
 SCF:
 * wall-time:     0 d,  0 h,  0 min,  2.740 sec
 *  cpu-time:     0 d,  0 h,  0 min,  9.334 sec
 * ratio c/w:     3.406 speedup
 numerical hessian:
 * wall-time:     0 d,  0 h, 17 min, 21.030 sec
 *  cpu-time:     0 d,  1 h, 12 min,  3.090 sec
 * ratio c/w:     4.153 speedup

