      -----------------------------------------------------------      
     |                   =====================                   |     
     |                           x T B                           |     
     |                   =====================                   |     
     |                         S. Grimme                         |     
     |          Mulliken Center for Theoretical Chemistry        |     
     |                    University of Bonn                     |     
     |                Version 6.2 RC2 (SAW190805)                |     
      -----------------------------------------------------------      

   This program is distributed in the hope that it will be useful,
   but WITHOUT ANY WARRANTY; without even the implied warranty of
   MERCHANTABILITY or FITNESS FOR A PARTICULAR PURPOSE.
   
   FOR NON-COMMERCIAL, ACADEMIA USE ONLY.
   
   Cite this work as:
   * S. Grimme, C. Bannwarth, P. Shushkov, J. Chem. Theory Comput., 2017,
     13, 1989-2009. DOI: 10.1021/acs.jctc.7b00118
   * C. Bannwarth, S. Ehlert and S. Grimme., J. Chem. Theory Comput., 2019,
     15, 1652-1671. DOI: 10.1021/acs.jctc.8b01176
   * P. Pracht, E. Caldeweyher, S. Ehlert, S. Grimme, ChemRxiv, 2019, preprint.
     DOI: 10.26434/chemrxiv.8326202.v1
   
   for DFT-D4:
   * E. Caldeweyher, C. Bannwarth and S. Grimme, J. Chem. Phys., 2017,
     147, 034112. DOI: 10.1063/1.4993215
   * E. Caldeweyher, S. Ehlert, A. Hansen, H. Neugebauer, S. Spicher,
     C. Bannwarth and S. Grimme, J. Chem. Phys., 2019, 150, 154122.
     DOI: 10.1063/1.5090222
   
   for sTDA-xTB:
   * S. Grimme and C. Bannwarth, J. Chem. Phys., 2016, 145, 054103.
     DOI: 10.1063/1.4959605
   
   in the mass-spec context:
   * V. Asgeirsson, C. Bauer and S. Grimme, Chem. Sci., 2017, 8, 4879.
     DOI: 10.1039/c7sc00601b
   
   for metadynamics refer to:
   * S. Grimme, J. Chem. Theory Comput., 2019, 155, 2847-2862
     DOI: 10.1021/acs.jctc.9b00143
   
   with help from (in alphabetical order)
   C. Bannwarth, F. Bohle, G. Brandenburg, E. Caldeweyher, M. Checinski,
   S. Dohm, S. Ehlert, S. Ehrlich, F. März, H. Neugebauer, J. Pisarek,
   P. Pracht, P. Shushkov, and S. Spicher.
   
 * started run on 2021/06/22 at 00:43:09.141     

           -------------------------------------------------
          |                Calculation Setup                |
           -------------------------------------------------

          program call               : /home/atarzia/software/xtb-190806/bin/xtb /data/atarzia/projects/unsymm/screening/production/free_energy_calculations/fe_5a1_b/input_structure.xyz --gfn 2 --hess --parallel 6 --etemp 300 --gbsa dmso --chrg 4 --uhf 0 -I det_control.in
          coordinate file            : /data/atarzia/projects/unsymm/screening/production/free_energy_calculations/fe_5a1_b/input_structure.xyz
          omp threads                :                     6
          number of atoms            :                   178
          number of electrons        :                   536
          charge                     :                     4
          spin                       :                   0.0
          first test random number   :      0.51449709605996


########################################################################
# WARNING! Please study the warnings concerning your input carefully
#  - XTBHOME is not set, using HOME instead
#  - XTBPATH is not set, using XTBHOME instead
#  - Process number higher than OMP_NUM_THREADS, I hope you know what you are doing.
########################################################################

           ------------------------------------------------- 
          |                 G F N 2 - x T B                 |
          | Geometry, Frequencies, Noncovalent interactions |
          |            JCTC 2019 parametrisation            |
           ------------------------------------------------- 
             k(s)              :                1.8500
             k(p)              :                2.2300
             k(d)              :                2.2300
             k(f)              :                2.0000
             kEN (H0ij)        :               -2.0000
             D4 a1             :                0.5200
             D4 a2             :                5.0000
             D4 s6             :                1.0000
             D4 s8             :                2.7000
             D4 s9             :                5.0000
             alphaj            :                2.0000

  Z AO/shell   Hii/eV     exponent
  1     Wed Apr 25 08:07:45 CEST 2018   EN: 2.200 GM2: 0.406  GM3: 0.0800  RAES: 1.40
     1s    -10.707211    1.230000
  6     Wed Apr 25 08:07:45 CEST 2018   EN: 2.550 GM2: 0.538  GM3: 0.1500  RAES: 3.00
     2s    -13.970922    2.096432
     2p    -10.063292    1.800000
  7     Wed Apr 25 08:07:45 CEST 2018   EN: 3.040 GM2: 0.461  GM3:-0.0640  RAES: 1.90
     2s    -16.686243    2.339881
     2p    -12.523956    2.014332
 46     Wed Apr 25 16:26:58 CEST 2018   EN: 2.200 GM2: 0.273  GM3: 0.0800  RAES: 5.00
     4d    -11.963518    2.353691
     5s     -9.714059    1.828354
     5p     -2.035281    1.333352

 Solvent             : dmso
 Using internal parameter file: .param_gbsa2_dmso
 Gsolv ref. state (COSMO-RS): gsolv [1 M gas/solution]
 temperature (mdtemp)       :    298.150000000000     
 dielectric constant        :    46.6800000000000     
 rho                        :    1.10000000000000     
 mass                       :    78.1300000000000     
 surface tension            :    15.5689454083859     
 probe radius               :   0.949087640000000     
 vdW radii scaling          :    1.00000000000000     
 Gshift (Eh)                :   5.161738145414381E-003
 c1                         :    1.63948621000000     
 soset                      :   1.179665000000000E-002
 HB correction              :  T
           ------------------------------------------------- 
          |        Self-Consistent Charge Iterations        |
           ------------------------------------------------- 

          ...................................................
          :                      SETUP                      :
          :.................................................:
          :  # basis functions                 532          :
          :  # atomic orbitals                 530          :
          :  # shells                          294          :
          :  # electrons                       536          :
          :  max. iterations                   250          :
          :  Hamiltonian                  GFN2-xTB          :
          :  restarted?                      false          :
          :  GBSA solvation                   true          :
          :  PC potential                    false          :
          :  electronic temp.          300.0000000     K    :
          :  accuracy                    1.0000000          :
          :  -> integral cutoff          0.2500000E+02      :
          :  -> integral neglect         0.1000000E-07      :
          :  -> SCF convergence          0.1000000E-05 Eh   :
          :  -> wf. convergence          0.1000000E-03 e    :
          :  Broyden damping             0.4000000          :
          ...................................................

 iter      E             dE          RMSdq      gap      omega  full diag
   1   -291.2043702 -0.291204E+03  0.566E+00    2.15       0.0  T
   2   -291.6843481 -0.479978E+00  0.377E+00    1.48       1.0  T
   3   -291.4849084  0.199440E+00  0.204E+00    1.87       1.0  T
   4   -291.8761866 -0.391278E+00  0.912E-01    1.91       1.0  T
   5   -291.9577352 -0.815486E-01  0.392E-01    1.83       1.0  T
   6   -291.9732813 -0.155462E-01  0.185E-01    1.89       1.0  T
   7   -291.9753807 -0.209941E-02  0.947E-02    1.89       1.0  T
   8   -291.9757339 -0.353123E-03  0.381E-02    1.89       1.0  T
   9   -291.9758576 -0.123710E-03  0.160E-02    1.89       1.0  T
  10   -291.9758705 -0.129015E-04  0.710E-03    1.89       1.1  T
  11   -291.9758723 -0.180551E-05  0.436E-03    1.89       1.7  T
  12   -291.9758730 -0.693873E-06  0.196E-03    1.89       3.8  T
  13   -291.9758732 -0.240747E-06  0.114E-03    1.89       6.6  T
  14   -291.9758733 -0.690583E-07  0.709E-04    1.89      10.6  T
  15   -291.9758733 -0.285568E-07  0.351E-04    1.89      21.4  T

   *** convergence criteria satisfied after 15 iterations ***

         #    Occupation            Energy/Eh            Energy/eV
      -------------------------------------------------------------
         1        2.0000           -0.7293938             -19.8478
       ...           ...                  ...                  ...
       262        2.0000           -0.4027497             -10.9594
       263        2.0000           -0.4025106             -10.9529
       264        2.0000           -0.4022962             -10.9470
       265        2.0000           -0.3893123             -10.5937
       266        2.0000           -0.3888133             -10.5801
       267        2.0000           -0.3887624             -10.5788
       268        2.0000           -0.3886357             -10.5753 (HOMO)
       269                         -0.3190225              -8.6810 (LUMO)
       270                         -0.3182731              -8.6607
       271                         -0.3178223              -8.6484
       272                         -0.3151867              -8.5767
       273                         -0.3080881              -8.3835
       ...                                ...                  ...
       530                          1.4346942              39.0400
      -------------------------------------------------------------
                  HL-Gap            0.0696132 Eh            1.8943 eV
             Fermi-level           -0.3538291 Eh           -9.6282 eV

 SCC (total)                   0 d,  0 h,  0 min,  3.525 sec
 SCC setup                      ...        0 min,  0.146 sec (  4.155%)
 Dispersion                     ...        0 min,  0.035 sec (  0.990%)
 integral evaluation            ...        0 min,  0.469 sec ( 13.304%)
 zeroth order Hamiltonian       ...        0 min,  0.009 sec (  0.247%)
 iterations                     ...        0 min,  2.523 sec ( 71.587%)
 molecular gradient             ...        0 min,  0.333 sec (  9.461%)
 printout                       ...        0 min,  0.009 sec (  0.254%)

         :::::::::::::::::::::::::::::::::::::::::::::::::::::
         ::                     SUMMARY                     ::
         :::::::::::::::::::::::::::::::::::::::::::::::::::::
         :: total energy            -286.658061906841 Eh    ::
         :: total w/o Gsasa/hb      -286.530986248460 Eh    ::
         :: gradient norm              0.000586596021 Eh/a0 ::
         :: HOMO-LUMO gap              1.894271035415 eV    ::
         ::.................................................::
         :: SCC energy              -292.089233671984 Eh    ::
         :: -> isotropic ES            0.621675895873 Eh    ::
         :: -> anisotropic ES         -0.087770497887 Eh    ::
         :: -> anisotropic XC          0.192085001940 Eh    ::
         :: -> dispersion             -0.262923447309 Eh    ::
         :: -> Gsolv                  -0.661329918530 Eh    ::
         ::    -> Gborn               -0.534254260150 Eh    ::
         ::    -> Gsasa               -0.118522100497 Eh    ::
         ::    -> Ghb                 -0.013715296029 Eh    ::
         ::    -> Gshift               0.005161738145 Eh    ::
         :: repulsion energy           5.427342447236 Eh    ::
         :: add. restraining           0.000000000000 Eh    ::
         :::::::::::::::::::::::::::::::::::::::::::::::::::::

           ------------------------------------------------- 
          |                Numerical Hessian                |
           ------------------------------------------------- 
step length          :   0.00500
SCC accuracy         :   0.30000
Hessian scale factor :   1.00000
frozen atoms in %    :   0.00000    0
RMS gradient         :   0.00059
estimated CPU  time    131.57 min
estimated wall time     33.13 min

writing file <hessian>.

 projected vibrational frequencies (cm-1)
eigval :       -0.00    -0.00    -0.00    -0.00     0.00     0.00
eigval :        5.86     6.83     7.44     8.12    14.89    15.19
eigval :       15.34    19.29    21.18    23.98    26.16    27.65
eigval :       29.76    36.10    37.13    38.99    42.49    47.90
eigval :       49.33    49.89    54.57    56.48    58.55    61.35
eigval :       62.40    64.35    66.48    70.49    73.80    78.94
eigval :       84.69    88.27    89.95    91.70    97.12   100.77
eigval :      103.88   106.14   108.37   110.91   114.33   121.58
eigval :      130.95   132.53   137.38   143.95   145.77   147.92
eigval :      149.97   152.17   157.20   159.45   163.10   168.85
eigval :      170.34   175.39   175.78   182.91   189.27   191.54
eigval :      194.22   196.51   196.94   198.55   200.02   204.22
eigval :      205.28   207.09   214.64   229.64   236.61   237.18
eigval :      247.94   252.52   253.22   253.64   264.59   266.89
eigval :      274.43   276.59   285.38   287.31   291.04   291.68
eigval :      293.01   299.86   301.60   302.96   314.06   315.91
eigval :      318.64   320.88   336.08   337.35   339.60   344.29
eigval :      344.81   345.59   345.92   349.08   369.44   371.94
eigval :      373.70   374.57   383.99   392.24   393.48   393.84
eigval :      394.63   399.31   400.72   404.61   426.05   426.49
eigval :      426.91   427.96   442.10   442.91   442.96   443.15
eigval :      443.38   450.24   452.40   452.81   454.36   454.95
eigval :      455.17   457.15   473.17   474.30   474.70   475.32
eigval :      485.00   485.70   487.03   487.56   507.56   508.14
eigval :      511.64   517.04   518.81   519.92   520.68   521.47
eigval :      538.66   540.20   541.19   541.98   551.10   551.50
eigval :      551.72   552.17   560.76   563.47   564.07   564.96
eigval :      579.24   581.15   581.93   582.63   597.70   598.00
eigval :      598.23   598.37   609.70   614.28   614.89   616.82
eigval :      617.98   619.45   619.84   621.14   628.46   630.09
eigval :      630.61   632.53   642.21   643.28   643.48   643.79
eigval :      674.69   677.04   680.30   680.85   709.66   711.45
eigval :      712.21   712.73   721.40   721.41   721.51   721.54
eigval :      724.21   725.60   725.66   725.71   768.10   768.48
eigval :      769.40   769.86   771.99   774.20   776.22   776.41
eigval :      777.16   779.94   780.13   781.97   795.02   796.57
eigval :      797.86   798.18   798.39   799.12   799.32   799.97
eigval :      802.44   802.97   803.96   804.78   808.86   819.02
eigval :      820.86   828.49   846.04   846.74   847.55   847.99
eigval :      850.09   850.39   853.31   853.67   854.00   856.47
eigval :      858.89   859.53   860.81   863.23   865.20   865.96
eigval :      868.51   869.27   870.44   871.12   874.96   878.62
eigval :      879.31   879.55   888.89   892.09   892.26   894.69
eigval :      895.01   895.28   895.43   896.35   896.50   896.77
eigval :      897.17   899.71   914.91   916.48   916.84   917.12
eigval :      921.94   922.44   922.92   923.06   927.87   928.49
eigval :      928.53   928.58   933.96   934.12   934.30   934.90
eigval :      935.73   937.33   938.48   939.51   951.56   953.02
eigval :      953.19   954.45   994.94   999.16   999.64  1000.10
eigval :     1043.63  1044.20  1045.04  1046.23  1068.55  1070.04
eigval :     1074.68  1075.87  1076.54  1077.15  1078.18  1079.30
eigval :     1087.14  1090.02  1095.77  1095.86  1107.14  1108.06
eigval :     1108.92  1110.90  1123.31  1125.65  1126.49  1130.25
eigval :     1143.72  1144.18  1145.41  1147.06  1151.52  1152.27
eigval :     1152.45  1156.85  1162.46  1162.96  1163.64  1168.15
eigval :     1169.92  1170.54  1171.62  1174.68  1178.61  1180.70
eigval :     1181.11  1182.54  1185.16  1185.33  1186.48  1189.51
eigval :     1201.75  1202.15  1204.46  1204.72  1213.41  1214.92
eigval :     1217.59  1218.34  1218.60  1218.95  1220.86  1221.09
eigval :     1224.53  1224.98  1226.39  1227.01  1234.36  1235.75
eigval :     1243.65  1244.05  1253.75  1255.39  1257.03  1260.12
eigval :     1263.58  1264.42  1266.04  1269.18  1285.64  1286.57
eigval :     1286.86  1288.21  1293.21  1294.75  1295.43  1296.89
eigval :     1301.33  1303.24  1303.88  1304.56  1316.67  1317.34
eigval :     1317.48  1317.83  1341.00  1341.86  1342.34  1344.65
eigval :     1366.75  1367.02  1368.10  1369.02  1373.07  1373.20
eigval :     1373.74  1375.54  1383.28  1384.61  1385.55  1385.98
eigval :     1394.52  1395.22  1396.10  1397.50  1399.20  1399.49
eigval :     1401.19  1401.89  1412.92  1413.33  1414.07  1415.10
eigval :     1422.47  1422.92  1423.09  1423.73  1445.39  1446.09
eigval :     1446.41  1446.69  1451.04  1451.16  1451.69  1452.03
eigval :     1465.59  1466.58  1467.00  1468.59  1493.77  1493.90
eigval :     1494.18  1494.96  1534.38  1535.02  1535.31  1535.66
eigval :     1537.32  1538.08  1538.46  1538.66  1545.93  1546.00
eigval :     1546.10  1546.73  1548.57  1549.58  1550.05  1550.64
eigval :     1555.36  1556.78  1557.61  1558.33  1566.19  1567.48
eigval :     1567.77  1568.64  1588.98  1589.13  1589.15  1590.02
eigval :     1595.16  1595.65  1596.75  1597.13  2300.79  2301.02
eigval :     2302.70  2305.23  2934.94  2944.51  2948.93  2954.35
eigval :     2969.29  2979.08  2979.86  2985.63  2993.16  2998.19
eigval :     3004.66  3012.39  3018.75  3019.35  3021.83  3026.23
eigval :     3074.63  3074.64  3074.82  3074.88  3080.18  3080.59
eigval :     3081.21  3081.37  3092.22  3092.30  3092.48  3092.59
eigval :     3092.71  3093.03  3093.24  3094.33  3095.90  3096.28
eigval :     3097.00  3097.33  3097.79  3099.04  3099.06  3099.16
eigval :     3099.39  3100.07  3100.36  3100.48  3101.64  3101.95
eigval :     3102.00  3102.52  3107.09  3107.37  3107.73  3108.13
eigval :     3109.42  3109.83  3110.07  3110.89  3114.13  3116.45
eigval :     3117.35  3117.64  3118.34  3118.50  3118.70  3118.78
           -------------------------------------------------
          |                Property Printout                |
           -------------------------------------------------

    * Orbital Energies and Occupations

         #    Occupation            Energy/Eh            Energy/eV
      -------------------------------------------------------------
         1        2.0000           -0.7293939             -19.8478
       ...           ...                  ...                  ...
       256        2.0000           -0.4196508             -11.4193
       257        2.0000           -0.4192157             -11.4074
       258        2.0000           -0.4182168             -11.3803
       259        2.0000           -0.4168657             -11.3435
       260        2.0000           -0.4162238             -11.3260
       261        2.0000           -0.4030270             -10.9669
       262        2.0000           -0.4027505             -10.9594
       263        2.0000           -0.4025114             -10.9529
       264        2.0000           -0.4022970             -10.9471
       265        2.0000           -0.3893137             -10.5938
       266        2.0000           -0.3888139             -10.5802
       267        2.0000           -0.3887631             -10.5788
       268        2.0000           -0.3886364             -10.5753 (HOMO)
       269                         -0.3190233              -8.6811 (LUMO)
       270                         -0.3182735              -8.6607
       271                         -0.3178228              -8.6484
       272                         -0.3151875              -8.5767
       273                         -0.3080879              -8.3835
       274                         -0.3054370              -8.3114
       275                         -0.3032613              -8.2522
       276                         -0.3027039              -8.2370
       277                         -0.2950815              -8.0296
       278                         -0.2942091              -8.0058
       279                         -0.2931443              -7.9769
       ...                                ...                  ...
       530                          1.4346921              39.0400
      -------------------------------------------------------------
                  HL-Gap            0.0696131 Eh            1.8943 eV
             Fermi-level           -0.3538298 Eh           -9.6282 eV

     #   Z        covCN         q      C6AA      α(0)
     1  46 Pd     3.556    -0.087   274.552    34.170
     2  46 Pd     3.528    -0.083   274.317    34.157
     3   6 C      1.983    -0.022    31.635     9.083
     4   6 C      1.981    -0.034    31.964     9.130
     5   6 C      2.965     0.044    27.003     8.524
     6   6 C      2.925    -0.018    28.464     8.749
     7   6 C      2.914    -0.019    28.475     8.750
     8   6 C      2.915    -0.032    28.797     8.800
     9   6 C      2.982     0.003    27.954     8.673
    10   6 C      2.899     0.058    26.690     8.471
    11   7 N      2.666    -0.102    23.239     7.160
    12   6 C      2.904     0.041    27.090     8.534
    13   6 C      2.910    -0.028    28.701     8.785
    14   6 C      2.995     0.017    27.628     8.622
    15   1 H      0.926     0.058     2.225     2.333
    16   1 H      0.926     0.057     2.229     2.335
    17   1 H      0.926     0.072     2.064     2.247
    18   1 H      0.925     0.113     1.675     2.024
    19   1 H      0.925     0.149     1.399     1.850
    20   1 H      0.926     0.106     1.734     2.059
    21   6 C      2.968     0.039    27.125     8.543
    22   6 C      2.921    -0.027    28.677     8.782
    23   6 C      2.916    -0.031    28.767     8.795
    24   6 C      2.985     0.015    27.679     8.630
    25   6 C      2.916    -0.030    28.759     8.794
    26   6 C      2.918    -0.031    28.780     8.797
    27   6 C      2.972    -0.001    28.053     8.688
    28   6 C      2.925    -0.045    29.115     8.849
    29   6 C      2.984     0.008    27.830     8.654
    30   6 C      2.929    -0.040    28.998     8.831
    31   1 H      0.926     0.040     2.453     2.449
    32   1 H      0.926     0.033     2.547     2.495
    33   1 H      0.926     0.038     2.478     2.462
    34   1 H      0.926     0.046     2.365     2.405
    35   1 H      0.926     0.076     2.021     2.223
    36   1 H      0.926     0.076     2.016     2.220
    37   6 C      2.971     0.012    27.733     8.638
    38   6 C      2.929    -0.005    28.144     8.700
    39   6 C      2.911    -0.029    28.725     8.788
    40   6 C      2.911     0.053    26.808     8.490
    41   7 N      2.670    -0.074    22.681     7.073
    42   6 C      2.914     0.043    27.035     8.526
    43   1 H      0.926     0.080     1.975     2.197
    44   1 H      0.926     0.093     1.852     2.128
    45   1 H      0.925     0.131     1.530     1.934
    46   1 H      0.925     0.126     1.566     1.957
    47   6 C      1.983    -0.023    31.652     9.086
    48   6 C      1.981    -0.034    31.976     9.132
    49   6 C      2.966     0.044    27.012     8.525
    50   6 C      2.923    -0.018    28.468     8.750
    51   6 C      2.914    -0.019    28.482     8.751
    52   6 C      2.914    -0.031    28.779     8.797
    53   6 C      2.981     0.003    27.941     8.671
    54   6 C      2.890     0.062    26.616     8.458
    55   7 N      2.665    -0.106    23.324     7.173
    56   6 C      2.933     0.040    27.098     8.537
    57   6 C      2.911    -0.029    28.716     8.787
    58   6 C      2.999     0.015    27.670     8.629
    59   1 H      0.926     0.058     2.218     2.329
    60   1 H      0.926     0.057     2.237     2.339
    61   1 H      0.926     0.070     2.082     2.256
    62   1 H      0.925     0.116     1.642     2.004
    63   1 H      0.924     0.138     1.476     1.900
    64   1 H      0.926     0.104     1.752     2.070
    65   6 C      2.968     0.039    27.130     8.544
    66   6 C      2.922    -0.027    28.674     8.781
    67   6 C      2.916    -0.031    28.767     8.795
    68   6 C      2.986     0.015    27.680     8.630
    69   6 C      2.916    -0.030    28.756     8.794
    70   6 C      2.920    -0.032    28.808     8.802
    71   6 C      2.971    -0.002    28.065     8.690
    72   6 C      2.922    -0.043    29.068     8.841
    73   6 C      2.983     0.008    27.830     8.653
    74   6 C      2.927    -0.039    28.969     8.827
    75   1 H      0.926     0.038     2.470     2.458
    76   1 H      0.926     0.033     2.542     2.493
    77   1 H      0.926     0.038     2.472     2.459
    78   1 H      0.926     0.048     2.345     2.395
    79   1 H      0.926     0.080     1.976     2.198
    80   1 H      0.926     0.076     2.020     2.223
    81   6 C      2.970     0.012    27.754     8.641
    82   6 C      2.931    -0.005    28.141     8.700
    83   6 C      2.910    -0.029    28.730     8.789
    84   6 C      2.937     0.055    26.773     8.486
    85   7 N      2.666    -0.092    23.042     7.129
    86   6 C      2.895     0.047    26.944     8.511
    87   1 H      0.926     0.083     1.948     2.183
    88   1 H      0.926     0.097     1.817     2.108
    89   1 H      0.924     0.128     1.554     1.949
    90   1 H      0.925     0.132     1.518     1.927
    91   6 C      1.983    -0.022    31.641     9.084
    92   6 C      1.981    -0.034    31.967     9.131
    93   6 C      2.965     0.044    27.006     8.524
    94   6 C      2.923    -0.018    28.461     8.749
    95   6 C      2.914    -0.019    28.479     8.751
    96   6 C      2.914    -0.031    28.785     8.798
    97   6 C      2.981     0.003    27.964     8.674
    98   6 C      2.904     0.064    26.558     8.450
    99   7 N      2.665    -0.124    23.698     7.230
   100   6 C      2.896     0.039    27.129     8.540
   101   6 C      2.911    -0.028    28.711     8.786
   102   6 C      2.998     0.015    27.663     8.628
   103   1 H      0.926     0.059     2.214     2.327
   104   1 H      0.926     0.058     2.227     2.334
   105   1 H      0.926     0.071     2.072     2.251
   106   1 H      0.925     0.122     1.598     1.977
   107   1 H      0.925     0.135     1.498     1.914
   108   1 H      0.926     0.104     1.745     2.066
   109   6 C      2.968     0.039    27.129     8.543
   110   6 C      2.921    -0.027    28.670     8.781
   111   6 C      2.916    -0.031    28.765     8.795
   112   6 C      2.986     0.015    27.680     8.630
   113   6 C      2.916    -0.030    28.754     8.793
   114   6 C      2.919    -0.032    28.795     8.800
   115   6 C      2.971    -0.002    28.070     8.691
   116   6 C      2.923    -0.044    29.086     8.844
   117   6 C      2.983     0.008    27.837     8.655
   118   6 C      2.928    -0.039    28.980     8.828
   119   1 H      0.926     0.039     2.463     2.454
   120   1 H      0.926     0.033     2.541     2.493
   121   1 H      0.926     0.038     2.472     2.459
   122   1 H      0.926     0.048     2.350     2.397
   123   1 H      0.926     0.079     1.989     2.205
   124   1 H      0.926     0.076     2.021     2.223
   125   6 C      2.970     0.012    27.755     8.642
   126   6 C      2.930    -0.004    28.129     8.698
   127   6 C      2.911    -0.029    28.723     8.788
   128   6 C      2.905     0.054    26.796     8.488
   129   7 N      2.666    -0.094    23.090     7.137
   130   6 C      2.910     0.046    26.964     8.515
   131   1 H      0.926     0.082     1.958     2.188
   132   1 H      0.926     0.094     1.841     2.122
   133   1 H      0.925     0.121     1.603     1.980
   134   1 H      0.925     0.136     1.494     1.911
   135   6 C      1.983    -0.023    31.668     9.088
   136   6 C      1.981    -0.035    31.986     9.133
   137   6 C      2.966     0.044    27.019     8.526
   138   6 C      2.922    -0.019    28.471     8.750
   139   6 C      2.914    -0.019    28.488     8.752
   140   6 C      2.914    -0.031    28.782     8.797
   141   6 C      2.981     0.004    27.938     8.670
   142   6 C      2.889     0.060    26.656     8.465
   143   7 N      2.665    -0.098    23.163     7.148
   144   6 C      2.941     0.039    27.129     8.542
   145   6 C      2.911    -0.029    28.718     8.787
   146   6 C      3.000     0.014    27.684     8.631
   147   1 H      0.926     0.058     2.221     2.330
   148   1 H      0.926     0.056     2.244     2.343
   149   1 H      0.926     0.069     2.092     2.262
   150   1 H      0.925     0.118     1.634     1.999
   151   1 H      0.924     0.140     1.463     1.891
   152   1 H      0.926     0.101     1.776     2.084
   153   6 C      2.968     0.038    27.135     8.544
   154   6 C      2.921    -0.027    28.672     8.781
   155   6 C      2.916    -0.031    28.765     8.795
   156   6 C      2.986     0.014    27.689     8.632
   157   6 C      2.916    -0.030    28.751     8.793
   158   6 C      2.920    -0.033    28.817     8.803
   159   6 C      2.972    -0.002    28.083     8.693
   160   6 C      2.921    -0.043    29.066     8.841
   161   6 C      2.983     0.008    27.834     8.654
   162   6 C      2.928    -0.039    28.964     8.826
   163   1 H      0.926     0.038     2.479     2.462
   164   1 H      0.926     0.033     2.543     2.494
   165   1 H      0.926     0.039     2.466     2.456
   166   1 H      0.926     0.049     2.332     2.388
   167   1 H      0.926     0.081     1.969     2.194
   168   1 H      0.926     0.074     2.043     2.235
   169   6 C      2.971     0.011    27.772     8.644
   170   6 C      2.931    -0.004    28.124     8.697
   171   6 C      2.911    -0.029    28.721     8.788
   172   6 C      2.935     0.055    26.756     8.483
   173   7 N      2.663    -0.098    23.166     7.148
   174   6 C      2.893     0.048    26.920     8.507
   175   1 H      0.926     0.084     1.935     2.175
   176   1 H      0.926     0.098     1.807     2.102
   177   1 H      0.924     0.127     1.560     1.953
   178   1 H      0.925     0.133     1.513     1.924

 Mol. C6AA /au·bohr⁶  :     510646.976335
 Mol. C8AA /au·bohr⁸  :   14308274.539052
 Mol. α(0) /au        :       1173.184899


Wiberg/Mayer (AO) data.
largest (>0.10) Wiberg bond orders for each atom
          total WBO             WBO to atom ...
     1  Pd  3.526        N   41 0.603    N  143 0.595    N   55 0.593    N   99 0.583    C  144 0.105    C   56 0.102
     2  Pd  3.506        N   11 0.605    N   85 0.592    N  173 0.587    N  129 0.585
     3  C   3.944        C    4 2.639    C   21 1.132
     4  C   3.950        C    3 2.639    C    5 1.141
     5  C   3.987        C    6 1.437    C   14 1.217    C    4 1.141
     6  C   3.965        C    5 1.437    C    7 1.348    H   15 0.968
     7  C   3.987        C    8 1.533    C    6 1.348    H   16 0.968
     8  C   3.942        C    7 1.533    C    9 1.271    H   17 0.964
     9  C   3.987        C   10 1.293    C    8 1.271    C   14 1.233
    10  C   3.966        N   11 1.444    C    9 1.293    H   18 0.914    C   13 0.104
    11  N   3.540        C   10 1.444    C   12 1.238    Pd   2 0.605
    12  C   3.959        C   13 1.543    N   11 1.238    H   19 0.897
    13  C   3.980        C   12 1.543    C   14 1.293    H   20 0.955    C   10 0.104
    14  C   3.980        C   13 1.293    C    9 1.233    C    5 1.217
    15  H   0.996        C    6 0.968
    16  H   0.995        C    7 0.968
    17  H   0.994        C    8 0.964
    18  H   0.986        C   10 0.914
    19  H   0.977        C   12 0.897
    20  H   0.988        C   13 0.955
    21  C   3.988        C   30 1.456    C   22 1.246    C    3 1.132
    22  C   3.973        C   23 1.576    C   21 1.246    H   31 0.970
    23  C   3.990        C   22 1.576    C   24 1.272    H   32 0.967    C   30 0.105
    24  C   3.967        C   25 1.280    C   23 1.272    C   29 1.239
    25  C   3.989        C   26 1.564    C   24 1.280    H   33 0.967    C   28 0.108
    26  C   3.978        C   25 1.564    C   27 1.272    H   34 0.966
    27  C   3.985        C   28 1.483    C   26 1.272    C   37 1.060
    28  C   3.974        C   27 1.483    C   29 1.289    H   35 0.959    C   25 0.108
    29  C   3.989        C   30 1.291    C   28 1.289    C   24 1.239
    30  C   3.959        C   21 1.456    C   29 1.291    H   36 0.963    C   23 0.105
    31  H   0.998        C   22 0.970
    32  H   0.997        C   23 0.967
    33  H   0.997        C   25 0.967
    34  H   0.997        C   26 0.966
    35  H   0.994        C   28 0.959
    36  H   0.994        C   30 0.963
    37  C   3.982        C   42 1.378    C   38 1.368    C   27 1.060
    38  C   3.975        C   39 1.448    C   37 1.368    H   43 0.962
    39  C   3.981        C   38 1.448    C   40 1.428    H   44 0.962
    40  C   3.961        C   39 1.428    N   41 1.347    H   45 0.908
    41  N   3.548        C   42 1.363    C   40 1.347    Pd   1 0.603
    42  C   3.965        C   37 1.378    N   41 1.363    H   46 0.907
    43  H   0.992        C   38 0.962
    44  H   0.990        C   39 0.962
    45  H   0.982        C   40 0.908
    46  H   0.983        C   42 0.907
    47  C   3.944        C   48 2.638    C   65 1.135
    48  C   3.950        C   47 2.638    C   49 1.143
    49  C   3.987        C   50 1.436    C   58 1.216    C   48 1.143
    50  C   3.963        C   49 1.436    C   51 1.350    H   59 0.968
    51  C   3.987        C   52 1.530    C   50 1.350    H   60 0.968
    52  C   3.940        C   51 1.530    C   53 1.274    H   61 0.965
    53  C   3.987        C   54 1.286    C   52 1.274    C   58 1.237
    54  C   3.962        N   55 1.454    C   53 1.286    H   62 0.922    C   57 0.101
    55  N   3.528        C   54 1.454    C   56 1.229    Pd   1 0.593
    56  C   3.963        C   57 1.551    N   55 1.229    H   63 0.890    Pd   1 0.102
    57  C   3.980        C   56 1.551    C   58 1.289    H   64 0.954    C   54 0.101
    58  C   3.979        C   57 1.289    C   53 1.237    C   49 1.216
    59  H   0.996        C   50 0.968
    60  H   0.995        C   51 0.968
    61  H   0.994        C   52 0.965
    62  H   0.985        C   54 0.922
    63  H   0.980        C   56 0.890
    64  H   0.988        C   57 0.954
    65  C   3.988        C   74 1.455    C   66 1.245    C   47 1.135
    66  C   3.973        C   67 1.577    C   65 1.245    H   75 0.970
    67  C   3.990        C   66 1.577    C   68 1.272    H   76 0.967    C   74 0.105
    68  C   3.966        C   69 1.280    C   67 1.272    C   73 1.240
    69  C   3.989        C   70 1.566    C   68 1.280    H   77 0.967    C   72 0.108
    70  C   3.977        C   69 1.566    C   71 1.269    H   78 0.966
    71  C   3.984        C   72 1.488    C   70 1.269    C   81 1.059
    72  C   3.973        C   71 1.488    C   73 1.285    H   79 0.960    C   69 0.108
    73  C   3.989        C   74 1.292    C   72 1.285    C   68 1.240
    74  C   3.955        C   65 1.455    C   73 1.292    H   80 0.963    C   67 0.105
    75  H   0.998        C   66 0.970
    76  H   0.997        C   67 0.967
    77  H   0.997        C   69 0.967
    78  H   0.997        C   70 0.966
    79  H   0.993        C   72 0.960
    80  H   0.994        C   74 0.963
    81  C   3.982        C   86 1.376    C   82 1.371    C   71 1.059
    82  C   3.975        C   83 1.443    C   81 1.371    H   87 0.961
    83  C   3.980        C   82 1.443    C   84 1.434    H   88 0.961
    84  C   3.964        C   83 1.434    N   85 1.339    H   89 0.897
    85  N   3.538        C   86 1.368    C   84 1.339    Pd   2 0.592
    86  C   3.959        C   81 1.376    N   85 1.368    H   90 0.916
    87  H   0.991        C   82 0.961
    88  H   0.990        C   83 0.961
    89  H   0.982        C   84 0.897
    90  H   0.982        C   86 0.916
    91  C   3.944        C   92 2.639    C  109 1.133
    92  C   3.950        C   91 2.639    C   93 1.141
    93  C   3.987        C   94 1.440    C  102 1.214    C   92 1.141
    94  C   3.964        C   93 1.440    C   95 1.347    H  103 0.968
    95  C   3.987        C   96 1.534    C   94 1.347    H  104 0.968
    96  C   3.942        C   95 1.534    C   97 1.271    H  105 0.965
    97  C   3.987        C   98 1.294    C   96 1.271    C  102 1.233
    98  C   3.964        N   99 1.442    C   97 1.294    H  106 0.909    C  101 0.105
    99  N   3.520        C   98 1.442    C  100 1.240    Pd   1 0.583
   100  C   3.959        C  101 1.542    N   99 1.240    H  107 0.907
   101  C   3.980        C  100 1.542    C  102 1.295    H  108 0.954    C   98 0.105
   102  C   3.980        C  101 1.295    C   97 1.233    C   93 1.214
   103  H   0.996        C   94 0.968
   104  H   0.995        C   95 0.968
   105  H   0.994        C   96 0.965
   106  H   0.984        C   98 0.909
   107  H   0.981        C  100 0.907
   108  H   0.988        C  101 0.954
   109  C   3.988        C  118 1.455    C  110 1.246    C   91 1.133
   110  C   3.973        C  111 1.576    C  109 1.246    H  119 0.970
   111  C   3.990        C  110 1.576    C  112 1.273    H  120 0.967    C  118 0.105
   112  C   3.967        C  113 1.280    C  111 1.273    C  117 1.240
   113  C   3.989        C  114 1.566    C  112 1.280    H  121 0.967    C  116 0.108
   114  C   3.978        C  113 1.566    C  115 1.270    H  122 0.966
   115  C   3.985        C  116 1.487    C  114 1.270    C  125 1.059
   116  C   3.974        C  115 1.487    C  117 1.286    H  123 0.960    C  113 0.108
   117  C   3.989        C  118 1.292    C  116 1.286    C  112 1.240
   118  C   3.959        C  109 1.455    C  117 1.292    H  124 0.963    C  111 0.105
   119  H   0.998        C  110 0.970
   120  H   0.997        C  111 0.967
   121  H   0.997        C  113 0.967
   122  H   0.997        C  114 0.966
   123  H   0.993        C  116 0.960
   124  H   0.994        C  118 0.963
   125  C   3.982        C  130 1.382    C  126 1.366    C  115 1.059
   126  C   3.975        C  127 1.450    C  125 1.366    H  131 0.961
   127  C   3.981        C  126 1.450    C  128 1.426    H  132 0.961
   128  C   3.962        C  127 1.426    N  129 1.351    H  133 0.914
   129  N   3.533        C  130 1.358    C  128 1.351    Pd   2 0.585
   130  C   3.964        C  125 1.382    N  129 1.358    H  134 0.903
   131  H   0.991        C  126 0.961
   132  H   0.990        C  127 0.961
   133  H   0.984        C  128 0.914
   134  H   0.981        C  130 0.903
   135  C   3.945        C  136 2.638    C  153 1.134
   136  C   3.950        C  135 2.638    C  137 1.143
   137  C   3.987        C  138 1.438    C  146 1.214    C  136 1.143
   138  C   3.963        C  137 1.438    C  139 1.350    H  147 0.968
   139  C   3.987        C  140 1.530    C  138 1.350    H  148 0.968
   140  C   3.941        C  139 1.530    C  141 1.274    H  149 0.965
   141  C   3.987        C  142 1.284    C  140 1.274    C  146 1.238
   142  C   3.962        N  143 1.457    C  141 1.284    H  150 0.923    C  145 0.101
   143  N   3.530        C  142 1.457    C  144 1.228    Pd   1 0.595
   144  C   3.964        C  145 1.552    N  143 1.228    H  151 0.887    Pd   1 0.105
   145  C   3.981        C  144 1.552    C  146 1.288    H  152 0.954    C  142 0.101
   146  C   3.979        C  145 1.288    C  141 1.238    C  137 1.214
   147  H   0.996        C  138 0.968
   148  H   0.995        C  139 0.968
   149  H   0.994        C  140 0.965
   150  H   0.985        C  142 0.923
   151  H   0.979        C  144 0.887
   152  H   0.989        C  145 0.954
   153  C   3.988        C  162 1.453    C  154 1.247    C  135 1.134
   154  C   3.974        C  155 1.576    C  153 1.247    H  163 0.970
   155  C   3.990        C  154 1.576    C  156 1.272    H  164 0.967    C  162 0.105
   156  C   3.967        C  157 1.279    C  155 1.272    C  161 1.241
   157  C   3.989        C  158 1.566    C  156 1.279    H  165 0.967    C  160 0.108
   158  C   3.977        C  157 1.566    C  159 1.270    H  166 0.966
   159  C   3.984        C  160 1.493    C  158 1.270    C  169 1.052
   160  C   3.973        C  159 1.493    C  161 1.282    H  167 0.961    C  157 0.108
   161  C   3.989        C  162 1.294    C  160 1.282    C  156 1.241
   162  C   3.956        C  153 1.453    C  161 1.294    H  168 0.963    C  155 0.105
   163  H   0.998        C  154 0.970
   164  H   0.997        C  155 0.967
   165  H   0.997        C  157 0.967
   166  H   0.997        C  158 0.966
   167  H   0.993        C  160 0.961
   168  H   0.994        C  162 0.963
   169  C   3.982        C  174 1.380    C  170 1.373    C  159 1.052
   170  C   3.975        C  171 1.442    C  169 1.373    H  175 0.962
   171  C   3.980        C  170 1.442    C  172 1.435    H  176 0.960
   172  C   3.965        C  171 1.435    N  173 1.340    H  177 0.897
   173  N   3.532        C  174 1.366    C  172 1.340    Pd   2 0.587
   174  C   3.959        C  169 1.380    N  173 1.366    H  178 0.919
   175  H   0.991        C  170 0.962
   176  H   0.989        C  171 0.960
   177  H   0.983        C  172 0.897
   178  H   0.982        C  174 0.919

molecular dipole:
                 x           y           z       tot (Debye)
 q only:        3.686       5.635       1.275
   full:        3.296       5.740       1.255      17.124
molecular quadrupole (traceless):
                xx          xy          yy          xz          yz          zz
 q only:     -175.143       5.676     361.805       8.423      22.610    -186.662
  q+dip:     -185.285       5.453     393.530       2.786      21.648    -208.246
   full:     -174.433       7.751     364.780       4.957      20.762    -190.346

           -------------------------------------------------
          |               Frequency Printout                |
           -------------------------------------------------
 projected vibrational frequencies (cm-1)
eigval :       -0.00    -0.00    -0.00    -0.00     0.00     0.00
eigval :        5.86     6.83     7.44     8.12    14.89    15.19
eigval :       15.34    19.29    21.18    23.98    26.16    27.65
eigval :       29.76    36.10    37.13    38.99    42.49    47.90
eigval :       49.33    49.89    54.57    56.48    58.55    61.35
eigval :       62.40    64.35    66.48    70.49    73.80    78.94
eigval :       84.69    88.27    89.95    91.70    97.12   100.77
eigval :      103.88   106.14   108.37   110.91   114.33   121.58
eigval :      130.95   132.53   137.38   143.95   145.77   147.92
eigval :      149.97   152.17   157.20   159.45   163.10   168.85
eigval :      170.34   175.39   175.78   182.91   189.27   191.54
eigval :      194.22   196.51   196.94   198.55   200.02   204.22
eigval :      205.28   207.09   214.64   229.64   236.61   237.18
eigval :      247.94   252.52   253.22   253.64   264.59   266.89
eigval :      274.43   276.59   285.38   287.31   291.04   291.68
eigval :      293.01   299.86   301.60   302.96   314.06   315.91
eigval :      318.64   320.88   336.08   337.35   339.60   344.29
eigval :      344.81   345.59   345.92   349.08   369.44   371.94
eigval :      373.70   374.57   383.99   392.24   393.48   393.84
eigval :      394.63   399.31   400.72   404.61   426.05   426.49
eigval :      426.91   427.96   442.10   442.91   442.96   443.15
eigval :      443.38   450.24   452.40   452.81   454.36   454.95
eigval :      455.17   457.15   473.17   474.30   474.70   475.32
eigval :      485.00   485.70   487.03   487.56   507.56   508.14
eigval :      511.64   517.04   518.81   519.92   520.68   521.47
eigval :      538.66   540.20   541.19   541.98   551.10   551.50
eigval :      551.72   552.17   560.76   563.47   564.07   564.96
eigval :      579.24   581.15   581.93   582.63   597.70   598.00
eigval :      598.23   598.37   609.70   614.28   614.89   616.82
eigval :      617.98   619.45   619.84   621.14   628.46   630.09
eigval :      630.61   632.53   642.21   643.28   643.48   643.79
eigval :      674.69   677.04   680.30   680.85   709.66   711.45
eigval :      712.21   712.73   721.40   721.41   721.51   721.54
eigval :      724.21   725.60   725.66   725.71   768.10   768.48
eigval :      769.40   769.86   771.99   774.20   776.22   776.41
eigval :      777.16   779.94   780.13   781.97   795.02   796.57
eigval :      797.86   798.18   798.39   799.12   799.32   799.97
eigval :      802.44   802.97   803.96   804.78   808.86   819.02
eigval :      820.86   828.49   846.04   846.74   847.55   847.99
eigval :      850.09   850.39   853.31   853.67   854.00   856.47
eigval :      858.89   859.53   860.81   863.23   865.20   865.96
eigval :      868.51   869.27   870.44   871.12   874.96   878.62
eigval :      879.31   879.55   888.89   892.09   892.26   894.69
eigval :      895.01   895.28   895.43   896.35   896.50   896.77
eigval :      897.17   899.71   914.91   916.48   916.84   917.12
eigval :      921.94   922.44   922.92   923.06   927.87   928.49
eigval :      928.53   928.58   933.96   934.12   934.30   934.90
eigval :      935.73   937.33   938.48   939.51   951.56   953.02
eigval :      953.19   954.45   994.94   999.16   999.64  1000.10
eigval :     1043.63  1044.20  1045.04  1046.23  1068.55  1070.04
eigval :     1074.68  1075.87  1076.54  1077.15  1078.18  1079.30
eigval :     1087.14  1090.02  1095.77  1095.86  1107.14  1108.06
eigval :     1108.92  1110.90  1123.31  1125.65  1126.49  1130.25
eigval :     1143.72  1144.18  1145.41  1147.06  1151.52  1152.27
eigval :     1152.45  1156.85  1162.46  1162.96  1163.64  1168.15
eigval :     1169.92  1170.54  1171.62  1174.68  1178.61  1180.70
eigval :     1181.11  1182.54  1185.16  1185.33  1186.48  1189.51
eigval :     1201.75  1202.15  1204.46  1204.72  1213.41  1214.92
eigval :     1217.59  1218.34  1218.60  1218.95  1220.86  1221.09
eigval :     1224.53  1224.98  1226.39  1227.01  1234.36  1235.75
eigval :     1243.65  1244.05  1253.75  1255.39  1257.03  1260.12
eigval :     1263.58  1264.42  1266.04  1269.18  1285.64  1286.57
eigval :     1286.86  1288.21  1293.21  1294.75  1295.43  1296.89
eigval :     1301.33  1303.24  1303.88  1304.56  1316.67  1317.34
eigval :     1317.48  1317.83  1341.00  1341.86  1342.34  1344.65
eigval :     1366.75  1367.02  1368.10  1369.02  1373.07  1373.20
eigval :     1373.74  1375.54  1383.28  1384.61  1385.55  1385.98
eigval :     1394.52  1395.22  1396.10  1397.50  1399.20  1399.49
eigval :     1401.19  1401.89  1412.92  1413.33  1414.07  1415.10
eigval :     1422.47  1422.92  1423.09  1423.73  1445.39  1446.09
eigval :     1446.41  1446.69  1451.04  1451.16  1451.69  1452.03
eigval :     1465.59  1466.58  1467.00  1468.59  1493.77  1493.90
eigval :     1494.18  1494.96  1534.38  1535.02  1535.31  1535.66
eigval :     1537.32  1538.08  1538.46  1538.66  1545.93  1546.00
eigval :     1546.10  1546.73  1548.57  1549.58  1550.05  1550.64
eigval :     1555.36  1556.78  1557.61  1558.33  1566.19  1567.48
eigval :     1567.77  1568.64  1588.98  1589.13  1589.15  1590.02
eigval :     1595.16  1595.65  1596.75  1597.13  2300.79  2301.02
eigval :     2302.70  2305.23  2934.94  2944.51  2948.93  2954.35
eigval :     2969.29  2979.08  2979.86  2985.63  2993.16  2998.19
eigval :     3004.66  3012.39  3018.75  3019.35  3021.83  3026.23
eigval :     3074.63  3074.64  3074.82  3074.88  3080.18  3080.59
eigval :     3081.21  3081.37  3092.22  3092.30  3092.48  3092.59
eigval :     3092.71  3093.03  3093.24  3094.33  3095.90  3096.28
eigval :     3097.00  3097.33  3097.79  3099.04  3099.06  3099.16
eigval :     3099.39  3100.07  3100.36  3100.48  3101.64  3101.95
eigval :     3102.00  3102.52  3107.09  3107.37  3107.73  3108.13
eigval :     3109.42  3109.83  3110.07  3110.89  3114.13  3116.45
eigval :     3117.35  3117.64  3118.34  3118.50  3118.70  3118.78
 reduced masses (amu)
   1: 23.95   2: 18.65   3: 23.86   4: 23.12   5: 16.34   6: 22.42   7: 11.83   8: 14.02
   9: 15.00  10: 16.07  11: 11.92  12: 17.20  13: 12.43  14: 23.78  15: 19.50  16: 18.10
  17: 11.80  18: 21.25  19: 12.13  20: 11.76  21: 12.49  22: 12.13  23: 11.16  24: 14.78
  25: 13.32  26: 15.15  27: 17.37  28: 16.45  29: 12.41  30: 14.40  31: 15.09  32: 11.47
  33: 12.23  34: 11.94  35: 13.26  36: 19.07  37: 11.95  38: 12.48  39: 11.87  40: 14.00
  41: 12.75  42: 12.05  43: 14.49  44: 12.39  45: 11.48  46: 11.39  47: 13.04  48: 12.63
  49: 12.66  50: 12.77  51: 12.71  52: 17.25  53: 13.19  54: 11.70  55: 11.58  56: 11.13
  57: 11.64  58: 13.43  59: 13.94  60: 14.21  61: 15.32  62: 21.63  63: 16.68  64: 16.59
  65: 13.22  66: 19.61  67: 12.56  68: 11.49  69: 12.22  70: 12.51  71: 12.79  72: 11.05
  73: 10.78  74: 30.21  75: 22.16  76: 44.11  77: 20.24  78: 38.19  79: 22.74  80: 13.13
  81: 18.36  82: 15.43  83: 37.69  84: 29.83  85: 41.16  86: 34.32  87: 14.23  88: 16.47
  89: 16.98  90: 13.92  91: 12.21  92: 15.07  93: 20.60  94: 22.01  95: 13.68  96: 13.25
  97: 12.13  98: 14.04  99: 12.80 100: 13.33 101: 10.97 102: 10.77 103: 10.85 104: 11.35
 105: 11.71 106: 14.88 107: 10.15 108: 10.07 109: 10.15 110: 10.16 111: 10.48 112:  9.74
 113:  9.71 114: 10.03 115:  9.63 116: 11.47 117: 11.79 118: 13.37 119: 10.73 120: 10.83
 121: 10.90 122: 10.84 123: 10.01 124:  8.80 125:  8.74 126:  8.72 127:  9.28 128: 10.97
 129: 11.38 130: 10.78 131: 11.03 132: 11.38 133: 11.52 134: 11.36 135: 11.30 136: 11.32
 137: 11.36 138: 11.41 139: 11.68 140: 12.08 141: 12.08 142: 11.87 143: 11.05 144: 11.32
 145: 11.22 146: 11.39 147: 11.38 148: 11.77 149: 12.04 150: 11.79 151: 10.96 152: 10.98
 153: 11.03 154: 11.14 155: 11.49 156: 11.51 157: 11.52 158: 11.48 159: 11.69 160: 11.92
 161: 11.79 162: 12.39 163: 11.06 164: 11.14 165: 11.16 166: 11.20 167: 11.44 168: 11.43
 169: 11.43 170: 11.45 171: 10.55 172: 10.72 173: 11.16 174: 10.91 175: 10.86 176: 11.06
 177: 10.94 178: 10.90 179: 10.63 180: 11.18 181: 11.03 182: 11.70 183: 11.34 184: 11.42
 185: 11.46 186: 11.44 187:  8.57 188:  8.76 189:  8.97 190:  9.07 191: 11.42 192: 11.59
 193: 11.49 194: 11.50 195: 11.29 196: 11.27 197: 11.27 198: 11.28 199: 10.58 200: 10.76
 201: 10.74 202: 10.73 203: 10.42 204: 10.28 205: 10.08 206: 10.79 207:  5.99 208:  6.12
 209:  4.56 210:  4.82 211:  4.75 212:  4.76 213:  4.31 214:  4.40 215: 11.05 216: 10.75
 217:  5.78 218:  8.81 219: 10.07 220:  6.85 221:  8.30 222:  6.36 223:  9.92 224:  9.90
 225:  9.53 226:  9.70 227:  3.77 228:  3.77 229:  4.04 230:  3.72 231:  4.55 232:  4.62
 233:  4.50 234:  4.58 235:  3.90 236:  3.85 237:  3.65 238:  3.63 239:  4.30 240:  4.29
 241:  4.15 242:  4.20 243:  4.39 244:  4.21 245:  4.15 246:  3.99 247:  4.27 248:  4.50
 249:  4.30 250:  4.18 251: 10.32 252: 10.37 253: 10.57 254: 10.54 255:  3.79 256:  3.64
 257:  3.82 258:  3.81 259:  3.63 260:  4.06 261:  3.96 262:  3.90 263:  3.88 264:  3.76
 265:  3.79 266:  3.60 267: 11.01 268: 10.99 269: 11.00 270: 11.00 271:  3.36 272:  3.38
 273:  3.38 274:  3.39 275:  3.54 276:  3.54 277:  3.55 278:  3.55 279:  3.69 280:  3.70
 281:  3.68 282:  3.69 283:  3.85 284:  3.83 285:  3.81 286:  3.77 287: 10.50 288: 10.51
 289: 10.50 290: 10.49 291: 10.68 292: 10.81 293: 10.83 294: 10.81 295:  9.20 296:  9.31
 297:  9.22 298:  9.29 299:  7.43 300:  7.36 301:  6.65 302:  6.75 303:  7.05 304:  7.28
 305:  7.01 306:  7.16 307:  7.72 308:  7.94 309:  7.38 310:  7.41 311:  5.98 312:  5.98
 313:  6.01 314:  6.03 315:  3.71 316:  3.64 317:  3.65 318:  3.67 319:  4.63 320:  4.56
 321:  4.68 322:  4.87 323:  3.87 324:  3.89 325:  3.85 326:  4.70 327:  3.32 328:  3.26
 329:  3.28 330:  2.24 331:  1.85 332:  1.81 333:  2.01 334:  1.95 335:  1.97 336:  2.16
 337:  2.15 338:  2.17 339:  2.65 340:  2.70 341:  2.63 342:  2.86 343:  5.34 344:  5.28
 345:  5.24 346:  5.19 347:  4.87 348:  4.65 349:  6.65 350:  4.61 351:  7.18 352:  6.97
 353:  5.41 354:  7.43 355:  5.14 356:  5.33 357:  6.06 358:  6.33 359:  4.12 360:  4.27
 361:  3.33 362:  3.23 363:  4.10 364:  4.11 365:  4.11 366:  4.00 367:  8.87 368:  8.82
 369:  8.86 370:  8.86 371:  7.70 372:  7.81 373:  7.66 374:  7.96 375: 10.95 376: 10.37
 377: 10.27 378: 10.26 379:  9.09 380:  9.75 381:  9.73 382:  9.56 383: 10.12 384: 10.22
 385: 10.23 386: 10.17 387: 10.02 388: 10.16 389: 10.11 390:  9.93 391:  9.96 392: 10.10
 393:  9.95 394:  9.86 395:  9.88 396:  9.90 397:  9.90 398:  9.95 399: 10.66 400: 10.74
 401: 10.71 402: 10.52 403:  9.99 404:  9.90 405:  9.96 406: 10.63 407: 11.00 408: 10.80
 409: 11.37 410: 11.40 411: 10.43 412: 10.45 413: 10.49 414: 10.54 415: 10.17 416: 10.19
 417: 10.18 418: 10.22 419: 10.86 420: 10.94 421: 10.86 422: 10.78 423: 10.74 424: 10.73
 425: 10.73 426: 10.74 427: 11.45 428: 11.50 429: 11.47 430: 11.45 431: 10.64 432: 10.67
 433: 10.66 434: 10.67 435: 11.62 436: 11.62 437: 11.68 438: 11.65 439: 11.60 440: 11.64
 441: 11.63 442: 11.64 443: 11.68 444: 11.68 445: 11.68 446: 11.68 447: 11.74 448: 11.74
 449: 11.74 450: 11.73 451: 11.72 452: 11.69 453: 11.68 454: 11.66 455: 11.46 456: 11.51
 457: 11.50 458: 11.53 459: 11.54 460: 11.54 461: 11.54 462: 11.54 463: 11.54 464: 11.54
 465: 11.54 466: 11.55 467: 12.01 468: 12.01 469: 12.01 470: 12.01 471:  1.86 472:  1.86
 473:  1.86 474:  1.85 475:  1.86 476:  1.85 477:  1.85 478:  1.86 479:  1.84 480:  1.83
 481:  1.85 482:  1.85 483:  1.84 484:  1.84 485:  1.84 486:  1.85 487:  1.79 488:  1.79
 489:  1.79 490:  1.79 491:  1.79 492:  1.79 493:  1.79 494:  1.79 495:  1.87 496:  1.87
 497:  1.87 498:  1.87 499:  1.78 500:  1.78 501:  1.78 502:  1.78 503:  1.83 504:  1.83
 505:  1.83 506:  1.83 507:  1.86 508:  1.84 509:  1.84 510:  1.85 511:  1.84 512:  1.84
 513:  1.83 514:  1.85 515:  1.84 516:  1.84 517:  1.84 518:  1.84 519:  1.82 520:  1.81
 521:  1.81 522:  1.81 523:  1.90 524:  1.90 525:  1.90 526:  1.90 527:  1.85 528:  1.85
 529:  1.85 530:  1.85 531:  1.89 532:  1.90 533:  1.90 534:  1.90
 IR intensities (amu)
   1:  0.57   2:  0.39   3:  0.56   4:  0.69   5:  0.27   6:  0.31   7:  0.14   8:  0.39
   9:  0.48  10:  0.48  11:  0.08  12:  0.07  13:  0.05  14:  0.03  15:  0.09  16:  0.06
  17:  0.04  18:  0.05  19:  0.14  20:  0.08  21:  0.12  22:  0.10  23:  0.07  24:  0.09
  25:  0.08  26:  0.14  27:  0.06  28:  0.10  29:  0.09  30:  0.24  31:  0.15  32:  0.14
  33:  0.07  34:  0.12  35:  0.18  36:  0.08  37:  0.16  38:  0.14  39:  0.12  40:  0.28
  41:  0.26  42:  0.12  43:  0.03  44:  0.14  45:  0.05  46:  0.08  47:  0.06  48:  0.10
  49:  0.06  50:  0.15  51:  0.07  52:  0.37  53:  0.29  54:  0.12  55:  0.18  56:  0.09
  57:  0.08  58:  0.27  59:  0.12  60:  0.32  61:  0.44  62:  0.68  63:  0.28  64:  0.37
  65:  0.16  66:  0.30  67:  0.09  68:  0.21  69:  0.09  70:  0.11  71:  0.06  72:  0.06
  73:  0.09  74:  0.65  75:  0.63  76:  0.36  77:  0.55  78:  0.44  79:  0.45  80:  0.35
  81:  0.30  82:  0.33  83:  0.69  84:  0.27  85:  1.06  86:  1.00  87:  0.30  88:  0.18
  89:  0.55  90:  0.09  91:  0.20  92:  0.38  93:  0.33  94:  0.47  95:  0.17  96:  0.05
  97:  0.13  98:  0.18  99:  0.20 100:  0.33 101:  0.06 102:  0.08 103:  0.15 104:  0.12
 105:  0.24 106:  0.06 107:  0.07 108:  0.03 109:  0.07 110:  0.02 111:  0.07 112:  0.11
 113:  0.10 114:  0.10 115:  0.04 116:  0.12 117:  0.16 118:  0.26 119:  0.06 120:  0.08
 121:  0.15 122:  0.15 123:  0.18 124:  0.07 125:  0.07 126:  0.11 127:  0.11 128:  0.15
 129:  0.11 130:  0.11 131:  0.07 132:  0.34 133:  0.20 134:  0.27 135:  0.19 136:  0.20
 137:  0.12 138:  0.19 139:  0.17 140:  0.31 141:  0.37 142:  0.18 143:  0.06 144:  0.04
 145:  0.04 146:  0.08 147:  0.05 148:  0.17 149:  0.19 150:  0.17 151:  0.06 152:  0.05
 153:  0.04 154:  0.07 155:  0.03 156:  0.06 157:  0.18 158:  0.16 159:  0.22 160:  0.47
 161:  0.29 162:  0.56 163:  0.11 164:  0.17 165:  0.08 166:  0.17 167:  0.11 168:  0.15
 169:  0.14 170:  0.11 171:  0.15 172:  0.15 173:  0.07 174:  0.25 175:  0.22 176:  0.38
 177:  0.34 178:  0.12 179:  0.12 180:  0.21 181:  0.26 182:  0.35 183:  0.10 184:  0.35
 185:  0.23 186:  0.29 187:  0.15 188:  0.16 189:  0.27 190:  0.12 191:  0.32 192:  0.06
 193:  0.51 194:  0.05 195:  0.10 196:  0.05 197:  0.04 198:  0.09 199:  0.02 200:  0.10
 201:  0.07 202:  0.09 203:  0.23 204:  0.42 205:  0.41 206:  0.27 207:  0.18 208:  0.18
 209:  0.14 210:  0.22 211:  0.23 212:  0.07 213:  0.03 214:  0.07 215:  0.09 216:  0.09
 217:  0.16 218:  0.12 219:  0.14 220:  0.19 221:  0.23 222:  0.37 223:  0.35 224:  0.26
 225:  0.31 226:  0.32 227:  0.33 228:  0.29 229:  0.38 230:  0.14 231:  0.18 232:  0.38
 233:  0.31 234:  0.12 235:  0.12 236:  0.03 237:  0.12 238:  0.14 239:  0.07 240:  0.09
 241:  0.06 242:  0.09 243:  0.05 244:  0.07 245:  0.07 246:  0.08 247:  0.17 248:  0.28
 249:  0.16 250:  0.18 251:  0.10 252:  0.44 253:  0.22 254:  0.32 255:  0.07 256:  0.02
 257:  0.09 258:  0.06 259:  0.03 260:  0.02 261:  0.04 262:  0.01 263:  0.02 264:  0.02
 265:  0.04 266:  0.02 267:  0.10 268:  0.18 269:  0.36 270:  0.33 271:  0.06 272:  0.07
 273:  0.07 274:  0.07 275:  0.06 276:  0.07 277:  0.05 278:  0.07 279:  0.02 280:  0.02
 281:  0.02 282:  0.02 283:  0.05 284:  0.04 285:  0.05 286:  0.05 287:  0.05 288:  0.18
 289:  0.16 290:  0.18 291:  0.04 292:  0.11 293:  0.27 294:  0.22 295:  0.11 296:  0.21
 297:  0.25 298:  0.22 299:  0.41 300:  0.47 301:  0.10 302:  0.17 303:  0.39 304:  0.22
 305:  0.44 306:  0.17 307:  0.50 308:  0.51 309:  0.36 310:  0.61 311:  0.27 312:  0.23
 313:  0.38 314:  0.29 315:  0.28 316:  0.18 317:  0.22 318:  0.20 319:  0.11 320:  0.22
 321:  0.22 322:  0.39 323:  0.30 324:  0.24 325:  0.14 326:  0.64 327:  0.14 328:  0.17
 329:  0.28 330:  0.20 331:  0.10 332:  0.09 333:  0.13 334:  0.02 335:  0.17 336:  0.29
 337:  0.07 338:  0.36 339:  0.23 340:  0.11 341:  0.29 342:  0.30 343:  0.31 344:  0.39
 345:  0.52 346:  0.14 347:  0.09 348:  0.13 349:  0.15 350:  0.11 351:  0.13 352:  0.10
 353:  0.11 354:  0.17 355:  0.12 356:  0.08 357:  0.15 358:  0.05 359:  0.04 360:  0.04
 361:  0.08 362:  0.06 363:  0.23 364:  0.23 365:  0.30 366:  0.29 367:  0.50 368:  0.57
 369:  0.58 370:  0.56 371:  0.21 372:  0.10 373:  0.21 374:  0.07 375:  0.38 376:  0.21
 377:  0.51 378:  0.19 379:  0.18 380:  0.07 381:  0.05 382:  0.26 383:  0.33 384:  0.31
 385:  0.49 386:  0.57 387:  0.16 388:  0.31 389:  0.20 390:  0.53 391:  0.61 392:  0.62
 393:  0.58 394:  0.82 395:  0.05 396:  0.05 397:  0.52 398:  0.59 399:  0.76 400:  0.11
 401:  0.80 402:  0.44 403:  0.07 404:  0.09 405:  0.40 406:  0.97 407:  0.22 408:  1.10
 409:  1.50 410:  0.80 411:  0.03 412:  0.26 413:  0.22 414:  0.11 415:  0.58 416:  0.38
 417:  0.57 418:  0.73 419:  0.57 420:  0.41 421:  0.87 422:  1.08 423:  0.57 424:  0.28
 425:  0.25 426:  0.62 427:  0.52 428:  0.81 429:  0.99 430:  0.88 431:  0.48 432:  0.45
 433:  0.41 434:  0.42 435:  0.43 436:  0.57 437:  0.66 438:  0.30 439:  0.93 440:  1.03
 441:  0.33 442:  0.53 443:  0.44 444:  0.39 445:  0.36 446:  0.49 447:  1.76 448:  0.42
 449:  0.65 450:  1.18 451:  0.56 452:  0.52 453:  0.44 454:  0.66 455:  0.37 456:  0.72
 457:  0.33 458:  0.54 459:  0.27 460:  0.26 461:  0.30 462:  0.26 463:  0.41 464:  0.43
 465:  0.42 466:  0.41 467:  1.49 468:  1.74 469:  1.69 470:  1.64 471:  0.06 472:  0.10
 473:  0.10 474:  0.12 475:  0.12 476:  0.05 477:  0.08 478:  0.09 479:  0.04 480:  0.07
 481:  0.05 482:  0.16 483:  0.03 484:  0.08 485:  0.03 486:  0.09 487:  0.19 488:  0.19
 489:  0.18 490:  0.19 491:  0.31 492:  0.31 493:  0.31 494:  0.29 495:  0.23 496:  0.50
 497:  0.37 498:  0.50 499:  0.16 500:  0.15 501:  0.16 502:  0.14 503:  0.06 504:  0.06
 505:  0.03 506:  0.05 507:  0.38 508:  0.19 509:  0.36 510:  0.19 511:  0.37 512:  0.14
 513:  0.15 514:  0.24 515:  0.21 516:  0.22 517:  0.24 518:  0.22 519:  0.09 520:  0.12
 521:  0.10 522:  0.11 523:  0.28 524:  0.24 525:  0.36 526:  0.32 527:  0.07 528:  0.07
 529:  0.06 530:  0.08 531:  0.06 532:  0.02 533:  0.04 534:  0.05
 Raman intensities (amu)
   1:  0.00   2:  0.00   3:  0.00   4:  0.00   5:  0.00   6:  0.00   7:  0.00   8:  0.00
   9:  0.00  10:  0.00  11:  0.00  12:  0.00  13:  0.00  14:  0.00  15:  0.00  16:  0.00
  17:  0.00  18:  0.00  19:  0.00  20:  0.00  21:  0.00  22:  0.00  23:  0.00  24:  0.00
  25:  0.00  26:  0.00  27:  0.00  28:  0.00  29:  0.00  30:  0.00  31:  0.00  32:  0.00
  33:  0.00  34:  0.00  35:  0.00  36:  0.00  37:  0.00  38:  0.00  39:  0.00  40:  0.00
  41:  0.00  42:  0.00  43:  0.00  44:  0.00  45:  0.00  46:  0.00  47:  0.00  48:  0.00
  49:  0.00  50:  0.00  51:  0.00  52:  0.00  53:  0.00  54:  0.00  55:  0.00  56:  0.00
  57:  0.00  58:  0.00  59:  0.00  60:  0.00  61:  0.00  62:  0.00  63:  0.00  64:  0.00
  65:  0.00  66:  0.00  67:  0.00  68:  0.00  69:  0.00  70:  0.00  71:  0.00  72:  0.00
  73:  0.00  74:  0.00  75:  0.00  76:  0.00  77:  0.00  78:  0.00  79:  0.00  80:  0.00
  81:  0.00  82:  0.00  83:  0.00  84:  0.00  85:  0.00  86:  0.00  87:  0.00  88:  0.00
  89:  0.00  90:  0.00  91:  0.00  92:  0.00  93:  0.00  94:  0.00  95:  0.00  96:  0.00
  97:  0.00  98:  0.00  99:  0.00 100:  0.00 101:  0.00 102:  0.00 103:  0.00 104:  0.00
 105:  0.00 106:  0.00 107:  0.00 108:  0.00 109:  0.00 110:  0.00 111:  0.00 112:  0.00
 113:  0.00 114:  0.00 115:  0.00 116:  0.00 117:  0.00 118:  0.00 119:  0.00 120:  0.00
 121:  0.00 122:  0.00 123:  0.00 124:  0.00 125:  0.00 126:  0.00 127:  0.00 128:  0.00
 129:  0.00 130:  0.00 131:  0.00 132:  0.00 133:  0.00 134:  0.00 135:  0.00 136:  0.00
 137:  0.00 138:  0.00 139:  0.00 140:  0.00 141:  0.00 142:  0.00 143:  0.00 144:  0.00
 145:  0.00 146:  0.00 147:  0.00 148:  0.00 149:  0.00 150:  0.00 151:  0.00 152:  0.00
 153:  0.00 154:  0.00 155:  0.00 156:  0.00 157:  0.00 158:  0.00 159:  0.00 160:  0.00
 161:  0.00 162:  0.00 163:  0.00 164:  0.00 165:  0.00 166:  0.00 167:  0.00 168:  0.00
 169:  0.00 170:  0.00 171:  0.00 172:  0.00 173:  0.00 174:  0.00 175:  0.00 176:  0.00
 177:  0.00 178:  0.00 179:  0.00 180:  0.00 181:  0.00 182:  0.00 183:  0.00 184:  0.00
 185:  0.00 186:  0.00 187:  0.00 188:  0.00 189:  0.00 190:  0.00 191:  0.00 192:  0.00
 193:  0.00 194:  0.00 195:  0.00 196:  0.00 197:  0.00 198:  0.00 199:  0.00 200:  0.00
 201:  0.00 202:  0.00 203:  0.00 204:  0.00 205:  0.00 206:  0.00 207:  0.00 208:  0.00
 209:  0.00 210:  0.00 211:  0.00 212:  0.00 213:  0.00 214:  0.00 215:  0.00 216:  0.00
 217:  0.00 218:  0.00 219:  0.00 220:  0.00 221:  0.00 222:  0.00 223:  0.00 224:  0.00
 225:  0.00 226:  0.00 227:  0.00 228:  0.00 229:  0.00 230:  0.00 231:  0.00 232:  0.00
 233:  0.00 234:  0.00 235:  0.00 236:  0.00 237:  0.00 238:  0.00 239:  0.00 240:  0.00
 241:  0.00 242:  0.00 243:  0.00 244:  0.00 245:  0.00 246:  0.00 247:  0.00 248:  0.00
 249:  0.00 250:  0.00 251:  0.00 252:  0.00 253:  0.00 254:  0.00 255:  0.00 256:  0.00
 257:  0.00 258:  0.00 259:  0.00 260:  0.00 261:  0.00 262:  0.00 263:  0.00 264:  0.00
 265:  0.00 266:  0.00 267:  0.00 268:  0.00 269:  0.00 270:  0.00 271:  0.00 272:  0.00
 273:  0.00 274:  0.00 275:  0.00 276:  0.00 277:  0.00 278:  0.00 279:  0.00 280:  0.00
 281:  0.00 282:  0.00 283:  0.00 284:  0.00 285:  0.00 286:  0.00 287:  0.00 288:  0.00
 289:  0.00 290:  0.00 291:  0.00 292:  0.00 293:  0.00 294:  0.00 295:  0.00 296:  0.00
 297:  0.00 298:  0.00 299:  0.00 300:  0.00 301:  0.00 302:  0.00 303:  0.00 304:  0.00
 305:  0.00 306:  0.00 307:  0.00 308:  0.00 309:  0.00 310:  0.00 311:  0.00 312:  0.00
 313:  0.00 314:  0.00 315:  0.00 316:  0.00 317:  0.00 318:  0.00 319:  0.00 320:  0.00
 321:  0.00 322:  0.00 323:  0.00 324:  0.00 325:  0.00 326:  0.00 327:  0.00 328:  0.00
 329:  0.00 330:  0.00 331:  0.00 332:  0.00 333:  0.00 334:  0.00 335:  0.00 336:  0.00
 337:  0.00 338:  0.00 339:  0.00 340:  0.00 341:  0.00 342:  0.00 343:  0.00 344:  0.00
 345:  0.00 346:  0.00 347:  0.00 348:  0.00 349:  0.00 350:  0.00 351:  0.00 352:  0.00
 353:  0.00 354:  0.00 355:  0.00 356:  0.00 357:  0.00 358:  0.00 359:  0.00 360:  0.00
 361:  0.00 362:  0.00 363:  0.00 364:  0.00 365:  0.00 366:  0.00 367:  0.00 368:  0.00
 369:  0.00 370:  0.00 371:  0.00 372:  0.00 373:  0.00 374:  0.00 375:  0.00 376:  0.00
 377:  0.00 378:  0.00 379:  0.00 380:  0.00 381:  0.00 382:  0.00 383:  0.00 384:  0.00
 385:  0.00 386:  0.00 387:  0.00 388:  0.00 389:  0.00 390:  0.00 391:  0.00 392:  0.00
 393:  0.00 394:  0.00 395:  0.00 396:  0.00 397:  0.00 398:  0.00 399:  0.00 400:  0.00
 401:  0.00 402:  0.00 403:  0.00 404:  0.00 405:  0.00 406:  0.00 407:  0.00 408:  0.00
 409:  0.00 410:  0.00 411:  0.00 412:  0.00 413:  0.00 414:  0.00 415:  0.00 416:  0.00
 417:  0.00 418:  0.00 419:  0.00 420:  0.00 421:  0.00 422:  0.00 423:  0.00 424:  0.00
 425:  0.00 426:  0.00 427:  0.00 428:  0.00 429:  0.00 430:  0.00 431:  0.00 432:  0.00
 433:  0.00 434:  0.00 435:  0.00 436:  0.00 437:  0.00 438:  0.00 439:  0.00 440:  0.00
 441:  0.00 442:  0.00 443:  0.00 444:  0.00 445:  0.00 446:  0.00 447:  0.00 448:  0.00
 449:  0.00 450:  0.00 451:  0.00 452:  0.00 453:  0.00 454:  0.00 455:  0.00 456:  0.00
 457:  0.00 458:  0.00 459:  0.00 460:  0.00 461:  0.00 462:  0.00 463:  0.00 464:  0.00
 465:  0.00 466:  0.00 467:  0.00 468:  0.00 469:  0.00 470:  0.00 471:  0.00 472:  0.00
 473:  0.00 474:  0.00 475:  0.00 476:  0.00 477:  0.00 478:  0.00 479:  0.00 480:  0.00
 481:  0.00 482:  0.00 483:  0.00 484:  0.00 485:  0.00 486:  0.00 487:  0.00 488:  0.00
 489:  0.00 490:  0.00 491:  0.00 492:  0.00 493:  0.00 494:  0.00 495:  0.00 496:  0.00
 497:  0.00 498:  0.00 499:  0.00 500:  0.00 501:  0.00 502:  0.00 503:  0.00 504:  0.00
 505:  0.00 506:  0.00 507:  0.00 508:  0.00 509:  0.00 510:  0.00 511:  0.00 512:  0.00
 513:  0.00 514:  0.00 515:  0.00 516:  0.00 517:  0.00 518:  0.00 519:  0.00 520:  0.00
 521:  0.00 522:  0.00 523:  0.00 524:  0.00 525:  0.00 526:  0.00 527:  0.00 528:  0.00
 529:  0.00 530:  0.00 531:  0.00 532:  0.00 533:  0.00 534:  0.00
 output can be read by thermo (or use thermo option).
 writing <g98.out> molden fake output.
 recommended (thermochemical) frequency scaling factor: 1.0
           -------------------------------------------------
          |             Thermodynamic Functions             |
           -------------------------------------------------

Molecule has no symmetry elements
It seems to be the C1 point group
c1  symmetry found (for desy threshold:  0.10E+00) used in thermo

          ...................................................
          :                      SETUP                      :
          :.................................................:
          :  # frequencies                         528      :
          :  # imaginary freq.                       0      :
          :  linear?                             false      :
          :  only rotor calc.                    false      :
          :  symmetry                               c1      :
          :  rotational number                       1      :
          :  scaling factor                  1.0000000      :
          :  rotor cutoff                   50.0000000 cm⁻¹ :
          :  imag. cutoff                  -20.0000000 cm⁻¹ :
          :.................................................:

    mode    ω/cm⁻¹     T·S(HO)/kcal·mol⁻¹    T·S(FR)/kcal·mol⁻¹   T·S(vib)
   ------------------------------------------------------------------------
       1      5.86    -2.70495 (  0.02%)    -1.69157 ( 99.98%)    -1.69176
       2      6.83    -2.61471 (  0.03%)    -1.64644 ( 99.97%)    -1.64678
       3      7.44    -2.56398 (  0.05%)    -1.62108 ( 99.95%)    -1.62154
       4      8.12    -2.51182 (  0.07%)    -1.59500 ( 99.93%)    -1.59563
       5     14.89    -2.15287 (  0.78%)    -1.41548 ( 99.22%)    -1.42123
       6     15.19    -2.14072 (  0.85%)    -1.40941 ( 99.15%)    -1.41559
       7     15.34    -2.13502 (  0.88%)    -1.40655 ( 99.12%)    -1.41295
       8     19.29    -1.99939 (  2.17%)    -1.33870 ( 97.83%)    -1.35302
       9     21.18    -1.94396 (  3.12%)    -1.31097 ( 96.88%)    -1.33072
      10     23.98    -1.87055 (  5.03%)    -1.27422 ( 94.97%)    -1.30419
      11     26.16    -1.81915 (  6.97%)    -1.24849 ( 93.03%)    -1.28825
      12     27.65    -1.78620 (  8.56%)    -1.23200 ( 91.44%)    -1.27942
      13     29.76    -1.74288 ( 11.14%)    -1.21030 ( 88.86%)    -1.26965
      14     36.10    -1.62860 ( 21.37%)    -1.15304 ( 78.63%)    -1.25466
      15     37.13    -1.61193 ( 23.33%)    -1.14468 ( 76.67%)    -1.25367
      16     38.99    -1.58310 ( 26.99%)    -1.13023 ( 73.01%)    -1.25248
      17     42.49    -1.53238 ( 34.27%)    -1.10479 ( 65.73%)    -1.25132
      18     47.90    -1.46159 ( 45.72%)    -1.06925 ( 54.28%)    -1.24864
      19     49.33    -1.44421 ( 48.66%)    -1.06052 ( 51.34%)    -1.24722
      20     49.89    -1.43762 ( 49.78%)    -1.05721 ( 50.22%)    -1.24656
      21     54.57    -1.38479 ( 58.65%)    -1.03066 ( 41.35%)    -1.23836
      22     56.48    -1.36452 ( 61.95%)    -1.02046 ( 38.05%)    -1.23359
      23     58.55    -1.34328 ( 65.28%)    -1.00977 ( 34.72%)    -1.22750
      24     61.35    -1.31585 ( 69.38%)    -0.99596 ( 30.62%)    -1.21791
      25     62.40    -1.30587 ( 70.80%)    -0.99094 ( 29.20%)    -1.21393
      26     64.35    -1.28776 ( 73.29%)    -0.98181 ( 26.71%)    -1.20603
      27     66.48    -1.26860 ( 75.76%)    -0.97215 ( 24.24%)    -1.19674
      28     70.49    -1.23426 ( 79.80%)    -0.95482 ( 20.20%)    -1.17780
      29     73.80    -1.20729 ( 82.60%)    -0.94120 ( 17.40%)    -1.16099
      30     78.94    -1.16784 ( 86.14%)    -0.92125 ( 13.86%)    -1.13366
      31     84.69    -1.12677 ( 89.17%)    -0.90045 ( 10.83%)    -1.10225
      32     88.27    -1.10259 ( 90.66%)    -0.88818 (  9.34%)    -1.08257
      33     89.95    -1.09158 ( 91.28%)    -0.88259 (  8.72%)    -1.07337
      34     91.70    -1.08035 ( 91.88%)    -0.87689 (  8.12%)    -1.06382
      35     97.12    -1.04690 ( 93.44%)    -0.85987 (  6.56%)    -1.03462
      36    100.77    -1.02542 ( 94.29%)    -0.84893 (  5.71%)    -1.01534
      37    103.88    -1.00777 ( 94.91%)    -0.83992 (  5.09%)    -0.99923
      38    106.14    -0.99531 ( 95.31%)    -0.83356 (  4.69%)    -0.98772
      39    108.37    -0.98328 ( 95.66%)    -0.82740 (  4.34%)    -0.97652
      40    110.91    -0.96987 ( 96.03%)    -0.82054 (  3.97%)    -0.96395
      41    114.33    -0.95232 ( 96.47%)    -0.81155 (  3.53%)    -0.94735
      42    121.58    -0.91683 ( 97.22%)    -0.79332 (  2.78%)    -0.91339
      43    130.95    -0.87420 ( 97.92%)    -0.77134 (  2.08%)    -0.87206
      44    132.53    -0.86734 ( 98.01%)    -0.76779 (  1.99%)    -0.86536
      45    137.38    -0.84678 ( 98.28%)    -0.75714 (  1.72%)    -0.84523
      46    143.95    -0.82012 ( 98.57%)    -0.74329 (  1.43%)    -0.81902
      47    145.77    -0.81298 ( 98.63%)    -0.73957 (  1.37%)    -0.81198
      48    147.92    -0.80463 ( 98.71%)    -0.73522 (  1.29%)    -0.80374
      49    149.97    -0.79683 ( 98.78%)    -0.73115 (  1.22%)    -0.79603
      50    152.17    -0.78858 ( 98.85%)    -0.72684 (  1.15%)    -0.78787
      51    157.20    -0.77020 ( 98.99%)    -0.71721 (  1.01%)    -0.76966
      52    159.45    -0.76216 ( 99.04%)    -0.71300 (  0.96%)    -0.76169
      53    163.10    -0.74942 ( 99.12%)    -0.70629 (  0.88%)    -0.74904
      54    168.85    -0.72995 ( 99.24%)    -0.69603 (  0.76%)    -0.72969
      55    170.34    -0.72503 ( 99.26%)    -0.69343 (  0.74%)    -0.72479
      56    175.39    -0.70867 ( 99.34%)    -0.68476 (  0.66%)    -0.70851
      57    175.78    -0.70742 ( 99.35%)    -0.68410 (  0.65%)    -0.70727
      58    182.91    -0.68529 ( 99.44%)    -0.67233 (  0.56%)    -0.68522
      59    189.27    -0.66634 ( 99.52%)    -0.66220 (  0.48%)    -0.66632
      60    191.54    -0.65977 ( 99.54%)    -0.65868 (  0.46%)    -0.65976
      61    194.22    -0.65211 ( 99.56%)    -0.65456 (  0.44%)    -0.65212
      62    196.51    -0.64565 ( 99.58%)    -0.65109 (  0.42%)    -0.64567
      63    196.94    -0.64445 ( 99.59%)    -0.65044 (  0.41%)    -0.64447
      64    198.55    -0.63998 ( 99.60%)    -0.64803 (  0.40%)    -0.64001
      65    200.02    -0.63591 ( 99.61%)    -0.64583 (  0.39%)    -0.63595
      66    204.22    -0.62454 ( 99.64%)    -0.63968 (  0.36%)    -0.62460
      67    205.28    -0.62172 ( 99.65%)    -0.63816 (  0.35%)    -0.62178
      68    207.09    -0.61693 ( 99.66%)    -0.63556 (  0.34%)    -0.61700
      69    214.64    -0.59744 ( 99.71%)    -0.62494 (  0.29%)    -0.59753
      70    229.64    -0.56103 ( 99.78%)    -0.60493 (  0.22%)    -0.56113
      71    236.61    -0.54508 ( 99.80%)    -0.59607 (  0.20%)    -0.54518
      72    237.18    -0.54380 ( 99.80%)    -0.59536 (  0.20%)    -0.54390
      73    247.94    -0.52033 ( 99.83%)    -0.58222 (  0.17%)    -0.52043
      74    252.52    -0.51071 ( 99.85%)    -0.57680 (  0.15%)    -0.51082
      75    253.22    -0.50926 ( 99.85%)    -0.57598 (  0.15%)    -0.50936
      76    253.64    -0.50838 ( 99.85%)    -0.57548 (  0.15%)    -0.50848
      77    264.59    -0.48637 ( 99.87%)    -0.56296 (  0.13%)    -0.48646
      78    266.89    -0.48188 ( 99.88%)    -0.56040 (  0.12%)    -0.48198
      79    274.43    -0.46754 ( 99.89%)    -0.55215 (  0.11%)    -0.46763
      80    276.59    -0.46352 ( 99.89%)    -0.54982 (  0.11%)    -0.46361
      81    285.38    -0.44759 ( 99.91%)    -0.54056 (  0.09%)    -0.44767
      82    287.31    -0.44417 ( 99.91%)    -0.53856 (  0.09%)    -0.44426
      83    291.04    -0.43766 ( 99.91%)    -0.53474 (  0.09%)    -0.43774
      84    291.68    -0.43654 ( 99.91%)    -0.53409 (  0.09%)    -0.43663
      85    293.01    -0.43426 ( 99.92%)    -0.53274 (  0.08%)    -0.43435
      86    299.86    -0.42269 ( 99.92%)    -0.52590 (  0.08%)    -0.42276
   ------------------------------------------------------------------------

   temp. (K)  partition function   enthalpy   heat capacity  entropy
                                   cal/mol     cal/K/mol   cal/K/mol   J/K/mol
 298.15  VIB  0.697E+46            57393.968    373.505    360.948
         ROT  0.944E+09              888.752      2.981     44.048
         INT  0.658E+55            58282.720    376.486    404.996
         TR   0.642E+29             1481.254      4.968     48.032
         TOT                       59763.9740   381.4545   453.0278  1895.4682

       T/K    H(0)-H(T)+PV         H(T)/Eh          T*S/Eh         G(T)/Eh
   ------------------------------------------------------------------------
    298.15    0.952400E-01    0.142012E+01    0.215248E+00    0.120487E+01
   ------------------------------------------------------------------------

         :::::::::::::::::::::::::::::::::::::::::::::::::::::
         ::                  THERMODYNAMIC                  ::
         :::::::::::::::::::::::::::::::::::::::::::::::::::::
         :: total free energy        -285.453187360537 Eh   ::
         ::.................................................::
         :: total energy             -286.658062101509 Eh   ::
         :: zero point energy           1.324882896136 Eh   ::
         :: G(RRHO) w/o ZPVE           -0.120008155163 Eh   ::
         :: G(RRHO) contrib.            1.204874740973 Eh   ::
         :::::::::::::::::::::::::::::::::::::::::::::::::::::

           -------------------------------------------------
          | TOTAL ENERGY             -286.658062101509 Eh   |
          | TOTAL ENTHALPY           -285.237939250465 Eh   |
          | TOTAL FREE ENERGY        -285.453187360537 Eh   |
          | GRADIENT NORM               0.000587117923 Eh/α |
          | HOMO-LUMO GAP               1.894269178487 eV   |
           -------------------------------------------------

------------------------------------------------------------------------
 * finished run on 2021/06/22 at 00:59:01.645     
------------------------------------------------------------------------
 total:
 * wall-time:     0 d,  0 h, 15 min, 52.504 sec
 *  cpu-time:     0 d,  1 h,  3 min, 27.457 sec
 * ratio c/w:     3.997 speedup
 SCF:
 * wall-time:     0 d,  0 h,  0 min,  3.528 sec
 *  cpu-time:     0 d,  0 h,  0 min, 10.048 sec
 * ratio c/w:     2.848 speedup
 numerical hessian:
 * wall-time:     0 d,  0 h, 15 min, 46.956 sec
 *  cpu-time:     0 d,  1 h,  3 min, 15.255 sec
 * ratio c/w:     4.008 speedup

