 Entering Gaussian System
 *********************************************
 Gaussian 98:
 frequency output generated by the xtb code
 *********************************************
                         Standard orientation:
 --------------------------------------------------------------------
  Center     Atomic     Atomic              Coordinates (Angstroms)
  Number     Number      Type              X           Y           Z
 --------------------------------------------------------------------
    1         46             0        0.791136    6.614096    0.329786
    2         46             0        0.508975   -4.786103   -0.004093
    3          6             0        7.035001   -0.445735    0.832476
    4          6             0        6.707395   -1.608634    0.883379
    5          6             0        6.357088   -2.972032    0.919183
    6          6             0        7.329183   -3.938336    1.112881
    7          6             0        7.003876   -5.299335    1.130985
    8          6             0        5.710673   -5.715628    0.948290
    9          6             0        4.690978   -4.761323    0.744792
   10          6             0        3.349475   -5.129817    0.536897
   11          7             0        2.388879   -4.250712    0.345999
   12          6             0        2.671786   -2.923413    0.350196
   13          6             0        3.945089   -2.460720    0.535291
   14          6             0        5.003085   -3.371825    0.735388
   15          1             0        8.355485   -3.633942    1.252277
   16          1             0        7.789573   -6.022239    1.287583
   17          1             0        5.464168   -6.765327    0.956893
   18          1             0        3.077669   -6.182415    0.531200
   19          1             0        1.821689   -2.260609    0.193898
   20          1             0        4.161394   -1.404321    0.527388
   21          6             0        7.371307    0.918663    0.719773
   22          6             0        8.687408    1.291455    0.351367
   23          6             0        9.004414    2.606553    0.171364
   24          6             0        8.033520    3.617859    0.343266
   25          6             0        8.309526    4.981857    0.114362
   26          6             0        7.338032    5.931762    0.255864
   27          6             0        6.030131    5.573870    0.657169
   28          6             0        5.747125    4.250372    0.913073
   29          6             0        6.722220    3.248866    0.746571
   30          6             0        6.414813    1.888468    0.932374
   31          1             0        9.430103    0.521251    0.205866
   32          1             0       10.005715    2.891247   -0.118140
   33          1             0        9.305927    5.264951   -0.192142
   34          1             0        7.565437    6.962860    0.034261
   35          1             0        4.774625    3.951577    1.271676
   36          1             0        5.417413    1.607574    1.233278
   37          6             0        4.984537    6.598375    0.772871
   38          6             0        5.254246    7.911275    1.172868
   39          6             0        4.223351    8.834280    1.236770
   40          6             0        2.934847    8.433686    0.923275
   41          7             0        2.672140    7.176987    0.557878
   42          6             0        3.658435    6.287782    0.471176
   43          1             0        6.257048    8.201070    1.444564
   44          1             0        4.416457    9.851880    1.535567
   45          1             0        2.092351    9.121391    0.959977
   46          1             0        3.382828    5.293783    0.126679
   47          6             0       -0.860664    2.549116    6.559599
   48          6             0       -0.770858    3.743215    6.387996
   49          6             0       -0.728752    5.116014    6.077794
   50          6             0       -1.220244    6.070919    6.950594
   51          6             0       -1.256838    7.423218    6.590991
   52          6             0       -0.833840    7.839114    5.354189
   53          6             0       -0.317548    6.897909    4.438589
   54          6             0        0.093349    7.249605    3.137287
   55          7             0        0.591641    6.375101    2.291787
   56          6             0        0.755836    5.079701    2.669388
   57          6             0        0.350938    4.628305    3.891591
   58          6             0       -0.229254    5.526710    4.809891
   59          1             0       -1.589042    5.766222    7.918295
   60          1             0       -1.642632    8.140521    7.299192
   61          1             0       -0.891336    8.878814    5.073888
   62          1             0       -0.003047    8.274605    2.792786
   63          1             0        1.232330    4.424897    1.938288
   64          1             0        0.464133    3.593805    4.172992
   65          6             0       -1.048170    1.164817    6.748502
   66          6             0       -1.770069    0.714823    7.881305
   67          6             0       -2.036475   -0.612975    8.041008
   68          6             0       -1.600683   -1.559979    7.088408
   69          6             0       -1.899990   -2.932277    7.206612
   70          6             0       -1.468398   -3.827681    6.271612
   71          6             0       -0.697400   -3.404087    5.162908
   72          6             0       -0.399693   -2.066889    5.022505
   73          6             0       -0.846685   -1.119085    5.966905
   74          6             0       -0.583178    0.256313    5.819502
   75          1             0       -2.111862    1.437926    8.606705
   76          1             0       -2.594474   -0.958671    8.899211
   77          1             0       -2.485489   -3.265073    8.051014
   78          1             0       -1.739803   -4.867480    6.367215
   79          1             0        0.212106   -1.720994    4.203702
   80          1             0       -0.021980    0.597109    4.963299
   81          6             0       -0.234208   -4.410991    4.197909
   82          6             0        0.122086   -5.695893    4.621110
   83          6             0        0.501478   -6.648496    3.690910
   84          6             0        0.538175   -6.299499    2.353309
   85          7             0        0.235680   -5.061698    1.947208
   86          6             0       -0.144512   -4.141394    2.831008
   87          1             0        0.113089   -5.941691    5.671310
   88          1             0        0.766874   -7.646097    4.001311
   89          1             0        0.811469   -7.022101    1.583309
   90          1             0       -0.399908   -3.166294    2.428007
   91          6             0       -5.813188    2.481030   -0.276984
   92          6             0       -5.538782    3.658828   -0.297587
   93          6             0       -5.162675    5.016127   -0.289491
   94          6             0       -6.102170    6.026031   -0.394789
   95          6             0       -5.719363    7.372529   -0.365193
   96          6             0       -4.403560    7.731323   -0.224498
   97          6             0       -3.413365    6.731418   -0.112700
   98          6             0       -2.046963    7.032111    0.039595
   99          7             0       -1.121768    6.099506    0.138393
  100          6             0       -1.468675    4.790008    0.097997
  101          6             0       -2.767477    4.392314   -0.038698
  102          6             0       -3.787272    5.357720   -0.149796
  103          1             0       -7.145772    5.770937   -0.501185
  104          1             0       -6.480559    8.132633   -0.452292
  105          1             0       -4.116455    8.770421   -0.197801
  106          1             0       -1.712257    8.067109    0.080792
  107          1             0       -0.653778    4.077704    0.183395
  108          1             0       -3.030683    3.347216   -0.061595
  109          6             0       -6.117095    1.106432   -0.195481
  110          6             0       -7.419996    0.699239    0.182225
  111          6             0       -7.708302   -0.625859    0.331828
  112          6             0       -6.721608   -1.612565    0.115026
  113          6             0       -6.976515   -2.986463    0.303130
  114          6             0       -5.999320   -3.917768    0.099228
  115          6             0       -4.704820   -3.530276   -0.320477
  116          6             0       -4.435513   -2.193778   -0.516081
  117          6             0       -5.421507   -1.210872   -0.294979
  118          6             0       -5.143501    0.161126   -0.444582
  119          1             0       -8.174691    1.451243    0.358126
  120          1             0       -8.699303   -0.938453    0.627832
  121          1             0       -7.962015   -3.292257    0.622634
  122          1             0       -6.211025   -4.959067    0.285530
  123          1             0       -3.470013   -1.869983   -0.872285
  124          1             0       -4.156300    0.470320   -0.751686
  125          6             0       -3.676626   -4.560382   -0.524179
  126          6             0       -4.001534   -5.834781   -1.003476
  127          6             0       -3.013040   -6.794986   -1.133278
  128          6             0       -1.710037   -6.469292   -0.797883
  129          7             0       -1.390429   -5.247493   -0.368386
  130          6             0       -2.335523   -4.316888   -0.227984
  131          1             0       -5.017336   -6.065076   -1.283472
  132          1             0       -3.249546   -7.783386   -1.492675
  133          1             0       -0.902341   -7.192097   -0.874984
  134          1             0       -2.004517   -3.352289    0.153113
  135          6             0       -0.161706    3.133290   -6.288505
  136          6             0       -0.086899    4.318090   -6.055907
  137          6             0       -0.041190    5.664890   -5.647810
  138          6             0       -0.394688    6.703091   -6.490810
  139          6             0       -0.409979    8.026092   -6.032813
  140          6             0       -0.101773    8.330692   -4.731114
  141          6             0        0.268725    7.301092   -3.840414
  142          6             0        0.548331    7.534793   -2.478115
  143          7             0        0.900029    6.573992   -1.653015
  144          6             0        1.042820    5.301791   -2.111613
  145          6             0        0.762314    4.964590   -3.403011
  146          6             0        0.332516    5.957991   -4.305712
  147          1             0       -0.668992    6.489290   -7.512709
  148          1             0       -0.685677    8.811692   -6.719713
  149          1             0       -0.140066    9.349893   -4.380816
  150          1             0        0.470437    8.536994   -2.068617
  151          1             0        1.395019    4.563590   -1.388513
  152          1             0        0.857808    3.948689   -3.750510
  153          6             0       -0.290414    1.753690   -6.548402
  154          6             0       -0.850520    1.320291   -7.774599
  155          6             0       -1.019628   -0.011209   -8.017296
  156          6             0       -0.637630   -0.978309   -7.061696
  157          6             0       -0.808238   -2.359708   -7.286093
  158          6             0       -0.406439   -3.275309   -6.357293
  159          6             0        0.184467   -2.860210   -5.140596
  160          6             0        0.338575   -1.516810   -4.886999
  161          6             0       -0.060623   -0.550510   -5.834899
  162          6             0        0.099285    0.828290   -5.601002
  163          1             0       -1.143019    2.057091   -8.507700
  164          1             0       -1.450133   -0.345308   -8.950294
  165          1             0       -1.259943   -2.683408   -8.212191
  166          1             0       -0.560345   -4.327308   -6.541890
  167          1             0        0.810280   -1.179811   -3.976801
  168          1             0        0.533690    1.157689   -4.669804
  169          6             0        0.645565   -3.889511   -4.197195
  170          6             0        1.276657   -5.043415   -4.672096
  171          6             0        1.678455   -6.023915   -3.781295
  172          6             0        1.440861   -5.837212   -2.431995
  173          7             0        0.851768   -4.727808   -1.970795
  174          6             0        0.465970   -3.774907   -2.818395
  175          1             0        1.461353   -5.160718   -5.728396
  176          1             0        2.166149   -6.919819   -4.129895
  177          1             0        1.729660   -6.589012   -1.696695
  178          1             0       -0.017424   -2.908304   -2.379295
 --------------------------------------------------------------------
     1 basis functions        1 primitive gaussians
     1 alpha electrons        1 beta electrons
 
 Harmonic frequencies (cm**-1), IR intensities (KM/Mole),
 Raman scattering activities (A**4/amu), Raman depolarization ratios,
 reduced masses (AMU), force constants (mDyne/A) and normal coordinates:
                      1                      2                      3
                        a                      a                      a 
 Frequencies --     5.8615                 6.8259                 7.4361
 Red. masses --    11.8306                14.0199                14.9985
 Frc consts  --     0.0000                 0.0000                 0.0000
 IR Inten    --     0.1450                 0.3932                 0.4821
 Raman Activ --     0.0000                 0.0000                 0.0000
 Depolar     --     0.0000                 0.0000                 0.0000
 Atom AN      X      Y      Z        X      Y      Z        X      Y      Z
   1  46     0.05   0.00  -0.03     0.08   0.02   0.10    -0.00   0.02  -0.16
   2  46     0.02   0.00   0.04     0.06  -0.03   0.08    -0.02  -0.02  -0.11
   3   6    -0.00  -0.00   0.09     0.03   0.00  -0.08    -0.03   0.00   0.13
   4   6    -0.00  -0.00   0.09     0.03  -0.00  -0.10    -0.02   0.00   0.09
   5   6    -0.01  -0.00   0.10     0.04  -0.00  -0.11    -0.02  -0.00   0.04
   6   6    -0.01  -0.00   0.12     0.05  -0.00  -0.16    -0.02  -0.00   0.03
   7   6    -0.01   0.00   0.12     0.05  -0.00  -0.17    -0.01  -0.00  -0.02
   8   6    -0.01   0.00   0.10     0.05  -0.01  -0.14    -0.00  -0.01  -0.05
   9   6    -0.01   0.00   0.08     0.04  -0.01  -0.09    -0.01  -0.01  -0.04
  10   6    -0.00   0.00   0.06     0.03  -0.01  -0.06    -0.00  -0.01  -0.07
  11   7     0.00   0.00   0.04     0.03  -0.01  -0.02    -0.00  -0.01  -0.06
  12   6     0.00   0.00   0.04     0.02  -0.01  -0.01    -0.01  -0.01  -0.01
  13   6     0.00   0.00   0.06     0.03  -0.00  -0.03    -0.02  -0.00   0.02
  14   6    -0.00   0.00   0.08     0.03  -0.00  -0.08    -0.01  -0.00   0.01
  15   1    -0.00  -0.00   0.04     0.01  -0.00  -0.05    -0.01   0.00   0.02
  16   1    -0.01  -0.00   0.04     0.02  -0.00  -0.06    -0.00  -0.00  -0.01
  17   1    -0.00   0.00   0.03     0.02  -0.00  -0.04     0.00  -0.00  -0.03
  18   1    -0.00   0.00   0.02     0.01  -0.00  -0.02     0.00  -0.00  -0.03
  19   1     0.00   0.00   0.01     0.00  -0.00   0.01    -0.00  -0.00  -0.00
  20   1     0.00   0.00   0.02     0.01  -0.00  -0.01    -0.01  -0.00   0.01
  21   6     0.00  -0.00   0.08     0.03   0.00  -0.06    -0.02   0.01   0.17
  22   6     0.01  -0.01   0.09     0.03   0.01  -0.06     0.00   0.01   0.25
  23   6     0.01  -0.01   0.08     0.03   0.01  -0.04     0.02   0.01   0.28
  24   6     0.01  -0.01   0.06     0.03   0.01  -0.02     0.01   0.01   0.24
  25   6     0.02  -0.01   0.05     0.02   0.01   0.01     0.02   0.01   0.26
  26   6     0.02  -0.01   0.03     0.02   0.01   0.03     0.01   0.01   0.22
  27   6     0.01  -0.00   0.02     0.03   0.00   0.03    -0.01   0.01   0.14
  28   6     0.01   0.00   0.03     0.03  -0.00   0.01    -0.03   0.01   0.11
  29   6     0.01  -0.00   0.05     0.03   0.00  -0.02    -0.02   0.01   0.15
  30   6     0.00   0.00   0.06     0.03  -0.00  -0.04    -0.03   0.00   0.12
  31   1     0.00  -0.00   0.03     0.01   0.00  -0.02     0.00   0.00   0.08
  32   1     0.00  -0.01   0.03     0.01   0.01  -0.01     0.01   0.00   0.10
  33   1     0.01  -0.00   0.02     0.01   0.01   0.00     0.01   0.00   0.09
  34   1     0.01  -0.00   0.01     0.01   0.00   0.01     0.01   0.00   0.07
  35   1     0.00   0.00   0.01     0.01  -0.00   0.00    -0.01   0.00   0.01
  36   1    -0.00   0.00   0.02     0.01  -0.00  -0.01    -0.01   0.00   0.02
  37   6     0.01   0.00   0.00     0.03   0.00   0.05    -0.02   0.01   0.09
  38   6     0.01   0.01  -0.01     0.03  -0.01   0.07    -0.04   0.01   0.11
  39   6     0.01   0.01  -0.03     0.03  -0.01   0.09    -0.04   0.01   0.06
  40   6     0.02   0.01  -0.03     0.03  -0.00   0.08    -0.02   0.01   0.00
  41   7     0.02   0.00  -0.02     0.03   0.00   0.07    -0.01   0.01  -0.02
  42   6     0.02   0.00  -0.00     0.03   0.00   0.05    -0.00   0.01   0.02
  43   1     0.00   0.00  -0.00     0.01  -0.00   0.02    -0.01   0.00   0.05
  44   1     0.00   0.00  -0.01     0.01  -0.00   0.03    -0.01   0.00   0.02
  45   1     0.00   0.00  -0.01     0.01  -0.00   0.03    -0.01   0.00  -0.01
  46   1     0.00  -0.00   0.00     0.01   0.00   0.01     0.00   0.00  -0.00
  47   6     0.09  -0.01   0.02    -0.09   0.00  -0.00     0.05  -0.01  -0.04
  48   6     0.10  -0.01   0.02    -0.11   0.00  -0.01     0.03  -0.01  -0.04
  49   6     0.10  -0.01   0.02    -0.12   0.00  -0.01     0.01  -0.01  -0.05
  50   6     0.13  -0.00   0.03    -0.16  -0.00  -0.03     0.00  -0.01  -0.05
  51   6     0.14  -0.00   0.03    -0.17  -0.00  -0.03    -0.01  -0.01  -0.05
  52   6     0.11  -0.00   0.02    -0.13  -0.00  -0.02    -0.02  -0.01  -0.05
  53   6     0.08  -0.01   0.01    -0.09   0.00  -0.00    -0.02  -0.01  -0.05
  54   6     0.06  -0.01   0.00    -0.05   0.01   0.01    -0.03  -0.00  -0.06
  55   7     0.04  -0.01  -0.01    -0.01   0.01   0.03    -0.02  -0.00  -0.06
  56   6     0.03  -0.01  -0.02    -0.00   0.02   0.04    -0.01  -0.00  -0.06
  57   6     0.05  -0.01  -0.01    -0.04   0.01   0.03    -0.00  -0.00  -0.05
  58   6     0.08  -0.01   0.01    -0.08   0.01   0.01    -0.00  -0.01  -0.05
  59   1     0.04  -0.00   0.01    -0.05  -0.00  -0.01     0.00  -0.00  -0.01
  60   1     0.05  -0.00   0.01    -0.06  -0.00  -0.01    -0.01  -0.00  -0.02
  61   1     0.03  -0.00   0.01    -0.04  -0.00  -0.01    -0.01  -0.00  -0.02
  62   1     0.02  -0.00   0.00    -0.02   0.00   0.00    -0.01  -0.00  -0.02
  63   1     0.00  -0.00  -0.01     0.01   0.01   0.02    -0.00   0.00  -0.02
  64   1     0.01  -0.00  -0.00    -0.01   0.00   0.01     0.00  -0.00  -0.02
  65   6     0.08  -0.00   0.02    -0.07   0.00  -0.00     0.07  -0.01  -0.02
  66   6     0.08   0.00   0.02    -0.07  -0.01  -0.00     0.10  -0.01  -0.01
  67   6     0.07   0.01   0.03    -0.05  -0.01   0.00     0.12  -0.02   0.01
  68   6     0.05   0.00   0.02    -0.02  -0.01   0.01     0.11  -0.01   0.00
  69   6     0.04   0.01   0.02     0.00  -0.01   0.01     0.13  -0.02   0.01
  70   6     0.02   0.00   0.02     0.03  -0.01   0.02     0.12  -0.02   0.01
  71   6     0.02  -0.01   0.01     0.02   0.00   0.02     0.09  -0.01  -0.01
  72   6     0.03  -0.01   0.01    -0.01   0.01   0.02     0.07  -0.01  -0.02
  73   6     0.05  -0.01   0.02    -0.03   0.00   0.01     0.08  -0.01  -0.02
  74   6     0.06  -0.01   0.02    -0.05   0.01   0.00     0.06  -0.01  -0.03
  75   1     0.03   0.00   0.01    -0.03  -0.00  -0.00     0.03  -0.00  -0.00
  76   1     0.02   0.00   0.01    -0.01  -0.01   0.00     0.04  -0.01   0.01
  77   1     0.01   0.00   0.01     0.00  -0.01   0.00     0.04  -0.01   0.01
  78   1     0.00   0.00   0.01     0.01  -0.00   0.01     0.04  -0.01   0.01
  79   1     0.01  -0.00   0.00    -0.00   0.00   0.00     0.01  -0.00  -0.01
  80   1     0.02  -0.00   0.00    -0.02   0.00   0.00     0.01  -0.00  -0.01
  81   6     0.00  -0.01   0.01     0.04   0.00   0.03     0.07  -0.01  -0.02
  82   6    -0.01  -0.02   0.01     0.07   0.02   0.04     0.09  -0.01  -0.03
  83   6    -0.02  -0.02   0.00     0.09   0.02   0.04     0.08  -0.01  -0.04
  84   6    -0.02  -0.01   0.00     0.08   0.01   0.04     0.04  -0.01  -0.04
  85   7    -0.01  -0.01   0.01     0.06  -0.00   0.03     0.03  -0.01  -0.03
  86   6    -0.00  -0.01   0.01     0.04  -0.00   0.03     0.04  -0.01  -0.02
  87   1    -0.00  -0.01   0.00     0.02   0.01   0.01     0.03  -0.00  -0.01
  88   1    -0.01  -0.01   0.00     0.03   0.01   0.01     0.03  -0.00  -0.01
  89   1    -0.01  -0.00   0.00     0.03   0.00   0.01     0.01  -0.00  -0.01
  90   1     0.00  -0.00   0.00     0.00  -0.00   0.01     0.01  -0.00  -0.01
  91   6     0.02  -0.00  -0.12     0.04  -0.00  -0.12    -0.01   0.00   0.03
  92   6     0.02  -0.00  -0.10     0.05  -0.00  -0.13    -0.01   0.00   0.01
  93   6     0.02  -0.00  -0.07     0.05  -0.00  -0.14    -0.00   0.00  -0.01
  94   6     0.02  -0.00  -0.07     0.05  -0.00  -0.19    -0.01   0.00  -0.01
  95   6     0.02  -0.00  -0.05     0.05  -0.00  -0.20    -0.00   0.00  -0.03
  96   6     0.02  -0.00  -0.02     0.05  -0.00  -0.15    -0.00   0.00  -0.05
  97   6     0.02  -0.00  -0.02     0.04   0.00  -0.10    -0.00   0.00  -0.05
  98   6     0.02  -0.00  -0.00     0.04   0.00  -0.05     0.00   0.00  -0.07
  99   7     0.02  -0.00  -0.00     0.03   0.01  -0.00     0.00   0.00  -0.08
 100   6     0.02  -0.00  -0.03     0.03   0.00   0.01     0.00   0.00  -0.06
 101   6     0.02  -0.00  -0.05     0.04   0.00  -0.03    -0.00   0.00  -0.04
 102   6     0.02  -0.00  -0.05     0.04   0.00  -0.09    -0.00   0.00  -0.03
 103   1     0.01  -0.00  -0.03     0.02  -0.00  -0.07    -0.00   0.00   0.00
 104   1     0.01  -0.00  -0.01     0.02  -0.00  -0.07    -0.00   0.00  -0.01
 105   1     0.00  -0.00  -0.00     0.01  -0.00  -0.05    -0.00   0.00  -0.02
 106   1     0.00  -0.00   0.01     0.01   0.00  -0.02     0.00   0.00  -0.02
 107   1     0.01  -0.00  -0.01     0.01   0.00   0.02     0.00   0.00  -0.02
 108   1     0.01  -0.00  -0.02     0.01   0.00  -0.01    -0.00   0.00  -0.01
 109   6     0.02  -0.00  -0.14     0.04   0.00  -0.10    -0.01   0.00   0.06
 110   6     0.00  -0.00  -0.19     0.03   0.01  -0.10     0.01   0.01   0.10
 111   6    -0.01  -0.00  -0.21     0.03   0.02  -0.08     0.01   0.01   0.12
 112   6     0.00  -0.00  -0.18     0.02   0.01  -0.05     0.00   0.01   0.10
 113   6    -0.01  -0.00  -0.19     0.02   0.02  -0.02     0.01   0.01   0.13
 114   6    -0.00  -0.00  -0.16     0.01   0.01   0.01     0.00   0.01   0.11
 115   6     0.01  -0.00  -0.11     0.02  -0.01   0.01    -0.01   0.00   0.07
 116   6     0.02  -0.00  -0.10     0.03  -0.01  -0.02    -0.02  -0.00   0.05
 117   6     0.02  -0.00  -0.13     0.03  -0.00  -0.04    -0.01   0.00   0.06
 118   6     0.02  -0.00  -0.11     0.04  -0.01  -0.07    -0.01  -0.00   0.04
 119   1    -0.00  -0.00  -0.06     0.01   0.01  -0.04     0.00   0.00   0.03
 120   1    -0.00  -0.00  -0.07     0.01   0.01  -0.02     0.01   0.00   0.04
 121   1    -0.01  -0.00  -0.07     0.00   0.01  -0.01     0.00   0.00   0.05
 122   1    -0.00  -0.00  -0.05     0.00   0.00   0.01     0.00   0.00   0.04
 123   1     0.01  -0.00  -0.02     0.01  -0.01  -0.00    -0.01  -0.00   0.00
 124   1     0.01  -0.00  -0.02     0.01  -0.01  -0.02    -0.01  -0.00   0.00
 125   6     0.02  -0.00  -0.08     0.02  -0.01   0.04    -0.02  -0.00   0.05
 126   6     0.03  -0.00  -0.10     0.02  -0.02   0.07    -0.03  -0.00   0.06
 127   6     0.04   0.00  -0.08     0.01  -0.03   0.09    -0.03  -0.01   0.04
 128   6     0.03  -0.00  -0.04     0.01  -0.03   0.09    -0.03  -0.00   0.01
 129   7     0.01  -0.00  -0.02     0.02  -0.02   0.07    -0.01  -0.00  -0.01
 130   6     0.01  -0.01  -0.04     0.02  -0.01   0.04    -0.01  -0.00   0.01
 131   1     0.01   0.00  -0.04     0.00  -0.01   0.02    -0.01  -0.00   0.03
 132   1     0.01   0.00  -0.03     0.00  -0.01   0.03    -0.01  -0.00   0.02
 133   1     0.01  -0.00  -0.00     0.00  -0.01   0.03    -0.01  -0.00  -0.00
 134   1    -0.00  -0.00  -0.01     0.01  -0.00   0.01     0.00   0.00  -0.00
 135   6    -0.15   0.00   0.03    -0.05   0.00   0.06    -0.01   0.00  -0.04
 136   6    -0.15   0.00   0.03    -0.02   0.00   0.05     0.01   0.00  -0.05
 137   6    -0.15   0.00   0.03     0.01   0.00   0.05     0.02   0.01  -0.05
 138   6    -0.20   0.00   0.04     0.02   0.01   0.05     0.03   0.01  -0.05
 139   6    -0.20  -0.00   0.04     0.04   0.01   0.04     0.04   0.01  -0.06
 140   6    -0.15   0.00   0.03     0.06   0.01   0.04     0.04   0.01  -0.06
 141   6    -0.10   0.01   0.01     0.05   0.01   0.04     0.03   0.01  -0.06
 142   6    -0.05   0.01   0.00     0.06   0.01   0.03     0.03   0.01  -0.06
 143   7    -0.01   0.02  -0.01     0.06   0.00   0.04     0.02   0.01  -0.06
 144   6    -0.00   0.02  -0.02     0.03   0.00   0.04     0.02   0.01  -0.05
 145   6    -0.05   0.01  -0.01     0.02   0.00   0.04     0.02   0.01  -0.05
 146   6    -0.10   0.01   0.01     0.02   0.00   0.04     0.02   0.01  -0.05
 147   1    -0.07  -0.00   0.02     0.00   0.00   0.01     0.01   0.00  -0.02
 148   1    -0.07  -0.00   0.02     0.01   0.00   0.01     0.01   0.00  -0.02
 149   1    -0.04   0.00   0.01     0.02   0.00   0.01     0.01   0.00  -0.02
 150   1    -0.01   0.00   0.00     0.02   0.00   0.01     0.01   0.00  -0.02
 151   1     0.01   0.01  -0.01     0.01  -0.00   0.01     0.01   0.00  -0.01
 152   1    -0.01   0.00  -0.00     0.00  -0.00   0.01     0.01   0.00  -0.01
 153   6    -0.14   0.00   0.03    -0.08   0.01   0.06    -0.03   0.01  -0.04
 154   6    -0.16  -0.01   0.04    -0.12   0.02   0.08    -0.05   0.01  -0.03
 155   6    -0.14  -0.01   0.05    -0.15   0.02   0.08    -0.07   0.01  -0.02
 156   6    -0.11  -0.00   0.04    -0.14   0.01   0.07    -0.07   0.01  -0.02
 157   6    -0.09  -0.01   0.04    -0.16   0.02   0.08    -0.09   0.01  -0.02
 158   6    -0.06  -0.00   0.04    -0.15   0.01   0.06    -0.09   0.01  -0.02
 159   6    -0.05   0.01   0.03    -0.10  -0.00   0.04    -0.07   0.00  -0.03
 160   6    -0.06   0.01   0.02    -0.07  -0.00   0.04    -0.05   0.00  -0.04
 161   6    -0.10   0.00   0.03    -0.09   0.00   0.05    -0.05   0.00  -0.03
 162   6    -0.11   0.01   0.03    -0.06   0.00   0.05    -0.03   0.00  -0.04
 163   1    -0.05  -0.00   0.01    -0.04   0.01   0.03    -0.01   0.00  -0.01
 164   1    -0.04  -0.00   0.02    -0.05   0.01   0.03    -0.03   0.00  -0.00
 165   1    -0.03  -0.00   0.01    -0.06   0.01   0.03    -0.03   0.00  -0.00
 166   1    -0.01  -0.00   0.01    -0.05   0.00   0.02    -0.03   0.00  -0.01
 167   1    -0.02   0.01   0.00    -0.01  -0.00   0.01    -0.01  -0.00  -0.01
 168   1    -0.03   0.00   0.01    -0.01  -0.00   0.01    -0.00  -0.00  -0.01
 169   6    -0.02   0.02   0.02    -0.08  -0.01   0.03    -0.06  -0.00  -0.04
 170   6    -0.00   0.03   0.01    -0.11  -0.01   0.01    -0.08  -0.01  -0.05
 171   6     0.03   0.03   0.01    -0.10  -0.02  -0.01    -0.08  -0.01  -0.05
 172   6     0.04   0.03   0.01    -0.05  -0.02  -0.00    -0.05  -0.01  -0.05
 173   7     0.02   0.02   0.02    -0.03  -0.01   0.02    -0.04  -0.00  -0.04
 174   6    -0.00   0.01   0.02    -0.04  -0.01   0.03    -0.04   0.00  -0.04
 175   1    -0.00   0.01   0.00    -0.04  -0.00  -0.00    -0.03  -0.00  -0.01
 176   1     0.01   0.01  -0.00    -0.03  -0.01  -0.01    -0.03  -0.00  -0.02
 177   1     0.02   0.01   0.00    -0.01  -0.01  -0.00    -0.01  -0.00  -0.02
 178   1    -0.00   0.00   0.01    -0.01  -0.00   0.01    -0.01   0.00  -0.01
                      4                      5                      6
                        a                      a                      a 
 Frequencies --     8.1206                14.8855                15.1940
 Red. masses --    16.0703                11.9242                17.2027
 Frc consts  --     0.0000                 0.0000                 0.0000
 IR Inten    --     0.4751                 0.0793                 0.0698
 Raman Activ --     0.0000                 0.0000                 0.0000
 Depolar     --     0.0000                 0.0000                 0.0000
 Atom AN      X      Y      Z        X      Y      Z        X      Y      Z
   1  46     0.16   0.02  -0.07    -0.01  -0.04  -0.03     0.12   0.13  -0.02
   2  46     0.12  -0.01  -0.05     0.04   0.05   0.01    -0.14  -0.10   0.03
   3   6     0.03  -0.01   0.04     0.02  -0.02   0.06    -0.05  -0.00  -0.03
   4   6     0.03  -0.01   0.04     0.01  -0.02   0.10    -0.05  -0.00  -0.03
   5   6     0.03  -0.01   0.04     0.00  -0.01   0.14    -0.05  -0.00  -0.04
   6   6     0.03  -0.01   0.05    -0.01  -0.01   0.20    -0.04  -0.00  -0.05
   7   6     0.03  -0.01   0.05    -0.03  -0.01   0.23    -0.03  -0.00  -0.05
   8   6     0.03  -0.00   0.03    -0.02  -0.01   0.20    -0.03  -0.01  -0.03
   9   6     0.03  -0.00   0.02    -0.01  -0.00   0.13    -0.04  -0.01  -0.02
  10   6     0.03  -0.00   0.01    -0.00   0.00   0.09    -0.04  -0.02  -0.00
  11   7     0.04  -0.00  -0.01     0.01   0.01   0.05    -0.05  -0.03   0.01
  12   6     0.04  -0.00  -0.00     0.02   0.01   0.03    -0.05  -0.02   0.01
  13   6     0.04  -0.00   0.01     0.02  -0.00   0.06    -0.05  -0.02  -0.01
  14   6     0.03  -0.00   0.03     0.00  -0.01   0.11    -0.05  -0.01  -0.02
  15   1     0.01  -0.00   0.02    -0.00  -0.01   0.07    -0.01   0.00  -0.02
  16   1     0.01  -0.00   0.02    -0.01  -0.00   0.08    -0.01   0.00  -0.02
  17   1     0.01  -0.00   0.01    -0.01  -0.00   0.06    -0.01  -0.00  -0.01
  18   1     0.01  -0.00   0.00    -0.00   0.00   0.03    -0.01  -0.01  -0.00
  19   1     0.01  -0.00  -0.00     0.01   0.00  -0.00    -0.02  -0.01   0.00
  20   1     0.01  -0.00   0.00     0.01  -0.00   0.01    -0.02  -0.00  -0.00
  21   6     0.04  -0.01   0.04     0.01  -0.02   0.00    -0.03  -0.01  -0.02
  22   6     0.04  -0.01   0.06    -0.00  -0.03  -0.05    -0.03  -0.02  -0.02
  23   6     0.05  -0.01   0.06    -0.01  -0.04  -0.10    -0.01  -0.02  -0.00
  24   6     0.05  -0.01   0.04    -0.01  -0.03  -0.10     0.00  -0.01   0.00
  25   6     0.05  -0.01   0.04    -0.02  -0.04  -0.15     0.02  -0.01   0.02
  26   6     0.06  -0.01   0.02    -0.01  -0.04  -0.14     0.03  -0.00   0.02
  27   6     0.05  -0.00   0.01     0.00  -0.03  -0.09     0.03   0.01   0.01
  28   6     0.04  -0.00   0.01     0.01  -0.02  -0.04     0.01   0.01  -0.00
  29   6     0.04  -0.01   0.02     0.01  -0.02  -0.05    -0.00   0.00  -0.01
  30   6     0.04  -0.00   0.03     0.02  -0.02   0.00    -0.02   0.00  -0.02
  31   1     0.01  -0.00   0.02    -0.00  -0.01  -0.02    -0.01  -0.01  -0.01
  32   1     0.02  -0.00   0.02    -0.01  -0.01  -0.04    -0.00  -0.01   0.00
  33   1     0.02  -0.00   0.01    -0.01  -0.01  -0.06     0.01  -0.01   0.01
  34   1     0.02  -0.00   0.00    -0.01  -0.01  -0.05     0.01  -0.00   0.01
  35   1     0.01   0.00  -0.00     0.01  -0.00  -0.00     0.00   0.01  -0.00
  36   1     0.01  -0.00   0.00     0.01  -0.00   0.01    -0.01   0.00  -0.01
  37   6     0.05  -0.00  -0.01     0.00  -0.02  -0.07     0.04   0.02   0.01
  38   6     0.05   0.00  -0.01     0.02  -0.02  -0.09     0.04   0.02   0.02
  39   6     0.05   0.00  -0.03     0.02  -0.02  -0.07     0.05   0.02   0.03
  40   6     0.06   0.01  -0.03     0.01  -0.02  -0.03     0.05   0.04   0.01
  41   7     0.06   0.01  -0.03    -0.00  -0.03  -0.01     0.04   0.05  -0.00
  42   6     0.05   0.00  -0.02    -0.00  -0.03  -0.03     0.04   0.04  -0.00
  43   1     0.01  -0.00  -0.00     0.01  -0.01  -0.04     0.01   0.00   0.01
  44   1     0.02   0.00  -0.01     0.01  -0.01  -0.02     0.02   0.01   0.01
  45   1     0.02   0.00  -0.01     0.00  -0.01  -0.00     0.02   0.01   0.00
  46   1     0.02   0.00  -0.00    -0.00  -0.01  -0.00     0.01   0.01  -0.00
  47   6    -0.12   0.01  -0.08    -0.03  -0.04  -0.02    -0.04   0.00  -0.05
  48   6    -0.11   0.01  -0.08    -0.07  -0.04  -0.04    -0.09   0.00  -0.07
  49   6    -0.08   0.01  -0.07    -0.10  -0.04  -0.05    -0.13   0.00  -0.08
  50   6    -0.10   0.01  -0.08    -0.15  -0.05  -0.07    -0.21  -0.01  -0.10
  51   6    -0.07   0.01  -0.08    -0.18  -0.05  -0.07    -0.24  -0.01  -0.11
  52   6    -0.03   0.01  -0.07    -0.15  -0.05  -0.06    -0.18  -0.00  -0.08
  53   6    -0.01   0.01  -0.05    -0.10  -0.04  -0.04    -0.10   0.02  -0.05
  54   6     0.04   0.01  -0.04    -0.06  -0.03  -0.03    -0.04   0.03  -0.03
  55   7     0.06   0.01  -0.03    -0.02  -0.02  -0.02     0.03   0.05  -0.01
  56   6     0.03   0.01  -0.02    -0.01  -0.02  -0.01     0.04   0.05  -0.00
  57   6    -0.01   0.01  -0.04    -0.03  -0.02  -0.02    -0.01   0.04  -0.02
  58   6    -0.03   0.01  -0.05    -0.08  -0.03  -0.04    -0.08   0.02  -0.05
  59   1    -0.04   0.00  -0.03    -0.05  -0.02  -0.02    -0.07  -0.01  -0.04
  60   1    -0.03   0.00  -0.03    -0.06  -0.02  -0.02    -0.09  -0.01  -0.04
  61   1    -0.00   0.00  -0.02    -0.05  -0.01  -0.02    -0.06  -0.00  -0.02
  62   1     0.02   0.00  -0.01    -0.02  -0.01  -0.01    -0.01   0.01  -0.01
  63   1     0.01   0.00  -0.00     0.01  -0.00   0.00     0.02   0.02   0.00
  64   1    -0.01   0.00  -0.01    -0.01  -0.01  -0.00     0.00   0.01  -0.01
  65   6    -0.14   0.01  -0.09     0.01  -0.04  -0.00     0.01  -0.00  -0.02
  66   6    -0.19   0.02  -0.11     0.05  -0.05   0.02     0.09  -0.01   0.03
  67   6    -0.20   0.02  -0.12     0.09  -0.06   0.05     0.14  -0.01   0.06
  68   6    -0.17   0.02  -0.10     0.08  -0.05   0.04     0.13  -0.01   0.06
  69   6    -0.17   0.02  -0.11     0.11  -0.06   0.06     0.18  -0.02   0.10
  70   6    -0.14   0.01  -0.09     0.10  -0.06   0.05     0.16  -0.02   0.09
  71   6    -0.09   0.01  -0.06     0.06  -0.05   0.03     0.09  -0.02   0.04
  72   6    -0.08   0.01  -0.05     0.03  -0.04   0.01     0.04  -0.01   0.01
  73   6    -0.12   0.01  -0.07     0.04  -0.05   0.02     0.06  -0.01   0.01
  74   6    -0.11   0.01  -0.07     0.01  -0.04  -0.00    -0.00  -0.00  -0.03
  75   1    -0.06   0.01  -0.04     0.02  -0.01   0.01     0.03  -0.00   0.01
  76   1    -0.07   0.01  -0.04     0.03  -0.02   0.02     0.06  -0.00   0.03
  77   1    -0.06   0.01  -0.04     0.04  -0.02   0.02     0.07  -0.01   0.04
  78   1    -0.04   0.00  -0.03     0.03  -0.02   0.02     0.06  -0.01   0.04
  79   1    -0.01   0.00  -0.01     0.00  -0.01  -0.00    -0.00  -0.00  -0.01
  80   1    -0.02   0.00  -0.01    -0.01  -0.01  -0.01    -0.02   0.00  -0.02
  81   6    -0.06   0.00  -0.04     0.04  -0.04   0.01     0.06  -0.02   0.03
  82   6    -0.07   0.01  -0.02     0.04  -0.05  -0.01     0.10  -0.01   0.03
  83   6    -0.03   0.00  -0.01     0.02  -0.04  -0.03     0.07  -0.01   0.02
  84   6     0.01   0.00  -0.01    -0.01  -0.03  -0.02    -0.00  -0.02   0.01
  85   7     0.02  -0.00  -0.02    -0.00  -0.03  -0.00    -0.03  -0.03   0.02
  86   6    -0.01   0.00  -0.04     0.02  -0.03   0.01    -0.00  -0.03   0.02
  87   1    -0.03   0.00  -0.01     0.02  -0.02  -0.00     0.05  -0.00   0.01
  88   1    -0.01   0.00   0.00     0.00  -0.01  -0.01     0.03  -0.00   0.00
  89   1     0.01  -0.00   0.00    -0.01  -0.01  -0.01    -0.01  -0.01   0.00
  90   1     0.00   0.00  -0.01     0.00  -0.01   0.01    -0.01  -0.01   0.01
  91   6     0.05  -0.01   0.11    -0.01   0.01   0.05     0.04   0.02   0.03
  92   6     0.05  -0.01   0.11    -0.02   0.01   0.05     0.05   0.02   0.06
  93   6     0.04  -0.01   0.11    -0.01   0.01   0.04     0.04   0.02   0.08
  94   6     0.04  -0.01   0.15    -0.01   0.01   0.05     0.03   0.02   0.12
  95   6     0.03  -0.01   0.15    -0.01   0.01   0.04     0.03   0.02   0.14
  96   6     0.04  -0.01   0.11    -0.00   0.00   0.02     0.03   0.03   0.11
  97   6     0.04  -0.00   0.07    -0.01   0.00   0.01     0.04   0.03   0.07
  98   6     0.05  -0.00   0.03    -0.00  -0.00  -0.01     0.04   0.03   0.04
  99   7     0.06   0.00  -0.01    -0.01  -0.00  -0.02     0.05   0.04   0.00
 100   6     0.06   0.00  -0.01    -0.01  -0.00   0.00     0.05   0.04  -0.01
 101   6     0.06  -0.00   0.02    -0.01   0.00   0.02     0.05   0.03   0.01
 102   6     0.05  -0.00   0.07    -0.01   0.00   0.02     0.04   0.03   0.05
 103   1     0.01  -0.00   0.05    -0.00   0.00   0.02     0.01   0.00   0.04
 104   1     0.01  -0.00   0.05    -0.00   0.00   0.01     0.01   0.01   0.05
 105   1     0.01  -0.00   0.03    -0.00   0.00   0.00     0.01   0.01   0.04
 106   1     0.01  -0.00   0.01     0.00  -0.00  -0.01     0.01   0.01   0.01
 107   1     0.02   0.00  -0.01    -0.00  -0.00  -0.00     0.02   0.01  -0.01
 108   1     0.02  -0.00   0.01    -0.01   0.00   0.01     0.02   0.01   0.00
 109   6     0.05  -0.01   0.10    -0.01   0.00   0.04     0.03   0.02   0.00
 110   6     0.05  -0.01   0.12    -0.01  -0.01   0.03     0.01   0.03  -0.04
 111   6     0.05  -0.01   0.11    -0.00  -0.01   0.01    -0.01   0.03  -0.08
 112   6     0.05  -0.01   0.08     0.00  -0.00  -0.00    -0.02   0.03  -0.07
 113   6     0.05  -0.01   0.07     0.01  -0.01  -0.02    -0.04   0.03  -0.11
 114   6     0.05  -0.01   0.04     0.01   0.00  -0.04    -0.05   0.02  -0.10
 115   6     0.04  -0.01   0.02     0.01   0.01  -0.02    -0.03   0.01  -0.05
 116   6     0.04  -0.01   0.03     0.01   0.02  -0.00    -0.01   0.01  -0.02
 117   6     0.04  -0.01   0.06     0.00   0.01   0.01    -0.00   0.02  -0.03
 118   6     0.04  -0.01   0.07    -0.00   0.01   0.03     0.02   0.02   0.01
 119   1     0.02  -0.00   0.04    -0.00  -0.00   0.01     0.00   0.01  -0.01
 120   1     0.02  -0.00   0.03    -0.00  -0.01   0.00    -0.01   0.01  -0.03
 121   1     0.02  -0.00   0.02     0.00  -0.00  -0.01    -0.02   0.01  -0.04
 122   1     0.01  -0.00   0.01     0.01  -0.00  -0.02    -0.02   0.00  -0.04
 123   1     0.01  -0.00   0.01     0.00   0.01   0.00     0.00   0.00   0.00
 124   1     0.01  -0.00   0.02    -0.00   0.01   0.01     0.01   0.00   0.01
 125   6     0.04  -0.01   0.00     0.02   0.02  -0.04    -0.04  -0.00  -0.04
 126   6     0.04  -0.00  -0.00     0.03   0.03  -0.07    -0.04   0.01  -0.06
 127   6     0.04  -0.00  -0.02     0.03   0.04  -0.08    -0.05  -0.00  -0.05
 128   6     0.04  -0.00  -0.03     0.03   0.03  -0.06    -0.05  -0.02  -0.01
 129   7     0.04  -0.00  -0.03     0.02   0.03  -0.03    -0.05  -0.03   0.01
 130   6     0.04  -0.01  -0.01     0.02   0.02  -0.02    -0.04  -0.02  -0.00
 131   1     0.01  -0.00   0.00     0.01   0.01  -0.02    -0.01   0.01  -0.03
 132   1     0.01   0.00  -0.01     0.01   0.01  -0.03    -0.01   0.00  -0.02
 133   1     0.01   0.00  -0.01     0.01   0.01  -0.02    -0.02  -0.01  -0.00
 134   1     0.01  -0.00  -0.00     0.00   0.00   0.00    -0.01  -0.01   0.00
 135   6    -0.11  -0.00   0.01     0.01   0.05  -0.03    -0.01  -0.03   0.04
 136   6    -0.11  -0.00   0.01     0.05   0.05  -0.04    -0.05  -0.02   0.04
 137   6    -0.11  -0.00   0.01     0.09   0.05  -0.04    -0.08  -0.02   0.03
 138   6    -0.15  -0.01   0.03     0.15   0.07  -0.04    -0.15  -0.04   0.04
 139   6    -0.15  -0.01   0.03     0.18   0.07  -0.04    -0.18  -0.04   0.03
 140   6    -0.10  -0.00   0.01     0.15   0.05  -0.03    -0.14  -0.02   0.02
 141   6    -0.05   0.00  -0.00     0.09   0.03  -0.02    -0.07   0.00   0.01
 142   6    -0.01   0.01  -0.01     0.06   0.01  -0.01    -0.03   0.02  -0.00
 143   7     0.04   0.01  -0.03     0.01  -0.01  -0.01     0.03   0.04  -0.01
 144   6     0.04   0.01  -0.03    -0.01  -0.01  -0.02     0.05   0.04  -0.00
 145   6    -0.01   0.01  -0.02     0.01   0.01  -0.03     0.02   0.02   0.01
 146   6    -0.06   0.00  -0.00     0.06   0.03  -0.03    -0.04   0.00   0.02
 147   1    -0.06  -0.00   0.01     0.05   0.02  -0.02    -0.05  -0.02   0.01
 148   1    -0.05  -0.00   0.01     0.07   0.02  -0.01    -0.07  -0.01   0.01
 149   1    -0.03  -0.00   0.00     0.05   0.01  -0.01    -0.05  -0.00   0.00
 150   1    -0.00   0.00  -0.00     0.02   0.00  -0.00    -0.01   0.01  -0.00
 151   1     0.02   0.00  -0.01    -0.01  -0.01  -0.00     0.03   0.02  -0.00
 152   1    -0.00   0.00  -0.01    -0.00   0.00  -0.01     0.01   0.01   0.00
 153   6    -0.10  -0.00   0.01    -0.03   0.05  -0.01     0.03  -0.03   0.02
 154   6    -0.12  -0.01   0.02    -0.09   0.05   0.02     0.09  -0.03  -0.01
 155   6    -0.11  -0.01   0.02    -0.13   0.05   0.04     0.13  -0.03  -0.03
 156   6    -0.08  -0.01   0.02    -0.11   0.05   0.04     0.11  -0.03  -0.02
 157   6    -0.06  -0.01   0.01    -0.14   0.05   0.06     0.14  -0.03  -0.04
 158   6    -0.04  -0.01   0.01    -0.11   0.06   0.05     0.12  -0.03  -0.03
 159   6    -0.02  -0.00  -0.00    -0.06   0.06   0.03     0.06  -0.03  -0.00
 160   6    -0.03   0.00  -0.00    -0.04   0.06   0.01     0.03  -0.03   0.01
 161   6    -0.06  -0.00   0.01    -0.06   0.06   0.01     0.05  -0.03   0.01
 162   6    -0.07  -0.00   0.01    -0.02   0.06  -0.01     0.01  -0.03   0.03
 163   1    -0.04  -0.00   0.01    -0.03   0.01   0.01     0.03  -0.01  -0.00
 164   1    -0.04  -0.00   0.01    -0.05   0.01   0.02     0.05  -0.01  -0.01
 165   1    -0.02  -0.00   0.01    -0.05   0.01   0.02     0.05  -0.01  -0.02
 166   1    -0.01  -0.00   0.00    -0.04   0.02   0.02     0.04  -0.01  -0.01
 167   1    -0.01   0.00  -0.00     0.00   0.02  -0.00    -0.00  -0.01   0.01
 168   1    -0.02   0.00  -0.00     0.01   0.02  -0.01    -0.01  -0.01   0.01
 169   6     0.01   0.00  -0.01    -0.03   0.07   0.02     0.04  -0.03   0.01
 170   6     0.01   0.01  -0.02    -0.03   0.07  -0.00     0.05  -0.03   0.03
 171   6     0.04   0.02  -0.03     0.01   0.08  -0.01     0.02  -0.03   0.03
 172   6     0.05   0.01  -0.02     0.04   0.07  -0.01    -0.02  -0.04   0.03
 173   7     0.05   0.00  -0.02     0.03   0.06   0.01    -0.04  -0.04   0.01
 174   6     0.02  -0.00  -0.01    -0.00   0.06   0.02    -0.01  -0.04   0.00
 175   1     0.00   0.00  -0.01    -0.02   0.02  -0.00     0.03  -0.01   0.01
 176   1     0.01   0.01  -0.01     0.00   0.03  -0.01     0.01  -0.01   0.01
 177   1     0.02   0.00  -0.01     0.02   0.02  -0.00    -0.01  -0.01   0.01
 178   1     0.00  -0.00  -0.00    -0.00   0.02   0.01    -0.01  -0.01  -0.00
                      7                      8                      9
                        a                      a                      a 
 Frequencies --    15.3410                19.2899                21.1830
 Red. masses --    12.4293                23.7754                19.5041
 Frc consts  --     0.0000                 0.0000                 0.0000
 IR Inten    --     0.0495                 0.0291                 0.0926
 Raman Activ --     0.0000                 0.0000                 0.0000
 Depolar     --     0.0000                 0.0000                 0.0000
 Atom AN      X      Y      Z        X      Y      Z        X      Y      Z
   1  46    -0.01  -0.02  -0.07     0.08   0.24   0.08     0.04   0.06  -0.18
   2  46     0.00   0.01   0.09    -0.09  -0.21  -0.08    -0.06  -0.06   0.20
   3   6     0.01   0.02  -0.03    -0.10   0.08   0.02    -0.02   0.02  -0.06
   4   6     0.01   0.02  -0.05    -0.11   0.09   0.04    -0.02   0.02  -0.07
   5   6     0.01   0.02  -0.07    -0.09   0.08   0.06    -0.01   0.02  -0.07
   6   6     0.02   0.02  -0.12    -0.07   0.11   0.11     0.00   0.03  -0.12
   7   6     0.02   0.02  -0.14    -0.04   0.10   0.12     0.01   0.03  -0.11
   8   6     0.02   0.02  -0.11    -0.03   0.07   0.09     0.01   0.02  -0.05
   9   6     0.01   0.02  -0.06    -0.04   0.04   0.04    -0.01   0.01  -0.00
  10   6     0.01   0.02  -0.03    -0.03   0.00   0.01    -0.01   0.00   0.05
  11   7    -0.00   0.02   0.01    -0.05  -0.02  -0.03    -0.03  -0.01   0.09
  12   6    -0.01   0.02   0.02    -0.08  -0.01  -0.04    -0.04  -0.00   0.08
  13   6    -0.00   0.02  -0.00    -0.09   0.02  -0.01    -0.03   0.01   0.04
  14   6     0.01   0.02  -0.04    -0.08   0.05   0.03    -0.02   0.01  -0.01
  15   1     0.01   0.01  -0.04    -0.02   0.04   0.04     0.00   0.01  -0.05
  16   1     0.01   0.01  -0.05    -0.01   0.03   0.05     0.01   0.01  -0.04
  17   1     0.01   0.00  -0.03    -0.00   0.02   0.03     0.00   0.00  -0.01
  18   1     0.00   0.00  -0.01    -0.00  -0.00   0.00    -0.00  -0.00   0.02
  19   1    -0.00   0.00   0.02    -0.03  -0.01  -0.02    -0.01  -0.00   0.03
  20   1    -0.00   0.01   0.00    -0.03   0.01  -0.01    -0.01   0.00   0.01
  21   6     0.01   0.02  -0.00    -0.09   0.08   0.00    -0.02   0.03  -0.05
  22   6     0.01   0.03   0.03    -0.09   0.05  -0.03    -0.02   0.03  -0.04
  23   6     0.02   0.04   0.06    -0.06   0.04  -0.05    -0.01   0.03  -0.02
  24   6     0.01   0.03   0.05    -0.04   0.06  -0.04    -0.01   0.03  -0.01
  25   6     0.01   0.03   0.07    -0.02   0.05  -0.06     0.00   0.03   0.02
  26   6     0.01   0.03   0.06     0.00   0.07  -0.05     0.01   0.03   0.03
  27   6    -0.00   0.02   0.03     0.01   0.10  -0.02     0.00   0.03   0.02
  28   6    -0.00   0.02   0.01    -0.01   0.11   0.00    -0.00   0.03  -0.00
  29   6     0.00   0.02   0.02    -0.04   0.09  -0.01    -0.01   0.03  -0.01
  30   6     0.00   0.02  -0.01    -0.06   0.10   0.01    -0.02   0.03  -0.04
  31   1     0.01   0.01   0.01    -0.03   0.01  -0.01    -0.01   0.01  -0.02
  32   1     0.01   0.01   0.02    -0.02   0.00  -0.02    -0.00   0.01  -0.00
  33   1     0.00   0.01   0.03    -0.00   0.01  -0.02     0.00   0.01   0.01
  34   1     0.00   0.01   0.02     0.01   0.02  -0.02     0.00   0.01   0.01
  35   1    -0.00   0.00  -0.00    -0.00   0.04   0.01    -0.00   0.01  -0.00
  36   1    -0.00   0.00  -0.01    -0.02   0.04   0.01    -0.00   0.01  -0.01
  37   6    -0.01   0.02   0.02     0.02   0.12  -0.02     0.00   0.03   0.02
  38   6    -0.02   0.02   0.03     0.03   0.12  -0.04    -0.01   0.03   0.04
  39   6    -0.03   0.01   0.01     0.03   0.12  -0.03    -0.01   0.02   0.04
  40   6    -0.02   0.01  -0.01     0.02   0.12  -0.01    -0.00   0.03   0.01
  41   7    -0.01   0.01  -0.02     0.02   0.13   0.00     0.00   0.03  -0.01
  42   6    -0.00   0.01  -0.01     0.01   0.12  -0.01     0.01   0.03  -0.01
  43   1    -0.01   0.01   0.01     0.01   0.03  -0.02    -0.00   0.01   0.02
  44   1    -0.01   0.00   0.00     0.01   0.04  -0.01    -0.00   0.01   0.01
  45   1    -0.01   0.00  -0.01     0.01   0.04   0.00    -0.00   0.01   0.00
  46   1     0.00   0.00  -0.00     0.00   0.03   0.00     0.00   0.01  -0.01
  47   6    -0.01   0.04   0.00     0.05  -0.02  -0.05     0.02  -0.08  -0.04
  48   6     0.01   0.04   0.00     0.06  -0.01  -0.03     0.04  -0.09  -0.07
  49   6     0.02   0.03  -0.00     0.05  -0.01   0.00     0.05  -0.09  -0.06
  50   6     0.04   0.05  -0.00     0.03  -0.03   0.02     0.08  -0.09  -0.04
  51   6     0.06   0.04  -0.01     0.01  -0.02   0.04     0.09  -0.09  -0.02
  52   6     0.05   0.03  -0.01     0.01   0.01   0.05     0.06  -0.08  -0.02
  53   6     0.03   0.02  -0.01     0.03   0.03   0.04     0.03  -0.07  -0.05
  54   6     0.02   0.01  -0.02     0.03   0.06   0.04     0.02  -0.05  -0.05
  55   7    -0.00  -0.00  -0.02     0.06   0.09   0.03    -0.01  -0.05  -0.08
  56   6    -0.02  -0.00  -0.02     0.08   0.08   0.02    -0.02  -0.06  -0.10
  57   6    -0.01   0.01  -0.01     0.08   0.05   0.01    -0.01  -0.07  -0.10
  58   6     0.01   0.02  -0.01     0.06   0.03   0.01     0.02  -0.08  -0.07
  59   1     0.01   0.02   0.00     0.01  -0.02   0.00     0.03  -0.03  -0.01
  60   1     0.02   0.02  -0.00    -0.00  -0.01   0.01     0.03  -0.03  -0.00
  61   1     0.02   0.01  -0.00    -0.00   0.00   0.02     0.02  -0.02  -0.00
  62   1     0.01   0.00  -0.01     0.00   0.02   0.02     0.01  -0.01  -0.01
  63   1    -0.01  -0.00  -0.01     0.03   0.03   0.00    -0.01  -0.01  -0.03
  64   1    -0.01   0.00  -0.00     0.03   0.02  -0.00    -0.01  -0.02  -0.03
  65   6    -0.01   0.04   0.00     0.03  -0.01  -0.06    -0.00  -0.08  -0.02
  66   6    -0.02   0.04  -0.00     0.02  -0.00  -0.06    -0.02  -0.05  -0.02
  67   6    -0.03   0.04  -0.00    -0.00   0.00  -0.06    -0.03  -0.05   0.01
  68   6    -0.02   0.04   0.00    -0.01  -0.01  -0.06    -0.04  -0.07   0.02
  69   6    -0.02   0.04   0.01    -0.03  -0.00  -0.05    -0.06  -0.06   0.04
  70   6    -0.02   0.04   0.01    -0.03  -0.01  -0.05    -0.07  -0.08   0.05
  71   6    -0.01   0.03   0.02    -0.02  -0.02  -0.04    -0.06  -0.11   0.05
  72   6    -0.01   0.03   0.01    -0.00  -0.03  -0.05    -0.03  -0.11   0.04
  73   6    -0.02   0.04   0.01     0.00  -0.02  -0.05    -0.03  -0.09   0.02
  74   6    -0.01   0.04   0.01     0.03  -0.02  -0.05    -0.01  -0.10   0.00
  75   1    -0.01   0.01  -0.00     0.01   0.00  -0.02    -0.00  -0.01  -0.01
  76   1    -0.01   0.01  -0.00    -0.00   0.00  -0.02    -0.01  -0.01   0.00
  77   1    -0.01   0.01   0.00    -0.01   0.00  -0.02    -0.02  -0.01   0.01
  78   1    -0.00   0.01   0.00    -0.01  -0.00  -0.01    -0.02  -0.02   0.02
  79   1    -0.00   0.01   0.00     0.00  -0.01  -0.01    -0.01  -0.04   0.01
  80   1    -0.00   0.01   0.00     0.01  -0.01  -0.01     0.00  -0.04   0.00
  81   6     0.00   0.03   0.03    -0.02  -0.03  -0.03    -0.07  -0.11   0.05
  82   6     0.01   0.04   0.04    -0.03  -0.03  -0.02    -0.10  -0.12   0.04
  83   6     0.02   0.03   0.05    -0.03  -0.04  -0.01    -0.09  -0.11   0.03
  84   6     0.02   0.02   0.05    -0.03  -0.05  -0.02    -0.05  -0.09   0.04
  85   7     0.01   0.02   0.04    -0.03  -0.06  -0.03    -0.04  -0.09   0.06
  86   6     0.00   0.02   0.02    -0.02  -0.05  -0.04    -0.05  -0.09   0.06
  87   1     0.00   0.01   0.01    -0.01  -0.01  -0.01    -0.04  -0.04   0.01
  88   1     0.01   0.01   0.02    -0.01  -0.01  -0.00    -0.03  -0.04   0.01
  89   1     0.01   0.01   0.02    -0.01  -0.02  -0.00    -0.01  -0.02   0.01
  90   1    -0.00   0.00   0.00    -0.01  -0.01  -0.01    -0.01  -0.03   0.02
  91   6    -0.01  -0.04   0.05     0.08  -0.06   0.01     0.02  -0.02  -0.02
  92   6    -0.01  -0.04   0.11     0.08  -0.06   0.01     0.02  -0.02  -0.03
  93   6    -0.02  -0.04   0.16     0.06  -0.06  -0.01     0.02  -0.02  -0.03
  94   6    -0.03  -0.04   0.25     0.05  -0.08  -0.04     0.01  -0.02   0.01
  95   6    -0.04  -0.04   0.29     0.02  -0.07  -0.06    -0.00  -0.02   0.03
  96   6    -0.03  -0.03   0.23     0.01  -0.04  -0.04    -0.00  -0.01   0.00
  97   6    -0.02  -0.03   0.14     0.03  -0.02  -0.01     0.01  -0.01  -0.04
  98   6    -0.01  -0.02   0.07     0.02   0.01   0.01     0.01  -0.00  -0.06
  99   7    -0.00  -0.02  -0.01     0.04   0.03   0.05     0.02   0.00  -0.11
 100   6     0.00  -0.02  -0.03     0.06   0.02   0.06     0.03   0.00  -0.14
 101   6     0.00  -0.03   0.02     0.07  -0.00   0.05     0.03  -0.01  -0.12
 102   6    -0.01  -0.03   0.10     0.05  -0.03   0.01     0.02  -0.01  -0.06
 103   1    -0.01  -0.01   0.09     0.02  -0.03  -0.02     0.00  -0.01   0.01
 104   1    -0.01  -0.01   0.10     0.00  -0.02  -0.03    -0.00  -0.01   0.02
 105   1    -0.01  -0.01   0.07    -0.00  -0.01  -0.02    -0.00  -0.00   0.01
 106   1    -0.01  -0.01   0.02    -0.00   0.01  -0.00     0.00   0.00  -0.01
 107   1     0.00  -0.01  -0.03     0.02   0.01   0.03     0.01   0.00  -0.05
 108   1     0.00  -0.01  -0.00     0.03  -0.00   0.02     0.01  -0.00  -0.04
 109   6    -0.01  -0.04  -0.02     0.07  -0.06   0.02     0.01  -0.02  -0.00
 110   6    -0.04  -0.06  -0.11     0.06  -0.04   0.03     0.01  -0.01   0.00
 111   6    -0.05  -0.06  -0.18     0.04  -0.03   0.03     0.01  -0.00   0.02
 112   6    -0.04  -0.05  -0.16     0.02  -0.05   0.02     0.00  -0.01   0.03
 113   6    -0.05  -0.06  -0.22     0.00  -0.05   0.02    -0.00  -0.01   0.04
 114   6    -0.03  -0.05  -0.19    -0.01  -0.06   0.01    -0.01  -0.02   0.05
 115   6    -0.01  -0.04  -0.10    -0.01  -0.08  -0.01    -0.01  -0.03   0.04
 116   6     0.00  -0.03  -0.04     0.01  -0.08  -0.01    -0.00  -0.03   0.03
 117   6    -0.01  -0.04  -0.07     0.03  -0.07   0.00     0.00  -0.02   0.02
 118   6    -0.00  -0.03   0.00     0.05  -0.07   0.00     0.01  -0.03   0.01
 119   1    -0.01  -0.02  -0.04     0.02  -0.01   0.01     0.01  -0.00  -0.00
 120   1    -0.02  -0.02  -0.07     0.01  -0.01   0.01     0.00   0.00   0.01
 121   1    -0.02  -0.02  -0.09     0.00  -0.01   0.01    -0.00  -0.00   0.01
 122   1    -0.01  -0.02  -0.07    -0.01  -0.02   0.00    -0.00  -0.00   0.02
 123   1     0.01  -0.00   0.01     0.00  -0.03  -0.01    -0.00  -0.01   0.01
 124   1     0.01  -0.01   0.02     0.01  -0.03  -0.00     0.00  -0.01   0.00
 125   6     0.01  -0.03  -0.07    -0.02  -0.09  -0.01    -0.01  -0.03   0.05
 126   6     0.04  -0.03  -0.10    -0.03  -0.09   0.00    -0.01  -0.03   0.05
 127   6     0.05  -0.02  -0.06    -0.04  -0.10   0.00    -0.01  -0.03   0.04
 128   6     0.03  -0.02   0.01    -0.03  -0.10  -0.01    -0.01  -0.03   0.04
 129   7     0.01  -0.02   0.03    -0.03  -0.11  -0.02    -0.01  -0.03   0.05
 130   6    -0.01  -0.03  -0.00    -0.02  -0.10  -0.02    -0.01  -0.03   0.05
 131   1     0.02  -0.01  -0.04    -0.01  -0.03   0.00    -0.00  -0.01   0.02
 132   1     0.02  -0.01  -0.02    -0.01  -0.03   0.00    -0.00  -0.01   0.01
 133   1     0.01  -0.00   0.01    -0.01  -0.03  -0.00    -0.00  -0.01   0.01
 134   1    -0.01  -0.01   0.01    -0.00  -0.03  -0.01    -0.00  -0.01   0.02
 135   6     0.07  -0.02  -0.03     0.04  -0.02   0.06     0.02   0.08  -0.01
 136   6     0.10  -0.02  -0.04     0.06  -0.02   0.05     0.01   0.08  -0.04
 137   6     0.11  -0.01  -0.05     0.07  -0.01   0.03     0.00   0.09  -0.05
 138   6     0.16  -0.01  -0.06     0.09  -0.03   0.00    -0.03   0.08  -0.04
 139   6     0.16  -0.01  -0.07     0.09  -0.02  -0.02    -0.05   0.08  -0.03
 140   6     0.12  -0.01  -0.06     0.07   0.00  -0.02    -0.04   0.08  -0.04
 141   6     0.08  -0.01  -0.04     0.05   0.02   0.00    -0.00   0.08  -0.05
 142   6     0.04  -0.01  -0.03     0.03   0.04   0.00     0.01   0.08  -0.05
 143   7     0.01  -0.01  -0.02     0.02   0.06   0.03     0.04   0.09  -0.07
 144   6     0.02  -0.01  -0.02     0.02   0.05   0.05     0.07   0.09  -0.08
 145   6     0.05  -0.01  -0.03     0.04   0.02   0.05     0.07   0.09  -0.07
 146   6     0.08  -0.01  -0.04     0.05   0.01   0.03     0.02   0.09  -0.06
 147   1     0.05  -0.00  -0.02     0.03  -0.01   0.00    -0.01   0.02  -0.01
 148   1     0.06  -0.00  -0.02     0.03  -0.01  -0.01    -0.02   0.02  -0.01
 149   1     0.04  -0.00  -0.02     0.02   0.00  -0.01    -0.02   0.02  -0.01
 150   1     0.01  -0.00  -0.01     0.01   0.01  -0.00    -0.00   0.02  -0.01
 151   1    -0.00  -0.00  -0.00     0.00   0.02   0.02     0.03   0.03  -0.03
 152   1     0.02  -0.00  -0.01     0.01   0.00   0.02     0.03   0.03  -0.02
 153   6     0.02  -0.02  -0.01     0.02  -0.02   0.05     0.03   0.07   0.02
 154   6    -0.02  -0.01   0.01     0.00   0.00   0.05     0.04   0.05   0.02
 155   6    -0.07  -0.01   0.03    -0.02   0.01   0.04     0.04   0.05   0.04
 156   6    -0.08  -0.01   0.04    -0.03  -0.01   0.02     0.03   0.06   0.06
 157   6    -0.13  -0.01   0.06    -0.06  -0.00   0.01     0.03   0.06   0.07
 158   6    -0.12  -0.01   0.06    -0.06  -0.02  -0.00     0.03   0.07   0.09
 159   6    -0.07  -0.01   0.03    -0.05  -0.04  -0.01     0.03   0.09   0.08
 160   6    -0.03  -0.01   0.01    -0.02  -0.05   0.01     0.02   0.09   0.07
 161   6    -0.03  -0.01   0.01    -0.01  -0.03   0.02     0.02   0.08   0.06
 162   6     0.02  -0.02  -0.01     0.01  -0.03   0.04     0.02   0.09   0.04
 163   1    -0.01  -0.00   0.00     0.00   0.00   0.02     0.01   0.01   0.00
 164   1    -0.03  -0.00   0.01    -0.01   0.01   0.01     0.01   0.01   0.01
 165   1    -0.05  -0.00   0.02    -0.02   0.00   0.00     0.01   0.01   0.02
 166   1    -0.05  -0.00   0.02    -0.02  -0.00  -0.00     0.01   0.02   0.03
 167   1     0.00  -0.01  -0.00    -0.00  -0.02   0.00     0.00   0.03   0.02
 168   1     0.02  -0.00  -0.01     0.01  -0.02   0.01     0.00   0.03   0.01
 169   6    -0.07  -0.01   0.03    -0.05  -0.06  -0.02     0.03   0.09   0.08
 170   6    -0.10  -0.03   0.02    -0.07  -0.06  -0.03     0.06   0.11   0.07
 171   6    -0.08  -0.02   0.01    -0.06  -0.07  -0.04     0.05   0.10   0.06
 172   6    -0.04  -0.01   0.02    -0.05  -0.07  -0.04     0.02   0.06   0.06
 173   7    -0.02  -0.00   0.03    -0.04  -0.08  -0.03    -0.00   0.05   0.08
 174   6    -0.03  -0.00   0.03    -0.04  -0.07  -0.02     0.01   0.06   0.08
 175   1    -0.04  -0.01   0.00    -0.02  -0.02  -0.01     0.02   0.04   0.02
 176   1    -0.03  -0.01   0.00    -0.02  -0.02  -0.01     0.02   0.03   0.01
 177   1    -0.01  -0.00   0.00    -0.01  -0.02  -0.01     0.00   0.01   0.01
 178   1    -0.00   0.00   0.01    -0.01  -0.02  -0.00    -0.00   0.01   0.03
                     10                     11                     12
                        a                      a                      a 
 Frequencies --    23.9804                26.1561                27.6541
 Red. masses --    18.0989                11.8030                21.2461
 Frc consts  --     0.0000                 0.0000                 0.0000
 IR Inten    --     0.0610                 0.0412                 0.0473
 Raman Activ --     0.0000                 0.0000                 0.0000
 Depolar     --     0.0000                 0.0000                 0.0000
 Atom AN      X      Y      Z        X      Y      Z        X      Y      Z
   1  46     0.10  -0.17   0.02     0.04  -0.03  -0.02     0.12  -0.22   0.02
   2  46    -0.12   0.13  -0.04    -0.05   0.05   0.01    -0.04   0.19   0.01
   3   6     0.02  -0.01   0.03     0.01   0.00  -0.12     0.04   0.11  -0.01
   4   6    -0.01  -0.00   0.03     0.00   0.01  -0.12    -0.01   0.13  -0.02
   5   6    -0.03   0.00   0.03    -0.01   0.01  -0.09    -0.02   0.13  -0.01
   6   6    -0.05  -0.02   0.04    -0.01   0.00  -0.11    -0.02   0.13   0.00
   7   6    -0.07  -0.01   0.03    -0.02   0.01  -0.06    -0.01   0.13   0.02
   8   6    -0.08   0.01   0.01    -0.03   0.01   0.00    -0.01   0.12   0.02
   9   6    -0.06   0.03  -0.01    -0.03   0.02   0.01    -0.01   0.12   0.01
  10   6    -0.06   0.05  -0.02    -0.04   0.03   0.07    -0.01   0.11   0.01
  11   7    -0.05   0.07  -0.03    -0.04   0.03   0.06    -0.02   0.10  -0.00
  12   6    -0.03   0.06  -0.02    -0.02   0.03   0.01    -0.03   0.10  -0.02
  13   6    -0.02   0.04  -0.01    -0.01   0.02  -0.04    -0.03   0.11  -0.02
  14   6    -0.04   0.03   0.00    -0.02   0.02  -0.04    -0.02   0.12  -0.01
  15   1    -0.01  -0.01   0.02     0.00  -0.00  -0.04    -0.01   0.04   0.00
  16   1    -0.03  -0.01   0.01    -0.01   0.00  -0.02    -0.00   0.04   0.01
  17   1    -0.03   0.00  -0.00    -0.01   0.01   0.01    -0.00   0.04   0.01
  18   1    -0.02   0.02  -0.01    -0.01   0.01   0.03    -0.00   0.03   0.01
  19   1    -0.00   0.02  -0.01    -0.01   0.01   0.00    -0.01   0.03  -0.01
  20   1    -0.00   0.01   0.00    -0.00   0.01  -0.02    -0.01   0.03  -0.01
  21   6     0.03  -0.02   0.03     0.01   0.00  -0.09     0.06   0.11   0.00
  22   6     0.03  -0.02   0.01     0.02   0.02  -0.03     0.06   0.10   0.00
  23   6     0.03  -0.02   0.00     0.03   0.03   0.03     0.07   0.10   0.01
  24   6     0.03  -0.02  -0.00     0.02   0.02   0.04     0.07   0.11   0.02
  25   6     0.03  -0.02  -0.02     0.03   0.03   0.11     0.07   0.11   0.01
  26   6     0.03  -0.02  -0.03     0.02   0.02   0.11     0.06   0.11   0.00
  27   6     0.04  -0.02  -0.02     0.01   0.01   0.05     0.06   0.10   0.00
  28   6     0.04  -0.01   0.01    -0.00  -0.01  -0.02     0.07   0.10   0.02
  29   6     0.04  -0.01   0.01     0.01   0.00  -0.03     0.08   0.11   0.02
  30   6     0.04  -0.01   0.03     0.00  -0.00  -0.09     0.07   0.11   0.02
  31   1     0.01  -0.01   0.00     0.01   0.01  -0.01     0.02   0.03  -0.00
  32   1     0.01  -0.01  -0.00     0.01   0.01   0.02     0.02   0.03   0.00
  33   1     0.01  -0.01  -0.01     0.01   0.01   0.04     0.02   0.03   0.00
  34   1     0.01  -0.01  -0.01     0.01   0.01   0.05     0.02   0.03  -0.00
  35   1     0.01  -0.00   0.01    -0.00  -0.01  -0.02     0.02   0.03   0.01
  36   1     0.01  -0.00   0.01    -0.00  -0.01  -0.04     0.02   0.03   0.01
  37   6     0.03  -0.02  -0.02     0.00  -0.00   0.06     0.04   0.08  -0.02
  38   6     0.03  -0.01  -0.05    -0.01  -0.02   0.13     0.00   0.10  -0.06
  39   6     0.03  -0.01  -0.05    -0.02  -0.03   0.14    -0.03   0.07  -0.08
  40   6     0.03  -0.02  -0.03    -0.01  -0.01   0.08    -0.02   0.01  -0.04
  41   7     0.03  -0.03  -0.00     0.01   0.00   0.01     0.02  -0.01  -0.01
  42   6     0.03  -0.03  -0.00     0.01   0.01  -0.01     0.05   0.03  -0.00
  43   1     0.01   0.00  -0.02    -0.01  -0.01   0.05    -0.00   0.04  -0.02
  44   1     0.01  -0.00  -0.02    -0.01  -0.01   0.06    -0.02   0.02  -0.03
  45   1     0.01  -0.01  -0.01    -0.00  -0.00   0.02    -0.01  -0.01  -0.01
  46   1     0.01  -0.01   0.01     0.01   0.01  -0.02     0.02   0.00   0.01
  47   6    -0.02   0.06   0.04     0.09   0.03   0.03    -0.03  -0.07   0.05
  48   6    -0.03   0.06   0.04     0.07   0.04   0.02    -0.02  -0.08   0.00
  49   6    -0.02   0.06   0.01     0.02   0.03   0.00    -0.02  -0.08  -0.01
  50   6    -0.03   0.08  -0.02    -0.04   0.03  -0.02    -0.03  -0.08  -0.02
  51   6    -0.02   0.07  -0.05    -0.10   0.02  -0.05    -0.03  -0.08  -0.02
  52   6    -0.00   0.04  -0.05    -0.10   0.01  -0.05    -0.01  -0.08  -0.01
  53   6     0.01   0.02  -0.02    -0.04   0.02  -0.02     0.01  -0.08  -0.00
  54   6     0.03  -0.02  -0.02    -0.04   0.01  -0.03     0.03  -0.08   0.00
  55   7     0.04  -0.04   0.00     0.01   0.02  -0.00     0.05  -0.09   0.01
  56   6     0.02  -0.03   0.03     0.07   0.04   0.03     0.03  -0.08   0.01
  57   6     0.01   0.00   0.04     0.08   0.04   0.03     0.01  -0.08   0.00
  58   6    -0.00   0.03   0.01     0.02   0.03   0.00    -0.00  -0.08  -0.00
  59   1    -0.01   0.03  -0.00    -0.01   0.01  -0.01    -0.01  -0.02  -0.01
  60   1    -0.01   0.02  -0.02    -0.04   0.00  -0.02    -0.01  -0.02  -0.01
  61   1     0.00   0.01  -0.02    -0.04   0.00  -0.02    -0.00  -0.02  -0.00
  62   1     0.01  -0.01  -0.01    -0.03   0.00  -0.01     0.01  -0.02   0.00
  63   1     0.01  -0.01   0.02     0.03   0.01   0.01     0.01  -0.02   0.00
  64   1     0.00   0.00   0.02     0.04   0.02   0.02     0.00  -0.02   0.00
  65   6    -0.02   0.06   0.03     0.09   0.04   0.04    -0.03  -0.07   0.06
  66   6     0.00   0.05   0.04     0.12   0.05   0.06    -0.01  -0.07   0.06
  67   6     0.02   0.04   0.03     0.09   0.05   0.06    -0.01  -0.08   0.06
  68   6     0.01   0.05   0.02     0.04   0.05   0.04    -0.01  -0.07   0.06
  69   6     0.03   0.05   0.02    -0.01   0.06   0.03    -0.01  -0.07   0.05
  70   6     0.03   0.06   0.01    -0.06   0.05   0.01    -0.02  -0.07   0.04
  71   6     0.01   0.07  -0.00    -0.06   0.03   0.00    -0.03  -0.06   0.04
  72   6    -0.01   0.08  -0.00    -0.02   0.03   0.01    -0.03  -0.06   0.05
  73   6    -0.01   0.07   0.01     0.03   0.03   0.02    -0.02  -0.07   0.06
  74   6    -0.02   0.07   0.02     0.05   0.03   0.02    -0.03  -0.07   0.06
  75   1     0.00   0.01   0.01     0.05   0.01   0.02    -0.00  -0.02   0.02
  76   1     0.01   0.01   0.01     0.03   0.02   0.02    -0.00  -0.02   0.02
  77   1     0.01   0.01   0.01     0.00   0.02   0.01    -0.00  -0.02   0.02
  78   1     0.01   0.02   0.00    -0.03   0.02   0.00    -0.01  -0.02   0.01
  79   1    -0.01   0.03  -0.00    -0.01   0.00  -0.00    -0.01  -0.02   0.01
  80   1    -0.01   0.02   0.00     0.01   0.01   0.00    -0.01  -0.02   0.01
  81   6     0.02   0.08  -0.00    -0.10   0.02  -0.01    -0.04  -0.04   0.01
  82   6     0.05   0.09   0.01    -0.16   0.00  -0.01    -0.06  -0.06  -0.03
  83   6     0.05   0.08   0.01    -0.19  -0.00  -0.02    -0.05  -0.03  -0.05
  84   6     0.01   0.07   0.01    -0.15   0.01  -0.01    -0.03   0.02  -0.04
  85   7    -0.01   0.06  -0.00    -0.11   0.02  -0.01    -0.02   0.03  -0.00
  86   6    -0.01   0.06  -0.01    -0.07   0.03  -0.01    -0.03   0.00   0.02
  87   1     0.02   0.03   0.00    -0.05  -0.00  -0.00    -0.02  -0.03  -0.01
  88   1     0.02   0.03   0.01    -0.07  -0.01  -0.01    -0.02  -0.01  -0.02
  89   1     0.00   0.02   0.00    -0.05   0.00  -0.00    -0.00   0.01  -0.02
  90   1    -0.01   0.02  -0.00    -0.01   0.01  -0.00    -0.01   0.00   0.01
  91   6    -0.00  -0.12  -0.01    -0.01  -0.04   0.11    -0.04   0.04  -0.01
  92   6     0.05  -0.13  -0.01     0.01  -0.04   0.08    -0.01   0.03  -0.01
  93   6     0.05  -0.13  -0.01     0.02  -0.04   0.02     0.02   0.02  -0.00
  94   6     0.05  -0.13  -0.02     0.02  -0.05  -0.06     0.05   0.05  -0.00
  95   6     0.03  -0.13  -0.02     0.03  -0.04  -0.14     0.08   0.04   0.01
  96   6     0.03  -0.12  -0.01     0.03  -0.04  -0.15     0.09   0.00   0.01
  97   6     0.04  -0.12  -0.01     0.02  -0.04  -0.07     0.06  -0.03   0.01
  98   6     0.03  -0.10   0.00     0.02  -0.03  -0.07     0.07  -0.06   0.02
  99   7     0.05  -0.10   0.01     0.02  -0.03   0.00     0.05  -0.10   0.02
 100   6     0.06  -0.10   0.00     0.01  -0.03   0.08     0.01  -0.08   0.01
 101   6     0.06  -0.11  -0.00     0.01  -0.03   0.10     0.00  -0.04   0.00
 102   6     0.05  -0.12  -0.01     0.02  -0.04   0.02     0.03  -0.02   0.00
 103   1     0.01  -0.04  -0.01     0.01  -0.01  -0.02     0.01   0.02  -0.00
 104   1     0.01  -0.04  -0.01     0.01  -0.01  -0.06     0.03   0.02   0.00
 105   1     0.01  -0.04  -0.00     0.01  -0.01  -0.06     0.04  -0.00   0.01
 106   1     0.01  -0.03   0.00     0.01  -0.01  -0.04     0.03  -0.02   0.01
 107   1     0.02  -0.03   0.00     0.00  -0.01   0.04    -0.00  -0.03   0.00
 108   1     0.02  -0.03  -0.00     0.00  -0.01   0.05    -0.01  -0.01  -0.00
 109   6    -0.03  -0.11  -0.02    -0.01  -0.04   0.11    -0.04   0.04  -0.01
 110   6    -0.03  -0.10  -0.01     0.00  -0.05   0.14    -0.04   0.04  -0.02
 111   6    -0.05  -0.09  -0.01     0.01  -0.05   0.10    -0.04   0.04  -0.02
 112   6    -0.06  -0.10  -0.01     0.00  -0.05   0.05    -0.03   0.04  -0.00
 113   6    -0.06  -0.10   0.01     0.00  -0.05  -0.01    -0.03   0.04   0.00
 114   6    -0.07  -0.11   0.02    -0.00  -0.05  -0.06    -0.02   0.04   0.01
 115   6    -0.06  -0.12   0.02    -0.01  -0.03  -0.06    -0.02   0.04   0.01
 116   6    -0.06  -0.12  -0.00    -0.01  -0.02  -0.01    -0.03   0.04   0.01
 117   6    -0.06  -0.12  -0.01    -0.01  -0.03   0.04    -0.03   0.04  -0.00
 118   6    -0.04  -0.12  -0.02    -0.01  -0.03   0.07    -0.04   0.04  -0.01
 119   1    -0.01  -0.03  -0.00     0.00  -0.02   0.05    -0.01   0.01  -0.01
 120   1    -0.01  -0.02  -0.00     0.00  -0.02   0.03    -0.01   0.01  -0.01
 121   1    -0.02  -0.03   0.00     0.00  -0.02  -0.00    -0.01   0.01   0.00
 122   1    -0.02  -0.03   0.01    -0.00  -0.02  -0.03    -0.01   0.01   0.01
 123   1    -0.02  -0.04  -0.00    -0.00  -0.00  -0.00    -0.01   0.01   0.00
 124   1    -0.01  -0.04  -0.01    -0.00  -0.01   0.02    -0.01   0.01  -0.00
 125   6    -0.05  -0.11   0.05    -0.00  -0.02  -0.10    -0.02   0.05   0.02
 126   6    -0.02  -0.14   0.10     0.02   0.01  -0.17    -0.02   0.05   0.02
 127   6     0.01  -0.11   0.12     0.03   0.02  -0.20    -0.02   0.05   0.02
 128   6     0.00  -0.06   0.07     0.02   0.02  -0.15    -0.02   0.05   0.01
 129   7    -0.03  -0.04   0.02     0.00  -0.00  -0.09    -0.02   0.06   0.01
 130   6    -0.05  -0.06   0.01    -0.01  -0.02  -0.06    -0.02   0.05   0.01
 131   1    -0.01  -0.05   0.04     0.01   0.00  -0.06    -0.01   0.01   0.01
 132   1     0.01  -0.04   0.05     0.01   0.01  -0.07    -0.00   0.01   0.01
 133   1     0.01  -0.01   0.02     0.01   0.01  -0.05    -0.00   0.01   0.00
 134   1    -0.02  -0.01  -0.01    -0.01  -0.01   0.00    -0.00   0.02   0.00
 135   6     0.00   0.09  -0.04    -0.09  -0.02   0.00    -0.01  -0.06  -0.05
 136   6    -0.01   0.09  -0.03    -0.06  -0.02   0.00    -0.00  -0.06  -0.01
 137   6    -0.02   0.08  -0.00    -0.02  -0.02  -0.00    -0.00  -0.07   0.01
 138   6    -0.04   0.10   0.03     0.02  -0.01  -0.01    -0.01  -0.07   0.02
 139   6    -0.05   0.08   0.07     0.08  -0.01  -0.01    -0.01  -0.07   0.02
 140   6    -0.04   0.05   0.08     0.09  -0.01  -0.01    -0.00  -0.07   0.02
 141   6    -0.01   0.03   0.04     0.05  -0.02  -0.01     0.01  -0.08   0.01
 142   6     0.01  -0.01   0.04     0.05  -0.03  -0.01     0.02  -0.08   0.01
 143   7     0.03  -0.03   0.01     0.01  -0.04  -0.00     0.03  -0.09   0.01
 144   6     0.03  -0.01  -0.03    -0.04  -0.05   0.00     0.02  -0.08   0.00
 145   6     0.02   0.02  -0.03    -0.05  -0.04   0.01     0.01  -0.08   0.00
 146   6    -0.00   0.04   0.00    -0.01  -0.03  -0.00     0.01  -0.08   0.01
 147   1    -0.02   0.04   0.01     0.01  -0.00  -0.00    -0.01  -0.02   0.01
 148   1    -0.02   0.03   0.03     0.03   0.00  -0.01    -0.01  -0.02   0.01
 149   1    -0.01   0.01   0.03     0.04  -0.00  -0.01     0.00  -0.02   0.01
 150   1     0.00  -0.01   0.02     0.03  -0.01  -0.00     0.01  -0.02   0.00
 151   1     0.01  -0.01  -0.01    -0.02  -0.02   0.00     0.01  -0.02  -0.00
 152   1     0.01   0.01  -0.02    -0.03  -0.01   0.00     0.00  -0.02  -0.00
 153   6     0.02   0.09  -0.04    -0.09  -0.02   0.01    -0.01  -0.05  -0.06
 154   6     0.06   0.08  -0.06    -0.10  -0.03   0.02     0.01  -0.05  -0.07
 155   6     0.08   0.08  -0.06    -0.08  -0.04   0.03     0.01  -0.05  -0.07
 156   6     0.05   0.08  -0.04    -0.04  -0.03   0.02    -0.01  -0.05  -0.06
 157   6     0.06   0.08  -0.05     0.00  -0.03   0.02    -0.01  -0.05  -0.06
 158   6     0.03   0.09  -0.03     0.05  -0.02   0.02    -0.03  -0.05  -0.05
 159   6    -0.01   0.09  -0.01     0.04  -0.00   0.01    -0.04  -0.05  -0.05
 160   6    -0.02   0.09  -0.01     0.00   0.00   0.01    -0.03  -0.05  -0.05
 161   6     0.00   0.09  -0.03    -0.03  -0.01   0.01    -0.02  -0.05  -0.06
 162   6    -0.01   0.09  -0.02    -0.06  -0.01   0.01    -0.02  -0.05  -0.06
 163   1     0.03   0.02  -0.02    -0.04  -0.01   0.01     0.01  -0.02  -0.02
 164   1     0.03   0.02  -0.02    -0.02  -0.01   0.01     0.01  -0.01  -0.02
 165   1     0.02   0.02  -0.02     0.00  -0.01   0.01     0.00  -0.02  -0.02
 166   1     0.01   0.02  -0.01     0.02  -0.01   0.01    -0.01  -0.02  -0.01
 167   1    -0.02   0.03   0.00    -0.00   0.00   0.00    -0.01  -0.01  -0.01
 168   1    -0.01   0.03  -0.00    -0.02   0.00   0.00    -0.01  -0.02  -0.02
 169   6    -0.02   0.09  -0.01     0.07   0.02   0.02    -0.05  -0.04  -0.03
 170   6     0.00   0.10  -0.01     0.13   0.04   0.02    -0.07  -0.06   0.00
 171   6    -0.01   0.09  -0.02     0.15   0.06   0.03    -0.06  -0.03   0.03
 172   6    -0.04   0.07  -0.02     0.11   0.04   0.03    -0.03   0.02   0.03
 173   7    -0.06   0.06  -0.02     0.07   0.02   0.02    -0.02   0.04  -0.00
 174   6    -0.05   0.06  -0.01     0.04   0.01   0.01    -0.03   0.01  -0.03
 175   1     0.01   0.03  -0.00     0.04   0.01   0.01    -0.03  -0.03   0.00
 176   1     0.00   0.03  -0.01     0.06   0.02   0.01    -0.02  -0.01   0.02
 177   1    -0.02   0.02  -0.01     0.04   0.01   0.01    -0.01   0.01   0.01
 178   1    -0.02   0.02  -0.00     0.00  -0.00   0.00    -0.01   0.01  -0.01
                     13                     14                     15
                        a                      a                      a 
 Frequencies --    29.7556                36.1006                37.1334
 Red. masses --    12.1253                11.7606                12.4925
 Frc consts  --     0.0000                 0.0000                 0.0000
 IR Inten    --     0.1446                 0.0840                 0.1162
 Raman Activ --     0.0000                 0.0000                 0.0000
 Depolar     --     0.0000                 0.0000                 0.0000
 Atom AN      X      Y      Z        X      Y      Z        X      Y      Z
   1  46    -0.02   0.02   0.06    -0.02   0.07  -0.01    -0.03   0.04   0.01
   2  46    -0.02  -0.03   0.08     0.06   0.02   0.03     0.09   0.08  -0.02
   3   6    -0.02  -0.00   0.13     0.04  -0.02  -0.10     0.02  -0.02   0.07
   4   6    -0.01  -0.00   0.07     0.04  -0.02  -0.08     0.04  -0.02   0.05
   5   6    -0.00  -0.01  -0.01     0.03  -0.01  -0.02     0.04  -0.02   0.02
   6   6     0.02  -0.01  -0.13     0.02  -0.01   0.08     0.04  -0.03  -0.04
   7   6     0.04  -0.02  -0.23    -0.00  -0.01   0.16     0.03  -0.03  -0.09
   8   6     0.04  -0.02  -0.21    -0.00  -0.01   0.15     0.03  -0.02  -0.08
   9   6     0.02  -0.02  -0.09     0.02  -0.01   0.05     0.03  -0.01  -0.03
  10   6     0.01  -0.02  -0.06     0.02  -0.00   0.04     0.02   0.00  -0.02
  11   7    -0.01  -0.02   0.04     0.03  -0.00  -0.04     0.03   0.02   0.01
  12   6    -0.02  -0.01   0.12     0.05  -0.01  -0.12     0.03   0.02   0.06
  13   6    -0.02  -0.01   0.12     0.05  -0.01  -0.12     0.04   0.00   0.06
  14   6    -0.00  -0.01   0.01     0.04  -0.01  -0.04     0.03  -0.01   0.02
  15   1     0.01  -0.00  -0.04     0.00  -0.00   0.03     0.01  -0.01  -0.01
  16   1     0.02  -0.01  -0.10    -0.00  -0.00   0.07     0.01  -0.01  -0.04
  17   1     0.01  -0.01  -0.08    -0.00  -0.00   0.06     0.01  -0.01  -0.03
  18   1     0.01  -0.01  -0.04     0.00  -0.00   0.03     0.00   0.00  -0.02
  19   1    -0.01  -0.00   0.06     0.02  -0.00  -0.05     0.01   0.01   0.02
  20   1    -0.01  -0.00   0.06     0.02  -0.00  -0.05     0.01   0.00   0.03
  21   6    -0.01  -0.00   0.14     0.03  -0.02  -0.09     0.02  -0.01   0.06
  22   6     0.01  -0.02   0.20     0.06   0.01   0.04     0.01  -0.02   0.03
  23   6     0.03  -0.03   0.17     0.06   0.02   0.10    -0.00  -0.02  -0.01
  24   6     0.02  -0.02   0.08     0.03   0.00   0.04    -0.00  -0.02  -0.01
  25   6     0.03  -0.03   0.01     0.04   0.01   0.13    -0.01  -0.03  -0.06
  26   6     0.02  -0.02  -0.08     0.03   0.00   0.09    -0.02  -0.03  -0.06
  27   6     0.01   0.00  -0.10    -0.00  -0.02  -0.03    -0.00  -0.02  -0.02
  28   6    -0.00   0.01  -0.05    -0.02  -0.04  -0.14     0.01  -0.01   0.02
  29   6     0.00   0.00   0.03    -0.00  -0.02  -0.10     0.01  -0.02   0.03
  30   6    -0.01   0.01   0.07    -0.00  -0.03  -0.17     0.02  -0.01   0.07
  31   1     0.01  -0.01   0.08     0.02   0.01   0.03     0.00  -0.01   0.01
  32   1     0.01  -0.01   0.06     0.02   0.01   0.06    -0.00  -0.01  -0.01
  33   1     0.01  -0.01   0.01     0.02   0.01   0.07    -0.01  -0.01  -0.03
  34   1     0.01  -0.01  -0.04     0.01   0.00   0.05    -0.01  -0.01  -0.03
  35   1    -0.00   0.01  -0.02    -0.02  -0.02  -0.07     0.00  -0.00   0.02
  36   1    -0.01   0.01   0.01    -0.01  -0.02  -0.08     0.01  -0.00   0.03
  37   6     0.01   0.01  -0.16    -0.01  -0.02  -0.02    -0.00  -0.02  -0.02
  38   6     0.03   0.04  -0.26    -0.01  -0.06   0.09     0.01  -0.01  -0.06
  39   6     0.04   0.05  -0.29    -0.00  -0.05   0.12     0.02   0.00  -0.06
  40   6     0.02   0.03  -0.20     0.00  -0.02   0.04     0.01  -0.00  -0.03
  41   7     0.01   0.01  -0.12     0.01   0.01  -0.06    -0.00  -0.01   0.01
  42   6     0.00   0.00  -0.10     0.00   0.01  -0.10    -0.01  -0.02   0.02
  43   1     0.01   0.02  -0.09    -0.01  -0.02   0.04     0.01  -0.00  -0.03
  44   1     0.02   0.02  -0.11    -0.00  -0.02   0.06     0.01   0.00  -0.03
  45   1     0.01   0.01  -0.06     0.00  -0.00   0.02     0.00   0.00  -0.01
  46   1    -0.01  -0.00  -0.01     0.00   0.01  -0.06    -0.01  -0.01   0.02
  47   6    -0.01  -0.02  -0.03     0.11  -0.03  -0.02     0.15   0.01   0.06
  48   6     0.00  -0.02  -0.03     0.09  -0.03  -0.03     0.09   0.01   0.04
  49   6    -0.00  -0.02  -0.02     0.04  -0.02  -0.03     0.01   0.00   0.01
  50   6    -0.05  -0.04  -0.03    -0.05  -0.05  -0.05    -0.07  -0.01  -0.02
  51   6    -0.06  -0.03  -0.01    -0.13  -0.06  -0.05    -0.17  -0.02  -0.05
  52   6    -0.02  -0.02   0.01    -0.11  -0.03  -0.04    -0.18  -0.02  -0.05
  53   6     0.03   0.00   0.02    -0.02  -0.00  -0.02    -0.09  -0.01  -0.02
  54   6     0.05   0.02   0.03    -0.01   0.02  -0.01    -0.09  -0.00  -0.02
  55   7     0.10   0.04   0.04     0.07   0.05   0.01    -0.03   0.01  -0.00
  56   6     0.12   0.04   0.04     0.14   0.06   0.02     0.03   0.02   0.02
  57   6     0.10   0.02   0.02     0.14   0.04   0.01     0.05   0.02   0.02
  58   6     0.04   0.00   0.01     0.06   0.00  -0.01    -0.01   0.01   0.01
  59   1    -0.02  -0.02  -0.01    -0.02  -0.02  -0.02    -0.02  -0.00  -0.00
  60   1    -0.03  -0.01  -0.01    -0.06  -0.02  -0.02    -0.07  -0.01  -0.02
  61   1    -0.01  -0.00   0.00    -0.05  -0.01  -0.01    -0.07  -0.01  -0.02
  62   1     0.01   0.01   0.01    -0.02   0.00  -0.00    -0.04  -0.00  -0.01
  63   1     0.05   0.02   0.01     0.06   0.02   0.01     0.02   0.01   0.01
  64   1     0.03   0.01   0.01     0.06   0.01   0.01     0.03   0.01   0.01
  65   6    -0.01  -0.02  -0.03     0.09  -0.02  -0.02     0.15   0.01   0.07
  66   6    -0.02  -0.01  -0.03     0.01   0.00  -0.05     0.16   0.02   0.08
  67   6    -0.03  -0.01  -0.02    -0.04   0.01  -0.07     0.10   0.03   0.06
  68   6    -0.02  -0.02  -0.01    -0.02  -0.00  -0.05     0.03   0.03   0.03
  69   6    -0.02  -0.02   0.01    -0.09   0.01  -0.07    -0.07   0.05  -0.01
  70   6    -0.01  -0.03   0.02    -0.08  -0.01  -0.05    -0.14   0.04  -0.03
  71   6    -0.01  -0.04   0.02    -0.00  -0.03  -0.01    -0.10   0.02  -0.02
  72   6    -0.01  -0.04   0.01     0.07  -0.04   0.02    -0.01   0.00   0.02
  73   6    -0.01  -0.03  -0.00     0.06  -0.03  -0.00     0.05   0.01   0.04
  74   6    -0.01  -0.03  -0.01     0.11  -0.04   0.01     0.11  -0.00   0.06
  75   1    -0.01  -0.00  -0.01    -0.00   0.00  -0.02     0.06   0.01   0.03
  76   1    -0.01  -0.00  -0.01    -0.03   0.01  -0.03     0.03   0.01   0.02
  77   1    -0.01  -0.00   0.00    -0.04   0.01  -0.03    -0.03   0.02  -0.00
  78   1    -0.00  -0.01   0.01    -0.04   0.00  -0.02    -0.06   0.02  -0.02
  79   1    -0.00  -0.01   0.00     0.04  -0.02   0.02     0.00  -0.00   0.01
  80   1    -0.00  -0.01  -0.00     0.05  -0.02   0.01     0.03  -0.00   0.02
  81   6    -0.01  -0.04   0.02    -0.01  -0.04   0.00    -0.13   0.01  -0.02
  82   6     0.00  -0.04   0.02    -0.08  -0.06  -0.01    -0.24  -0.03  -0.04
  83   6     0.02  -0.03   0.02    -0.07  -0.06  -0.01    -0.24  -0.02  -0.04
  84   6     0.02  -0.03   0.02    -0.00  -0.04  -0.00    -0.12   0.01  -0.02
  85   7     0.00  -0.04   0.02     0.06  -0.02   0.01    -0.03   0.04  -0.01
  86   6    -0.01  -0.04   0.02     0.06  -0.02   0.01    -0.03   0.04  -0.01
  87   1     0.00  -0.01   0.01    -0.04  -0.02  -0.00    -0.09  -0.02  -0.01
  88   1     0.01  -0.01   0.01    -0.04  -0.02  -0.00    -0.09  -0.01  -0.01
  89   1     0.01  -0.01   0.01     0.00  -0.01  -0.00    -0.03   0.01  -0.01
  90   1    -0.01  -0.01   0.01     0.03  -0.00   0.00     0.01   0.02  -0.00
  91   6    -0.01   0.00   0.04     0.00   0.00  -0.03     0.02  -0.02  -0.04
  92   6    -0.01   0.00   0.03    -0.00   0.00   0.01     0.01  -0.01  -0.03
  93   6    -0.01   0.00   0.01    -0.01   0.01   0.03     0.00  -0.01  -0.01
  94   6     0.00   0.00  -0.09    -0.01   0.00   0.01    -0.01  -0.02   0.02
  95   6     0.01   0.00  -0.14    -0.02   0.00   0.02    -0.02  -0.02   0.05
  96   6     0.00   0.00  -0.10    -0.02   0.01   0.04    -0.03  -0.01   0.05
  97   6    -0.01   0.01   0.00    -0.02   0.02   0.06    -0.01   0.00   0.02
  98   6    -0.01   0.01   0.04    -0.02   0.02   0.06    -0.02   0.01   0.02
[...]
 110   6    -0.00   0.00   0.00    -0.00   0.00   0.00     0.00  -0.00  -0.00
 111   6    -0.00  -0.00   0.00     0.00   0.00  -0.00     0.00   0.00  -0.00
 112   6     0.00   0.00  -0.00     0.00   0.00  -0.00     0.00   0.00  -0.00
 113   6     0.00   0.00  -0.00     0.00   0.00  -0.00     0.00   0.00  -0.00
 114   6     0.00   0.00  -0.00     0.00   0.00  -0.00     0.00   0.00  -0.00
 115   6    -0.00   0.00   0.00    -0.00   0.00   0.00    -0.00   0.00   0.00
 116   6    -0.00  -0.00   0.00     0.00   0.00   0.00    -0.00  -0.00   0.00
 117   6    -0.00  -0.00   0.00     0.00  -0.00   0.00    -0.00  -0.00   0.00
 118   6    -0.00  -0.00   0.00    -0.00  -0.00   0.00    -0.00  -0.00   0.00
 119   1     0.00  -0.00  -0.00     0.00  -0.00  -0.00    -0.00   0.00   0.00
 120   1     0.00   0.00  -0.00    -0.00  -0.00   0.00    -0.00  -0.00   0.00
 121   1    -0.00  -0.00   0.00    -0.00  -0.00   0.00    -0.00  -0.00   0.00
 122   1    -0.00  -0.00   0.00    -0.00  -0.00   0.00    -0.00  -0.00   0.00
 123   1     0.00   0.00  -0.00     0.00  -0.00  -0.00     0.00   0.00  -0.00
 124   1     0.01   0.00  -0.00     0.00   0.00  -0.00     0.00   0.00  -0.00
 125   6     0.00   0.00   0.00    -0.00   0.00   0.00    -0.00   0.00   0.00
 126   6    -0.00  -0.00  -0.00    -0.00  -0.00  -0.00    -0.00  -0.00  -0.00
 127   6    -0.00  -0.00  -0.00    -0.00  -0.00  -0.00    -0.00  -0.00  -0.00
 128   6     0.00  -0.00  -0.00     0.00  -0.00  -0.00     0.00  -0.00  -0.00
 129   7     0.00   0.00   0.00     0.00   0.00   0.00     0.00   0.00   0.00
 130   6    -0.00   0.00  -0.00    -0.00  -0.00  -0.00     0.00  -0.00  -0.00
 131   1     0.00   0.00   0.00     0.01   0.00   0.00     0.01   0.00   0.00
 132   1     0.00   0.01   0.00     0.00   0.02   0.01     0.00   0.02   0.01
 133   1    -0.00   0.00   0.00    -0.00   0.00   0.00    -0.00   0.00   0.00
 134   1     0.00   0.00   0.00     0.00   0.00   0.00     0.00   0.00   0.00
 135   6     0.00   0.00   0.00    -0.00  -0.00  -0.00     0.00   0.00   0.00
 136   6    -0.00  -0.00  -0.00     0.00   0.00   0.00    -0.00  -0.00  -0.00
 137   6     0.00   0.00   0.00    -0.00  -0.00  -0.00     0.00  -0.00   0.00
 138   6    -0.00   0.00  -0.00     0.00   0.00   0.00    -0.00   0.00  -0.00
 139   6    -0.00   0.00  -0.00     0.00  -0.00   0.00    -0.00   0.00  -0.00
 140   6     0.00   0.00   0.00     0.00  -0.01  -0.00    -0.00   0.00   0.00
 141   6    -0.00  -0.00  -0.00    -0.00   0.00   0.00     0.00  -0.00   0.00
 142   6     0.00  -0.00  -0.00     0.00   0.00   0.00    -0.00   0.00  -0.00
 143   7     0.00  -0.00  -0.00    -0.00   0.00   0.00     0.00  -0.00   0.00
 144   6    -0.00   0.00  -0.01     0.00  -0.01   0.01    -0.00   0.00  -0.00
 145   6    -0.01   0.13   0.05     0.02  -0.22  -0.08    -0.00   0.01   0.00
 146   6     0.00   0.00   0.00    -0.00  -0.00  -0.00     0.00   0.00   0.00
 147   1     0.00   0.00   0.00    -0.00  -0.00  -0.01     0.00  -0.00  -0.00
 148   1     0.00  -0.00   0.00    -0.00   0.01  -0.01     0.00  -0.00   0.00
 149   1     0.00  -0.01  -0.00    -0.00   0.03   0.01     0.00  -0.00  -0.00
 150   1    -0.00   0.00   0.00     0.00  -0.00  -0.00     0.00   0.00   0.00
 151   1     0.00  -0.01   0.01    -0.01   0.01  -0.01     0.00  -0.00   0.00
 152   1     0.04  -0.45  -0.15    -0.07   0.78   0.27     0.00  -0.02  -0.01
 153   6     0.00   0.00   0.00    -0.00  -0.00  -0.00    -0.00  -0.00  -0.00
 154   6     0.00  -0.00   0.00    -0.00   0.00  -0.00     0.00  -0.00   0.00
 155   6     0.00   0.00   0.00    -0.00   0.00  -0.00     0.00   0.00   0.00
 156   6    -0.00  -0.00  -0.00     0.00   0.00   0.00     0.00   0.00   0.00
 157   6     0.00   0.00   0.00     0.00   0.00   0.00     0.00   0.00   0.00
 158   6     0.00   0.00   0.00     0.00   0.00   0.00    -0.00  -0.00   0.00
 159   6     0.00  -0.00   0.00    -0.00   0.00  -0.00    -0.00   0.00  -0.00
 160   6     0.00   0.00   0.00    -0.00  -0.00  -0.00    -0.00  -0.00  -0.00
 161   6     0.00   0.00  -0.00     0.00  -0.00   0.00    -0.00  -0.00  -0.00
 162   6     0.00   0.00   0.00    -0.00  -0.00  -0.00    -0.00  -0.00  -0.00
 163   1    -0.00   0.00  -0.00     0.00  -0.00   0.00    -0.00   0.00  -0.00
 164   1    -0.00  -0.00  -0.00     0.00   0.00   0.00    -0.00  -0.00  -0.00
 165   1    -0.00  -0.00  -0.00    -0.00  -0.00  -0.00    -0.00  -0.00  -0.00
 166   1    -0.00  -0.00  -0.00    -0.00  -0.00  -0.00     0.00   0.00   0.00
 167   1    -0.00  -0.00  -0.00     0.00   0.00   0.00     0.00   0.00   0.00
 168   1    -0.00  -0.00  -0.01     0.00   0.00   0.01     0.00   0.00   0.00
 169   6    -0.00   0.00  -0.00    -0.00   0.00   0.00    -0.00   0.00  -0.00
 170   6    -0.00  -0.00   0.00     0.00  -0.00  -0.00     0.00  -0.00  -0.01
 171   6    -0.00   0.00   0.00     0.00  -0.01  -0.00     0.01  -0.01  -0.00
 172   6    -0.00   0.00  -0.00     0.00  -0.00   0.00     0.00  -0.00   0.00
 173   7     0.00  -0.00  -0.00    -0.00   0.00   0.00    -0.00   0.00   0.00
 174   6    -0.00   0.00   0.00     0.00  -0.00  -0.00     0.00  -0.00   0.00
 175   1     0.00  -0.00  -0.00    -0.00   0.00   0.01    -0.00   0.00   0.02
 176   1     0.00  -0.00  -0.00    -0.01   0.02   0.01    -0.02   0.03   0.01
 177   1     0.00   0.00  -0.00    -0.00   0.00  -0.00    -0.00   0.00  -0.00
 178   1     0.00  -0.00  -0.00    -0.00   0.00   0.00    -0.00   0.00   0.00
                    526                    527                    528
                        a                      a                      a 
 Frequencies --  3118.5019              3118.7001              3118.7771
 Red. masses --     1.8963                 1.8964                 1.8964
 Frc consts  --     0.0000                 0.0000                 0.0000
 IR Inten    --     0.0228                 0.0379                 0.0505
 Raman Activ --     0.0000                 0.0000                 0.0000
 Depolar     --     0.0000                 0.0000                 0.0000
 Atom AN      X      Y      Z        X      Y      Z        X      Y      Z
   1  46     0.00   0.00   0.00     0.00   0.00   0.00    -0.00  -0.00  -0.00
   2  46     0.00  -0.00   0.00     0.00   0.00   0.00    -0.00   0.00   0.00
   3   6    -0.00  -0.00   0.00     0.00   0.00  -0.00    -0.00  -0.00   0.00
   4   6     0.00   0.00  -0.00    -0.00  -0.00   0.00    -0.00  -0.00  -0.00
   5   6    -0.00   0.00  -0.00     0.00  -0.00  -0.00     0.00   0.00   0.00
   6   6     0.00   0.00   0.00    -0.00  -0.00  -0.00     0.00   0.00   0.00
   7   6     0.00  -0.00   0.00    -0.00   0.00  -0.00    -0.00   0.00  -0.00
   8   6    -0.00  -0.00   0.00     0.00   0.00  -0.00     0.00   0.00  -0.00
   9   6    -0.00  -0.00  -0.00     0.00   0.00   0.00     0.00   0.00   0.00
  10   6    -0.00  -0.00   0.00    -0.00  -0.00   0.00     0.00   0.00   0.00
  11   7    -0.00   0.00  -0.00     0.00  -0.00  -0.00     0.00   0.00  -0.00
  12   6     0.00  -0.00   0.00     0.00  -0.00   0.00    -0.00   0.00  -0.00
  13   6    -0.00  -0.00   0.00     0.00   0.00   0.00     0.00   0.00  -0.00
  14   6    -0.00  -0.00  -0.00    -0.00  -0.00  -0.00     0.00   0.00   0.00
  15   1    -0.00  -0.00  -0.00     0.00   0.00   0.00    -0.00  -0.00  -0.00
  16   1    -0.00   0.00  -0.00     0.00  -0.00   0.00     0.00  -0.00   0.00
  17   1     0.00   0.01  -0.00    -0.00  -0.01   0.00    -0.00  -0.01   0.00
  18   1     0.00   0.00  -0.00     0.00   0.00  -0.00    -0.00  -0.00  -0.00
  19   1    -0.00   0.00   0.00    -0.00   0.00  -0.00     0.00  -0.00   0.00
  20   1     0.00   0.00  -0.00    -0.00  -0.00   0.00    -0.00  -0.00   0.00
  21   6     0.00   0.00  -0.00    -0.00  -0.00   0.00    -0.00  -0.00   0.00
  22   6    -0.00   0.00   0.00     0.00  -0.00   0.00     0.00  -0.00  -0.00
  23   6    -0.00  -0.00   0.00     0.00   0.00  -0.00     0.00   0.00  -0.00
  24   6     0.00   0.00  -0.00    -0.00  -0.00   0.00     0.00  -0.00  -0.00
  25   6    -0.00  -0.00   0.00     0.00   0.00  -0.00     0.00   0.00  -0.00
  26   6    -0.00  -0.00   0.00     0.00   0.00  -0.00     0.00   0.00  -0.00
  27   6    -0.00  -0.00  -0.00     0.00  -0.00   0.00     0.00   0.00   0.00
  28   6    -0.00  -0.00   0.00     0.00   0.00  -0.00    -0.00  -0.00   0.00
  29   6    -0.00   0.00   0.00     0.00  -0.00  -0.00    -0.00  -0.00   0.00
  30   6     0.00   0.00  -0.00     0.00   0.00  -0.00    -0.00  -0.00   0.00
  31   1     0.00  -0.00  -0.00    -0.00   0.00   0.00    -0.00   0.00   0.00
  32   1     0.00   0.00  -0.00    -0.00  -0.00   0.00    -0.00  -0.00   0.00
  33   1     0.00   0.00  -0.00    -0.00  -0.00   0.00    -0.00  -0.00   0.00
  34   1     0.00   0.00  -0.00    -0.00  -0.00   0.00    -0.00  -0.00   0.00
  35   1     0.00   0.00  -0.00    -0.00  -0.00   0.00     0.00   0.00  -0.00
  36   1    -0.00  -0.00   0.00    -0.00  -0.00   0.00     0.00   0.00  -0.00
  37   6    -0.00   0.00   0.00     0.00  -0.00  -0.00     0.00  -0.00  -0.00
  38   6    -0.01  -0.00  -0.00     0.00   0.00   0.00     0.01   0.00   0.00
  39   6    -0.00  -0.01  -0.00     0.00   0.00   0.00     0.00   0.01   0.00
  40   6     0.00  -0.00   0.00    -0.00   0.00  -0.00    -0.00   0.00  -0.00
  41   7     0.00   0.00   0.00     0.00  -0.00  -0.00     0.00  -0.00  -0.00
  42   6     0.00   0.00   0.00    -0.00  -0.00  -0.00    -0.00  -0.00  -0.00
  43   1     0.02   0.01   0.01    -0.00  -0.00  -0.00    -0.02  -0.00  -0.00
  44   1     0.01   0.03   0.01    -0.00  -0.00  -0.00    -0.01  -0.03  -0.01
  45   1    -0.00   0.00   0.00     0.00  -0.00  -0.00     0.00  -0.00  -0.00
  46   1    -0.00   0.00   0.00     0.00   0.00   0.00     0.00   0.00   0.00
  47   6     0.00  -0.00  -0.00    -0.00  -0.00   0.00    -0.00  -0.00   0.00
  48   6    -0.00   0.00  -0.00     0.00  -0.00   0.00     0.00  -0.00  -0.00
  49   6    -0.00   0.00   0.00     0.00  -0.00   0.00     0.00  -0.00   0.00
  50   6     0.00   0.00  -0.00    -0.00  -0.00   0.00    -0.00  -0.00   0.00
  51   6     0.00  -0.00  -0.00    -0.00   0.00   0.00    -0.00   0.00   0.00
  52   6     0.00  -0.00   0.00    -0.00   0.00  -0.00    -0.00   0.00  -0.00
  53   6    -0.00  -0.00   0.00     0.00   0.00  -0.00     0.00   0.00  -0.00
  54   6     0.00  -0.00   0.00     0.00  -0.00  -0.00    -0.00   0.00  -0.00
  55   7     0.00  -0.00  -0.00    -0.00   0.00   0.00    -0.00   0.00   0.00
  56   6    -0.00   0.00   0.00     0.00  -0.00  -0.00     0.00  -0.00  -0.00
  57   6    -0.00   0.00  -0.00     0.00  -0.00   0.00     0.00  -0.00   0.00
  58   6     0.00   0.00  -0.00    -0.00  -0.00   0.00    -0.00  -0.00   0.00
  59   1    -0.00  -0.00   0.00     0.00   0.00  -0.00     0.00   0.00  -0.00
  60   1    -0.00   0.00   0.00     0.00  -0.00  -0.00     0.00  -0.00  -0.00
  61   1    -0.00   0.00  -0.00     0.00  -0.00   0.00     0.00  -0.00   0.00
  62   1    -0.00   0.00  -0.00    -0.00   0.00  -0.00     0.00  -0.00   0.00
  63   1     0.00  -0.00  -0.00    -0.00   0.00   0.00    -0.00   0.00   0.00
  64   1     0.00  -0.00   0.00    -0.00   0.00  -0.00    -0.00   0.01  -0.00
  65   6    -0.00  -0.00   0.00     0.00  -0.00  -0.00     0.00   0.00  -0.00
  66   6     0.00  -0.00  -0.00     0.00  -0.00  -0.00    -0.00   0.00   0.00
  67   6     0.00   0.00  -0.00    -0.00   0.00   0.00    -0.00  -0.00   0.00
  68   6     0.00  -0.00  -0.00    -0.00  -0.00   0.00    -0.00  -0.00   0.00
  69   6     0.00   0.00  -0.00     0.00   0.00  -0.00     0.00   0.00  -0.00
  70   6     0.00   0.00  -0.00     0.00   0.01  -0.00     0.00   0.00  -0.00
  71   6    -0.00   0.00   0.00     0.00   0.00  -0.00     0.00   0.00  -0.00
  72   6    -0.00  -0.00   0.00     0.00   0.00  -0.00     0.00   0.00  -0.00
  73   6    -0.00  -0.00   0.00     0.00  -0.00  -0.00     0.00  -0.00  -0.00
  74   6    -0.00  -0.00   0.00     0.00   0.00  -0.00     0.00   0.00  -0.00
  75   1    -0.00   0.00   0.00    -0.00   0.00   0.00     0.00  -0.00  -0.00
  76   1    -0.00  -0.00   0.00     0.00  -0.00  -0.00     0.00   0.00  -0.00
  77   1    -0.00  -0.00   0.00    -0.00  -0.00   0.00    -0.00  -0.00   0.00
  78   1    -0.00  -0.00   0.00    -0.01  -0.02   0.00    -0.00  -0.02   0.00
  79   1     0.00   0.00  -0.00    -0.00  -0.00   0.01    -0.00  -0.00   0.01
  80   1     0.00   0.00  -0.00    -0.00  -0.00   0.00    -0.00  -0.00   0.00
  81   6     0.00  -0.00  -0.00     0.00  -0.00  -0.00     0.00  -0.00  -0.00
  82   6     0.00   0.00  -0.00     0.00   0.02  -0.10     0.00   0.02  -0.08
  83   6    -0.00   0.01  -0.00    -0.05   0.18  -0.06    -0.04   0.14  -0.04
  84   6    -0.00   0.00   0.00    -0.00   0.01   0.01    -0.00   0.00   0.01
  85   7     0.00  -0.00   0.00     0.00  -0.00   0.00     0.00  -0.00   0.00
  86   6     0.00  -0.00   0.00    -0.00  -0.00   0.00    -0.00   0.00   0.00
  87   1    -0.00  -0.00   0.01    -0.00  -0.08   0.34    -0.00  -0.06   0.27
  88   1     0.01  -0.02   0.01     0.16  -0.62   0.19     0.13  -0.48   0.15
  89   1     0.00  -0.00  -0.00     0.00  -0.01  -0.01     0.00  -0.01  -0.01
  90   1    -0.00   0.00  -0.00     0.00  -0.00   0.00     0.00  -0.00   0.00
  91   6     0.00   0.00  -0.00     0.00   0.00  -0.00    -0.00  -0.00   0.00
  92   6    -0.00  -0.00   0.00    -0.00   0.00   0.00     0.00   0.00  -0.00
  93   6     0.00   0.00  -0.00     0.00   0.00   0.00    -0.00  -0.00  -0.00
  94   6     0.00   0.00   0.00     0.00   0.00   0.00    -0.00  -0.00  -0.00
  95   6     0.00  -0.00   0.00     0.00  -0.00   0.00    -0.00   0.00  -0.00
  96   6    -0.00  -0.00  -0.00    -0.00  -0.00  -0.00     0.00   0.00   0.00
  97   6    -0.00  -0.00  -0.00    -0.00  -0.00  -0.00     0.00   0.00   0.00
  98   6    -0.00  -0.00   0.00    -0.00   0.00  -0.00     0.00   0.00   0.00
  99   7    -0.00  -0.00  -0.00     0.00  -0.00  -0.00    -0.00   0.00  -0.00
 100   6    -0.00   0.00  -0.00    -0.00   0.00  -0.00     0.00  -0.00   0.00
 101   6     0.00   0.00   0.00     0.00   0.00   0.00    -0.00  -0.01  -0.00
 102   6     0.00   0.00   0.00     0.00   0.00   0.00    -0.00  -0.00  -0.00
 103   1    -0.00  -0.00  -0.00    -0.00  -0.00  -0.00     0.00   0.00   0.00
 104   1    -0.00   0.00  -0.00    -0.00   0.00  -0.00     0.00  -0.00   0.00
 105   1     0.00   0.00   0.00     0.00   0.00   0.00    -0.00  -0.00  -0.00
 106   1     0.00   0.00  -0.00    -0.00  -0.00  -0.00     0.00  -0.00   0.00
 107   1     0.00  -0.00   0.00     0.00  -0.00   0.00    -0.00   0.00  -0.00
 108   1    -0.00  -0.01  -0.00    -0.00  -0.00  -0.00     0.00   0.02   0.00
 109   6     0.00  -0.00   0.00    -0.00   0.00  -0.00     0.00   0.00  -0.00
 110   6     0.00  -0.00  -0.00    -0.00   0.00   0.00    -0.00   0.00   0.00
 111   6     0.00   0.00  -0.00    -0.00  -0.00   0.00    -0.00  -0.00   0.00
 112   6    -0.00  -0.00   0.00     0.00   0.00  -0.00    -0.00  -0.00   0.00
 113   6     0.00   0.00  -0.00    -0.00  -0.00   0.00     0.00   0.00  -0.00
 114   6     0.00   0.00  -0.00    -0.00  -0.00   0.00     0.00   0.01  -0.00
 115   6     0.00   0.00   0.00    -0.00  -0.00  -0.00     0.00   0.00   0.00
 116   6     0.00   0.00  -0.00    -0.00  -0.00   0.00     0.00   0.00  -0.00
 117   6     0.00  -0.00  -0.00    -0.00   0.00   0.00     0.00  -0.00  -0.00
 118   6    -0.00  -0.00   0.00    -0.00  -0.00   0.00     0.00   0.00  -0.00
 119   1    -0.00   0.00   0.00     0.00  -0.00  -0.00     0.00  -0.00  -0.00
 120   1    -0.00  -0.00   0.00     0.00   0.00  -0.00     0.00   0.00  -0.00
 121   1    -0.00  -0.00   0.00     0.00   0.00  -0.00    -0.00  -0.00   0.00
 122   1    -0.00  -0.01   0.00     0.00   0.02  -0.00    -0.00  -0.02   0.00
 123   1    -0.00  -0.00   0.00     0.01   0.00  -0.00    -0.01  -0.00   0.00
 124   1     0.00   0.00  -0.00     0.00   0.00  -0.00    -0.00  -0.00   0.00
 125   6     0.00  -0.00  -0.00    -0.00   0.00   0.00     0.00  -0.00  -0.00
 126   6     0.03   0.01   0.01    -0.08  -0.02  -0.02     0.10   0.02   0.03
 127   6     0.01   0.04   0.02    -0.03  -0.14  -0.05     0.04   0.17   0.06
 128   6    -0.00   0.00   0.00     0.01  -0.01  -0.00    -0.01   0.01   0.00
 129   7    -0.00  -0.00  -0.00     0.00   0.00   0.00    -0.00  -0.00  -0.00
 130   6    -0.00  -0.00  -0.00     0.00   0.00   0.00    -0.00   0.00  -0.00
 131   1    -0.08  -0.02  -0.02     0.27   0.06   0.07    -0.34  -0.08  -0.09
 132   1    -0.03  -0.14  -0.05     0.11   0.46   0.17    -0.14  -0.59  -0.21
 133   1     0.00  -0.00  -0.00    -0.01   0.01   0.00     0.02  -0.02  -0.00
 134   1     0.00   0.00   0.00     0.00   0.00   0.00    -0.00  -0.00  -0.00
 135   6     0.00   0.00   0.00     0.00   0.00   0.00    -0.00  -0.00  -0.00
 136   6    -0.00  -0.00  -0.00    -0.00  -0.00  -0.00     0.00   0.00   0.00
 137   6    -0.00   0.00   0.00     0.00  -0.00   0.00     0.00  -0.00  -0.00
 138   6     0.00   0.00   0.00    -0.00  -0.00  -0.00    -0.00  -0.00  -0.00
 139   6     0.00  -0.00   0.00    -0.00   0.00  -0.00    -0.00   0.00  -0.00
 140   6     0.00  -0.00  -0.00    -0.00   0.00   0.00    -0.00   0.00   0.00
 141   6    -0.00  -0.00  -0.00     0.00  -0.00   0.00     0.00   0.00   0.00
 142   6    -0.00  -0.00  -0.00    -0.00   0.00  -0.00    -0.00   0.00   0.00
 143   7     0.00  -0.00  -0.00     0.00  -0.00  -0.00    -0.00   0.00   0.00
 144   6    -0.00   0.00  -0.00    -0.00   0.00  -0.00     0.00  -0.00   0.00
 145   6    -0.00   0.01   0.00    -0.00   0.00   0.00     0.00  -0.00  -0.00
 146   6     0.00   0.00   0.00     0.00   0.00   0.00    -0.00  -0.00  -0.00
 147   1    -0.00  -0.00  -0.00     0.00   0.00   0.00     0.00   0.00   0.00
 148   1    -0.00   0.00  -0.00     0.00  -0.00   0.00     0.00  -0.00   0.00
 149   1    -0.00   0.00   0.00     0.00  -0.00  -0.00     0.00  -0.00  -0.00
 150   1    -0.00  -0.00  -0.00     0.00  -0.00  -0.00     0.00  -0.00  -0.00
 151   1     0.00  -0.00   0.00     0.00  -0.00   0.00    -0.00   0.00  -0.00
 152   1     0.00  -0.02  -0.01     0.00  -0.00  -0.00    -0.00   0.02   0.01
 153   6    -0.00   0.00  -0.00     0.00   0.00  -0.00     0.00   0.00   0.00
 154   6     0.00  -0.00   0.00    -0.00   0.00  -0.00    -0.00   0.00  -0.00
 155   6     0.00   0.00   0.00    -0.00  -0.00  -0.00    -0.00  -0.00  -0.00
 156   6     0.00   0.00   0.00    -0.00   0.00  -0.00    -0.00  -0.00  -0.00
 157   6    -0.00  -0.00  -0.00    -0.00  -0.00  -0.00     0.00   0.00   0.00
 158   6    -0.00  -0.00  -0.00    -0.00  -0.00  -0.00     0.00   0.00   0.00
 159   6     0.00  -0.00  -0.00     0.00  -0.00  -0.00     0.00   0.00   0.00
 160   6    -0.00  -0.00  -0.00    -0.00  -0.00  -0.00     0.00   0.00   0.00
 161   6    -0.00   0.00  -0.00    -0.00   0.00  -0.00     0.00  -0.00   0.00
 162   6    -0.00  -0.00  -0.00     0.00   0.00   0.00     0.00   0.00   0.00
 163   1    -0.00   0.00  -0.00     0.00  -0.00   0.00     0.00  -0.00   0.00
 164   1    -0.00  -0.00  -0.00     0.00   0.00   0.00     0.00   0.00   0.00
 165   1     0.00   0.00   0.00     0.00   0.00   0.00    -0.00  -0.00  -0.00
 166   1     0.00   0.02   0.00     0.00   0.00   0.00    -0.00  -0.00  -0.00
 167   1     0.00   0.00   0.01     0.00   0.00   0.00    -0.00  -0.00  -0.00
 168   1     0.00   0.00   0.00    -0.00  -0.00  -0.00    -0.00  -0.00  -0.00
 169   6    -0.00   0.00  -0.00    -0.00   0.00  -0.00     0.00  -0.00   0.00
 170   6     0.02  -0.01  -0.13     0.00  -0.00  -0.01    -0.00   0.00   0.02
 171   6     0.11  -0.21  -0.08     0.01  -0.02  -0.01    -0.02   0.03   0.01
 172   6     0.00  -0.01   0.01     0.00  -0.00   0.00    -0.00   0.00  -0.00
 173   7    -0.00   0.00   0.00    -0.00   0.00   0.00     0.00  -0.00  -0.00
 174   6    -0.00  -0.00   0.00    -0.00   0.00   0.00    -0.00   0.00   0.00
 175   1    -0.07   0.05   0.41    -0.01   0.00   0.04     0.01  -0.01  -0.07
 176   1    -0.38   0.70   0.27    -0.04   0.07   0.03     0.06  -0.12  -0.05
 177   1    -0.01   0.01  -0.01    -0.00   0.00  -0.00     0.00  -0.00   0.00
 178   1    -0.00   0.00   0.00     0.00  -0.00  -0.00     0.00  -0.00  -0.00
