 Entering Gaussian System, Link 0=g16
 Input=m6_l1.com
 Output=m6_l1.log
 Initial command:
 /apps/gaussian/g16-c01-avx/g16/l1.exe "/rds/general/user/vposligu/home/work/Pd2L4_cages/New_Cages/original/SP-PBE0_def2svp-solvent/m6_l1/Gau-2512801.inp" -scrdir="/rds/general/user/vposligu/home/work/Pd2L4_cages/New_Cages/original/SP-PBE0_def2svp-solvent/m6_l1/"
 Entering Link 1 = /apps/gaussian/g16-c01-avx/g16/l1.exe PID=   2512802.
  
 Copyright (c) 1988-2019, Gaussian, Inc.  All Rights Reserved.
  
 This is part of the Gaussian(R) 16 program.  It is based on
 the Gaussian(R) 09 system (copyright 2009, Gaussian, Inc.),
 the Gaussian(R) 03 system (copyright 2003, Gaussian, Inc.),
 the Gaussian(R) 98 system (copyright 1998, Gaussian, Inc.),
 the Gaussian(R) 94 system (copyright 1995, Gaussian, Inc.),
 the Gaussian 92(TM) system (copyright 1992, Gaussian, Inc.),
 the Gaussian 90(TM) system (copyright 1990, Gaussian, Inc.),
 the Gaussian 88(TM) system (copyright 1988, Gaussian, Inc.),
 the Gaussian 86(TM) system (copyright 1986, Carnegie Mellon
 University), and the Gaussian 82(TM) system (copyright 1983,
 Carnegie Mellon University). Gaussian is a federally registered
 trademark of Gaussian, Inc.
  
 This software contains proprietary and confidential information,
 including trade secrets, belonging to Gaussian, Inc.
  
 This software is provided under written license and may be
 used, copied, transmitted, or stored only in accord with that
 written license.
  
 The following legend is applicable only to US Government
 contracts under FAR:
  
                    RESTRICTED RIGHTS LEGEND
  
 Use, reproduction and disclosure by the US Government is
 subject to restrictions as set forth in subparagraphs (a)
 and (c) of the Commercial Computer Software - Restricted
 Rights clause in FAR 52.227-19.
  
 Gaussian, Inc.
 340 Quinnipiac St., Bldg. 40, Wallingford CT 06492
  
  
 ---------------------------------------------------------------
 Warning -- This program may not be used in any manner that
 competes with the business of Gaussian, Inc. or will provide
 assistance to any competitor of Gaussian, Inc.  The licensee
 of this program is prohibited from giving any competitor of
 Gaussian, Inc. access to this program.  By using this program,
 the user acknowledges that Gaussian, Inc. is engaged in the
 business of creating and licensing software in the field of
 computational chemistry and represents and warrants to the
 licensee that it is not a competitor of Gaussian, Inc. and that
 it will not use this program in any manner prohibited above.
 ---------------------------------------------------------------
  

 Cite this work as:
 Gaussian 16, Revision C.01,
 M. J. Frisch, G. W. Trucks, H. B. Schlegel, G. E. Scuseria, 
 M. A. Robb, J. R. Cheeseman, G. Scalmani, V. Barone, 
 G. A. Petersson, H. Nakatsuji, X. Li, M. Caricato, A. V. Marenich, 
 J. Bloino, B. G. Janesko, R. Gomperts, B. Mennucci, H. P. Hratchian, 
 J. V. Ortiz, A. F. Izmaylov, J. L. Sonnenberg, D. Williams-Young, 
 F. Ding, F. Lipparini, F. Egidi, J. Goings, B. Peng, A. Petrone, 
 T. Henderson, D. Ranasinghe, V. G. Zakrzewski, J. Gao, N. Rega, 
 G. Zheng, W. Liang, M. Hada, M. Ehara, K. Toyota, R. Fukuda, 
 J. Hasegawa, M. Ishida, T. Nakajima, Y. Honda, O. Kitao, H. Nakai, 
 T. Vreven, K. Throssell, J. A. Montgomery, Jr., J. E. Peralta, 
 F. Ogliaro, M. J. Bearpark, J. J. Heyd, E. N. Brothers, K. N. Kudin, 
 V. N. Staroverov, T. A. Keith, R. Kobayashi, J. Normand, 
 K. Raghavachari, A. P. Rendell, J. C. Burant, S. S. Iyengar, 
 J. Tomasi, M. Cossi, J. M. Millam, M. Klene, C. Adamo, R. Cammi, 
 J. W. Ochterski, R. L. Martin, K. Morokuma, O. Farkas, 
 J. B. Foresman, and D. J. Fox, Gaussian, Inc., Wallingford CT, 2019.
 
 ******************************************
 Gaussian 16:  ES64L-G16RevC.01  3-Jul-2019
                 2-Jan-2023 
 ******************************************
 %nprocshared=48
 Will use up to   48 processors via shared memory.
 %mem=120GB
 %chk=m6_l1_opt.chk
 ------------------------------------------------------------------
 # SP PBE1PBE/def2svp empiricaldispersion=GD3BJ scrf=(solvent=dmso)
 ------------------------------------------------------------------
 1/38=1,172=1/1;
 2/12=2,17=6,18=5,40=1/2;
 3/5=43,7=101,11=2,25=1,30=1,70=2201,72=21,74=-13,124=41/1,2,3;
 4//1;
 5/5=2,38=5,53=21/2;
 6/7=2,8=2,9=2,10=2,28=1/1;
 99/5=1,9=1/99;
 -----
 m6_l1
 -----
 Symbolic Z-matrix:
 Charge = 12 Multiplicity = 1
 Pd                    11.819    0.61     -1.276 
 Pd                    0.668     10.947   -0.563 
 Pd                   -9.812    -0.3      -0.009 
 Pd                    1.403    -10.713   -0.551 
 Pd                    1.634     0.235     10.268 
 Pd                    0.294    -0.015    -11.454 
 C                     10.635    3.245    -1.818 
 N                     11.744    2.634    -1.38 
 C                     12.761    3.406    -0.975 
 C                     12.698    4.783    -0.975 
 C                     11.543    5.447    -1.422 
 C                     11.432    6.902    -1.424 
 C                     12.596    7.691    -1.523 
 C                     12.555    9.068    -1.492 
 C                     11.313    9.67     -1.356 
 O                     11.069    10.99    -1.269 
 C                     9.739     11.141   -1.147 
 C                     9.051     12.337   -1.009 
 C                     7.678     12.278   -0.91 
 C                     6.97      11.059   -0.956 
 C                     5.513     11.059   -0.87 
 C                     4.788     9.914    -0.496 
 C                     3.415     9.943    -0.433 
 N                     2.692     11.041   -0.686 
 C                     3.356     12.148   -1.039 
 C                     4.73      12.192   -1.153 
 C                     7.684     9.86     -1.08 
 C                     9.066     9.894    -1.163 
 C                     10.118    8.91     -1.288 
 C                     10.184    7.527    -1.319 
 C                     10.5      4.614    -1.86 
 H                     9.827     2.597    -2.156 
 H                     13.657    2.893    -0.634 
 H                     13.544    5.34     -0.608 
 H                     13.553    7.215    -1.66 
 H                     13.449    9.664    -1.566 
 H                     9.581     13.275   -0.979 
 H                     7.145     13.202   -0.765 
 H                     5.298     9.001    -0.236 
 H                     2.86      9.045    -0.165 
 H                     2.756     13.032   -1.241 
 H                     5.188     13.112   -1.475 
 H                     7.176     8.91     -1.147 
 H                     9.279     6.946    -1.218 
 H                     9.591     5.039    -2.255 
 C                     10.802   -2.073    -0.642 
 N                     11.845   -1.417    -1.165 
 C                     12.877   -2.142    -1.614 
 C                     12.901   -3.52     -1.561 
 C                     11.822   -4.23     -1.009 
 C                     11.819   -5.685    -0.899 
 C                     13.044   -6.37     -0.768 
 C                     13.107   -7.739    -0.633 
 C                     11.91    -8.44     -0.637 
 O                     11.766   -9.77     -0.508 
 C                     10.448   -10.032   -0.54 
 C                     9.856    -11.28    -0.419 
 C                     8.481    -11.34    -0.466 
 C                     7.686    -10.187   -0.625 
 C                     6.232    -10.317   -0.635 
 C                     5.389    -9.289    -0.183 
 C                     4.023    -9.457    -0.181 
 N                     3.427    -10.583   -0.593 
 C                     4.208    -11.579   -1.03 
 C                     5.584    -11.485   -1.072 
 C                     8.3      -8.935    -0.745 
 C                     9.682    -8.851    -0.705 
 C                     10.66    -7.787    -0.77 
 C                     10.62    -6.408    -0.899 
 C                     10.753   -3.446    -0.546 
 H                     9.978    -1.46     -0.277 
 H                     13.715   -1.59     -2.034 
 H                     13.754   -4.042    -1.962 
 H                     13.965   -5.811    -0.729 
 H                     14.046   -8.256    -0.523 
 H                     10.458   -12.164   -0.288 
 H                     8.007    -12.299   -0.336 
 H                     5.806    -8.368     0.193 
 H                     3.366    -8.664     0.176 
 H                     3.705    -12.484   -1.361 
 H                     6.151    -12.316   -1.458 
 H                     7.712    -8.043    -0.905 
 H                     9.672    -5.908    -1.035 
 H                     9.896    -3.91     -0.085 
 C                     10.852    1.156     1.449 
 N                     11.903    0.709     0.75 
 C                     12.97     0.279     1.436 
 C                     13.016    0.268     2.814 
 C                     11.926    0.732     3.57 
 C                     11.944    0.743     5.029 
 C                     13.178    0.847     5.702 
 C                     13.267    0.839     7.076 
 C                     12.086    0.721     7.794 
 O                     11.972    0.67      9.132 
 C                     10.663    0.563     9.415 
 C                     10.103    0.473     10.681 
 C                     8.731     0.397     10.765 
 C                     7.907     0.406     9.622 
 C                     6.458     0.349     9.786 
 C                     5.609    -0.189     8.805 
 C                     4.246    -0.218     8.999 
 N                     3.658     0.243     10.111 
 C                     4.446     0.75      11.068 
 C                     5.817     0.826     10.943 
 C                     8.491     0.471     8.351 
 C                     9.87      0.547     8.24 
 C                     10.823    0.642     7.155 
 C                     10.759    0.652     5.771 
 C                     10.825    1.188     2.826 
 H                     10.002    1.512     0.869 
 H                     13.817   -0.072     0.852 
 H                     13.896   -0.119     3.3 
 H                     14.085    0.973     5.135 
 H                     14.213    0.919     7.585 
 H                     10.728    0.466     11.558 
 H                     8.287     0.292     11.742 
 H                     6.018    -0.607     7.899 
 H                     3.586    -0.636     8.24 
 H                     3.952     1.111     11.967 
 H                     6.386     1.273     11.741 
 H                     7.879     0.503     7.462 
 H                     9.804     0.546     5.277 
 H                     9.958     1.589     3.325 
 C                     10.54    -0.013    -3.83 
 N                     11.66     0.489    -3.294 
 C                     12.623    0.897    -4.129 
 C                     12.502    0.821    -5.501 
 C                     11.342    0.289    -6.087 
 C                     11.185    0.154    -7.531 
 C                     12.328   -0.021    -8.337 
 C                     12.245   -0.181    -9.702 
 C                     10.982   -0.162    -10.274 
 O                     10.696   -0.311    -11.579 
 C                     9.359    -0.252    -11.703 
 C                     8.637    -0.38     -12.88 
 C                     7.264    -0.301    -12.796 
 C                     6.598    -0.104    -11.57 
 C                     5.139    -0.062    -11.549 
 C                     4.398    -0.485    -10.434 
 C                     3.022    -0.457    -10.461 
 N                     2.322    -0.039    -11.523 
 C                     3.006     0.37     -12.599 
 C                     4.384     0.379    -12.649 
 C                     7.342     0.023    -10.392 
 C                     8.725    -0.047    -10.452 
 C                     9.809     0.013    -9.497 
 C                     9.917     0.17     -8.125 
 C                     10.347   -0.13     -5.188 
 H                     9.773    -0.343    -3.129 
 H                     13.524    1.302    -3.674 
 H                     13.307    1.191    -6.115 
 H                     13.301   -0.071    -7.876 
 H                     13.122   -0.324    -10.311 
 H                     9.14     -0.542    -13.818 
 H                     6.69     -0.436    -13.698 
 H                     4.9      -0.863    -9.558 
 H                     2.442    -0.793    -9.601 
 H                     2.419     0.705    -13.451 
 H                     4.871     0.744    -13.538 
 H                     6.854     0.211    -9.447 
 H                     9.03      0.339    -7.532 
 H                     9.435    -0.574    -5.553 
 C                    -1.922     9.661    -0.041 
 N                    -1.347     10.804   -0.436 
 C                    -2.152     11.837   -0.715 
 C                    -3.525     11.76    -0.632 
 C                    -4.153     10.575   -0.212 
 C                    -5.603     10.461   -0.095 
 C                    -6.381     11.626    0.071 
 C                    -7.755     11.587    0.155 
 C                    -8.368     10.346    0.079 
 O                    -9.69      10.105    0.124 
 C                    -9.854     8.774     0.04 
 C                    -11.062    8.093     0.047 
 C                    -11.018    6.718    -0.009 
 C                    -9.802     6.007    -0.074 
 C                    -9.822     4.549    -0.088 
 C                    -8.8       3.786    -0.676 
 C                    -8.851     2.41     -0.649 
 N                    -9.857     1.729    -0.084 
 C                    -10.853    2.433     0.469 
 C                    -10.869    3.812     0.493 
 C                    -8.593     6.713    -0.115 
 C                    -8.613     8.097    -0.061 
 C                    -7.62      9.149    -0.049 
 C                    -6.239     9.214    -0.145 
 C                    -3.284     9.512     0.091 
 H                    -1.25      8.835     0.186 
 H                    -1.67      12.764   -1.017 
 H                    -4.107     12.624   -0.909 
 H                    -5.898     12.583    0.167 
 H                    -8.341     12.483    0.275 
 H                    -11.995    8.63      0.099 
 H                    -11.951    6.18     -0.036 
 H                    -7.977     4.27     -1.176 
 H                    -8.06      1.816    -1.104 
 H                    -11.666    1.863     0.911 
 H                    -11.688    4.312     0.981 
 H                    -7.648     6.191    -0.143 
 H                    -5.673     8.307    -0.296 
 H                    -3.673     8.573     0.449 
 C                    -8.589    -2.922     0.493 
 N                    -9.71     -2.324     0.068 
 C                    -10.721   -3.106    -0.331 
 C                    -10.644   -4.483    -0.333 
 C                    -9.479    -5.134     0.109 
 C                    -9.361    -6.588     0.129 
 C                    -10.521   -7.377     0.264 
 C                    -10.475   -8.754     0.271 
 C                    -9.232    -9.354     0.139 
 O                    -8.985    -10.676    0.102 
 C                    -7.656    -10.828   -0.029 
 C                    -6.97     -12.031   -0.112 
 C                    -5.598    -11.976   -0.218 
 C                    -4.896    -10.754   -0.245 
 C                    -3.44     -10.764   -0.336 
 C                    -2.716    -9.705    -0.908 
 C                    -1.341    -9.748    -0.964 
 N                    -0.625    -10.778   -0.497 
 C                    -1.291    -11.808    0.04 
 C                    -2.666    -11.835    0.143 
 C                    -5.606    -9.549    -0.184 
 C                    -6.987    -9.58     -0.077 
 C                    -8.041    -8.595     0.025 
 C                    -8.111    -7.211     0.019 
 C                    -8.439    -4.29      0.533 
 H                    -7.785    -2.266     0.823 
 H                    -11.625   -2.603    -0.666 
 H                    -11.486   -5.049    -0.695 
 H                    -11.477   -6.9       0.4 
 H                    -11.365   -9.351     0.375 
 H                    -7.501    -12.968   -0.092 
 H                    -5.059    -12.904   -0.317 
 H                    -3.232    -8.858    -1.332 
 H                    -0.778    -8.928    -1.408 
 H                    -0.693    -12.64     0.403 
 H                    -3.135    -12.684    0.613 
 H                    -5.089    -8.601    -0.176 
 H                    -7.211    -6.629    -0.112 
 H                    -7.522    -4.706     0.917 
 C                    -8.536     0.304     2.566 
 N                    -9.642    -0.21      2.012 
 C                    -10.602   -0.654     2.832 
 C                    -10.493   -0.603     4.206 
 C                    -9.348    -0.059     4.81 
 C                    -9.207     0.052     6.258 
 C                    -10.361    0.202     7.054 
 C                    -10.294    0.341     8.422 
 C                    -9.038     0.323     9.008 
 O                    -8.769     0.454     10.319 
 C                    -7.433     0.403     10.457 
 C                    -6.725     0.519     11.644 
 C                    -5.351     0.45      11.576 
 C                    -4.669     0.276     10.355 
 C                    -3.21      0.243     10.349 
 C                    -2.461     0.681     9.244 
 C                    -1.085     0.66      9.283 
 N                    -0.393     0.238     10.349 
 C                    -1.083    -0.185     11.415 
 C                    -2.462    -0.203     11.451 
 C                    -5.399     0.163     9.165 
 C                    -6.782     0.223     9.211 
 C                    -7.855     0.17      8.242 
 C                    -7.946     0.038     6.866 
 C                    -8.355     0.398     3.928 
 H                    -7.772     0.664     1.878 
 H                    -11.491   -1.069     2.362 
 H                    -11.295   -1.001     4.807 
 H                    -11.329    0.251     6.583 
 H                    -11.18     0.466     9.024 
 H                    -7.24      0.662     12.579 
 H                    -4.788     0.576     12.486 
 H                    -2.957     1.065     8.367 
 H                    -0.5       1.006     8.431 
 H                    -0.502    -0.524     12.269 
 H                    -2.955    -0.579     12.332 
 H                    -4.899    -0.008     8.223 
 H                    -7.052    -0.112     6.279 
 H                    -7.455     0.852     4.309 
 C                    -8.893    -0.835    -2.749 
 N                    -9.927    -0.376    -2.033 
 C                    -10.997    0.073    -2.7 
 C                    -11.063    0.094    -4.077 
 C                    -9.99     -0.379    -4.851 
 C                    -10.02    -0.373    -6.31 
 C                    -11.259   -0.441    -6.98 
 C                    -11.351   -0.417    -8.354 
 C                    -10.171   -0.322    -9.075 
 O                    -10.056   -0.263    -10.414 
 C                    -8.744    -0.183    -10.697 
 C                    -8.178    -0.098    -11.96 
 C                    -6.804    -0.049    -12.041 
 C                    -5.983    -0.08     -10.896 
 C                    -4.532    -0.045    -11.047 
 C                    -3.688     0.471    -10.05 
 C                    -2.323     0.474    -10.225 
 N                    -1.728     0.009    -11.331 
 C                    -2.511    -0.475    -12.303 
 C                    -3.886    -0.524    -12.199 
 C                    -6.572    -0.144    -9.627 
 C                    -7.952    -0.193    -9.522 
 C                    -8.906    -0.277    -8.438 
 C                    -8.837    -0.301    -7.055 
 C                    -8.887    -0.858    -4.126 
 H                    -8.038    -1.206    -2.184 
 H                    -11.831    0.432    -2.101 
 H                    -11.945    0.495    -4.548 
 H                    -12.167   -0.549    -6.411 
 H                    -12.301   -0.47     -8.86 
 H                    -8.799    -0.073    -12.84 
 H                    -6.355     0.052    -13.015 
 H                    -4.102     0.891    -9.148 
 H                    -1.666     0.874    -9.453 
 H                    -2.011    -0.84     -13.197 
 H                    -4.452    -0.953    -13.009 
 H                    -5.965    -0.197    -8.735 
 H                    -7.877    -0.221    -6.565 
 H                    -8.034    -1.271    -4.639 
 C                     1.085     9.845     2.098 
 N                     0.768     10.98     1.462 
 C                     0.558     12.069    2.211 
 C                     0.664     12.061    3.587 
 C                     1.036     10.892    4.274 
 C                     1.224     10.844    5.72 
 C                     1.474     12.033    6.436 
 C                     1.689     12.043    7.796 
 C                     1.664     10.827    8.461 
 O                     1.874     10.626    9.773 
 C                     1.8       9.301     9.99 
 C                     1.986     8.653     11.202 
 C                     1.899     7.278     11.21 
 C                     1.638     6.537     10.041 
 C                     1.611     5.079     10.107 
 C                     1.982     4.281     9.012 
 C                     1.976     2.908     9.116 
 N                     1.628     2.264     10.238 
 C                     1.269     3.003     11.296 
 C                     1.243     4.382     11.269 
 C                     1.443     7.207     8.827 
 C                     1.52      8.589     8.797 
 C                     1.423     9.61      7.777 
 C                     1.193     9.625     6.412 
 C                     1.238     9.763     3.461 
 H                     1.224     8.961     1.475 
 H                     0.291     12.98     1.683 
 H                     0.448     12.97     4.123 
 H                     1.536     12.971    5.909 
 H                     1.881     12.959    8.332 
 H                     2.199     9.213     12.098 
 H                     2.081     6.761     12.139 
 H                     2.304     4.737     8.09 
 H                     2.272     2.285     8.273 
 H                     0.991     2.461     12.196 
 H                     0.922     4.914     12.15 
 H                     1.201     6.662     7.927 
 H                     0.964     8.7       5.905 
 H                     1.537     8.822     3.893 
 C                     0.921     9.7      -3.205 
 N                     0.595     10.841   -2.585 
 C                     0.292     11.897   -3.349 
 C                     0.296     11.85    -4.727 
 C                     0.655     10.671   -5.401 
 C                     0.725     10.596   -6.857 
 C                     0.954     11.774   -7.598 
 C                     1.046     11.771   -8.972 
 C                     0.909     10.555   -9.622 
 O                     0.981     10.348   -10.948 
 C                     0.829     9.028    -11.153 
 C                     0.863     8.38     -12.378 
 C                     0.712     7.011    -12.378 
 C                     0.536     6.277    -11.188 
 C                     0.435     4.823    -11.256 
 C                     0.88      3.998    -10.21 
 C                     0.811     2.629    -10.324 
 N                     0.331     2.012    -11.412 
 C                    -0.107     2.775    -12.42 
 C                    -0.079     4.154    -12.379 
 C                     0.496     6.948    -9.96 
 C                     0.64      8.326    -9.937 
 C                     0.688     9.348    -8.913 
 C                     0.592     9.375    -7.531 
 C                     0.969     9.578    -4.575 
 H                     1.162     8.853    -2.562 
 H                     0.039     12.819   -2.831 
 H                     0.009     12.732   -5.275 
 H                     1.101     12.709   -7.083 
 H                     1.224     12.675   -9.53 
 H                     1.01      8.934    -13.29 
 H                     0.775     6.49     -13.319 
 H                     1.309     4.431    -9.32 
 H                     1.164     1.985    -9.518 
 H                    -0.497     2.255    -13.292 
 H                    -0.469     4.708    -13.217 
 H                     0.321     6.41     -9.04 
 H                     0.382     8.464    -6.991 
 H                     1.274     8.638    -5.006 
 C                     0.978    -9.569     2.12 
 N                     1.447    -10.646    1.477 
 C                     1.948    -11.644    2.216 
 C                     2.001    -11.6      3.593 
 C                     1.508    -10.485    4.29 
 C                     1.512    -10.411    5.747 
 C                     1.428    -11.6      6.498 
 C                     1.401    -11.597    7.875 
 C                     1.466    -10.368    8.515 
 O                     1.443    -10.16     9.843 
 C                     1.502    -8.831     10.038 
 C                     1.482    -8.179     11.261 
 C                     1.539    -6.803     11.251 
 C                     1.612    -6.065     10.053 
 C                     1.638    -4.607     10.111 
 C                     1.117    -3.811     9.078 
 C                     1.136    -2.438     9.178 
 N                     1.633    -1.791     10.24 
 C                     2.135    -2.527     11.24 
 C                     2.16     -3.906     11.211 
 C                     1.632    -6.739     8.826 
 C                     1.579    -8.123     8.812 
 C                     1.555    -9.151     7.794 
 C                     1.575    -9.178     6.409 
 C                     0.988    -9.453     3.492 
 H                     0.567    -8.775     1.498 
 H                     2.323    -12.51     1.674 
 H                     2.44     -12.429    4.124 
 H                     1.34     -12.546    5.989 
 H                     1.326    -12.508    8.444 
 H                     1.416    -8.737     12.181 
 H                     1.485    -6.284     12.194 
 H                     0.673    -4.269     8.209 
 H                     0.726    -1.817     8.381 
 H                     2.532    -1.984     12.094 
 H                     2.601    -4.435     12.04 
 H                     1.725    -6.196     7.897 
 H                     1.677    -8.257     5.854 
 H                     0.565    -8.572     3.948 
 C                     1.75     -9.648    -3.267 
 N                     1.349    -10.724   -2.579 
 C                     0.861    -11.761   -3.273 
 C                     0.742    -11.75    -4.646 
 C                     1.153    -10.631   -5.391 
 C                     1.045    -10.581   -6.845 
 C                     1.075    -11.782   -7.583 
 C                     0.954    -11.802   -8.955 
 C                     0.799    -10.586   -9.603 
 O                     0.644    -10.402   -10.926 
 C                     0.537    -9.079    -11.134 
 C                     0.358    -8.451    -12.357 
 C                     0.298    -7.075    -12.365 
 C                     0.407    -6.313    -11.184 
 C                     0.36     -4.857    -11.264 
 C                    -0.095    -4.06     -10.2 
 C                    -0.115    -2.688    -10.314 
 N                     0.278    -2.043    -11.42 
 C                     0.704    -2.78     -12.453 
 C                     0.765    -4.157    -12.413 
 C                     0.561    -6.964    -9.954 
 C                     0.625    -8.348    -9.922 
 C                     0.791    -9.356    -8.898 
 C                     0.912    -9.361    -7.518 
 C                     1.676    -9.565    -4.64 
 H                     2.156    -8.822    -2.683 
 H                     0.55     -12.63    -2.698 
 H                     0.314    -12.608   -5.137 
 H                     1.23     -12.718   -7.073 
 H                     0.978    -12.723   -9.514 
 H                     0.273    -9.028    -13.263 
 H                     0.126    -6.579    -13.306 
 H                    -0.456    -4.517    -9.293 
 H                    -0.47     -2.068    -9.492 
 H                     1.01     -2.238    -13.345 
 H                     1.144    -4.685    -13.273 
 H                     0.673    -6.401    -9.039 
 H                     0.861    -8.43     -6.973 
 H                     2.047    -8.681    -5.132 
 
 Stoichiometry    C264H168N24O12Pd6(12+)
 Framework group  C1[X(C264H168N24O12Pd6)]
 Deg. of freedom  1416
 Full point group                 C1      NOp   1
 Largest Abelian subgroup         C1      NOp   1
 Largest concise Abelian subgroup C1      NOp   1
                         Standard orientation:                         
 ---------------------------------------------------------------------
 Center     Atomic      Atomic             Coordinates (Angstroms)
 Number     Number       Type             X           Y           Z
 ---------------------------------------------------------------------
      1         46           0       -5.333987    7.866071    5.185035
      2         46           0       -7.237708    0.550364   -8.027195
      3         46           0        5.394094   -7.794870   -5.301946
      4         46           0        7.227102   -0.566450    8.073052
      5         46           0       -6.137715   -7.509397    4.888723
      6         46           0        6.246220    7.447962   -4.940770
      7          6           0       -6.260980    7.655025    2.403850
      8          7           0       -6.627812    8.041377    3.633164
      9          6           0       -7.878638    8.492050    3.796337
     10          6           0       -8.790512    8.551457    2.764322
     11          6           0       -8.432283    8.144427    1.467893
     12          6           0       -9.372608    8.178535    0.352557
     13          6           0      -10.440455    9.098699    0.367369
     14          6           0      -11.379768    9.150354   -0.639505
     15          6           0      -11.245575    8.253409   -1.688765
     16          8           0      -12.074456    8.122242   -2.740077
     17          6           0      -11.580034    7.142418   -3.516012
     18          6           0      -12.129846    6.663705   -4.695565
     19          6           0      -11.457920    5.655969   -5.352372
     20          6           0      -10.245663    5.119139   -4.871138
     21          6           0       -9.565389    4.068329   -5.621651
     22          6           0       -8.618577    3.218331   -5.023675
     23          6           0       -7.987799    2.243447   -5.759650
     24          7           0       -8.245228    2.019657   -7.054251
     25          6           0       -9.146776    2.810120   -7.648670
     26          6           0       -9.800952    3.828390   -6.986864
     27          6           0       -9.714191    5.605022   -3.669377
     28          6           0      -10.381980    6.605306   -2.982748
     29          6           0      -10.165671    7.337046   -1.754598
     30          6           0       -9.234705    7.301897   -0.729867
     31          6           0       -7.109176    7.695733    1.320773
     32          1           0       -5.234844    7.306268    2.292385
     33          1           0       -8.154915    8.812177    4.798064
     34          1           0       -9.788660    8.898025    2.974671
     35          1           0      -10.518420    9.812475    1.170885
     36          1           0      -12.194161    9.854848   -0.620022
     37          1           0      -13.052418    7.070701   -5.076168
     38          1           0      -11.902361    5.257062   -6.248048
     39          1           0       -8.385464    3.306297   -3.975253
     40          1           0       -7.238554    1.604550   -5.294144
     41          1           0       -9.346005    2.616565   -8.699909
     42          1           0      -10.488235    4.442636   -7.543814
     43          1           0       -8.774696    5.239109   -3.284008
     44          1           0       -8.439456    6.571313   -0.754622
     45          1           0       -6.737440    7.399752    0.352714
     46          6           0       -3.326314    6.513887    6.851044
     47          7           0       -4.017413    7.652198    6.715596
     48          6           0       -3.796355    8.626515    7.606713
     49          6           0       -2.892532    8.501833    8.641038
     50          6           0       -2.161918    7.313901    8.808567
     51          6           0       -1.222191    7.123518    9.908477
     52          6           0       -1.432964    7.807533   11.122853
     53          6           0       -0.598321    7.649999   12.206785
     54          6           0        0.480432    6.789306   12.066330
     55          8           0        1.394690    6.498695   13.007581
     56          6           0        2.247894    5.608992   12.471610
     57          6           0        3.333459    5.026545   13.107938
     58          6           0        4.084663    4.124143   12.388357
     59          6           0        3.775474    3.786874   11.055178
     60          6           0        4.594328    2.798658   10.359460
     61          6           0        4.069943    1.972771    9.352153
     62          6           0        4.864601    1.032630    8.736656
     63          7           0        6.151871    0.846282    9.054535
     64          6           0        6.677256    1.621534   10.011562
     65          6           0        5.949566    2.592218   10.668992
     66          6           0        2.675676    4.383804   10.428266
     67          6           0        1.908263    5.297851   11.131243
     68          6           0        0.726645    6.087429   10.860782
     69          6           0       -0.129498    6.256913    9.784595
     70          6           0       -2.412397    6.308634    7.860683
     71          1           0       -3.529646    5.733725    6.117578
     72          1           0       -4.368809    9.542792    7.479903
     73          1           0       -2.746853    9.334733    9.308831
     74          1           0       -2.295523    8.444958   11.232050
     75          1           0       -0.770509    8.167907   13.135888
     76          1           0        3.569427    5.273375   14.129904
     77          1           0        4.908680    3.636558   12.882842
     78          1           0        3.031425    2.048869    9.070735
     79          1           0        4.459008    0.384901    7.959553
     80          1           0        7.723748    1.455403   10.254153
     81          1           0        6.441447    3.197310   11.412606
     82          1           0        2.442664    4.168266    9.395669
     83          1           0        0.072639    5.750654    8.851835
     84          1           0       -1.912547    5.356019    7.930978
     85          6           0       -6.674483    5.258197    5.431808
     86          7           0       -6.520454    6.448831    6.024833
     87          6           0       -7.122155    6.638775    7.206299
     88          6           0       -7.869932    5.661470    7.828251
     89          6           0       -8.046468    4.403971    7.226202
     90          6           0       -8.838414    3.350079    7.851709
     91          6           0       -9.882215    3.702368    8.730841
     92          6           0      -10.651346    2.757367    9.372144
     93          6           0      -10.363665    1.422789    9.126479
     94          8           0      -10.983058    0.363279    9.673865
     95          6           0      -10.407935   -0.739173    9.165092
     96          6           0      -10.740116   -2.051336    9.468969
     97          6           0      -10.049072   -3.048686    8.818610
     98          6           0       -9.037169   -2.770900    7.878187
     99          6           0       -8.363292   -3.877551    7.206654
    100          6           0       -7.050331   -3.775749    6.718416
    101          6           0       -6.454430   -4.843950    6.085885
    102          7           0       -7.068254   -6.021619    5.909459
    103          6           0       -8.316829   -6.149531    6.376943
    104          6           0       -8.985584   -5.122877    7.009233
    105          6           0       -8.697164   -1.440662    7.603260
    106          6           0       -9.377346   -0.418821    8.245858
    107          6           0       -9.340610    1.027828    8.228094
    108          6           0       -8.579991    1.997242    7.594575
    109          6           0       -7.414810    4.235314    5.982724
    110          1           0       -6.186554    5.132388    4.466545
    111          1           0       -6.993362    7.614111    7.668682
    112          1           0       -8.301614    5.874060    8.792005
    113          1           0      -10.119105    4.741332    8.887211
    114          1           0      -11.448040    3.032524   10.042938
    115          1           0      -11.512857   -2.269390   10.186693
    116          1           0      -10.275177   -4.071972    9.072484
    117          1           0       -6.486259   -2.866903    6.855025
    118          1           0       -5.435835   -4.767436    5.707713
    119          1           0       -8.795781   -7.115120    6.232722
    120          1           0       -9.999430   -5.287462    7.333889
    121          1           0       -7.941649   -1.203164    6.869311
    122          1           0       -7.768974    1.703085    6.944174
    123          1           0       -7.522712    3.312283    5.436957
    124          6           0       -2.912511    8.820283    3.853562
    125          7           0       -4.099331    9.224975    4.324077
    126          6           0       -4.414859   10.518802    4.191751
    127          6           0       -3.573305   11.434414    3.594891
    128          6           0       -2.319430   11.036938    3.103129
    129          6           0       -1.381254   11.976415    2.498795
    130          6           0       -1.402521   13.327847    2.898655
    131          6           0       -0.526080   14.257877    2.386199
    132          6           0        0.394233   13.821188    1.445433
    133          8           0        1.332399   14.570513    0.840967
    134          6           0        2.024077   13.759010    0.022755
    135          6           0        3.097073   14.120660   -0.777798
    136          6           0        3.682439   13.134127   -1.541033
    137          6           0        3.227735   11.800627   -1.519535
    138          6           0        3.914781   10.799108   -2.329357
    139          6           0        3.981152    9.449942   -1.946499
    140          6           0        4.661943    8.538763   -2.721847
    141          7           0        5.288838    8.871729   -3.857058
    142          6           0        5.239731   10.152688   -4.243897
    143          6           0        4.573522   11.124274   -3.527202
    144          6           0        2.143930   11.453089   -0.705942
    145          6           0        1.534661   12.429519    0.066434
    146          6           0        0.445861   12.470621    1.016964
    147          6           0       -0.444702   11.552202    1.548096
    148          6           0       -2.014436    9.673796    3.253497
    149          1           0       -2.676856    7.763127    3.977977
    150          1           0       -5.383060   10.827039    4.579601
    151          1           0       -3.901535   12.456682    3.499214
    152          1           0       -2.098105   13.646772    3.657734
    153          1           0       -0.541431   15.287262    2.703359
    154          1           0        3.455951   15.135630   -0.789612
    155          1           0        4.540326   13.394512   -2.138974
    156          1           0        3.524371    9.121703   -1.026784
    157          1           0        4.724025    7.491688   -2.424064
    158          1           0        5.755565   10.402553   -5.168116
    159          1           0        4.553327   12.131648   -3.908653
    160          1           0        1.756047   10.445099   -0.701874
    161          1           0       -0.433675   10.529665    1.199850
    162          1           0       -1.061873    9.289395    2.926445
    163          6           0       -5.343693   -1.682886   -8.271497
    164          7           0       -6.203233   -0.919387   -8.958053
    165          6           0       -6.361459   -1.184584  -10.260969
    166          6           0       -5.668699   -2.181955  -10.911571
    167          6           0       -4.767267   -3.002787  -10.212525
    168          6           0       -4.028866   -4.079975  -10.863382
    169          6           0       -4.527480   -4.642487  -12.057128
    170          6           0       -3.860784   -5.638449  -12.735383
    171          6           0       -2.664847   -6.090557  -12.199698
    172          8           0       -1.864961   -7.037722  -12.720130
    173          6           0       -0.826845   -7.186210  -11.880023
    174          6           0        0.237842   -8.060921  -12.036214
    175          6           0        1.187577   -8.092113  -11.039857
    176          6           0        1.103271   -7.272801   -9.895295
    177          6           0        2.119428   -7.384256   -8.855409
    178          6           0        2.445376   -6.317892   -8.001581
    179          6           0        3.399018   -6.474267   -7.020347
    180          7           0        4.066483   -7.620057   -6.828832
    181          6           0        3.786598   -8.647573   -7.640815
    182          6           0        2.837180   -8.573699   -8.638622
    183          6           0        0.039031   -6.370694   -9.771217
    184          6           0       -0.927764   -6.321099  -10.761984
    185          6           0       -2.149561   -5.578548  -10.982724
    186          6           0       -2.831178   -4.567136  -10.324661
    187          6           0       -4.633136   -2.713970   -8.843025
    188          1           0       -5.233357   -1.454491   -7.212700
    189          1           0       -7.076125   -0.568171  -10.801473
    190          1           0       -5.823335   -2.309943  -11.970653
    191          1           0       -5.474727   -4.314214  -12.448681
    192          1           0       -4.246349   -6.057087  -13.650093
    193          1           0        0.307239   -8.691743  -12.907311
    194          1           0        2.035352   -8.744892  -11.165628
    195          1           0        1.969496   -5.358328   -8.121415
    196          1           0        3.653611   -5.649258   -6.356960
    197          1           0        4.347233   -9.564321   -7.478045
    198          1           0        2.643390   -9.448798   -9.234906
    199          1           0       -0.059376   -5.748173   -8.894247
    200          1           0       -2.411636   -4.140205   -9.426039
    201          1           0       -3.986353   -3.309164   -8.219630
    202          6           0        6.314009   -7.527166   -2.526210
    203          7           0        6.688816   -7.932125   -3.747029
    204          6           0        7.940314   -8.383858   -3.897147
    205          6           0        8.846275   -8.432310   -2.858423
    206          6           0        8.476815   -8.013879   -1.568150
    207          6           0        9.403401   -8.056330   -0.442060
    208          6           0       10.450121   -9.000106   -0.439320
    209          6           0       11.366746   -9.076160    0.586502
    210          6           0       11.228559   -8.181313    1.636562
    211          8           0       12.030741   -8.084823    2.712321
    212          6           0       11.542285   -7.099170    3.484593
    213          6           0       12.068657   -6.662552    4.691652
    214          6           0       11.403690   -5.650672    5.347825
    215          6           0       10.231166   -5.064306    4.829965
    216          6           0        9.560898   -4.011259    5.585048
    217          6           0        8.778730   -3.023527    4.964210
    218          6           0        8.152825   -2.053444    5.714405
    219          7           0        8.253423   -1.985848    7.047431
    220          6           0        9.005427   -2.906508    7.663628
    221          6           0        9.654303   -3.916152    6.984258
    222          6           0        9.727075   -5.500961    3.599083
    223          6           0       10.379554   -6.517895    2.921081
    224          6           0       10.175781   -7.234098    1.681293
    225          6           0        9.265789   -7.174531    0.637857
    226          6           0        7.155109   -7.556166   -1.436608
    227          1           0        5.288638   -7.174677   -2.426125
    228          1           0        8.224238   -8.714539   -4.893384
    229          1           0        9.845937   -8.780490   -3.057949
    230          1           0       10.527434   -9.712399   -1.243448
    231          1           0       12.163886   -9.799953    0.582731
    232          1           0       12.964468   -7.106715    5.092366
    233          1           0       11.823433   -5.281631    6.269308
    234          1           0        8.680982   -3.000529    3.890266
    235          1           0        7.546567   -1.286205    5.234509
    236          1           0        9.084463   -2.828187    8.744931
    237          1           0       10.219770   -4.640818    7.547080
    238          1           0        8.815823   -5.085950    3.194803
    239          1           0        8.488291   -6.425325    0.646360
    240          1           0        6.779068   -7.246050   -0.475451
    241          6           0        2.975967   -8.767882   -3.949346
    242          7           0        4.173598   -9.150808   -4.411294
    243          6           0        4.520265  -10.434302   -4.257670
    244          6           0        3.700752  -11.361367   -3.648320
    245          6           0        2.436563  -10.986335   -3.165665
    246          6           0        1.520675  -11.941366   -2.550872
    247          6           0        1.569863  -13.294798   -2.942833
    248          6           0        0.714185  -14.239428   -2.422520
    249          6           0       -0.210766  -13.817649   -1.480276
    250          8           0       -1.131320  -14.584223   -0.869385
    251          6           0       -1.835420  -13.783043   -0.051526
    252          6           0       -2.898535  -14.162388    0.754435
    253          6           0       -3.499753  -13.186136    1.517802
    254          6           0       -3.071434  -11.843737    1.490419
    255          6           0       -3.772618  -10.852519    2.300131
    256          6           0       -3.858565   -9.504129    1.914999
    257          6           0       -4.550530   -8.601206    2.690405
    258          7           0       -5.172824   -8.942818    3.825902
    259          6           0       -5.105823  -10.221572    4.215370
    260          6           0       -4.425510  -11.184266    3.498672
    261          6           0       -1.997818  -11.476893    0.669114
    262          6           0       -1.374258  -12.443827   -0.102000
    263          6           0       -0.288294  -12.466714   -1.057645
    264          6           0        0.578799  -11.531989   -1.599420
    265          6           0        2.097501   -9.634163   -3.337386
    266          1           0        2.714347   -7.720042   -4.091566
    267          1           0        5.497309  -10.724175   -4.638201
    268          1           0        4.053577  -12.374172   -3.536287
    269          1           0        2.268956  -13.603094   -3.702760
    270          1           0        0.750071  -15.271131   -2.734490
    271          1           0       -3.236825  -15.184710    0.772252
    272          1           0       -4.350247  -13.460497    2.119742
    273          1           0       -3.408352   -9.170646    0.993751
    274          1           0       -4.626205   -7.555849    2.391496
    275          1           0       -5.616990  -10.477264    5.140101
    276          1           0       -4.390538  -12.190674    3.881433
    277          1           0       -1.629154  -10.461700    0.660491
    278          1           0        0.548081  -10.507684   -1.258596
    279          1           0        1.135563   -9.268856   -3.017225
    280          6           0        6.758944   -5.207758   -5.589041
    281          7           0        6.579190   -6.398406   -6.174308
    282          6           0        7.159272   -6.602870   -7.363043
    283          6           0        7.909632   -5.639115   -8.002622
    284          6           0        8.110371   -4.380648   -7.410931
    285          6           0        8.896651   -3.333632   -8.055243
    286          6           0        9.916688   -3.688835   -8.961885
    287          6           0       10.676354   -2.744681   -9.616405
    288          6           0       10.406521   -1.410294   -9.355894
    289          8           0       11.020467   -0.348781   -9.908965
    290          6           0       10.462345    0.753704   -9.379003
    291          6           0       10.793367    2.067370   -9.674731
    292          6           0       10.118227    3.061879   -9.002441
    293          6           0        9.121826    2.778965   -8.046840
    294          6           0        8.455114    3.875835   -7.352723
    295          6           0        7.151210    3.757311   -6.844403
    296          6           0        6.562025    4.811045   -6.183825
    297          7           0        7.171912    5.988776   -5.998153
    298          6           0        8.410213    6.132753   -6.486016
    299          6           0        9.073627    5.120746   -7.149014
    300          6           0        8.784690    1.446874   -7.776194
    301          6           0        9.450064    0.430745   -8.441466
    302          6           0        9.406823   -1.015035   -8.432642
    303          6           0        8.653834   -1.981366   -7.786702
    304          6           0        7.503570   -4.198447   -6.157826
    305          1           0        6.286772   -5.068702   -4.616617
    306          1           0        7.010548   -7.579766   -7.817787
    307          1           0        8.324748   -5.862992   -8.971190
    308          1           0       10.140683   -4.728605   -9.130985
    309          1           0       11.454951   -3.022742  -10.307646
    310          1           0       11.553378    2.291665  -10.404622
    311          1           0       10.342986    4.086065   -9.249432
    312          1           0        6.590386    2.848147   -6.986873
    313          1           0        5.550346    4.721656   -5.788670
    314          1           0        8.886258    7.098458   -6.333517
    315          1           0       10.080026    5.297475   -7.490225
    316          1           0        8.044457    1.202234   -7.028445
    317          1           0        7.860262   -1.682821   -7.116466
    318          1           0        7.634109   -3.275561   -5.616913
    319          6           0       -8.104893   -1.194508   -5.865569
    320          7           0       -8.386405   -0.860191   -7.131346
    321          6           0       -9.425834   -1.469532   -7.713851
    322          6           0      -10.204499   -2.404470   -7.062508
    323          6           0       -9.954207   -2.741310   -5.720567
    324          6           0      -10.783534   -3.674802   -4.965998
    325          6           0      -12.103130   -3.940692   -5.386528
    326          6           0      -12.939934   -4.788686   -4.696173
    327          6           0      -12.447939   -5.382112   -3.544091
    328          8           0      -13.112201   -6.214045   -2.724037
    329          6           0      -12.283018   -6.521173   -1.710964
    330          6           0      -12.575971   -7.329404   -0.622670
    331          6           0      -11.594978   -7.496221    0.330264
    332          6           0      -10.336023   -6.873303    0.226498
    333          6           0       -9.358897   -7.048005    1.296802
    334          6           0       -8.415134   -6.054899    1.607480
    335          6           0       -7.526894   -6.236847    2.643774
    336          7           0       -7.508676   -7.341047    3.402149
    337          6           0       -8.398337   -8.303336    3.124897
    338          6           0       -9.315667   -8.198949    2.099883
    339          6           0      -10.052593   -6.068079   -0.883459
    340          6           0      -11.021705   -5.891436   -1.856275
    341          6           0      -11.130654   -5.135597   -3.084724
    342          6           0      -10.300845   -4.292263   -3.803441
    343          6           0       -8.849376   -2.093559   -5.140756
    344          1           0       -7.237482   -0.710244   -5.416133
    345          1           0       -9.636218   -1.196901   -8.744097
    346          1           0      -11.004429   -2.875470   -7.608863
    347          1           0      -12.496473   -3.443711   -6.258141
    348          1           0      -13.947953   -4.982522   -5.027141
    349          1           0      -13.541925   -7.798658   -0.530374
    350          1           0      -11.825264   -8.090502    1.200467
    351          1           0       -8.397911   -5.128523    1.056812
    352          1           0       -6.799573   -5.465893    2.894831
    353          1           0       -8.366880   -9.190169    3.752262
    354          1           0       -9.988392   -9.021390    1.917515
    355          1           0       -9.080338   -5.614451   -1.004005
    356          1           0       -9.283637   -4.145389   -3.473544
    357          1           0       -8.583364   -2.276516   -4.112519
    358          6           0       -5.105364    2.561424   -8.116243
    359          7           0       -6.054052    1.971618   -8.854265
    360          6           0       -6.220394    2.403171  -10.109945
    361          6           0       -5.457800    3.410077  -10.662846
    362          6           0       -4.470824    4.058929   -9.902538
    363          6           0       -3.680479    5.165549  -10.432829
    364          6           0       -4.207698    5.950054  -11.479633
    365          6           0       -3.521218    7.016968  -12.015161
    366          6           0       -2.274509    7.309211  -11.485788
    367          8           0       -1.463833    8.312333  -11.863754
    368          6           0       -0.374921    8.261281  -11.076866
    369          6           0        0.703101    9.132073  -11.112573
    370          6           0        1.716125    8.928155  -10.201990
    371          6           0        1.674150    7.884179   -9.256378
    372          6           0        2.756628    7.757586   -8.286246
    373          6           0        2.544097    7.233232   -7.000691
    374          6           0        3.576853    7.168279   -6.094537
    375          7           0        4.816937    7.592669   -6.371878
    376          6           0        5.048254    8.089383   -7.592470
    377          6           0        4.067876    8.180659   -8.559235
    378          6           0        0.581768    7.008831   -9.239299
    379          6           0       -0.446158    7.191850  -10.150354
    380          6           0       -1.714404    6.551380  -10.427325
    381          6           0       -2.419583    5.477684   -9.907931
    382          6           0       -4.317570    3.586752   -8.587592
    383          1           0       -4.986988    2.191815   -7.097265
    384          1           0       -7.001226    1.921209  -10.693411
    385          1           0       -5.627723    3.681622  -11.691430
    386          1           0       -5.195149    5.742471  -11.857665
    387          1           0       -3.932593    7.612750  -12.812706
    388          1           0        0.735074    9.939745  -11.824551
    389          1           0        2.541757    9.620351  -10.192654
    390          1           0        1.560702    6.905406   -6.702204
    391          1           0        3.413732    6.770472   -5.092478
    392          1           0        6.062246    8.424038   -7.799135
    393          1           0        4.328092    8.570104   -9.529740
    394          1           0        0.548534    6.177509   -8.550627
    395          1           0       -1.977901    4.872847   -9.130300
    396          1           0       -3.596557    4.039017   -7.925789
    397          6           0        5.235605   -2.722980    8.156208
    398          7           0        6.081423   -2.014647    8.915283
    399          6           0        6.122664   -2.289363   10.225228
    400          6           0        5.334255   -3.257112   10.810675
    401          6           0        4.445664   -4.018388   10.034178
    402          6           0        3.618600   -5.075637   10.605607
    403          6           0        4.075790   -5.769954   11.743007
    404          6           0        3.355328   -6.794988   12.314941
    405          6           0        2.140904   -7.127774   11.732966
    406          8           0        1.304065   -8.099060   12.137539
    407          6           0        0.260642   -8.103086   11.289601
    408          6           0       -0.826033   -8.962626   11.329119
    409          6           0       -1.791700   -8.814614   10.358395
    410          6           0       -1.696891   -7.834330    9.350809
    411          6           0       -2.739424   -7.750982    8.332976
    412          6           0       -2.476068   -7.289817    7.032931
    413          6           0       -3.479209   -7.248233    6.090876
    414          7           0       -4.734496   -7.639857    6.344544
    415          6           0       -5.011946   -8.085323    7.576730
    416          6           0       -4.064354   -8.149438    8.577263
    417          6           0       -0.593020   -6.973497    9.325524
    418          6           0        0.388890   -7.101840   10.293947
    419          6           0        1.646099   -6.449929   10.590800
    420          6           0        2.390741   -5.425571   10.029057
    421          6           0        4.421958   -3.710889    8.664101
    422          1           0        5.227079   -2.487928    7.092762
    423          1           0        6.817101   -1.702976   10.823769
    424          1           0        5.401170   -3.409230   11.875712
    425          1           0        5.038189   -5.527569   12.163457
    426          1           0        3.714330   -7.329494   13.177917
    427          1           0       -0.899879   -9.721523   12.091184
    428          1           0       -2.621510   -9.502318   10.356227
    429          1           0       -1.479235   -6.989373    6.753436
    430          1           0       -3.276716   -6.897361    5.078534
    431          1           0       -6.035614   -8.400364    7.762813
    432          1           0       -4.362324   -8.495868    9.553360
    433          1           0       -0.517569   -6.190823    8.585073
    434          1           0        2.003995   -4.882253    9.179408
    435          1           0        3.786870   -4.265822    7.991985
    436          6           0        7.768185    1.733929    6.327551
    437          7           0        8.339403    0.879120    7.184833
    438          6           0        9.661773    0.978819    7.376005
    439          6           0       10.443266    1.902970    6.716746
    440          6           0        9.867904    2.809431    5.809334
    441          6           0       10.660252    3.803165    5.093124
    442          6           0       11.860245    4.274107    5.664241
    443          6           0       12.663438    5.193872    5.026796
    444          6           0       12.252097    5.652816    3.784719
    445          8           0       12.906446    6.528825    3.002002
    446          6           0       12.164037    6.706496    1.896424
    447          6           0       12.473049    7.526035    0.821705
    448          6           0       11.564617    7.593252   -0.211384
    449          6           0       10.360636    6.860052   -0.199840
    450          6           0        9.429192    6.994668   -1.314665
    451          6           0        8.544445    5.967200   -1.683260
    452          6           0        7.675160    6.138757   -2.737154
    453          7           0        7.625332    7.261844   -3.465098
    454          6           0        8.466951    8.251430   -3.142404
    455          6           0        9.358563    8.161416   -2.094369
    456          6           0       10.076115    6.016738    0.881033
    457          6           0       10.975279    5.934089    1.932342
    458          6           0       11.038816    5.223074    3.190363
    459          6           0       10.248496    4.295605    3.849348
    460          6           0        8.477935    2.693933    5.640425
    461          1           0        6.689675    1.643421    6.197964
    462          1           0       10.106407    0.283019    8.083586
    463          1           0       11.505230    1.908181    6.897396
    464          1           0       12.153127    3.936843    6.644391
    465          1           0       13.579481    5.550615    5.468269
    466          1           0       13.392184    8.088131    0.806619
    467          1           0       11.810683    8.201531   -1.066094
    468          1           0        8.555313    5.025275   -1.159354
    469          1           0        6.990454    5.342933   -3.026895
    470          1           0        8.417290    9.151397   -3.751220
    471          1           0        9.988486    9.008124   -1.874583
    472          1           0        9.148334    5.465329    0.924703
    473          1           0        9.346498    3.931533    3.380053
    474          1           0        7.949015    3.370833    4.989878
 ---------------------------------------------------------------------
 Rotational constants (GHZ):           0.0011381           0.0011279           0.0011192
 Standard basis: def2SVP (5D, 7F)
 There are  5556 symmetry adapted cartesian basis functions of A   symmetry.
 There are  5226 symmetry adapted basis functions of A   symmetry.
  5226 basis functions,  9066 primitive gaussians,  5556 cartesian basis functions
  1056 alpha electrons     1056 beta electrons
       nuclear repulsion energy     96058.7412429097 Hartrees.
 NAtoms=  474 NActive=  474 NUniq=  474 SFac= 1.00D+00 NAtFMM=   60 NAOKFM=T Big=T
 Integral buffers will be    131072 words long.
 Raffenetti 2 integral format.
 Two-electron integral symmetry is turned on.
 Nuclear repulsion after empirical dispersion term =    96057.9907492486 Hartrees.
 ------------------------------------------------------------------------------
 Polarizable Continuum Model (PCM)
 =================================
 Model                : PCM.
 Atomic radii         : UFF (Universal Force Field).
 Polarization charges : Total charges.
 Charge compensation  : None.
 Solution method      : On-the-fly selection.
 Cavity type          : Scaled VdW (van der Waals Surface) (Alpha=1.100).
 Cavity algorithm     : GePol (No added spheres)
                        Default sphere list used, NSphG=  474.
                        Lebedev-Laikov grids with approx.  5.0 points / Ang**2.
                        Smoothing algorithm: York/Karplus (Gamma=1.0000).
                        Polarization charges: spherical gaussians, with
                                              point-specific exponents (IZeta= 3).
                        Self-potential: point-specific (ISelfS= 7).
                        Self-field    : sphere-specific E.n sum rule (ISelfD= 2).
 Solvent              : DiMethylSulfoxide, Eps=  46.826000 Eps(inf)=   2.007889
 ------------------------------------------------------------------------------
 One-electron integrals computed using PRISM.
   1 Symmetry operations used in ECPInt.
 ECPInt:  NShTT= 2809635 NPrTT=10376229 LenC2=  504643 LenP2D= 1015456.
 LDataN:  DoStor=T MaxTD1= 7 Len=  274
 Number of processors reduced to  26 by ecpmxn.
 NBasis=  5226 RedAO= T EigKep=  2.20D-04  NBF=  5226
 NBsUse=  5226 1.00D-06 EigRej= -1.00D+00 NBFU=  5226
 Defaulting to unpruned grid for atomic number  46.
 ExpMin= 3.70D-02 ExpMax= 2.27D+03 ExpMxC= 3.41D+02 IAcc=3 IRadAn=         5 AccDes= 0.00D+00
 Harris functional with IExCor= 1009 and IRadAn=       5 diagonalized for initial guess.
 HarFok:  IExCor= 1009 AccDes= 0.00D+00 IRadAn=         5 IDoV= 1 UseB2=F ITyADJ=14
 ICtDFT=  3500011 ScaDFX=  1.000000  1.000000  1.000000  1.000000
 Defaulting to unpruned grid for atomic number  46.
 FoFCou: FMM=F IPFlag=           0 FMFlag=      100000 FMFlg1=        2001
         NFxFlg=           0 DoJE=T BraDBF=F KetDBF=T FulRan=T
         wScrn=  0.000000 ICntrl=       500 IOpCl=  0 I1Cent=   200000004 NGrid=           0
         NMat0=    1 NMatS0=      1 NMatT0=    0 NMatD0=    1 NMtDS0=    0 NMtDT0=    0
 Petite list used in FoFCou.
 Requested convergence on RMS density matrix=1.00D-08 within 128 cycles.
 Requested convergence on MAX density matrix=1.00D-06.
 Requested convergence on             energy=1.00D-06.
 No special actions if energy rises.
 Defaulting to unpruned grid for atomic number  46.
 Defaulting to unpruned grid for atomic number  46.
 Defaulting to unpruned grid for atomic number  46.
 Defaulting to unpruned grid for atomic number  46.
 Defaulting to unpruned grid for atomic number  46.
 Defaulting to unpruned grid for atomic number  46.
 Defaulting to unpruned grid for atomic number  46.
 Defaulting to unpruned grid for atomic number  46.
 Defaulting to unpruned grid for atomic number  46.
 Defaulting to unpruned grid for atomic number  46.
 Defaulting to unpruned grid for atomic number  46.
 Defaulting to unpruned grid for atomic number  46.
 Defaulting to unpruned grid for atomic number  46.
 Defaulting to unpruned grid for atomic number  46.
 Defaulting to unpruned grid for atomic number  46.
 Defaulting to unpruned grid for atomic number  46.
 Defaulting to unpruned grid for atomic number  46.
 Defaulting to unpruned grid for atomic number  46.
 Defaulting to unpruned grid for atomic number  46.
 Defaulting to unpruned grid for atomic number  46.
 Defaulting to unpruned grid for atomic number  46.
 Defaulting to unpruned grid for atomic number  46.
 Defaulting to unpruned grid for atomic number  46.
 Defaulting to unpruned grid for atomic number  46.
 Defaulting to unpruned grid for atomic number  46.
 Defaulting to unpruned grid for atomic number  46.
 Defaulting to unpruned grid for atomic number  46.
 Defaulting to unpruned grid for atomic number  46.
 Defaulting to unpruned grid for atomic number  46.
 Defaulting to unpruned grid for atomic number  46.
 Defaulting to unpruned grid for atomic number  46.
 Defaulting to unpruned grid for atomic number  46.
 Defaulting to unpruned grid for atomic number  46.
 Defaulting to unpruned grid for atomic number  46.
 Defaulting to unpruned grid for atomic number  46.
 Defaulting to unpruned grid for atomic number  46.
 Defaulting to unpruned grid for atomic number  46.
 Defaulting to unpruned grid for atomic number  46.
 Defaulting to unpruned grid for atomic number  46.
 Defaulting to unpruned grid for atomic number  46.
 Defaulting to unpruned grid for atomic number  46.
 Defaulting to unpruned grid for atomic number  46.
 Defaulting to unpruned grid for atomic number  46.
 Defaulting to unpruned grid for atomic number  46.
 Defaulting to unpruned grid for atomic number  46.
 Defaulting to unpruned grid for atomic number  46.
 Defaulting to unpruned grid for atomic number  46.
 Defaulting to unpruned grid for atomic number  46.
 Inv3:  Mode=1 IEnd=  3125607852.
 Iteration    1 A*A^-1 deviation from unit magnitude is 1.60D-14 for  32270.
 Iteration    1 A*A^-1 deviation from orthogonality  is 1.45D-14 for  31770   5072.
 Iteration    1 A^-1*A deviation from unit magnitude is 1.60D-14 for  32270.
 Iteration    1 A^-1*A deviation from orthogonality  is 8.04D-14 for  31801  31770.
 EnCoef did   100 forward-backward iterations
 Error on total polarization charges =  0.04962
 SCF Done:  E(RPBE1PBE) =  -13122.0608659     A.U. after   17 cycles
            NFock= 17  Conv=0.14D-08     -V/T= 2.0478
 Hyperfine terms turned off by default for NAtoms > 100.

 **********************************************************************

            Population analysis using the SCF Density.

 **********************************************************************

 Orbital symmetries:
       Occupied  (A) (A) (A) (A) (A) (A) (A) (A) (A) (A) (A) (A)
                 (A) (A) (A) (A) (A) (A) (A) (A) (A) (A) (A) (A)
                 (A) (A) (A) (A) (A) (A) (A) (A) (A) (A) (A) (A)
                 (A) (A) (A) (A) (A) (A) (A) (A) (A) (A) (A) (A)
                 (A) (A) (A) (A) (A) (A) (A) (A) (A) (A) (A) (A)
                 (A) (A) (A) (A) (A) (A) (A) (A) (A) (A) (A) (A)
                 (A) (A) (A) (A) (A) (A) (A) (A) (A) (A) (A) (A)
                 (A) (A) (A) (A) (A) (A) (A) (A) (A) (A) (A) (A)
                 (A) (A) (A) (A) (A) (A) (A) (A) (A) (A) (A) (A)
                 (A) (A) (A) (A) (A) (A) (A) (A) (A) (A) (A) (A)
                 (A) (A) (A) (A) (A) (A) (A) (A) (A) (A) (A) (A)
                 (A) (A) (A) (A) (A) (A) (A) (A) (A) (A) (A) (A)
                 (A) (A) (A) (A) (A) (A) (A) (A) (A) (A) (A) (A)
                 (A) (A) (A) (A) (A) (A) (A) (A) (A) (A) (A) (A)
                 (A) (A) (A) (A) (A) (A) (A) (A) (A) (A) (A) (A)
                 (A) (A) (A) (A) (A) (A) (A) (A) (A) (A) (A) (A)
                 (A) (A) (A) (A) (A) (A) (A) (A) (A) (A) (A) (A)
                 (A) (A) (A) (A) (A) (A) (A) (A) (A) (A) (A) (A)
                 (A) (A) (A) (A) (A) (A) (A) (A) (A) (A) (A) (A)
                 (A) (A) (A) (A) (A) (A) (A) (A) (A) (A) (A) (A)
                 (A) (A) (A) (A) (A) (A) (A) (A) (A) (A) (A) (A)
                 (A) (A) (A) (A) (A) (A) (A) (A) (A) (A) (A) (A)
                 (A) (A) (A) (A) (A) (A) (A) (A) (A) (A) (A) (A)
                 (A) (A) (A) (A) (A) (A) (A) (A) (A) (A) (A) (A)
                 (A) (A) (A) (A) (A) (A) (A) (A) (A) (A) (A) (A)
                 (A) (A) (A) (A) (A) (A) (A) (A) (A) (A) (A) (A)
                 (A) (A) (A) (A) (A) (A) (A) (A) (A) (A) (A) (A)
                 (A) (A) (A) (A) (A) (A) (A) (A) (A) (A) (A) (A)
                 (A) (A) (A) (A) (A) (A) (A) (A) (A) (A) (A) (A)
                 (A) (A) (A) (A) (A) (A) (A) (A) (A) (A) (A) (A)
                 (A) (A) (A) (A) (A) (A) (A) (A) (A) (A) (A) (A)
                 (A) (A) (A) (A) (A) (A) (A) (A) (A) (A) (A) (A)
                 (A) (A) (A) (A) (A) (A) (A) (A) (A) (A) (A) (A)
                 (A) (A) (A) (A) (A) (A) (A) (A) (A) (A) (A) (A)
                 (A) (A) (A) (A) (A) (A) (A) (A) (A) (A) (A) (A)
                 (A) (A) (A) (A) (A) (A) (A) (A) (A) (A) (A) (A)
                 (A) (A) (A) (A) (A) (A) (A) (A) (A) (A) (A) (A)
                 (A) (A) (A) (A) (A) (A) (A) (A) (A) (A) (A) (A)
                 (A) (A) (A) (A) (A) (A) (A) (A) (A) (A) (A) (A)
                 (A) (A) (A) (A) (A) (A) (A) (A) (A) (A) (A) (A)
                 (A) (A) (A) (A) (A) (A) (A) (A) (A) (A) (A) (A)
                 (A) (A) (A) (A) (A) (A) (A) (A) (A) (A) (A) (A)
                 (A) (A) (A) (A) (A) (A) (A) (A) (A) (A) (A) (A)
                 (A) (A) (A) (A) (A) (A) (A) (A) (A) (A) (A) (A)
                 (A) (A) (A) (A) (A) (A) (A) (A) (A) (A) (A) (A)
                 (A) (A) (A) (A) (A) (A) (A) (A) (A) (A) (A) (A)
                 (A) (A) (A) (A) (A) (A) (A) (A) (A) (A) (A) (A)
                 (A) (A) (A) (A) (A) (A) (A) (A) (A) (A) (A) (A)
                 (A) (A) (A) (A) (A) (A) (A) (A) (A) (A) (A) (A)
                 (A) (A) (A) (A) (A) (A) (A) (A) (A) (A) (A) (A)
                 (A) (A) (A) (A) (A) (A) (A) (A) (A) (A) (A) (A)
                 (A) (A) (A) (A) (A) (A) (A) (A) (A) (A) (A) (A)
                 (A) (A) (A) (A) (A) (A) (A) (A) (A) (A) (A) (A)
                 (A) (A) (A) (A) (A) (A) (A) (A) (A) (A) (A) (A)
                 (A) (A) (A) (A) (A) (A) (A) (A) (A) (A) (A) (A)
                 (A) (A) (A) (A) (A) (A) (A) (A) (A) (A) (A) (A)
                 (A) (A) (A) (A) (A) (A) (A) (A) (A) (A) (A) (A)
                 (A) (A) (A) (A) (A) (A) (A) (A) (A) (A) (A) (A)
                 (A) (A) (A) (A) (A) (A) (A) (A) (A) (A) (A) (A)
                 (A) (A) (A) (A) (A) (A) (A) (A) (A) (A) (A) (A)
                 (A) (A) (A) (A) (A) (A) (A) (A) (A) (A) (A) (A)
                 (A) (A) (A) (A) (A) (A) (A) (A) (A) (A) (A) (A)
                 (A) (A) (A) (A) (A) (A) (A) (A) (A) (A) (A) (A)
                 (A) (A) (A) (A) (A) (A) (A) (A) (A) (A) (A) (A)
                 (A) (A) (A) (A) (A) (A) (A) (A) (A) (A) (A) (A)
                 (A) (A) (A) (A) (A) (A) (A) (A) (A) (A) (A) (A)
                 (A) (A) (A) (A) (A) (A) (A) (A) (A) (A) (A) (A)
                 (A) (A) (A) (A) (A) (A) (A) (A) (A) (A) (A) (A)
                 (A) (A) (A) (A) (A) (A) (A) (A) (A) (A) (A) (A)
                 (A) (A) (A) (A) (A) (A) (A) (A) (A) (A) (A) (A)
                 (A) (A) (A) (A) (A) (A) (A) (A) (A) (A) (A) (A)
                 (A) (A) (A) (A) (A) (A) (A) (A) (A) (A) (A) (A)
                 (A) (A) (A) (A) (A) (A) (A) (A) (A) (A) (A) (A)
                 (A) (A) (A) (A) (A) (A) (A) (A) (A) (A) (A) (A)
                 (A) (A) (A) (A) (A) (A) (A) (A) (A) (A) (A) (A)
                 (A) (A) (A) (A) (A) (A) (A) (A) (A) (A) (A) (A)
                 (A) (A) (A) (A) (A) (A) (A) (A) (A) (A) (A) (A)
                 (A) (A) (A) (A) (A) (A) (A) (A) (A) (A) (A) (A)
                 (A) (A) (A) (A) (A) (A) (A) (A) (A) (A) (A) (A)
                 (A) (A) (A) (A) (A) (A) (A) (A) (A) (A) (A) (A)
                 (A) (A) (A) (A) (A) (A) (A) (A) (A) (A) (A) (A)
                 (A) (A) (A) (A) (A) (A) (A) (A) (A) (A) (A) (A)
                 (A) (A) (A) (A) (A) (A) (A) (A) (A) (A) (A) (A)
                 (A) (A) (A) (A) (A) (A) (A) (A) (A) (A) (A) (A)
                 (A) (A) (A) (A) (A) (A) (A) (A) (A) (A) (A) (A)
                 (A) (A) (A) (A) (A) (A) (A) (A) (A) (A) (A) (A)
                 (A) (A) (A) (A) (A) (A) (A) (A) (A) (A) (A) (A)
                 (A) (A) (A) (A) (A) (A) (A) (A) (A) (A) (A) (A)
       Virtual   (A) (A) (A) (A) (A) (A) (A) (A) (A) (A) (A) (A)
                 (A) (A) (A) (A) (A) (A) (A) (A) (A) (A) (A) (A)
                 (A) (A) (A) (A) (A) (A) (A) (A) (A) (A) (A) (A)
                 (A) (A) (A) (A) (A) (A) (A) (A) (A) (A) (A) (A)
                 (A) (A) (A) (A) (A) (A) (A) (A) (A) (A) (A) (A)
                 (A) (A) (A) (A) (A) (A) (A) (A) (A) (A) (A) (A)
                 (A) (A) (A) (A) (A) (A) (A) (A) (A) (A) (A) (A)
                 (A) (A) (A) (A) (A) (A) (A) (A) (A) (A) (A) (A)
                 (A) (A) (A) (A) (A) (A) (A) (A) (A) (A) (A) (A)
                 (A) (A) (A) (A) (A) (A) (A) (A) (A) (A) (A) (A)
                 (A) (A) (A) (A) (A) (A) (A) (A) (A) (A) (A) (A)
                 (A) (A) (A) (A) (A) (A) (A) (A) (A) (A) (A) (A)
                 (A) (A) (A) (A) (A) (A) (A) (A) (A) (A) (A) (A)
                 (A) (A) (A) (A) (A) (A) (A) (A) (A) (A) (A) (A)
                 (A) (A) (A) (A) (A) (A) (A) (A) (A) (A) (A) (A)
                 (A) (A) (A) (A) (A) (A) (A) (A) (A) (A) (A) (A)
                 (A) (A) (A) (A) (A) (A) (A) (A) (A) (A) (A) (A)
                 (A) (A) (A) (A) (A) (A) (A) (A) (A) (A) (A) (A)
                 (A) (A) (A) (A) (A) (A) (A) (A) (A) (A) (A) (A)
                 (A) (A) (A) (A) (A) (A) (A) (A) (A) (A) (A) (A)
                 (A) (A) (A) (A) (A) (A) (A) (A) (A) (A) (A) (A)
                 (A) (A) (A) (A) (A) (A) (A) (A) (A) (A) (A) (A)
                 (A) (A) (A) (A) (A) (A) (A) (A) (A) (A) (A) (A)
                 (A) (A) (A) (A) (A) (A) (A) (A) (A) (A) (A) (A)
                 (A) (A) (A) (A) (A) (A) (A) (A) (A) (A) (A) (A)
                 (A) (A) (A) (A) (A) (A) (A) (A) (A) (A) (A) (A)
                 (A) (A) (A) (A) (A) (A) (A) (A) (A) (A) (A) (A)
                 (A) (A) (A) (A) (A) (A) (A) (A) (A) (A) (A) (A)
                 (A) (A) (A) (A) (A) (A) (A) (A) (A) (A) (A) (A)
                 (A) (A) (A) (A) (A) (A) (A) (A) (A) (A) (A) (A)
                 (A) (A) (A) (A) (A) (A) (A) (A) (A) (A) (A) (A)
                 (A) (A) (A) (A) (A) (A) (A) (A) (A) (A) (A) (A)
                 (A) (A) (A) (A) (A) (A) (A) (A) (A) (A) (A) (A)
                 (A) (A) (A) (A) (A) (A) (A) (A) (A) (A) (A) (A)
                 (A) (A) (A) (A) (A) (A) (A) (A) (A) (A) (A) (A)
                 (A) (A) (A) (A) (A) (A) (A) (A) (A) (A) (A) (A)
                 (A) (A) (A) (A) (A) (A) (A) (A) (A) (A) (A) (A)
                 (A) (A) (A) (A) (A) (A) (A) (A) (A) (A) (A) (A)
                 (A) (A) (A) (A) (A) (A) (A) (A) (A) (A) (A) (A)
                 (A) (A) (A) (A) (A) (A) (A) (A) (A) (A) (A) (A)
                 (A) (A) (A) (A) (A) (A) (A) (A) (A) (A) (A) (A)
                 (A) (A) (A) (A) (A) (A) (A) (A) (A) (A) (A) (A)
                 (A) (A) (A) (A) (A) (A) (A) (A) (A) (A) (A) (A)
                 (A) (A) (A) (A) (A) (A) (A) (A) (A) (A) (A) (A)
                 (A) (A) (A) (A) (A) (A) (A) (A) (A) (A) (A) (A)
                 (A) (A) (A) (A) (A) (A) (A) (A) (A) (A) (A) (A)
                 (A) (A) (A) (A) (A) (A) (A) (A) (A) (A) (A) (A)
                 (A) (A) (A) (A) (A) (A) (A) (A) (A) (A) (A) (A)
                 (A) (A) (A) (A) (A) (A) (A) (A) (A) (A) (A) (A)
                 (A) (A) (A) (A) (A) (A) (A) (A) (A) (A) (A) (A)
                 (A) (A) (A) (A) (A) (A) (A) (A) (A) (A) (A) (A)
                 (A) (A) (A) (A) (A) (A) (A) (A) (A) (A) (A) (A)
                 (A) (A) (A) (A) (A) (A) (A) (A) (A) (A) (A) (A)
                 (A) (A) (A) (A) (A) (A) (A) (A) (A) (A) (A) (A)
                 (A) (A) (A) (A) (A) (A) (A) (A) (A) (A) (A) (A)
                 (A) (A) (A) (A) (A) (A) (A) (A) (A) (A) (A) (A)
                 (A) (A) (A) (A) (A) (A) (A) (A) (A) (A) (A) (A)
                 (A) (A) (A) (A) (A) (A) (A) (A) (A) (A) (A) (A)
                 (A) (A) (A) (A) (A) (A) (A) (A) (A) (A) (A) (A)
                 (A) (A) (A) (A) (A) (A) (A) (A) (A) (A) (A) (A)
                 (A) (A) (A) (A) (A) (A) (A) (A) (A) (A) (A) (A)
                 (A) (A) (A) (A) (A) (A) (A) (A) (A) (A) (A) (A)
                 (A) (A) (A) (A) (A) (A) (A) (A) (A) (A) (A) (A)
                 (A) (A) (A) (A) (A) (A) (A) (A) (A) (A) (A) (A)
                 (A) (A) (A) (A) (A) (A) (A) (A) (A) (A) (A) (A)
                 (A) (A) (A) (A) (A) (A) (A) (A) (A) (A) (A) (A)
                 (A) (A) (A) (A) (A) (A) (A) (A) (A) (A) (A) (A)
                 (A) (A) (A) (A) (A) (A) (A) (A) (A) (A) (A) (A)
                 (A) (A) (A) (A) (A) (A) (A) (A) (A) (A) (A) (A)
                 (A) (A) (A) (A) (A) (A) (A) (A) (A) (A) (A) (A)
                 (A) (A) (A) (A) (A) (A) (A) (A) (A) (A) (A) (A)
                 (A) (A) (A) (A) (A) (A) (A) (A) (A) (A) (A) (A)
                 (A) (A) (A) (A) (A) (A) (A) (A) (A) (A) (A) (A)
                 (A) (A) (A) (A) (A) (A) (A) (A) (A) (A) (A) (A)
                 (A) (A) (A) (A) (A) (A) (A) (A) (A) (A) (A) (A)
                 (A) (A) (A) (A) (A) (A) (A) (A) (A) (A) (A) (A)
                 (A) (A) (A) (A) (A) (A) (A) (A) (A) (A) (A) (A)
                 (A) (A) (A) (A) (A) (A) (A) (A) (A) (A) (A) (A)
[...]
    47  N   -0.323258
    48  C    0.255473
    49  C    0.008471
    50  C    0.068340
    51  C    0.035502
    52  C    0.015348
    53  C   -0.024806
    54  C    0.201795
    55  O   -0.233922
    56  C    0.202002
    57  C   -0.025214
    58  C    0.015545
    59  C    0.035572
    60  C    0.068379
    61  C    0.004984
    62  C    0.250490
    63  N   -0.324012
    64  C    0.257146
    65  C    0.007708
    66  C   -0.018335
    67  C    0.019257
    68  C    0.018555
    69  C   -0.017444
    70  C    0.005117
    85  C    0.251288
    86  N   -0.324648
    87  C    0.256041
    88  C    0.006129
    89  C    0.070190
    90  C    0.037024
    91  C    0.013296
    92  C   -0.023628
    93  C    0.200182
    94  O   -0.232836
    95  C    0.199913
    96  C   -0.023512
    97  C    0.013046
    98  C    0.038585
    99  C    0.070231
   100  C    0.003468
   101  C    0.251059
   102  N   -0.324182
   103  C    0.256114
   104  C    0.005681
   105  C   -0.017899
   106  C    0.019520
   107  C    0.019679
   108  C   -0.017548
   109  C    0.004496
   124  C    0.250627
   125  N   -0.323754
   126  C    0.256454
   127  C    0.006723
   128  C    0.069331
   129  C    0.035847
   130  C    0.015332
   131  C   -0.025076
   132  C    0.202221
   133  O   -0.234079
   134  C    0.201620
   135  C   -0.025103
   136  C    0.015506
   137  C    0.035542
   138  C    0.067209
   139  C    0.006282
   140  C    0.249413
   141  N   -0.323086
   142  C    0.254770
   143  C    0.009284
   144  C   -0.017620
   145  C    0.018514
   146  C    0.018726
   147  C   -0.018040
   148  C    0.004930
   163  C    0.250511
   164  N   -0.315318
   165  C    0.243565
   166  C    0.002995
   167  C    0.073195
   168  C    0.045297
   169  C    0.009769
   170  C   -0.024469
   171  C    0.203336
   172  O   -0.233467
   173  C    0.202095
   174  C   -0.024036
   175  C    0.013896
   176  C    0.037433
   177  C    0.071110
   178  C    0.003766
   179  C    0.252160
   180  N   -0.325301
   181  C    0.256268
   182  C    0.005953
   183  C   -0.018279
   184  C    0.019165
   185  C    0.018664
   186  C   -0.021216
   187  C    0.000637
   202  C    0.252740
   203  N   -0.324699
   204  C    0.257000
   205  C    0.005903
   206  C    0.070643
   207  C    0.037751
   208  C    0.013942
   209  C   -0.024713
   210  C    0.202756
   211  O   -0.234711
   212  C    0.202403
   213  C   -0.024523
   214  C    0.013928
   215  C    0.038297
   216  C    0.070675
   217  C    0.003567
   218  C    0.252270
   219  N   -0.324668
   220  C    0.256023
   221  C    0.006010
   222  C   -0.018508
   223  C    0.018457
   224  C    0.019222
   225  C   -0.018220
   226  C    0.003393
   241  C    0.251471
   242  N   -0.324877
   243  C    0.256133
   244  C    0.008151
   245  C    0.068690
   246  C    0.034400
   247  C    0.015978
   248  C   -0.025431
   249  C    0.202391
   250  O   -0.234317
   251  C    0.202201
   252  C   -0.025222
   253  C    0.015645
   254  C    0.034754
   255  C    0.067469
   256  C    0.005817
   257  C    0.249581
   258  N   -0.322809
   259  C    0.255972
   260  C    0.007569
   261  C   -0.017721
   262  C    0.018952
   263  C    0.019301
   264  C   -0.017760
   265  C    0.005820
   280  C    0.252285
   281  N   -0.325102
   282  C    0.257382
   283  C    0.006042
   284  C    0.071692
   285  C    0.037962
   286  C    0.013997
   287  C   -0.025182
   288  C    0.203439
   289  O   -0.235022
   290  C    0.203375
   291  C   -0.025156
   292  C    0.013980
   293  C    0.037905
   294  C    0.070443
   295  C    0.003915
   296  C    0.250457
   297  N   -0.323492
   298  C    0.257083
   299  C    0.005946
   300  C   -0.018656
   301  C    0.018566
   302  C    0.018982
   303  C   -0.019021
   304  C    0.003084
   319  C    0.232948
   320  N   -0.315479
   321  C    0.255841
   322  C    0.000755
   323  C    0.077429
   324  C    0.047491
   325  C    0.009330
   326  C   -0.025450
   327  C    0.205974
   328  O   -0.234042
   329  C    0.202315
   330  C   -0.025471
   331  C    0.016314
   332  C    0.035375
   333  C    0.067744
   334  C    0.005912
   335  C    0.250687
   336  N   -0.324256
   337  C    0.255865
   338  C    0.008669
   339  C   -0.018064
   340  C    0.020156
   341  C    0.017662
   342  C   -0.023657
   343  C   -0.000017
   358  C    0.251699
   359  N   -0.315755
   360  C    0.241065
   361  C    0.004810
   362  C    0.071147
   363  C    0.040998
   364  C    0.011691
   365  C   -0.025477
   366  C    0.203554
   367  O   -0.234107
   368  C    0.201913
   369  C   -0.025090
   370  C    0.016316
   371  C    0.034766
   372  C    0.067596
   373  C    0.006087
   374  C    0.249582
   375  N   -0.323202
   376  C    0.255714
   377  C    0.008054
   378  C   -0.017341
   379  C    0.019365
   380  C    0.018464
   381  C   -0.019524
   382  C    0.003453
   397  C    0.250526
   398  N   -0.324068
   399  C    0.255888
   400  C    0.008193
   401  C    0.068697
   402  C    0.035063
   403  C    0.015261
   404  C   -0.024583
   405  C    0.201552
   406  O   -0.234395
   407  C    0.202813
   408  C   -0.025579
   409  C    0.015094
   410  C    0.036489
   411  C    0.069063
   412  C    0.005040
   413  C    0.249893
   414  N   -0.324059
   415  C    0.257171
   416  C    0.007090
   417  C   -0.018680
   418  C    0.019248
   419  C    0.019002
   420  C   -0.017177
   421  C    0.005233
   436  C    0.251189
   437  N   -0.324223
   438  C    0.257759
   439  C    0.006337
   440  C    0.070245
   441  C    0.038534
   442  C    0.013591
   443  C   -0.024557
   444  C    0.202170
   445  O   -0.233747
   446  C    0.202656
   447  C   -0.025184
   448  C    0.014162
   449  C    0.037493
   450  C    0.069598
   451  C    0.004512
   452  C    0.251674
   453  N   -0.324079
   454  C    0.255421
   455  C    0.006447
   456  C   -0.017739
   457  C    0.018004
   458  C    0.019060
   459  C   -0.018612
   460  C    0.003118
 Electronic spatial extent (au):  <R**2>=        1155573.7947
 Charge=             12.0000 electrons
 Dipole moment (field-independent basis, Debye):
    X=              0.5043    Y=             -0.0579    Z=             -0.2615  Tot=              0.5710
 Quadrupole moment (field-independent basis, Debye-Ang):
   XX=           1057.2926   YY=           1012.2641   ZZ=            979.0062
   XY=              2.7714   XZ=             -1.3417   YZ=             -2.6196
 Traceless Quadrupole moment (field-independent basis, Debye-Ang):
   XX=             41.1050   YY=             -3.9236   ZZ=            -37.1815
   XY=              2.7714   XZ=             -1.3417   YZ=             -2.6196
 Octapole moment (field-independent basis, Debye-Ang**2):
  XXX=             54.0887  YYY=             34.8633  ZZZ=             34.9147  XYY=             20.2220
  XXY=             63.5080  XXZ=           -149.8710  XZZ=             63.9153  YZZ=            -94.3696
  YYZ=            -99.3431  XYZ=              3.6626
 Hexadecapole moment (field-independent basis, Debye-Ang**3):
 XXXX=        -313633.1009 YYYY=        -281765.9989 ZZZZ=        -297125.5792 XXXY=           5663.9882
 XXXZ=          16489.0090 YYYX=           1855.8944 YYYZ=           7402.6802 ZZZX=          36163.2705
 ZZZY=            226.3274 XXYY=         -69085.4379 XXZZ=         -49236.3490 YYZZ=         -79810.5544
 XXYZ=          -8476.8484 YYXZ=         -52528.5435 ZZXY=          -6808.4340
 N-N= 9.605799074925D+04 E-N=-2.213197531609D+05  KE= 1.252321013909D+04
 Unable to Open any file for archive entry.
 1\1\GINC-CX3-7-27\SP\RPBE1PBE\def2SVP\C264H168N24O12Pd6(12+)\VPOSLIGU\
 02-Jan-2023\0\\# SP PBE1PBE/def2svp empiricaldispersion=GD3BJ scrf=(so
 lvent=dmso)\\m6_l1\\12,1\Pd,0,11.819,0.61,-1.276\Pd,0,0.668,10.947,-0.
 563\Pd,0,-9.812,-0.3,-0.009\Pd,0,1.403,-10.713,-0.551\Pd,0,1.634,0.235
 ,10.268\Pd,0,0.294,-0.015,-11.454\C,0,10.635,3.245,-1.818\N,0,11.744,2
 .634,-1.38\C,0,12.761,3.406,-0.975\C,0,12.698,4.783,-0.975\C,0,11.543,
 5.447,-1.422\C,0,11.432,6.902,-1.424\C,0,12.596,7.691,-1.523\C,0,12.55
 5,9.068,-1.492\C,0,11.313,9.67,-1.356\O,0,11.069,10.99,-1.269\C,0,9.73
 9,11.141,-1.147\C,0,9.051,12.337,-1.009\C,0,7.678,12.278,-0.91\C,0,6.9
 7,11.059,-0.956\C,0,5.513,11.059,-0.87\C,0,4.788,9.914,-0.496\C,0,3.41
 5,9.943,-0.433\N,0,2.692,11.041,-0.686\C,0,3.356,12.148,-1.039\C,0,4.7
 3,12.192,-1.153\C,0,7.684,9.86,-1.08\C,0,9.066,9.894,-1.163\C,0,10.118
 ,8.91,-1.288\C,0,10.184,7.527,-1.319\C,0,10.5,4.614,-1.86\H,0,9.827,2.
 597,-2.156\H,0,13.657,2.893,-0.634\H,0,13.544,5.34,-0.608\H,0,13.553,7
 .215,-1.66\H,0,13.449,9.664,-1.566\H,0,9.581,13.275,-0.979\H,0,7.145,1
 3.202,-0.765\H,0,5.298,9.001,-0.236\H,0,2.86,9.045,-0.165\H,0,2.756,13
 .032,-1.241\H,0,5.188,13.112,-1.475\H,0,7.176,8.91,-1.147\H,0,9.279,6.
 946,-1.218\H,0,9.591,5.039,-2.255\C,0,10.802,-2.073,-0.642\N,0,11.845,
 -1.417,-1.165\C,0,12.877,-2.142,-1.614\C,0,12.901,-3.52,-1.561\C,0,11.
 822,-4.23,-1.009\C,0,11.819,-5.685,-0.899\C,0,13.044,-6.37,-0.768\C,0,
 13.107,-7.739,-0.633\C,0,11.91,-8.44,-0.637\O,0,11.766,-9.77,-0.508\C,
 0,10.448,-10.032,-0.54\C,0,9.856,-11.28,-0.419\C,0,8.481,-11.34,-0.466
 \C,0,7.686,-10.187,-0.625\C,0,6.232,-10.317,-0.635\C,0,5.389,-9.289,-0
 .183\C,0,4.023,-9.457,-0.181\N,0,3.427,-10.583,-0.593\C,0,4.208,-11.57
 9,-1.03\C,0,5.584,-11.485,-1.072\C,0,8.3,-8.935,-0.745\C,0,9.682,-8.85
 1,-0.705\C,0,10.66,-7.787,-0.77\C,0,10.62,-6.408,-0.899\C,0,10.753,-3.
 446,-0.546\H,0,9.978,-1.46,-0.277\H,0,13.715,-1.59,-2.034\H,0,13.754,-
 4.042,-1.962\H,0,13.965,-5.811,-0.729\H,0,14.046,-8.256,-0.523\H,0,10.
 458,-12.164,-0.288\H,0,8.007,-12.299,-0.336\H,0,5.806,-8.368,0.193\H,0
 ,3.366,-8.664,0.176\H,0,3.705,-12.484,-1.361\H,0,6.151,-12.316,-1.458\
 H,0,7.712,-8.043,-0.905\H,0,9.672,-5.908,-1.035\H,0,9.896,-3.91,-0.085
 \C,0,10.852,1.156,1.449\N,0,11.903,0.709,0.75\C,0,12.97,0.279,1.436\C,
 0,13.016,0.268,2.814\C,0,11.926,0.732,3.57\C,0,11.944,0.743,5.029\C,0,
 13.178,0.847,5.702\C,0,13.267,0.839,7.076\C,0,12.086,0.721,7.794\O,0,1
 1.972,0.67,9.132\C,0,10.663,0.563,9.415\C,0,10.103,0.473,10.681\C,0,8.
 731,0.397,10.765\C,0,7.907,0.406,9.622\C,0,6.458,0.349,9.786\C,0,5.609
 ,-0.189,8.805\C,0,4.246,-0.218,8.999\N,0,3.658,0.243,10.111\C,0,4.446,
 0.75,11.068\C,0,5.817,0.826,10.943\C,0,8.491,0.471,8.351\C,0,9.87,0.54
 7,8.24\C,0,10.823,0.642,7.155\C,0,10.759,0.652,5.771\C,0,10.825,1.188,
 2.826\H,0,10.002,1.512,0.869\H,0,13.817,-0.072,0.852\H,0,13.896,-0.119
 ,3.3\H,0,14.085,0.973,5.135\H,0,14.213,0.919,7.585\H,0,10.728,0.466,11
 .558\H,0,8.287,0.292,11.742\H,0,6.018,-0.607,7.899\H,0,3.586,-0.636,8.
 24\H,0,3.952,1.111,11.967\H,0,6.386,1.273,11.741\H,0,7.879,0.503,7.462
 \H,0,9.804,0.546,5.277\H,0,9.958,1.589,3.325\C,0,10.54,-0.013,-3.83\N,
 0,11.66,0.489,-3.294\C,0,12.623,0.897,-4.129\C,0,12.502,0.821,-5.501\C
 ,0,11.342,0.289,-6.087\C,0,11.185,0.154,-7.531\C,0,12.328,-0.021,-8.33
 7\C,0,12.245,-0.181,-9.702\C,0,10.982,-0.162,-10.274\O,0,10.696,-0.311
 ,-11.579\C,0,9.359,-0.252,-11.703\C,0,8.637,-0.38,-12.88\C,0,7.264,-0.
 301,-12.796\C,0,6.598,-0.104,-11.57\C,0,5.139,-0.062,-11.549\C,0,4.398
 ,-0.485,-10.434\C,0,3.022,-0.457,-10.461\N,0,2.322,-0.039,-11.523\C,0,
 3.006,0.37,-12.599\C,0,4.384,0.379,-12.649\C,0,7.342,0.023,-10.392\C,0
 ,8.725,-0.047,-10.452\C,0,9.809,0.013,-9.497\C,0,9.917,0.17,-8.125\C,0
 ,10.347,-0.13,-5.188\H,0,9.773,-0.343,-3.129\H,0,13.524,1.302,-3.674\H
 ,0,13.307,1.191,-6.115\H,0,13.301,-0.071,-7.876\H,0,13.122,-0.324,-10.
 311\H,0,9.14,-0.542,-13.818\H,0,6.69,-0.436,-13.698\H,0,4.9,-0.863,-9.
 558\H,0,2.442,-0.793,-9.601\H,0,2.419,0.705,-13.451\H,0,4.871,0.744,-1
 3.538\H,0,6.854,0.211,-9.447\H,0,9.03,0.339,-7.532\H,0,9.435,-0.574,-5
 .553\C,0,-1.922,9.661,-0.041\N,0,-1.347,10.804,-0.436\C,0,-2.152,11.83
 7,-0.715\C,0,-3.525,11.76,-0.632\C,0,-4.153,10.575,-0.212\C,0,-5.603,1
 0.461,-0.095\C,0,-6.381,11.626,0.071\C,0,-7.755,11.587,0.155\C,0,-8.36
 8,10.346,0.079\O,0,-9.69,10.105,0.124\C,0,-9.854,8.774,0.04\C,0,-11.06
 2,8.093,0.047\C,0,-11.018,6.718,-0.009\C,0,-9.802,6.007,-0.074\C,0,-9.
 822,4.549,-0.088\C,0,-8.8,3.786,-0.676\C,0,-8.851,2.41,-0.649\N,0,-9.8
 57,1.729,-0.084\C,0,-10.853,2.433,0.469\C,0,-10.869,3.812,0.493\C,0,-8
 .593,6.713,-0.115\C,0,-8.613,8.097,-0.061\C,0,-7.62,9.149,-0.049\C,0,-
 6.239,9.214,-0.145\C,0,-3.284,9.512,0.091\H,0,-1.25,8.835,0.186\H,0,-1
 .67,12.764,-1.017\H,0,-4.107,12.624,-0.909\H,0,-5.898,12.583,0.167\H,0
 ,-8.341,12.483,0.275\H,0,-11.995,8.63,0.099\H,0,-11.951,6.18,-0.036\H,
 0,-7.977,4.27,-1.176\H,0,-8.06,1.816,-1.104\H,0,-11.666,1.863,0.911\H,
 0,-11.688,4.312,0.981\H,0,-7.648,6.191,-0.143\H,0,-5.673,8.307,-0.296\
 H,0,-3.673,8.573,0.449\C,0,-8.589,-2.922,0.493\N,0,-9.71,-2.324,0.068\
 C,0,-10.721,-3.106,-0.331\C,0,-10.644,-4.483,-0.333\C,0,-9.479,-5.134,
 0.109\C,0,-9.361,-6.588,0.129\C,0,-10.521,-7.377,0.264\C,0,-10.475,-8.
 754,0.271\C,0,-9.232,-9.354,0.139\O,0,-8.985,-10.676,0.102\C,0,-7.656,
 -10.828,-0.029\C,0,-6.97,-12.031,-0.112\C,0,-5.598,-11.976,-0.218\C,0,
 -4.896,-10.754,-0.245\C,0,-3.44,-10.764,-0.336\C,0,-2.716,-9.705,-0.90
 8\C,0,-1.341,-9.748,-0.964\N,0,-0.625,-10.778,-0.497\C,0,-1.291,-11.80
 8,0.04\C,0,-2.666,-11.835,0.143\C,0,-5.606,-9.549,-0.184\C,0,-6.987,-9
 .58,-0.077\C,0,-8.041,-8.595,0.025\C,0,-8.111,-7.211,0.019\C,0,-8.439,
 -4.29,0.533\H,0,-7.785,-2.266,0.823\H,0,-11.625,-2.603,-0.666\H,0,-11.
 486,-5.049,-0.695\H,0,-11.477,-6.9,0.4\H,0,-11.365,-9.351,0.375\H,0,-7
 .501,-12.968,-0.092\H,0,-5.059,-12.904,-0.317\H,0,-3.232,-8.858,-1.332
 \H,0,-0.778,-8.928,-1.408\H,0,-0.693,-12.64,0.403\H,0,-3.135,-12.684,0
 .613\H,0,-5.089,-8.601,-0.176\H,0,-7.211,-6.629,-0.112\H,0,-7.522,-4.7
 06,0.917\C,0,-8.536,0.304,2.566\N,0,-9.642,-0.21,2.012\C,0,-10.602,-0.
 654,2.832\C,0,-10.493,-0.603,4.206\C,0,-9.348,-0.059,4.81\C,0,-9.207,0
 .052,6.258\C,0,-10.361,0.202,7.054\C,0,-10.294,0.341,8.422\C,0,-9.038,
 0.323,9.008\O,0,-8.769,0.454,10.319\C,0,-7.433,0.403,10.457\C,0,-6.725
 ,0.519,11.644\C,0,-5.351,0.45,11.576\C,0,-4.669,0.276,10.355\C,0,-3.21
 ,0.243,10.349\C,0,-2.461,0.681,9.244\C,0,-1.085,0.66,9.283\N,0,-0.393,
 0.238,10.349\C,0,-1.083,-0.185,11.415\C,0,-2.462,-0.203,11.451\C,0,-5.
 399,0.163,9.165\C,0,-6.782,0.223,9.211\C,0,-7.855,0.17,8.242\C,0,-7.94
 6,0.038,6.866\C,0,-8.355,0.398,3.928\H,0,-7.772,0.664,1.878\H,0,-11.49
 1,-1.069,2.362\H,0,-11.295,-1.001,4.807\H,0,-11.329,0.251,6.583\H,0,-1
 1.18,0.466,9.024\H,0,-7.24,0.662,12.579\H,0,-4.788,0.576,12.486\H,0,-2
 .957,1.065,8.367\H,0,-0.5,1.006,8.431\H,0,-0.502,-0.524,12.269\H,0,-2.
 955,-0.579,12.332\H,0,-4.899,-0.008,8.223\H,0,-7.052,-0.112,6.279\H,0,
 -7.455,0.852,4.309\C,0,-8.893,-0.835,-2.749\N,0,-9.927,-0.376,-2.033\C
 ,0,-10.997,0.073,-2.7\C,0,-11.063,0.094,-4.077\C,0,-9.99,-0.379,-4.851
 \C,0,-10.02,-0.373,-6.31\C,0,-11.259,-0.441,-6.98\C,0,-11.351,-0.417,-
 8.354\C,0,-10.171,-0.322,-9.075\O,0,-10.056,-0.263,-10.414\C,0,-8.744,
 -0.183,-10.697\C,0,-8.178,-0.098,-11.96\C,0,-6.804,-0.049,-12.041\C,0,
 -5.983,-0.08,-10.896\C,0,-4.532,-0.045,-11.047\C,0,-3.688,0.471,-10.05
 \C,0,-2.323,0.474,-10.225\N,0,-1.728,0.009,-11.331\C,0,-2.511,-0.475,-
 12.303\C,0,-3.886,-0.524,-12.199\C,0,-6.572,-0.144,-9.627\C,0,-7.952,-
 0.193,-9.522\C,0,-8.906,-0.277,-8.438\C,0,-8.837,-0.301,-7.055\C,0,-8.
 887,-0.858,-4.126\H,0,-8.038,-1.206,-2.184\H,0,-11.831,0.432,-2.101\H,
 0,-11.945,0.495,-4.548\H,0,-12.167,-0.549,-6.411\H,0,-12.301,-0.47,-8.
 86\H,0,-8.799,-0.073,-12.84\H,0,-6.355,0.052,-13.015\H,0,-4.102,0.891,
 -9.148\H,0,-1.666,0.874,-9.453\H,0,-2.011,-0.84,-13.197\H,0,-4.452,-0.
 953,-13.009\H,0,-5.965,-0.197,-8.735\H,0,-7.877,-0.221,-6.565\H,0,-8.0
 34,-1.271,-4.639\C,0,1.085,9.845,2.098\N,0,0.768,10.98,1.462\C,0,0.558
 ,12.069,2.211\C,0,0.664,12.061,3.587\C,0,1.036,10.892,4.274\C,0,1.224,
 10.844,5.72\C,0,1.474,12.033,6.436\C,0,1.689,12.043,7.796\C,0,1.664,10
 .827,8.461\O,0,1.874,10.626,9.773\C,0,1.8,9.301,9.99\C,0,1.986,8.653,1
 1.202\C,0,1.899,7.278,11.21\C,0,1.638,6.537,10.041\C,0,1.611,5.079,10.
 107\C,0,1.982,4.281,9.012\C,0,1.976,2.908,9.116\N,0,1.628,2.264,10.238
 \C,0,1.269,3.003,11.296\C,0,1.243,4.382,11.269\C,0,1.443,7.207,8.827\C
 ,0,1.52,8.589,8.797\C,0,1.423,9.61,7.777\C,0,1.193,9.625,6.412\C,0,1.2
 38,9.763,3.461\H,0,1.224,8.961,1.475\H,0,0.291,12.98,1.683\H,0,0.448,1
 2.97,4.123\H,0,1.536,12.971,5.909\H,0,1.881,12.959,8.332\H,0,2.199,9.2
 13,12.098\H,0,2.081,6.761,12.139\H,0,2.304,4.737,8.09\H,0,2.272,2.285,
 8.273\H,0,0.991,2.461,12.196\H,0,0.922,4.914,12.15\H,0,1.201,6.662,7.9
 27\H,0,0.964,8.7,5.905\H,0,1.537,8.822,3.893\C,0,0.921,9.7,-3.205\N,0,
 0.595,10.841,-2.585\C,0,0.292,11.897,-3.349\C,0,0.296,11.85,-4.727\C,0
 ,0.655,10.671,-5.401\C,0,0.725,10.596,-6.857\C,0,0.954,11.774,-7.598\C
 ,0,1.046,11.771,-8.972\C,0,0.909,10.555,-9.622\O,0,0.981,10.348,-10.94
 8\C,0,0.829,9.028,-11.153\C,0,0.863,8.38,-12.378\C,0,0.712,7.011,-12.3
 78\C,0,0.536,6.277,-11.188\C,0,0.435,4.823,-11.256\C,0,0.88,3.998,-10.
 21\C,0,0.811,2.629,-10.324\N,0,0.331,2.012,-11.412\C,0,-0.107,2.775,-1
 2.42\C,0,-0.079,4.154,-12.379\C,0,0.496,6.948,-9.96\C,0,0.64,8.326,-9.
 937\C,0,0.688,9.348,-8.913\C,0,0.592,9.375,-7.531\C,0,0.969,9.578,-4.5
 75\H,0,1.162,8.853,-2.562\H,0,0.039,12.819,-2.831\H,0,0.009,12.732,-5.
 275\H,0,1.101,12.709,-7.083\H,0,1.224,12.675,-9.53\H,0,1.01,8.934,-13.
 29\H,0,0.775,6.49,-13.319\H,0,1.309,4.431,-9.32\H,0,1.164,1.985,-9.518
 \H,0,-0.497,2.255,-13.292\H,0,-0.469,4.708,-13.217\H,0,0.321,6.41,-9.0
 4\H,0,0.382,8.464,-6.991\H,0,1.274,8.638,-5.006\C,0,0.978,-9.569,2.12\
 N,0,1.447,-10.646,1.477\C,0,1.948,-11.644,2.216\C,0,2.001,-11.6,3.593\
 C,0,1.508,-10.485,4.29\C,0,1.512,-10.411,5.747\C,0,1.428,-11.6,6.498\C
 ,0,1.401,-11.597,7.875\C,0,1.466,-10.368,8.515\O,0,1.443,-10.16,9.843\
 C,0,1.502,-8.831,10.038\C,0,1.482,-8.179,11.261\C,0,1.539,-6.803,11.25
 1\C,0,1.612,-6.065,10.053\C,0,1.638,-4.607,10.111\C,0,1.117,-3.811,9.0
 78\C,0,1.136,-2.438,9.178\N,0,1.633,-1.791,10.24\C,0,2.135,-2.527,11.2
 4\C,0,2.16,-3.906,11.211\C,0,1.632,-6.739,8.826\C,0,1.579,-8.123,8.812
 \C,0,1.555,-9.151,7.794\C,0,1.575,-9.178,6.409\C,0,0.988,-9.453,3.492\
 H,0,0.567,-8.775,1.498\H,0,2.323,-12.51,1.674\H,0,2.44,-12.429,4.124\H
 ,0,1.34,-12.546,5.989\H,0,1.326,-12.508,8.444\H,0,1.416,-8.737,12.181\
 H,0,1.485,-6.284,12.194\H,0,0.673,-4.269,8.209\H,0,0.726,-1.817,8.381\
 H,0,2.532,-1.984,12.094\H,0,2.601,-4.435,12.04\H,0,1.725,-6.196,7.897\
 H,0,1.677,-8.257,5.854\H,0,0.565,-8.572,3.948\C,0,1.75,-9.648,-3.267\N
 ,0,1.349,-10.724,-2.579\C,0,0.861,-11.761,-3.273\C,0,0.742,-11.75,-4.6
 46\C,0,1.153,-10.631,-5.391\C,0,1.045,-10.581,-6.845\C,0,1.075,-11.782
 ,-7.583\C,0,0.954,-11.802,-8.955\C,0,0.799,-10.586,-9.603\O,0,0.644,-1
 0.402,-10.926\C,0,0.537,-9.079,-11.134\C,0,0.358,-8.451,-12.357\C,0,0.
 298,-7.075,-12.365\C,0,0.407,-6.313,-11.184\C,0,0.36,-4.857,-11.264\C,
 0,-0.095,-4.06,-10.2\C,0,-0.115,-2.688,-10.314\N,0,0.278,-2.043,-11.42
 \C,0,0.704,-2.78,-12.453\C,0,0.765,-4.157,-12.413\C,0,0.561,-6.964,-9.
 954\C,0,0.625,-8.348,-9.922\C,0,0.791,-9.356,-8.898\C,0,0.912,-9.361,-
 7.518\C,0,1.676,-9.565,-4.64\H,0,2.156,-8.822,-2.683\H,0,0.55,-12.63,-
 2.698\H,0,0.314,-12.608,-5.137\H,0,1.23,-12.718,-7.073\H,0,0.978,-12.7
 23,-9.514\H,0,0.273,-9.028,-13.263\H,0,0.126,-6.579,-13.306\H,0,-0.456
 ,-4.517,-9.293\H,0,-0.47,-2.068,-9.492\H,0,1.01,-2.238,-13.345\H,0,1.1
 44,-4.685,-13.273\H,0,0.673,-6.401,-9.039\H,0,0.861,-8.43,-6.973\H,0,2
 .047,-8.681,-5.132\\Version=ES64L-G16RevC.01\State=1-A\HF=-13122.06086
 59\RMSD=1.439e-09\Dipole=-0.1698962,-0.0630171,-0.1327806\Quadrupole=-
 4.1071259,-1.1859379,5.2930638,20.9647026,3.8658932,19.6146572\PG=C01 
 [X(C264H168N24O12Pd6)]\\@
 The archive entry for this job was punched.


 When cryptography is outlawed, bayl bhgynjf jvyy unir cevinpl.
 Job cpu time:       6 days  9 hours 49 minutes 32.7 seconds.
 Elapsed time:       0 days  3 hours 28 minutes 31.8 seconds.
 File lengths (MBytes):  RWF=  31616 Int=      0 D2E=      0 Chk=   1592 Scr=     16
 Normal termination of Gaussian 16 at Mon Jan  2 23:19:46 2023.
