 Entering Gaussian System
 *********************************************
 Gaussian 98:
 frequency output generated by the xtb code
 *********************************************
                         Standard orientation:
 --------------------------------------------------------------------
  Center     Atomic     Atomic              Coordinates (Angstroms)
  Number     Number      Type              X           Y           Z
 --------------------------------------------------------------------
    1         46             0        1.097030    6.338993   -0.843315
    2         46             0        0.562472   -4.927704   -0.688193
    3          6             0        5.606289   -1.228832   -1.333617
    4          6             0        5.692282   -2.434732   -1.375916
    5          6             0        5.896575   -3.827033   -1.439414
    6          6             0        7.170572   -4.317940   -1.662217
    7          6             0        7.414864   -5.693642   -1.719716
    8          6             0        6.394460   -6.597836   -1.560011
    9          6             0        5.081763   -6.143829   -1.340007
   10          6             0        3.988759   -7.025623   -1.177102
   11          6             0        2.735062   -6.525116   -0.978898
   12          7             0        2.496370   -5.189615   -0.931400
   13          6             0        3.487574   -4.335320   -1.070205
   14          6             0        4.815671   -4.744827   -1.277509
   15          1             0        7.989275   -3.625945   -1.787922
   16          1             0        8.422362   -6.040647   -1.891319
   17          1             0        6.584854   -7.658637   -1.603210
   18          1             0        4.159653   -8.089824   -1.214500
   19          1             0        1.873659   -7.187111   -0.850494
   20          1             0        3.242079   -3.279719   -1.019306
   21          6             0        5.425796    0.168969   -1.282219
   22          6             0        6.104098    1.008564   -2.170323
   23          6             0        5.879005    2.370265   -2.144325
   24          6             0        4.970211    2.921272   -1.239622
   25          6             0        4.321710    2.081877   -0.330319
   26          6             0        4.546303    0.722476   -0.346817
   27          1             0        6.794693    0.586059   -2.883925
   28          1             0        6.386806    3.005862   -2.853228
   29          1             0        3.661915    2.502982    0.411183
   30          1             0        4.053602    0.078579    0.363086
   31          6             0        4.668718    4.359573   -1.254524
   32          6             0        5.655423    5.336568   -1.425929
   33          6             0        5.298530    6.673770   -1.426830
   34          6             0        3.966432    7.020377   -1.257926
   35          7             0        3.027628    6.090782   -1.104021
   36          6             0        3.354021    4.796681   -1.103220
   37          1             0        6.688821    5.047262   -1.538132
   38          1             0        6.043134    7.443066   -1.551934
   39          1             0        3.640238    8.054079   -1.246827
   40          1             0        2.531918    4.080885   -0.996516
   41          6             0        1.525927    2.439199    4.069590
   42          6             0        1.656234    3.635399    4.194288
   43          6             0        1.822242    5.011798    4.442485
   44          6             0        2.093948    5.443199    5.728583
   45          6             0        2.253357    6.802399    6.016180
   46          6             0        2.147858    7.748998    5.027679
   47          6             0        1.881051    7.355597    3.704081
   48          6             0        1.769253    8.282595    2.642479
   49          6             0        1.521946    7.839294    1.375981
   50          7             0        1.377638    6.519095    1.094784
   51          6             0        1.465637    5.624596    2.055985
   52          6             0        1.715543    5.974197    3.393884
   53          1             0        2.178147    4.717300    6.522784
   54          1             0        2.460862    7.102599    7.031879
   55          1             0        2.269364    8.797097    5.251477
   56          1             0        1.884159    9.335095    2.847177
   57          1             0        1.431047    8.536993    0.538280
   58          1             0        1.337330    4.583996    1.777187
   59          6             0        1.375019    1.055200    3.844193
   60          6             0        0.415313    0.598803    2.935598
   61          6             0        0.304105   -0.747997    2.666900
   62          6             0        1.140603   -1.671200    3.299399
   63          6             0        2.068908   -1.216003    4.237095
   64          6             0        2.189816    0.132396    4.506392
   65          1             0       -0.238685    1.307606    2.454699
   66          1             0       -0.455699   -1.093294    1.984203
   67          1             0        2.722106   -1.917106    4.733094
   68          1             0        2.921621    0.480094    5.219089
   69          6             0        1.056594   -3.096500    2.951402
   70          6             0        1.142592   -4.113899    3.907903
   71          6             0        1.053584   -5.435899    3.507606
   72          6             0        0.881378   -5.727101    2.162807
   73          7             0        0.808779   -4.759702    1.252805
   74          6             0        0.894587   -3.479802    1.621303
   75          1             0        1.259297   -3.866298    4.951502
   76          1             0        1.111782   -6.235298    4.228307
   77          1             0        0.801671   -6.746501    1.802809
   78          1             0        0.851889   -2.732503    0.821802
   79          6             0       -4.108204   -0.751879   -0.153984
   80          6             0       -4.308010   -1.942578   -0.079482
   81          6             0       -4.643217   -3.307076    0.021022
   82          6             0       -5.958018   -3.668968    0.253427
   83          6             0       -6.331425   -5.013366    0.347631
   84          6             0       -5.401131   -6.014071    0.215629
   85          6             0       -4.051230   -5.692479   -0.012976
   86          6             0       -3.046535   -6.677784   -0.148678
   87          6             0       -1.751134   -6.303791   -0.357183
   88          7             0       -1.387128   -4.998594   -0.440686
   89          6             0       -2.293022   -4.050889   -0.327885
   90          6             0       -3.654023   -4.327081   -0.112780
   91          1             0       -6.707614   -2.899464    0.357728
   92          1             0       -7.367226   -5.258661    0.525635
   93          1             0       -5.691036   -7.050470    0.287232
   94          1             0       -3.317341   -7.719583   -0.082475
   95          1             0       -0.956239   -7.047596   -0.465184
   96          1             0       -1.948817   -3.024991   -0.406888
   97          6             0       -3.796098    0.620619   -0.242788
   98          6             0       -2.869399    1.062913   -1.191692
   99          6             0       -2.517092    2.394011   -1.244695
  100          6             0       -3.081884    3.315316   -0.359095
  101          6             0       -4.037383    2.877422    0.559209
  102          6             0       -4.390490    1.544324    0.621713
  103          1             0       -2.440905    0.356309   -1.883492
  104          1             0       -1.821393    2.730506   -1.996498
  105          1             0       -4.481677    3.577126    1.250009
  106          1             0       -5.116889    1.208629    1.345616
  107          6             0       -2.645377    4.718413   -0.382899
  108          6             0       -3.534971    5.788718   -0.238998
  109          6             0       -3.053064    7.085716   -0.274002
  110          6             0       -1.694463    7.299908   -0.450807
  111          7             0       -0.848069    6.281803   -0.578408
  112          6             0       -1.295476    5.024906   -0.544504
  113          1             0       -4.590971    5.601724   -0.120094
  114          1             0       -3.721359    7.925119   -0.170601
  115          1             0       -1.271858    8.297306   -0.489610
  116          1             0       -0.545080    4.231802   -0.630805
  117          6             0        0.294393    2.363789   -5.648205
  118          6             0        0.277898    3.562988   -5.805707
  119          6             0        0.242605    4.941688   -6.091709
  120          6             0        0.011302    5.361387   -7.389509
  121          6             0       -0.019092    6.721187   -7.714512
  122          6             0        0.176917    7.680287   -6.752214
  123          6             0        0.407019    7.299888   -5.417914
  124          6             0        0.607428    8.240889   -4.382017
  125          6             0        0.813130    7.811090   -3.103516
  126          7             0        0.832224    6.491391   -2.786014
  127          6             0        0.658716    5.583290   -3.722412
  128          6             0        0.441413    5.918089   -5.069812
  129          1             0       -0.142404    4.625286   -8.163608
  130          1             0       -0.198594    7.011786   -8.738312
  131          1             0        0.154821    8.728687   -7.004816
  132          1             0        0.592333    9.293589   -4.615718
  133          1             0        0.970737    8.519791   -2.285218
  134          1             0        0.688412    4.543190   -3.414910
  135          6             0        0.313886    0.978389   -5.384703
  136          6             0       -0.585220    0.118993   -6.022498
  137          6             0       -0.592126   -1.227007   -5.715996
  138          6             0        0.289974   -1.741910   -4.764798
  139          6             0        1.210781   -0.885014   -4.156703
  140          6             0        1.227187    0.458486   -4.462505
  141          1             0       -1.281721    0.514495   -6.745596
  142          1             0       -1.309331   -1.876504   -6.193592
  143          1             0        1.935181   -1.281616   -3.463605
  144          1             0        1.945792    1.115183   -4.000309
  145          6             0        0.239268   -3.158609   -4.377595
  146          6             0        0.056560   -4.189410   -5.305893
  147          6             0        0.020954   -5.502309   -4.869190
  148          6             0        0.166258   -5.771407   -3.516691
  149          7             0        0.330766   -4.790406   -2.633593
  150          6             0        0.365671   -3.518807   -3.037195
  151          1             0       -0.037243   -3.960711   -6.356093
  152          1             0       -0.113252   -6.312209   -5.567789
  153          1             0        0.149754   -6.783406   -3.128689
  154          1             0        0.479578   -2.757106   -2.258497
 --------------------------------------------------------------------
     1 basis functions        1 primitive gaussians
     1 alpha electrons        1 beta electrons
 
 Harmonic frequencies (cm**-1), IR intensities (KM/Mole),
 Raman scattering activities (A**4/amu), Raman depolarization ratios,
 reduced masses (AMU), force constants (mDyne/A) and normal coordinates:
                      1                      2                      3
                        a                      a                      a 
 Frequencies --     8.0799                13.7592                14.1654
 Red. masses --    11.2210                17.3952                17.3881
 Frc consts  --     0.0000                 0.0000                 0.0000
 IR Inten    --     0.0033                 0.3767                 0.3776
 Raman Activ --     0.0000                 0.0000                 0.0000
 Depolar     --     0.0000                 0.0000                 0.0000
 Atom AN      X      Y      Z        X      Y      Z        X      Y      Z
   1  46     0.00  -0.00   0.00    -0.25   0.01   0.00    -0.01  -0.00  -0.07
   2  46    -0.00  -0.00  -0.00    -0.07   0.00   0.01     0.00  -0.00  -0.25
   3   6    -0.01  -0.00  -0.05    -0.03   0.05   0.02     0.02  -0.01   0.08
   4   6    -0.01  -0.00  -0.08    -0.03   0.05   0.01     0.03  -0.01   0.11
   5   6    -0.02   0.00  -0.11    -0.03   0.05   0.01     0.04  -0.01   0.16
   6   6    -0.02   0.00  -0.16    -0.02   0.06   0.01     0.05  -0.01   0.26
   7   6    -0.03   0.00  -0.19    -0.01   0.06   0.00     0.06  -0.01   0.31
   8   6    -0.03   0.00  -0.18    -0.01   0.05  -0.00     0.05  -0.01   0.24
   9   6    -0.02   0.00  -0.14    -0.01   0.04  -0.00     0.03  -0.01   0.13
  10   6    -0.02   0.00  -0.13    -0.01   0.04  -0.00     0.02  -0.01   0.06
  11   6    -0.01  -0.00  -0.08    -0.01   0.03  -0.00     0.01  -0.01  -0.04
  12   7    -0.01  -0.00  -0.06    -0.02   0.03   0.00     0.00  -0.01  -0.07
  13   6    -0.01  -0.00  -0.06    -0.02   0.03   0.01     0.01  -0.01  -0.00
  14   6    -0.01   0.00  -0.10    -0.02   0.04   0.00     0.03  -0.01   0.09
  15   1    -0.01   0.00  -0.05    -0.01   0.02   0.00     0.02  -0.00   0.09
  16   1    -0.01   0.00  -0.07    -0.00   0.02  -0.00     0.02  -0.00   0.11
  17   1    -0.01   0.00  -0.06    -0.00   0.02  -0.00     0.02  -0.00   0.08
  18   1    -0.01   0.00  -0.04     0.00   0.01  -0.00     0.01  -0.00   0.02
  19   1    -0.00  -0.00  -0.02    -0.00   0.01  -0.00    -0.00  -0.00  -0.03
  20   1    -0.00  -0.00  -0.01    -0.01   0.01   0.00     0.00  -0.00  -0.01
  21   6    -0.00  -0.00  -0.02    -0.03   0.05   0.02     0.01  -0.01   0.05
  22   6     0.02   0.02   0.02    -0.03   0.05   0.03     0.01  -0.01   0.05
  23   6     0.02   0.02   0.04    -0.03   0.05   0.03     0.01  -0.02   0.03
  24   6     0.00  -0.00   0.03    -0.05   0.05   0.02    -0.01  -0.01   0.01
  25   6    -0.02  -0.02  -0.00    -0.05   0.04   0.01    -0.02   0.00   0.01
  26   6    -0.02  -0.02  -0.03    -0.05   0.04   0.01    -0.01   0.00   0.03
  27   1     0.01   0.01   0.01    -0.00   0.02   0.01     0.01  -0.01   0.02
  28   1     0.01   0.01   0.02    -0.01   0.02   0.01     0.00  -0.01   0.01
  29   1    -0.01  -0.01  -0.00    -0.02   0.01   0.00    -0.01   0.00  -0.00
  30   1    -0.01  -0.01  -0.01    -0.01   0.01   0.00    -0.01   0.00   0.01
  31   6     0.01  -0.00   0.06    -0.06   0.04   0.02    -0.01  -0.01  -0.01
  32   6     0.01   0.00   0.10    -0.07   0.05   0.03    -0.00  -0.01  -0.00
  33   6     0.02   0.00   0.12    -0.08   0.05   0.03    -0.00  -0.01  -0.01
  34   6     0.01   0.00   0.09    -0.08   0.04   0.02    -0.00  -0.01  -0.02
  35   7     0.01  -0.00   0.05    -0.08   0.03   0.00    -0.01  -0.00  -0.03
  36   6     0.00  -0.00   0.03    -0.07   0.03   0.01    -0.01  -0.01  -0.02
  37   1     0.00   0.00   0.03    -0.02   0.02   0.01    -0.00  -0.00   0.00
  38   1     0.01   0.00   0.04    -0.02   0.02   0.01     0.00  -0.00  -0.00
  39   1     0.00   0.00   0.03    -0.03   0.01   0.00     0.00  -0.00  -0.01
  40   1     0.00  -0.00  -0.00    -0.02   0.01  -0.00    -0.00  -0.00  -0.01
  41   6    -0.05   0.00   0.01     0.08  -0.01  -0.02    -0.02  -0.05  -0.03
  42   6    -0.08   0.00   0.01     0.11  -0.01  -0.03    -0.02  -0.05  -0.04
  43   6    -0.11   0.01   0.02     0.16  -0.02  -0.04    -0.01  -0.05  -0.03
  44   6    -0.16   0.01   0.03     0.26  -0.03  -0.06    -0.01  -0.06  -0.03
  45   6    -0.19   0.02   0.03     0.30  -0.03  -0.06    -0.00  -0.06  -0.02
  46   6    -0.19   0.01   0.03     0.24  -0.02  -0.05     0.00  -0.05  -0.01
  47   6    -0.14   0.01   0.02     0.13  -0.02  -0.03    -0.00  -0.04  -0.01
  48   6    -0.13   0.01   0.02     0.05  -0.01  -0.02     0.00  -0.04  -0.01
  49   6    -0.08   0.00   0.01    -0.04  -0.00  -0.00     0.00  -0.03  -0.01
  50   7    -0.06   0.00   0.01    -0.07  -0.00  -0.00    -0.00  -0.03  -0.02
  51   6    -0.06   0.00   0.01    -0.00  -0.00  -0.01    -0.01  -0.03  -0.03
  52   6    -0.10   0.01   0.02     0.09  -0.01  -0.03    -0.01  -0.04  -0.02
  53   1    -0.05   0.00   0.01     0.09  -0.01  -0.02    -0.00  -0.02  -0.01
  54   1    -0.07   0.01   0.01     0.11  -0.01  -0.02    -0.00  -0.02  -0.00
  55   1    -0.06   0.00   0.01     0.08  -0.01  -0.02     0.00  -0.02  -0.00
  56   1    -0.04   0.00   0.01     0.02  -0.00  -0.01     0.00  -0.01   0.00
  57   1    -0.02   0.00   0.00    -0.03   0.00   0.00     0.00  -0.01  -0.00
  58   1    -0.01   0.00   0.00    -0.01  -0.00  -0.00    -0.00  -0.01  -0.01
  59   6    -0.02  -0.00   0.00     0.05  -0.01  -0.01    -0.02  -0.05  -0.04
  60   6    -0.03  -0.02   0.02     0.02  -0.00   0.01    -0.01  -0.04  -0.05
  61   6    -0.00  -0.02   0.02     0.00  -0.00   0.02    -0.02  -0.04  -0.06
  62   6     0.03  -0.00  -0.00     0.01  -0.01   0.01    -0.03  -0.04  -0.05
  63   6     0.05   0.01  -0.02     0.03  -0.02  -0.01    -0.04  -0.05  -0.03
  64   6     0.02   0.01  -0.02     0.05  -0.02  -0.02    -0.04  -0.05  -0.03
  65   1    -0.02  -0.01   0.01     0.01   0.00   0.01    -0.00  -0.01  -0.02
  66   1    -0.00  -0.01   0.01    -0.00   0.00   0.01    -0.00  -0.01  -0.02
  67   1     0.02   0.01  -0.01     0.01  -0.01  -0.01    -0.01  -0.02  -0.01
  68   1     0.01   0.01  -0.01     0.02  -0.01  -0.01    -0.01  -0.02  -0.00
  69   6     0.06  -0.00  -0.01    -0.01  -0.01   0.01    -0.03  -0.04  -0.06
  70   6     0.10  -0.01  -0.01     0.00  -0.01   0.00    -0.04  -0.05  -0.07
  71   6     0.12  -0.01  -0.01    -0.00  -0.01   0.00    -0.03  -0.05  -0.08
  72   6     0.09  -0.01  -0.01    -0.01  -0.01   0.00    -0.02  -0.03  -0.09
  73   7     0.05  -0.00  -0.01    -0.02  -0.00   0.00    -0.00  -0.03  -0.08
  74   6     0.03  -0.00  -0.00    -0.02  -0.00   0.01    -0.01  -0.03  -0.07
  75   1     0.04  -0.00  -0.00     0.00  -0.00   0.00    -0.02  -0.02  -0.02
  76   1     0.04  -0.00  -0.01     0.00  -0.00  -0.00    -0.01  -0.01  -0.03
  77   1     0.03  -0.00  -0.00    -0.00  -0.00  -0.00    -0.00  -0.01  -0.03
  78   1    -0.00  -0.00  -0.00    -0.01  -0.00   0.00     0.00  -0.01  -0.02
  79   6     0.01  -0.00   0.05    -0.04  -0.05   0.02     0.02   0.01   0.08
  80   6     0.01   0.00   0.08    -0.04  -0.05   0.01     0.03   0.01   0.11
  81   6     0.02   0.00   0.11    -0.03  -0.05   0.01     0.04   0.01   0.16
  82   6     0.02   0.00   0.16    -0.03  -0.06   0.00     0.06   0.01   0.27
  83   6     0.03   0.01   0.19    -0.02  -0.06  -0.00     0.06   0.01   0.31
  84   6     0.03   0.00   0.19    -0.01  -0.05  -0.00     0.05   0.01   0.24
  85   6     0.02   0.00   0.14    -0.02  -0.04  -0.00     0.03   0.01   0.13
  86   6     0.02   0.00   0.13    -0.01  -0.04  -0.00     0.02   0.01   0.06
  87   6     0.01   0.00   0.08    -0.01  -0.03  -0.00     0.01   0.00  -0.04
  88   7     0.01  -0.00   0.06    -0.02  -0.02   0.00     0.00   0.00  -0.07
  89   6     0.01  -0.00   0.06    -0.03  -0.03   0.01     0.01   0.00  -0.00
  90   6     0.01   0.00   0.10    -0.03  -0.04   0.00     0.03   0.01   0.09
  91   1     0.01   0.00   0.05    -0.01  -0.02   0.00     0.02   0.00   0.09
  92   1     0.01   0.00   0.07    -0.01  -0.02  -0.00     0.02   0.00   0.11
  93   1     0.01   0.00   0.06    -0.00  -0.02  -0.00     0.02   0.00   0.08
  94   1     0.01   0.00   0.04    -0.00  -0.01  -0.00     0.01   0.00   0.02
  95   1     0.00  -0.00   0.02    -0.00  -0.01  -0.00    -0.00   0.00  -0.03
  96   1     0.00  -0.00   0.01    -0.01  -0.01   0.00     0.00   0.00  -0.01
  97   6     0.00  -0.00   0.02    -0.04  -0.04   0.02     0.01   0.01   0.05
  98   6     0.02  -0.02   0.03    -0.05  -0.04   0.01    -0.01   0.00   0.02
  99   6     0.02  -0.02   0.00    -0.06  -0.03   0.02    -0.02   0.00   0.00
 100   6    -0.00  -0.00  -0.03    -0.05  -0.04   0.03    -0.01   0.01   0.01
 101   6    -0.02   0.02  -0.04    -0.04  -0.05   0.03     0.01   0.02   0.03
 102   6    -0.02   0.02  -0.02    -0.03  -0.05   0.03     0.02   0.01   0.05
 103   1     0.01  -0.01   0.02    -0.02  -0.01   0.00    -0.01  -0.00   0.01
 104   1     0.01  -0.01   0.00    -0.02  -0.01   0.00    -0.01  -0.00  -0.00
 105   1    -0.01   0.01  -0.02    -0.01  -0.02   0.01     0.01   0.01   0.01
 106   1    -0.01   0.01  -0.01    -0.01  -0.02   0.01     0.01   0.01   0.02
 107   6    -0.01  -0.00  -0.06    -0.06  -0.04   0.02    -0.01   0.01  -0.01
 108   6    -0.01  -0.00  -0.10    -0.07  -0.05   0.04    -0.00   0.01   0.00
 109   6    -0.02   0.00  -0.12    -0.08  -0.04   0.03     0.00   0.01  -0.00
 110   6    -0.01  -0.00  -0.09    -0.09  -0.03   0.02    -0.00   0.01  -0.02
 111   7    -0.01  -0.00  -0.05    -0.09  -0.02   0.01    -0.00   0.00  -0.02
 112   6    -0.00  -0.00  -0.03    -0.07  -0.02   0.01    -0.01   0.01  -0.02
 113   1    -0.00  -0.00  -0.04    -0.02  -0.02   0.01    -0.00   0.00   0.00
 114   1    -0.01   0.00  -0.05    -0.03  -0.01   0.01     0.00   0.00   0.00
 115   1    -0.00  -0.00  -0.03    -0.03  -0.01   0.00     0.00   0.00  -0.01
 116   1     0.00  -0.00   0.00    -0.02  -0.01  -0.00    -0.00   0.00  -0.01
 117   6     0.05  -0.00  -0.01     0.08   0.00  -0.02    -0.01   0.05  -0.03
 118   6     0.08  -0.00  -0.01     0.11   0.00  -0.03    -0.01   0.05  -0.04
 119   6     0.11  -0.00  -0.02     0.16   0.00  -0.04    -0.01   0.05  -0.03
 120   6     0.16  -0.00  -0.03     0.27  -0.00  -0.06    -0.00   0.06  -0.03
 121   6     0.19  -0.00  -0.03     0.31  -0.00  -0.07     0.00   0.06  -0.02
 122   6     0.18  -0.00  -0.03     0.24  -0.00  -0.05     0.01   0.05  -0.01
 123   6     0.14  -0.00  -0.02     0.13   0.00  -0.03     0.00   0.04  -0.01
 124   6     0.13  -0.00  -0.02     0.06   0.00  -0.02     0.01   0.04  -0.01
 125   6     0.08  -0.00  -0.01    -0.04   0.01  -0.00     0.00   0.03  -0.01
 126   7     0.06  -0.00  -0.01    -0.07   0.01  -0.00    -0.00   0.03  -0.02
 127   6     0.06  -0.00  -0.01    -0.00   0.01  -0.01    -0.00   0.03  -0.03
 128   6     0.10  -0.00  -0.02     0.09   0.00  -0.03    -0.00   0.04  -0.02
 129   1     0.05  -0.00  -0.01     0.09  -0.00  -0.02    -0.00   0.02  -0.01
 130   1     0.07  -0.00  -0.01     0.11  -0.00  -0.02     0.00   0.02  -0.00
 131   1     0.06  -0.00  -0.01     0.08  -0.00  -0.02     0.00   0.02  -0.00
 132   1     0.04  -0.00  -0.01     0.02   0.00  -0.01     0.00   0.01  -0.00
 133   1     0.02  -0.00  -0.00    -0.03   0.00   0.00     0.00   0.01  -0.00
 134   1     0.01  -0.00  -0.00    -0.01   0.00  -0.00    -0.00   0.01  -0.01
 135   6     0.02  -0.00  -0.00     0.05   0.00  -0.01    -0.02   0.05  -0.04
 136   6    -0.02   0.02   0.02     0.05   0.01  -0.01    -0.03   0.05  -0.03
 137   6    -0.04   0.02   0.02     0.03   0.01  -0.01    -0.03   0.05  -0.04
 138   6    -0.03  -0.00   0.00     0.01   0.01   0.01    -0.02   0.04  -0.05
 139   6    -0.00  -0.02  -0.02     0.00   0.00   0.02    -0.01   0.04  -0.06
 140   6     0.02  -0.02  -0.02     0.02  -0.00   0.01    -0.01   0.04  -0.05
 141   1    -0.01   0.01   0.01     0.02   0.00  -0.01    -0.01   0.02  -0.01
 142   1    -0.02   0.01   0.01     0.01   0.01  -0.00    -0.01   0.02  -0.01
 143   1     0.00  -0.01  -0.01    -0.00  -0.00   0.01    -0.00   0.01  -0.02
 144   1     0.01  -0.01  -0.01     0.01  -0.00   0.01    -0.00   0.01  -0.02
 145   6    -0.06   0.00   0.01    -0.01   0.01   0.01    -0.02   0.04  -0.06
 146   6    -0.10   0.00   0.01    -0.00   0.01   0.00    -0.03   0.05  -0.07
 147   6    -0.12   0.01   0.01    -0.01   0.01   0.00    -0.03   0.05  -0.08
 148   6    -0.09   0.00   0.01    -0.02   0.01   0.00    -0.01   0.03  -0.09
 149   7    -0.05   0.00   0.01    -0.03   0.01   0.01    -0.00   0.03  -0.09
 150   6    -0.03   0.00   0.00    -0.02   0.01   0.01    -0.00   0.03  -0.07
 151   1    -0.03   0.00   0.00     0.00   0.00   0.00    -0.01   0.02  -0.02
 152   1    -0.04   0.00   0.01    -0.00   0.00  -0.00    -0.01   0.02  -0.03
 153   1    -0.03   0.00   0.00    -0.01   0.00   0.00    -0.00   0.01  -0.03
 154   1     0.00  -0.00  -0.00    -0.01   0.00   0.00     0.00   0.01  -0.02
                      4                      5                      6
                        a                      a                      a 
 Frequencies --    16.5567                18.2332                24.0491
 Red. masses --    10.7781                11.0582                17.1625
 Frc consts  --     0.0000                 0.0000                 0.0000
 IR Inten    --     0.0693                 0.0101                 0.2079
 Raman Activ --     0.0000                 0.0000                 0.0000
 Depolar     --     0.0000                 0.0000                 0.0000
 Atom AN      X      Y      Z        X      Y      Z        X      Y      Z
   1  46     0.00   0.02   0.00     0.00  -0.01  -0.00    -0.01   0.00   0.17
   2  46    -0.01   0.02  -0.00    -0.00   0.01  -0.00    -0.18   0.01  -0.08
   3   6     0.01   0.00   0.06     0.01  -0.01  -0.01    -0.04  -0.00  -0.05
   4   6     0.01   0.00   0.07     0.01  -0.01   0.03    -0.05  -0.01  -0.03
   5   6     0.01   0.00   0.07     0.02  -0.01   0.08    -0.05  -0.01   0.01
   6   6     0.02  -0.00   0.10     0.03  -0.02   0.16    -0.04  -0.01   0.05
   7   6     0.01  -0.00   0.10     0.03  -0.02   0.20    -0.04  -0.02   0.09
   8   6     0.01   0.00   0.07     0.02  -0.01   0.17    -0.04  -0.01   0.10
   9   6     0.00   0.00   0.04     0.01  -0.01   0.09    -0.05  -0.01   0.06
  10   6    -0.00   0.00  -0.00     0.00  -0.00   0.05    -0.05  -0.00   0.06
  11   6    -0.01   0.01  -0.03    -0.01   0.00  -0.01    -0.06   0.00   0.02
  12   7    -0.00   0.01  -0.02    -0.01   0.00  -0.03    -0.06   0.00  -0.02
  13   6     0.00   0.00   0.02     0.00  -0.00  -0.00    -0.05   0.00  -0.02
  14   6     0.00   0.00   0.04     0.01  -0.01   0.06    -0.05  -0.00   0.02
  15   1     0.01  -0.00   0.04     0.01  -0.01   0.05    -0.01  -0.01   0.01
  16   1     0.01  -0.00   0.04     0.01  -0.01   0.07    -0.01  -0.01   0.04
  17   1     0.00   0.00   0.02     0.01  -0.00   0.06    -0.01  -0.00   0.04
  18   1    -0.00   0.00  -0.00     0.00  -0.00   0.02    -0.01  -0.00   0.02
  19   1    -0.00   0.00  -0.02    -0.00   0.00  -0.01    -0.02   0.00   0.00
  20   1     0.00   0.00   0.01     0.00  -0.00  -0.01    -0.02   0.00  -0.01
  21   6     0.00  -0.00   0.06    -0.00  -0.01  -0.04    -0.03  -0.00  -0.06
  22   6     0.07   0.02   0.14    -0.03  -0.02  -0.07    -0.08  -0.01  -0.11
  23   6     0.07   0.02   0.14    -0.03  -0.02  -0.09    -0.08  -0.01  -0.11
  24   6    -0.00  -0.00   0.08    -0.01  -0.01  -0.08    -0.02  -0.00  -0.06
  25   6    -0.08  -0.02   0.01     0.01   0.00  -0.06     0.04   0.01  -0.01
  26   6    -0.08  -0.02   0.00     0.01   0.01  -0.04     0.03   0.01  -0.01
  27   1     0.04   0.01   0.05    -0.01  -0.01  -0.02    -0.04  -0.01  -0.04
  28   1     0.04   0.01   0.06    -0.01  -0.01  -0.03    -0.03  -0.01  -0.04
  29   1    -0.04  -0.01  -0.01     0.01   0.00  -0.01     0.03   0.00   0.01
  30   1    -0.04  -0.01  -0.02     0.01   0.00  -0.00     0.02   0.00   0.01
  31   6     0.01   0.00   0.10    -0.01  -0.01  -0.09    -0.02  -0.00  -0.05
  32   6     0.02   0.00   0.19    -0.02  -0.01  -0.14    -0.03  -0.00  -0.12
  33   6     0.03   0.00   0.20    -0.02  -0.01  -0.14    -0.03  -0.00  -0.11
  34   6     0.02   0.01   0.13    -0.01  -0.01  -0.09    -0.02  -0.00  -0.03
  35   7     0.01   0.01   0.04    -0.01  -0.01  -0.05    -0.01   0.00   0.04
  36   6    -0.00   0.00   0.02    -0.01  -0.01  -0.05    -0.01   0.00   0.03
  37   1     0.01  -0.00   0.07    -0.01  -0.00  -0.05    -0.01  -0.00  -0.05
  38   1     0.01   0.00   0.08    -0.01  -0.00  -0.05    -0.01  -0.00  -0.05
  39   1     0.01   0.00   0.04    -0.00  -0.00  -0.02    -0.00  -0.00  -0.00
  40   1    -0.00   0.00  -0.02    -0.00  -0.00  -0.01    -0.00   0.00   0.03
  41   6     0.06  -0.01  -0.01     0.02   0.01   0.01     0.07   0.02   0.01
  42   6     0.07  -0.01  -0.01    -0.02   0.01   0.01     0.05   0.02   0.04
  43   6     0.08  -0.01  -0.02    -0.07   0.02   0.02     0.02   0.02   0.05
  44   6     0.13  -0.01  -0.02    -0.13   0.03   0.03     0.01   0.03   0.05
  45   6     0.13  -0.01  -0.02    -0.18   0.03   0.03    -0.02   0.03   0.05
  46   6     0.09  -0.01  -0.01    -0.15   0.02   0.02    -0.03   0.03   0.06
  47   6     0.05  -0.00  -0.01    -0.09   0.01   0.01    -0.02   0.03   0.05
  48   6     0.01   0.00   0.00    -0.05   0.01   0.00    -0.04   0.03   0.06
  49   6    -0.03   0.01   0.01     0.00   0.00  -0.00    -0.03   0.02   0.05
  50   7    -0.02   0.01   0.00     0.03  -0.00  -0.00    -0.01   0.02   0.06
  51   6     0.02   0.00  -0.00     0.01   0.00   0.00     0.01   0.02   0.05
  52   6     0.05  -0.00  -0.01    -0.05   0.01   0.01     0.00   0.03   0.05
  53   1     0.04  -0.00  -0.01    -0.04   0.01   0.01     0.01   0.01   0.01
  54   1     0.05  -0.01  -0.01    -0.07   0.01   0.01    -0.01   0.01   0.02
  55   1     0.03  -0.00  -0.00    -0.05   0.01   0.01    -0.02   0.01   0.02
  56   1     0.00   0.00   0.00    -0.02   0.00   0.00    -0.02   0.01   0.02
  57   1    -0.02   0.00   0.00     0.01  -0.00  -0.00    -0.01   0.01   0.02
  58   1     0.01   0.00  -0.00     0.01  -0.00   0.00     0.01   0.01   0.02
  59   6     0.06  -0.01  -0.00     0.06   0.00  -0.00     0.09   0.02  -0.01
  60   6    -0.01  -0.02   0.08     0.03  -0.01   0.03     0.03   0.02   0.06
  61   6    -0.01  -0.02   0.08     0.06  -0.01   0.03     0.03   0.02   0.04
  62   6     0.07  -0.01   0.01     0.10   0.00  -0.01     0.10   0.03  -0.04
  63   6     0.13   0.00  -0.06     0.13   0.02  -0.05     0.17   0.03  -0.11
  64   6     0.13   0.01  -0.07     0.11   0.02  -0.04     0.17   0.03  -0.10
  65   1    -0.02  -0.01   0.04    -0.00  -0.01   0.02    -0.01   0.00   0.04
  66   1    -0.02  -0.01   0.04     0.01  -0.01   0.02    -0.01   0.01   0.03
  67   1     0.05   0.00  -0.03     0.05   0.01  -0.02     0.07   0.01  -0.05
  68   1     0.05   0.00  -0.04     0.04   0.01  -0.02     0.06   0.01  -0.04
  69   6     0.08  -0.01  -0.00     0.12   0.00  -0.02     0.09   0.03  -0.05
  70   6     0.17  -0.02  -0.02     0.19  -0.00  -0.02     0.19   0.03  -0.06
  71   6     0.18  -0.01  -0.03     0.18  -0.00  -0.02     0.16   0.03  -0.06
  72   6     0.11  -0.00  -0.02     0.12   0.00  -0.01     0.05   0.03  -0.04
  73   7     0.03   0.00  -0.01     0.06   0.00  -0.01    -0.04   0.04  -0.04
  74   6     0.01   0.00   0.00     0.05   0.00  -0.01    -0.02   0.04  -0.04
  75   1     0.07  -0.01  -0.01     0.07  -0.00  -0.01     0.08   0.01  -0.02
  76   1     0.07  -0.01  -0.01     0.07  -0.00  -0.01     0.07   0.01  -0.02
  77   1     0.03  -0.00  -0.01     0.03   0.00  -0.00     0.01   0.01  -0.01
  78   1    -0.02   0.00   0.00     0.00   0.00  -0.00    -0.03   0.01  -0.01
  79   6    -0.01  -0.00  -0.06    -0.01  -0.01   0.01    -0.03   0.01  -0.05
  80   6    -0.01  -0.00  -0.06    -0.01  -0.01  -0.03    -0.04   0.01  -0.02
  81   6    -0.01  -0.00  -0.07    -0.02  -0.01  -0.08    -0.05   0.01   0.02
  82   6    -0.02  -0.00  -0.10    -0.03  -0.02  -0.15    -0.04   0.02   0.06
  83   6    -0.02  -0.00  -0.10    -0.03  -0.02  -0.19    -0.04   0.02   0.10
  84   6    -0.01  -0.00  -0.06    -0.03  -0.02  -0.16    -0.04   0.02   0.10
  85   6    -0.01   0.00  -0.03    -0.01  -0.01  -0.09    -0.05   0.01   0.06
  86   6     0.00   0.00   0.00    -0.01  -0.01  -0.05    -0.05   0.01   0.05
  87   6     0.00   0.00   0.03     0.00   0.00   0.01    -0.06   0.00   0.01
  88   7     0.00   0.01   0.02     0.00   0.00   0.03    -0.06   0.00  -0.02
  89   6    -0.00   0.00  -0.01    -0.00  -0.00   0.00    -0.05   0.00  -0.02
  90   6    -0.01   0.00  -0.04    -0.01  -0.01  -0.05    -0.05   0.01   0.02
  91   1    -0.01  -0.00  -0.03    -0.01  -0.01  -0.05    -0.01   0.01   0.02
  92   1    -0.01  -0.00  -0.04    -0.01  -0.01  -0.07    -0.01   0.01   0.04
  93   1    -0.00  -0.00  -0.02    -0.01  -0.00  -0.06    -0.01   0.01   0.04
  94   1     0.00   0.00   0.00    -0.00  -0.00  -0.02    -0.01   0.00   0.02
  95   1     0.00   0.00   0.02     0.00   0.00   0.01    -0.02  -0.00   0.00
  96   1    -0.00   0.00  -0.01    -0.00  -0.00   0.01    -0.02   0.00  -0.01
  97   6    -0.00  -0.00  -0.06     0.00  -0.01   0.04    -0.03   0.00  -0.06
  98   6     0.08  -0.03   0.00    -0.01   0.01   0.04     0.03  -0.01  -0.01
  99   6     0.08  -0.03  -0.01    -0.01   0.01   0.06     0.03  -0.01  -0.01
 100   6     0.00  -0.01  -0.08     0.01  -0.01   0.09    -0.02   0.00  -0.05
 101   6    -0.07   0.02  -0.15     0.03  -0.02   0.10    -0.07   0.02  -0.11
 102   6    -0.07   0.02  -0.14     0.03  -0.02   0.08    -0.08   0.02  -0.11
 103   1     0.04  -0.01   0.02    -0.01   0.01   0.00     0.02  -0.01   0.01
 104   1     0.04  -0.02   0.01    -0.01   0.01   0.01     0.02  -0.01   0.01
 105   1    -0.04   0.01  -0.06     0.01  -0.01   0.04    -0.03   0.01  -0.04
 106   1    -0.04   0.01  -0.05     0.01  -0.01   0.02    -0.03   0.01  -0.04
 107   6    -0.00  -0.00  -0.10     0.01  -0.01   0.10    -0.02   0.00  -0.05
 108   6    -0.02  -0.00  -0.20     0.02  -0.01   0.14    -0.03   0.00  -0.12
 109   6    -0.03  -0.00  -0.22     0.02  -0.01   0.14    -0.03   0.00  -0.10
 110   6    -0.02   0.00  -0.13     0.01  -0.01   0.09    -0.02   0.00  -0.02
 111   7    -0.00   0.00  -0.04     0.01  -0.01   0.05    -0.01   0.00   0.04
 112   6     0.00   0.00  -0.02     0.01  -0.01   0.05    -0.01   0.00   0.03
 113   1    -0.01  -0.00  -0.08     0.01  -0.00   0.05    -0.01   0.00  -0.05
 114   1    -0.01  -0.00  -0.08     0.01  -0.00   0.05    -0.01   0.00  -0.04
 115   1    -0.01   0.00  -0.04     0.00  -0.00   0.02    -0.00   0.00  -0.00
 116   1     0.00   0.00   0.02     0.00  -0.00   0.00    -0.00   0.00   0.03
 117   6    -0.06   0.00   0.01    -0.02   0.01  -0.01     0.07  -0.03   0.01
 118   6    -0.07   0.00   0.02     0.02   0.01  -0.01     0.05  -0.03   0.04
 119   6    -0.08   0.00   0.02     0.06   0.01  -0.02     0.02  -0.03   0.05
 120   6    -0.13  -0.00   0.03     0.13   0.01  -0.03     0.01  -0.03   0.05
 121   6    -0.14  -0.00   0.03     0.17   0.01  -0.03    -0.02  -0.03   0.05
 122   6    -0.10   0.00   0.02     0.14   0.01  -0.02    -0.04  -0.03   0.06
 123   6    -0.05   0.00   0.01     0.08   0.01  -0.01    -0.03  -0.02   0.06
 124   6    -0.01   0.00  -0.00     0.05   0.00  -0.00    -0.04  -0.02   0.06
 125   6     0.03   0.00  -0.01    -0.00   0.00   0.00    -0.03  -0.02   0.05
 126   7     0.02   0.00  -0.00    -0.03   0.00   0.00    -0.01  -0.02   0.06
 127   6    -0.01   0.00   0.00    -0.00   0.00  -0.00     0.01  -0.02   0.05
 128   6    -0.05   0.00   0.01     0.04   0.01  -0.01     0.00  -0.02   0.05
 129   1    -0.05  -0.00   0.01     0.04   0.00  -0.01     0.01  -0.01   0.01
 130   1    -0.05  -0.00   0.01     0.06   0.00  -0.01    -0.01  -0.01   0.02
 131   1    -0.03  -0.00   0.00     0.05   0.00  -0.01    -0.02  -0.01   0.02
 132   1    -0.00   0.00  -0.00     0.02   0.00  -0.00    -0.02  -0.01   0.02
 133   1     0.02   0.00  -0.00    -0.01  -0.00   0.00    -0.01  -0.00   0.02
 134   1    -0.00   0.00   0.00    -0.01   0.00  -0.00     0.01  -0.01   0.02
 135   6    -0.05  -0.00  -0.00    -0.05   0.01   0.00     0.09  -0.03  -0.01
 136   6    -0.12   0.02   0.06    -0.10   0.03   0.04     0.17  -0.05  -0.10
 137   6    -0.12   0.02   0.06    -0.12   0.03   0.04     0.18  -0.05  -0.12
 138   6    -0.06  -0.00  -0.01    -0.10   0.01   0.01     0.11  -0.04  -0.04
 139   6     0.00  -0.03  -0.08    -0.06  -0.01  -0.02     0.03  -0.03   0.05
 140   6     0.01  -0.02  -0.07    -0.04  -0.01  -0.03     0.03  -0.02   0.06
 141   1    -0.05   0.01   0.03    -0.03   0.01   0.02     0.07  -0.02  -0.05
 142   1    -0.05   0.01   0.03    -0.05   0.01   0.02     0.07  -0.02  -0.05
 143   1     0.01  -0.01  -0.04    -0.01  -0.01  -0.01    -0.01  -0.00   0.03
 144   1     0.02  -0.01  -0.04    -0.00  -0.01  -0.02    -0.01  -0.00   0.04
 145   6    -0.08  -0.00  -0.00    -0.11   0.01   0.01     0.10  -0.04  -0.05
 146   6    -0.16   0.00   0.01    -0.17   0.02   0.02     0.20  -0.05  -0.06
 147   6    -0.17   0.00   0.02    -0.17   0.02   0.02     0.17  -0.05  -0.06
 148   6    -0.11   0.01   0.02    -0.11   0.01   0.01     0.06  -0.04  -0.04
 149   7    -0.03   0.01   0.00    -0.06   0.01   0.01    -0.04  -0.04  -0.04
 150   6    -0.01   0.00  -0.01    -0.05   0.01   0.01    -0.02  -0.04  -0.04
 151   1    -0.06  -0.00   0.01    -0.06   0.01   0.01     0.08  -0.02  -0.02
 152   1    -0.07   0.00   0.01    -0.06   0.01   0.01     0.07  -0.02  -0.02
 153   1    -0.03   0.00   0.01    -0.03   0.00   0.00     0.01  -0.01  -0.01
 154   1     0.02   0.00  -0.00    -0.00   0.00   0.00    -0.03  -0.01  -0.01
                      7                      8                      9
                        a                      a                      a 
 Frequencies --    24.2786                29.0068                29.1622
 Red. masses --    17.4813                16.2940                15.8664
 Frc consts  --     0.0000                 0.0000                 0.0000
 IR Inten    --     0.2115                 0.0590                 0.0678
 Raman Activ --     0.0000                 0.0000                 0.0000
 Depolar     --     0.0000                 0.0000                 0.0000
 Atom AN      X      Y      Z        X      Y      Z        X      Y      Z
   1  46    -0.09   0.01   0.17     0.09  -0.01   0.13     0.15   0.02  -0.04
   2  46     0.18  -0.01   0.02    -0.04   0.01  -0.15    -0.12  -0.02   0.10
   3   6     0.01  -0.04  -0.07     0.01   0.05  -0.03    -0.02   0.09  -0.05
   4   6     0.04  -0.03  -0.05    -0.00   0.05  -0.02    -0.05   0.08  -0.02
   5   6     0.05  -0.03  -0.02    -0.00   0.05  -0.00    -0.05   0.08  -0.00
   6   6     0.05  -0.04  -0.01     0.01   0.06   0.03    -0.05   0.10  -0.01
   7   6     0.05  -0.04   0.02     0.02   0.06   0.05    -0.03   0.10   0.02
   8   6     0.06  -0.04   0.04     0.02   0.05   0.05    -0.01   0.09   0.04
   9   6     0.05  -0.03   0.03     0.01   0.05   0.01    -0.02   0.08   0.04
  10   6     0.05  -0.03   0.04     0.01   0.04   0.01    -0.00   0.06   0.06
  11   6     0.05  -0.03   0.03     0.01   0.04  -0.02    -0.01   0.05   0.06
  12   7     0.06  -0.03   0.01    -0.00   0.04  -0.05    -0.03   0.05   0.05
  13   6     0.05  -0.03  -0.01    -0.01   0.04  -0.04    -0.04   0.06   0.03
  14   6     0.05  -0.03  -0.00    -0.00   0.05  -0.01    -0.04   0.07   0.02
  15   1     0.01  -0.01  -0.01     0.00   0.02   0.01    -0.02   0.03  -0.01
  16   1     0.02  -0.01   0.01     0.01   0.02   0.02    -0.01   0.03   0.00
  17   1     0.02  -0.01   0.02     0.01   0.02   0.02    -0.00   0.03   0.02
  18   1     0.02  -0.01   0.02     0.01   0.01   0.01     0.00   0.02   0.02
  19   1     0.02  -0.01   0.01     0.00   0.01  -0.01     0.00   0.01   0.02
  20   1     0.02  -0.01  -0.01    -0.00   0.01  -0.02    -0.02   0.02   0.00
  21   6    -0.01  -0.04  -0.09     0.02   0.05  -0.02     0.01   0.09  -0.06
  22   6    -0.10  -0.05  -0.17     0.03   0.06  -0.02    -0.02   0.07  -0.10
  23   6    -0.12  -0.05  -0.17     0.04   0.06  -0.01     0.01   0.07  -0.10
  24   6    -0.05  -0.04  -0.10     0.05   0.06   0.00     0.06   0.10  -0.07
  25   6     0.04  -0.04  -0.04     0.04   0.05  -0.00     0.09   0.12  -0.02
  26   6     0.05  -0.03  -0.03     0.03   0.05  -0.01     0.07   0.12  -0.02
  27   1    -0.05  -0.01  -0.06     0.01   0.02  -0.01    -0.02   0.01  -0.04
  28   1    -0.06  -0.02  -0.07     0.01   0.02  -0.00    -0.00   0.02  -0.04
  29   1     0.03  -0.01   0.00     0.01   0.02   0.00     0.04   0.04   0.00
  30   1     0.04  -0.01   0.01     0.01   0.01  -0.00     0.03   0.04   0.00
  31   6    -0.06  -0.05  -0.09     0.05   0.06   0.02     0.07   0.10  -0.07
  32   6    -0.07  -0.05  -0.19     0.04   0.06   0.03     0.06   0.10  -0.12
  33   6    -0.06  -0.05  -0.17     0.04   0.06   0.05     0.05   0.10  -0.11
  34   6    -0.05  -0.04  -0.05     0.03   0.05   0.06     0.05   0.09  -0.06
  35   7    -0.04  -0.04   0.04     0.04   0.05   0.05     0.07   0.10  -0.02
  36   6    -0.04  -0.04   0.02     0.05   0.05   0.02     0.07   0.09  -0.03
  37   1    -0.02  -0.02  -0.08     0.01   0.02   0.01     0.02   0.03  -0.05
  38   1    -0.02  -0.01  -0.07     0.01   0.02   0.02     0.01   0.03  -0.04
  39   1    -0.01  -0.01  -0.01     0.01   0.01   0.02     0.01   0.03  -0.01
  40   1    -0.01  -0.01   0.03     0.01   0.01   0.00     0.02   0.02   0.00
  41   6    -0.05  -0.00   0.03    -0.01   0.09   0.02     0.05  -0.06  -0.01
  42   6    -0.03  -0.01   0.04     0.00   0.08   0.05     0.04  -0.06  -0.02
  43   6     0.01  -0.01   0.04     0.01   0.08   0.05     0.01  -0.06  -0.01
  44   6     0.05  -0.02   0.04     0.01   0.09   0.05    -0.02  -0.07  -0.00
  45   6     0.09  -0.03   0.04     0.02   0.09   0.04    -0.06  -0.07   0.02
  46   6     0.10  -0.02   0.04     0.03   0.08   0.03    -0.07  -0.06   0.02
  47   6     0.06  -0.01   0.05     0.03   0.07   0.03    -0.04  -0.05   0.02
  48   6     0.05  -0.01   0.05     0.03   0.06   0.02    -0.04  -0.04   0.03
  49   6     0.01  -0.00   0.05     0.03   0.05   0.03    -0.01  -0.03   0.02
  50   7    -0.02   0.00   0.06     0.03   0.05   0.04     0.03  -0.03  -0.00
  51   6    -0.02  -0.00   0.05     0.03   0.06   0.05     0.03  -0.04  -0.01
  52   6     0.01  -0.01   0.05     0.02   0.07   0.04     0.00  -0.05  -0.00
  53   1     0.01  -0.01   0.01     0.00   0.03   0.02    -0.01  -0.02  -0.00
  54   1     0.04  -0.01   0.01     0.01   0.03   0.01    -0.02  -0.02   0.01
  55   1     0.04  -0.01   0.01     0.01   0.02   0.01    -0.03  -0.02   0.01
  56   1     0.02  -0.00   0.01     0.01   0.02   0.00    -0.02  -0.01   0.01
  57   1     0.00   0.00   0.02     0.01   0.01   0.01    -0.00  -0.01   0.01
  58   1    -0.02   0.00   0.02     0.01   0.02   0.02     0.02  -0.01  -0.01
  59   6    -0.06  -0.00   0.03    -0.02   0.09  -0.01     0.04  -0.06   0.00
  60   6    -0.01   0.01  -0.02     0.02   0.13  -0.07     0.04  -0.06   0.01
  61   6    -0.01   0.01  -0.03     0.01   0.13  -0.10     0.01  -0.06   0.02
  62   6    -0.05  -0.00   0.02    -0.05   0.11  -0.07    -0.00  -0.06   0.03
  63   6    -0.10  -0.01   0.07    -0.08   0.07  -0.02     0.00  -0.07   0.03
  64   6    -0.10  -0.01   0.08    -0.07   0.07   0.01     0.03  -0.07   0.02
  65   1     0.01   0.00  -0.02     0.02   0.04  -0.03     0.01  -0.01  -0.00
  66   1     0.01   0.00  -0.02     0.01   0.05  -0.04     0.00  -0.02   0.01
  67   1    -0.04  -0.00   0.03    -0.04   0.02   0.00    -0.00  -0.02   0.01
  68   1    -0.04  -0.00   0.03    -0.03   0.01   0.02     0.01  -0.02   0.00
  69   6    -0.04  -0.00   0.02    -0.07   0.11  -0.07    -0.03  -0.06   0.04
  70   6    -0.11   0.00   0.03    -0.13   0.12  -0.05    -0.08  -0.07   0.05
  71   6    -0.09   0.00   0.03    -0.14   0.11  -0.04    -0.11  -0.06   0.04
  72   6    -0.01  -0.00   0.02    -0.08   0.10  -0.04    -0.10  -0.06   0.04
  73   7     0.05  -0.00   0.01    -0.03   0.10  -0.06    -0.06  -0.06   0.04
  74   6     0.03  -0.00   0.01    -0.02   0.09  -0.07    -0.03  -0.06   0.04
  75   1    -0.05   0.00   0.01    -0.05   0.04  -0.02    -0.02  -0.02   0.01
  76   1    -0.04   0.00   0.01    -0.05   0.04  -0.01    -0.04  -0.02   0.01
  77   1     0.00  -0.00   0.00    -0.02   0.03  -0.01    -0.04  -0.02   0.01
  78   1     0.03  -0.00   0.00     0.01   0.02  -0.03     0.00  -0.02   0.01
  79   6     0.01   0.03  -0.07     0.00  -0.06  -0.04    -0.00  -0.08   0.02
  80   6     0.04   0.03  -0.05    -0.02  -0.05  -0.02    -0.04  -0.07   0.03
  81   6     0.05   0.03  -0.02    -0.01  -0.05  -0.00    -0.04  -0.07   0.02
  82   6     0.05   0.03  -0.02    -0.00  -0.06   0.03    -0.04  -0.08   0.02
  83   6     0.06   0.03   0.01     0.01  -0.06   0.06    -0.04  -0.08   0.00
  84   6     0.06   0.03   0.03     0.02  -0.06   0.05    -0.04  -0.08  -0.01
  85   6     0.06   0.03   0.02     0.01  -0.05   0.02    -0.04  -0.07  -0.00
  86   6     0.06   0.03   0.03     0.01  -0.04   0.02    -0.03  -0.06  -0.02
  87   6     0.06   0.02   0.03     0.01  -0.04  -0.01    -0.03  -0.06  -0.01
  88   7     0.06   0.02   0.01    -0.01  -0.04  -0.04    -0.04  -0.06   0.02
  89   6     0.06   0.02  -0.01    -0.01  -0.04  -0.04    -0.04  -0.06   0.02
  90   6     0.06   0.03  -0.00    -0.01  -0.05  -0.01    -0.04  -0.07   0.01
  91   1     0.02   0.01  -0.01    -0.00  -0.02   0.01    -0.01  -0.02   0.01
  92   1     0.02   0.01   0.00     0.00  -0.02   0.02    -0.01  -0.02  -0.00
  93   1     0.02   0.01   0.01     0.01  -0.02   0.02    -0.01  -0.02  -0.01
  94   1     0.02   0.01   0.01     0.01  -0.01   0.01    -0.01  -0.02  -0.01
  95   1     0.02   0.01   0.01     0.00  -0.01  -0.01    -0.01  -0.01  -0.00
  96   1     0.02   0.01  -0.01    -0.01  -0.01  -0.02    -0.01  -0.02   0.01
  97   6    -0.01   0.04  -0.09     0.01  -0.06  -0.03     0.03  -0.09   0.01
  98   6     0.06   0.03  -0.02     0.02  -0.06  -0.02     0.08  -0.12   0.04
  99   6     0.04   0.03  -0.03     0.03  -0.06  -0.00     0.10  -0.13   0.02
 100   6    -0.05   0.04  -0.10     0.04  -0.06   0.00     0.07  -0.10  -0.04
 101   6    -0.12   0.05  -0.17     0.03  -0.07  -0.01     0.03  -0.06  -0.06
 102   6    -0.10   0.05  -0.16     0.02  -0.06  -0.02     0.01  -0.05  -0.04
 103   1     0.04   0.00   0.01     0.01  -0.02  -0.01     0.03  -0.04   0.02
 104   1     0.03   0.01   0.00     0.01  -0.02   0.00     0.04  -0.05   0.01
 105   1    -0.05   0.02  -0.07     0.01  -0.02  -0.00     0.00  -0.01  -0.03
 106   1    -0.04   0.02  -0.06     0.00  -0.02  -0.01    -0.01  -0.01  -0.02
 107   6    -0.05   0.05  -0.09     0.04  -0.07   0.02     0.07  -0.10  -0.07
 108   6    -0.06   0.05  -0.19     0.04  -0.07   0.04     0.04  -0.10  -0.15
 109   6    -0.06   0.05  -0.17     0.03  -0.07   0.06     0.02  -0.10  -0.18
 110   6    -0.04   0.05  -0.06     0.03  -0.06   0.07     0.03  -0.08  -0.12
 111   7    -0.04   0.05   0.03     0.04  -0.06   0.05     0.06  -0.08  -0.04
 112   6    -0.04   0.04   0.02     0.04  -0.06   0.02     0.07  -0.08  -0.02
 113   1    -0.02   0.01  -0.08     0.01  -0.02   0.01     0.01  -0.03  -0.06
 114   1    -0.02   0.01  -0.07     0.01  -0.02   0.02     0.00  -0.03  -0.07
 115   1    -0.01   0.01  -0.01     0.01  -0.02   0.02     0.01  -0.02  -0.04
 116   1    -0.01   0.01   0.03     0.01  -0.01   0.00     0.03  -0.02   0.01
 117   6    -0.06   0.01   0.03    -0.01  -0.08   0.01    -0.01   0.05   0.02
 118   6    -0.03   0.01   0.04     0.00  -0.08   0.05    -0.01   0.05   0.00
 119   6     0.01   0.01   0.04     0.01  -0.08   0.05    -0.01   0.05   0.00
 120   6     0.06   0.02   0.04     0.01  -0.08   0.05    -0.03   0.05   0.01
 121   6     0.10   0.02   0.04     0.01  -0.09   0.04    -0.03   0.05   0.01
 122   6     0.10   0.01   0.04     0.01  -0.08   0.03    -0.01   0.05   0.01
 123   6     0.06   0.01   0.05     0.01  -0.07   0.04     0.01   0.05   0.00
 124   6     0.06   0.01   0.05     0.02  -0.07   0.03     0.04   0.04   0.00
 125   6     0.02   0.00   0.05     0.02  -0.06   0.03     0.06   0.04  -0.00
 126   7    -0.02   0.00   0.06     0.03  -0.06   0.04     0.06   0.04  -0.01
 127   6    -0.02   0.00   0.05     0.02  -0.06   0.05     0.04   0.04  -0.01
 128   6     0.02   0.01   0.05     0.02  -0.07   0.05     0.02   0.05  -0.00
 129   1     0.02   0.01   0.01     0.00  -0.03   0.02    -0.02   0.02   0.00
 130   1     0.04   0.01   0.01     0.00  -0.03   0.01    -0.02   0.02   0.00
 131   1     0.04   0.00   0.01     0.00  -0.02   0.01    -0.00   0.01   0.00
 132   1     0.03   0.00   0.01     0.00  -0.02   0.01     0.01   0.01   0.00
 133   1     0.00  -0.00   0.02     0.01  -0.01   0.01     0.02   0.01  -0.00
 134   1    -0.02   0.00   0.02     0.01  -0.02   0.02     0.01   0.01  -0.00
 135   6    -0.06   0.01   0.03    -0.02  -0.09  -0.02    -0.01   0.05   0.03
 136   6    -0.11   0.02   0.08    -0.07  -0.06   0.01    -0.02   0.05   0.04
 137   6    -0.11   0.02   0.07    -0.09  -0.06  -0.02    -0.02   0.06   0.05
 138   6    -0.06   0.01   0.02    -0.05  -0.10  -0.07    -0.02   0.06   0.05
 139   6    -0.01  -0.00  -0.03     0.00  -0.13  -0.10    -0.02   0.06   0.04
 140   6    -0.02  -0.00  -0.03     0.02  -0.13  -0.08    -0.01   0.06   0.03
 141   1    -0.04   0.01   0.03    -0.03  -0.01   0.01    -0.01   0.01   0.01
 142   1    -0.04   0.01   0.03    -0.04  -0.01   0.00    -0.01   0.02   0.02
 143   1     0.01  -0.00  -0.02     0.01  -0.05  -0.04    -0.00   0.02   0.01
 144   1     0.00  -0.00  -0.02     0.02  -0.04  -0.03    -0.00   0.02   0.01
 145   6    -0.05   0.01   0.02    -0.08  -0.10  -0.07    -0.02   0.06   0.05
 146   6    -0.11   0.01   0.03    -0.15  -0.10  -0.05    -0.02   0.06   0.04
 147   6    -0.09   0.01   0.03    -0.16  -0.10  -0.04    -0.03   0.06   0.03
 148   6    -0.02   0.00   0.02    -0.10  -0.09  -0.04    -0.03   0.05   0.03
 149   7     0.05   0.00   0.01    -0.04  -0.09  -0.06    -0.02   0.05   0.04
 150   6     0.03   0.00   0.01    -0.03  -0.09  -0.07    -0.02   0.05   0.05
 151   1    -0.05   0.00   0.01    -0.06  -0.03  -0.01    -0.01   0.02   0.01
 152   1    -0.04   0.00   0.01    -0.06  -0.03  -0.01    -0.01   0.02   0.01
 153   1     0.00   0.00   0.00    -0.03  -0.02  -0.01    -0.01   0.01   0.01
 154   1     0.02  -0.00   0.00     0.01  -0.02  -0.03    -0.00   0.01   0.02
                     10                     11                     12
                        a                      a                      a 
 Frequencies --    29.3829                29.6911                37.7515
 Red. masses --    22.4775                13.8349                11.5969
 Frc consts  --     0.0000                 0.0000                 0.0000
 IR Inten    --     0.0156                 0.0154                 0.1402
 Raman Activ --     0.0000                 0.0000                 0.0000
 Depolar     --     0.0000                 0.0000                 0.0000
 Atom AN      X      Y      Z        X      Y      Z        X      Y      Z
   1  46     0.02  -0.24  -0.01     0.03   0.11  -0.01     0.03  -0.02   0.00
   2  46    -0.01   0.24   0.02    -0.02  -0.12   0.02     0.00  -0.01   0.08
   3   6     0.08  -0.04   0.06    -0.03   0.05   0.12    -0.03   0.01  -0.18
   4   6     0.08  -0.04   0.04    -0.04   0.05   0.10    -0.03   0.01  -0.14
   5   6     0.04  -0.05   0.02    -0.03   0.06   0.05    -0.01   0.01  -0.07
   6   6     0.03  -0.08   0.01    -0.02   0.08   0.05    -0.01   0.01  -0.03
   7   6    -0.02  -0.09  -0.03     0.00   0.09  -0.02     0.01   0.01   0.07
   8   6    -0.05  -0.06  -0.06     0.01   0.07  -0.08     0.02   0.01   0.14
   9   6    -0.04  -0.02  -0.04     0.00   0.04  -0.08     0.02   0.00   0.10
  10   6    -0.07   0.02  -0.07     0.01   0.02  -0.14     0.02   0.00   0.15
  11   6    -0.05   0.05  -0.05     0.00  -0.01  -0.12     0.02   0.00   0.10
  12   7    -0.01   0.07  -0.02    -0.01  -0.02  -0.06     0.00   0.00   0.01
  13   6     0.02   0.03   0.00    -0.02   0.01   0.00    -0.01   0.00  -0.04
  14   6     0.01  -0.01  -0.01    -0.02   0.04  -0.01    -0.00   0.01  -0.01
  15   1     0.01  -0.03   0.01    -0.01   0.03   0.03    -0.00   0.00  -0.02
  16   1    -0.01  -0.04  -0.01     0.00   0.03  -0.01     0.01   0.00   0.03
  17   1    -0.03  -0.02  -0.02     0.01   0.02  -0.04     0.01   0.00   0.06
  18   1    -0.03   0.00  -0.03     0.01   0.01  -0.06     0.01   0.00   0.06
  19   1    -0.02   0.02  -0.02     0.00  -0.01  -0.05     0.01  -0.00   0.04
  20   1     0.02   0.01   0.01    -0.01   0.00   0.02    -0.01   0.00  -0.03
  21   6     0.08  -0.04   0.05    -0.01   0.06   0.10    -0.03   0.01  -0.16
  22   6     0.07  -0.05   0.04    -0.01   0.03   0.08    -0.00   0.04  -0.10
  23   6     0.05  -0.05   0.02     0.00   0.03   0.04     0.01   0.04  -0.05
  24   6     0.05  -0.05   0.01     0.01   0.06   0.03    -0.01   0.01  -0.06
  25   6     0.07  -0.04   0.03     0.02   0.09   0.06    -0.06  -0.02  -0.12
  26   6     0.08  -0.04   0.05     0.01   0.09   0.10    -0.07  -0.02  -0.17
  27   1     0.02  -0.01   0.01    -0.00   0.00   0.02     0.01   0.02  -0.03
  28   1     0.01  -0.02   0.00     0.00   0.00   0.00     0.01   0.02  -0.00
  29   1     0.02  -0.01   0.01     0.01   0.03   0.02    -0.02  -0.01  -0.04
  30   1     0.03  -0.01   0.02     0.00   0.03   0.03    -0.03  -0.01  -0.06
  31   6     0.03  -0.05  -0.02     0.01   0.06  -0.03     0.01   0.02   0.01
  32   6     0.01  -0.04  -0.06    -0.00   0.06  -0.11     0.03   0.01   0.13
  33   6    -0.01  -0.05  -0.10    -0.01   0.06  -0.17     0.05   0.02   0.20
  34   6    -0.01  -0.06  -0.08    -0.01   0.06  -0.14     0.04   0.02   0.15
  35   7     0.01  -0.07  -0.03     0.00   0.06  -0.07     0.02   0.03   0.04
  36   6     0.02  -0.07  -0.00     0.01   0.06  -0.01     0.01   0.02  -0.03
  37   1     0.00  -0.01  -0.02    -0.00   0.02  -0.03     0.01   0.00   0.05
  38   1    -0.01  -0.01  -0.04    -0.01   0.02  -0.07     0.02   0.01   0.08
  39   1    -0.01  -0.02  -0.03    -0.01   0.02  -0.05     0.02   0.01   0.06
  40   1     0.01  -0.02   0.01     0.01   0.02   0.01    -0.00   0.01  -0.03
  41   6    -0.05   0.04   0.09    -0.12  -0.04  -0.03    -0.00  -0.02  -0.04
  42   6    -0.04   0.04   0.09    -0.10  -0.04  -0.03     0.00  -0.02  -0.02
  43   6    -0.01   0.04   0.05    -0.05  -0.05  -0.02     0.00  -0.02  -0.01
  44   6    -0.01   0.08   0.04    -0.06  -0.08  -0.01     0.01  -0.03  -0.01
  45   6     0.02   0.09  -0.01     0.00  -0.09   0.01     0.01  -0.03   0.00
  46   6     0.05   0.06  -0.04     0.07  -0.07   0.02     0.01  -0.03   0.01
  47   6     0.05   0.02  -0.03     0.07  -0.05   0.01     0.00  -0.02   0.01
  48   6     0.07  -0.02  -0.06     0.14  -0.03   0.02    -0.00  -0.01   0.01
  49   6     0.06  -0.06  -0.05     0.13   0.00   0.01    -0.01  -0.01   0.01
  50   7     0.03  -0.07  -0.00     0.07   0.01  -0.01    -0.01  -0.00   0.00
  51   6     0.01  -0.03   0.03     0.01  -0.00  -0.02    -0.01  -0.01  -0.00
  52   6     0.01   0.01   0.02     0.01  -0.03  -0.01    -0.00  -0.02  -0.00
  53   1    -0.01   0.03   0.02    -0.03  -0.03  -0.01     0.00  -0.01  -0.00
  54   1     0.01   0.03  -0.01    -0.00  -0.03   0.00     0.00  -0.01   0.00
  55   1     0.02   0.02  -0.02     0.03  -0.02   0.01     0.00  -0.01   0.00
  56   1     0.03  -0.00  -0.03     0.05  -0.01   0.01    -0.00  -0.00   0.01
  57   1     0.02  -0.02  -0.02     0.05   0.00   0.00    -0.00  -0.00   0.00
  58   1    -0.00  -0.01   0.02    -0.01   0.00  -0.01    -0.00  -0.00  -0.00
  59   6    -0.05   0.04   0.09    -0.11  -0.05  -0.01     0.00  -0.02  -0.04
  60   6    -0.05   0.05   0.08    -0.09  -0.08  -0.01     0.02  -0.03  -0.05
  61   6    -0.03   0.05   0.06    -0.06  -0.08   0.00     0.02  -0.03  -0.04
  62   6    -0.02   0.05   0.05    -0.04  -0.06   0.01     0.01  -0.02  -0.01
  63   6    -0.03   0.05   0.06    -0.06  -0.03   0.01    -0.00  -0.01   0.00
  64   6    -0.04   0.04   0.08    -0.09  -0.02   0.00    -0.01  -0.01  -0.01
  65   1    -0.02   0.01   0.03    -0.03  -0.03  -0.00     0.01  -0.01  -0.02
  66   1    -0.01   0.01   0.02    -0.02  -0.03   0.00     0.01  -0.01  -0.01
  67   1    -0.01   0.01   0.01    -0.01  -0.00   0.01    -0.00  -0.00   0.01
  68   1    -0.01   0.01   0.02    -0.03  -0.00   0.00    -0.01   0.00  -0.00
  69   6     0.00   0.05   0.03     0.01  -0.06   0.01     0.02  -0.03   0.01
  70   6     0.03   0.04   0.01     0.07  -0.06  -0.00     0.02  -0.02   0.02
  71   6     0.06   0.05  -0.00     0.12  -0.06  -0.01     0.03  -0.02   0.04
  72   6     0.05   0.06  -0.00     0.11  -0.06  -0.01     0.03  -0.03   0.04
  73   7     0.02   0.07   0.01     0.05  -0.06  -0.00     0.02  -0.05   0.03
  74   6    -0.01   0.07   0.03     0.00  -0.06   0.01     0.02  -0.04   0.02
  75   1     0.01   0.01   0.01     0.02  -0.02  -0.00     0.00  -0.00   0.01
  76   1     0.02   0.01  -0.00     0.05  -0.02  -0.01     0.01  -0.00   0.01
  77   1     0.02   0.02  -0.00     0.04  -0.02  -0.00     0.01  -0.01   0.01
  78   1    -0.01   0.02   0.01    -0.01  -0.02   0.00     0.00  -0.01   0.00
  79   6    -0.09  -0.06  -0.06     0.03   0.02  -0.12    -0.04  -0.01  -0.21
  80   6    -0.10  -0.06  -0.04     0.03   0.02  -0.10    -0.03  -0.01  -0.17
  81   6    -0.07  -0.07  -0.01     0.02   0.03  -0.05    -0.01  -0.01  -0.09
  82   6    -0.05  -0.11  -0.00     0.01   0.06  -0.05    -0.01  -0.00  -0.07
  83   6    -0.00  -0.12   0.03    -0.01   0.06   0.01     0.00   0.00   0.05
  84   6     0.04  -0.09   0.06    -0.01   0.05   0.08     0.02   0.00   0.15
  85   6     0.02  -0.05   0.05    -0.01   0.02   0.08     0.01  -0.00   0.12
  86   6     0.06  -0.01   0.08    -0.02   0.00   0.14     0.02  -0.00   0.19
  87   6     0.05   0.03   0.06    -0.01  -0.02   0.13     0.02  -0.01   0.15
  88   7    -0.00   0.05   0.03     0.00  -0.03   0.07     0.01  -0.01   0.06
  89   6    -0.04   0.01   0.01     0.01  -0.01   0.01    -0.00  -0.01  -0.02
  90   6    -0.03  -0.04   0.02     0.01   0.01   0.01    -0.00  -0.01   0.00
  91   1    -0.02  -0.04  -0.01     0.00   0.02  -0.03    -0.01  -0.00  -0.04
  92   1     0.00  -0.05   0.01    -0.00   0.02   0.00     0.00   0.00   0.02
  93   1     0.02  -0.03   0.03    -0.01   0.02   0.04     0.01   0.00   0.07
  94   1     0.03  -0.01   0.03    -0.01   0.00   0.06     0.01   0.00   0.08
  95   1     0.02   0.02   0.02    -0.01  -0.01   0.05     0.01  -0.00   0.06
  96   1    -0.02   0.01  -0.00     0.01  -0.01  -0.01    -0.00  -0.00  -0.03
  97   6    -0.08  -0.07  -0.06     0.02   0.03  -0.11    -0.05  -0.00  -0.20
  98   6    -0.06  -0.08  -0.04     0.03   0.05  -0.09    -0.14   0.04  -0.26
  99   6    -0.03  -0.09  -0.03     0.02   0.05  -0.06    -0.13   0.04  -0.21
 100   6    -0.03  -0.08  -0.03     0.01   0.03  -0.05    -0.03  -0.01  -0.10
 101   6    -0.05  -0.07  -0.05    -0.00   0.01  -0.07     0.03  -0.05  -0.05
 102   6    -0.08  -0.06  -0.07     0.00   0.01  -0.10     0.02  -0.05  -0.10
 103   1    -0.02  -0.02  -0.01     0.01   0.02  -0.03    -0.06   0.02  -0.10
 104   1    -0.00  -0.03  -0.01     0.01   0.02  -0.01    -0.05   0.02  -0.07
 105   1    -0.01  -0.02  -0.02    -0.00  -0.00  -0.02     0.03  -0.02   0.01
 106   1    -0.03  -0.02  -0.02    -0.00  -0.00  -0.03     0.02  -0.02  -0.02
 107   6    -0.01  -0.09  -0.01     0.02   0.03  -0.00    -0.01  -0.01  -0.02
 108   6     0.00  -0.08   0.00     0.02   0.03   0.05     0.03  -0.01   0.12
 109   6     0.01  -0.08   0.03     0.03   0.03   0.11     0.05  -0.01   0.20
 110   6     0.01  -0.09   0.04     0.03   0.03   0.11     0.04  -0.03   0.13
 111   7     0.01  -0.11   0.02     0.02   0.03   0.06     0.01  -0.04  -0.01
 112   6    -0.01  -0.10  -0.01     0.02   0.03   0.01    -0.01  -0.03  -0.08
 113   1    -0.00  -0.02  -0.00     0.01   0.01   0.01     0.01   0.00   0.05
 114   1     0.01  -0.02   0.01     0.01   0.01   0.04     0.02  -0.00   0.09
 115   1     0.01  -0.03   0.02     0.01   0.01   0.04     0.02  -0.01   0.05
 116   1    -0.00  -0.03  -0.01     0.00   0.01  -0.01    -0.01  -0.01  -0.06
 117   6     0.07   0.06  -0.09     0.12  -0.03   0.03    -0.04   0.02  -0.03
 118   6     0.05   0.06  -0.09     0.10  -0.03   0.03    -0.03   0.02  -0.02
 119   6     0.02   0.07  -0.06     0.05  -0.04   0.02    -0.02   0.03  -0.01
 120   6     0.01   0.11  -0.04     0.04  -0.06   0.01    -0.03   0.04  -0.00
 121   6    -0.03   0.12   0.01    -0.02  -0.07  -0.00    -0.01   0.04   0.01
 122   6    -0.06   0.09   0.05    -0.09  -0.05  -0.01     0.01   0.03   0.01
 123   6    -0.05   0.05   0.03    -0.08  -0.02  -0.00     0.02   0.02   0.01
 124   6    -0.07   0.01   0.07    -0.14   0.00  -0.01     0.04   0.01   0.01
 125   6    -0.06  -0.03   0.05    -0.12   0.03  -0.00     0.04  -0.00   0.01
 126   7    -0.02  -0.05   0.00    -0.05   0.03   0.01     0.03  -0.00  -0.00
 127   6     0.00  -0.01  -0.03     0.00   0.01   0.02     0.01   0.00  -0.01
 128   6    -0.01   0.04  -0.02    -0.01  -0.01   0.01     0.01   0.02  -0.00
 129   1     0.01   0.04  -0.02     0.03  -0.02   0.01    -0.01   0.01  -0.00
 130   1    -0.01   0.05   0.01    -0.01  -0.02  -0.00    -0.00   0.01   0.00
 131   1    -0.03   0.03   0.03    -0.04  -0.01  -0.01     0.01   0.01   0.01
 132   1    -0.03   0.01   0.03    -0.06  -0.00  -0.01     0.02   0.00   0.01
 133   1    -0.02  -0.02   0.02    -0.05   0.01  -0.00     0.02  -0.00   0.00
 134   1     0.01  -0.01  -0.02     0.02   0.00   0.01     0.00   0.00  -0.00
 135   6     0.07   0.07  -0.08     0.11  -0.03   0.02    -0.03   0.02  -0.02
 136   6     0.06   0.07  -0.06     0.09  -0.01   0.01     0.00   0.00  -0.04
 137   6     0.04   0.07  -0.04     0.05  -0.01   0.01     0.01   0.01  -0.03
 138   6     0.03   0.08  -0.03     0.03  -0.04   0.01    -0.03   0.03   0.01
 139   6     0.04   0.08  -0.04     0.06  -0.06   0.01    -0.06   0.05   0.04
 140   6     0.06   0.07  -0.07     0.09  -0.06   0.02    -0.06   0.04   0.02
 141   1     0.02   0.02  -0.02     0.03   0.00   0.00     0.01  -0.00  -0.02
 142   1     0.01   0.02  -0.01     0.01   0.00   0.00     0.01  -0.00  -0.01
 143   1     0.01   0.02  -0.01     0.01  -0.02   0.00    -0.02   0.02   0.02
 144   1     0.02   0.02  -0.02     0.03  -0.02   0.01    -0.03   0.02   0.01
 145   6     0.00   0.09  -0.01    -0.02  -0.03   0.01    -0.02   0.03   0.03
 146   6    -0.03   0.08   0.01    -0.09  -0.03   0.02     0.01   0.02   0.03
 147   6    -0.07   0.09   0.02    -0.15  -0.03   0.03     0.02   0.02   0.03
 148   6    -0.06   0.10   0.02    -0.13  -0.03   0.03     0.01   0.03   0.04
 149   7    -0.03   0.11   0.01    -0.07  -0.03   0.02    -0.02   0.04   0.04
 150   6     0.01   0.10  -0.00    -0.01  -0.03   0.01    -0.03   0.04   0.03
 151   1    -0.01   0.02   0.00    -0.03  -0.01   0.01     0.01   0.00   0.01
 152   1    -0.03   0.02   0.01    -0.06  -0.01   0.01     0.01   0.01   0.01
 153   1    -0.03   0.03   0.01    -0.05  -0.01   0.01     0.01   0.01   0.01
 154   1     0.01   0.03  -0.00     0.01  -0.01   0.00    -0.02   0.01   0.01
                     13                     14                     15
                        a                      a                      a 
 Frequencies --    37.9492                38.0949                44.8056
 Red. masses --    11.5828                11.3765                11.4394
 Frc consts  --     0.0000                 0.0000                 0.0000
 IR Inten    --     0.1340                 0.1035                 0.0466
 Raman Activ --     0.0000                 0.0000                 0.0000
 Depolar     --     0.0000                 0.0000                 0.0000
 Atom AN      X      Y      Z        X      Y      Z        X      Y      Z
   1  46    -0.08  -0.02   0.00    -0.02   0.05   0.00    -0.00  -0.04   0.00
   2  46    -0.00  -0.02   0.03     0.01   0.05   0.03    -0.00  -0.03   0.00
   3   6     0.05  -0.02   0.03    -0.01  -0.01  -0.12     0.03   0.01   0.15
   4   6     0.02  -0.02   0.03    -0.00  -0.01  -0.10     0.01   0.01   0.11
   5   6     0.01  -0.02   0.02    -0.00  -0.01  -0.06     0.00   0.01   0.05
   6   6     0.01  -0.03   0.03    -0.01  -0.02  -0.08    -0.01   0.01  -0.04
   7   6    -0.00  -0.03   0.01    -0.01  -0.03  -0.02    -0.02   0.01  -0.12
   8   6    -0.01  -0.02  -0.01    -0.01  -0.02   0.05    -0.02   0.01  -0.12
   9   6    -0.01  -0.02  -0.02    -0.00  -0.01   0.07    -0.00   0.00  -0.04
  10   6    -0.01  -0.01  -0.04     0.00   0.00   0.13     0.00   0.00  -0.03
  11   6    -0.01  -0.01  -0.04     0.01   0.01   0.13     0.01  -0.01   0.04
  12   7    -0.00  -0.01  -0.02     0.01   0.02   0.09     0.01  -0.01   0.10
  13   6     0.00  -0.01  -0.01     0.01   0.01   0.02     0.01  -0.00   0.10
  14   6     0.00  -0.02  -0.00     0.00  -0.00   0.01     0.00   0.00   0.04
  15   1     0.00  -0.01   0.01    -0.00  -0.01  -0.04    -0.00   0.00  -0.01
  16   1    -0.00  -0.01   0.01    -0.01  -0.01  -0.01    -0.01   0.01  -0.06
  17   1    -0.00  -0.01  -0.01    -0.00  -0.01   0.03    -0.01   0.00  -0.05
  18   1    -0.01  -0.00  -0.01    -0.00  -0.00   0.05    -0.00   0.00  -0.02
  19   1    -0.00  -0.00  -0.01     0.00   0.01   0.05     0.00  -0.00   0.02
  20   1     0.00  -0.00   0.00     0.00   0.00  -0.00     0.00  -0.00   0.04
  21   6     0.05  -0.02   0.04    -0.03  -0.01  -0.12     0.04   0.01   0.14
  22   6     0.00  -0.02   0.00     0.07   0.02  -0.01     0.09  -0.01   0.16
  23   6    -0.01  -0.02  -0.00     0.06   0.01   0.00     0.08  -0.01   0.12
  24   6     0.02  -0.02   0.03    -0.04  -0.01  -0.09     0.03   0.01   0.05
  25   6     0.07  -0.02   0.07    -0.16  -0.05  -0.20    -0.01   0.02   0.04
  26   6     0.09  -0.02   0.07    -0.15  -0.05  -0.21    -0.01   0.02   0.08
  27   1    -0.01  -0.00  -0.01     0.05   0.01   0.02     0.04  -0.01   0.06
  28   1    -0.02  -0.00  -0.01     0.04   0.01   0.02     0.03  -0.01   0.04
  29   1     0.03  -0.00   0.03    -0.07  -0.02  -0.08    -0.02   0.01  -0.00
  30   1     0.04  -0.00   0.03    -0.07  -0.02  -0.09    -0.01   0.01   0.02
  31   6    -0.01  -0.02   0.03    -0.03  -0.01  -0.06     0.01   0.00  -0.01
  32   6    -0.02  -0.01   0.00    -0.01  -0.01   0.03    -0.00   0.01  -0.05
  33   6    -0.04  -0.02   0.00     0.00  -0.01   0.06    -0.02   0.00  -0.11
  34   6    -0.04  -0.03   0.02    -0.00  -0.00   0.01    -0.02  -0.00  -0.12
  35   7    -0.03  -0.05   0.04    -0.02   0.00  -0.07    -0.01  -0.01  -0.10
  36   6    -0.01  -0.04   0.04    -0.04  -0.00  -0.11     0.00  -0.01  -0.04
  37   1    -0.01   0.00  -0.00    -0.00  -0.01   0.02     0.00   0.01  -0.01
  38   1    -0.02  -0.00  -0.00     0.00  -0.00   0.04    -0.01   0.00  -0.04
  39   1    -0.02  -0.01   0.00     0.00   0.00   0.01    -0.01  -0.00  -0.05
  40   1    -0.00  -0.01   0.02    -0.01   0.00  -0.05     0.00  -0.00  -0.01
  41   6     0.22  -0.02  -0.04     0.01  -0.02  -0.00     0.15  -0.01  -0.03
  42   6     0.17  -0.01  -0.03     0.01  -0.02  -0.01     0.12  -0.01  -0.01
  43   6     0.09  -0.01  -0.01    -0.01  -0.02  -0.01     0.05   0.00  -0.00
  44   6     0.08   0.00  -0.01    -0.05  -0.02   0.00    -0.03   0.01   0.01
  45   6    -0.04   0.01   0.00    -0.07  -0.02   0.02    -0.12   0.02   0.02
  46   6    -0.14   0.01   0.01    -0.05  -0.02   0.02    -0.12   0.02   0.02
  47   6    -0.12   0.01   0.01    -0.01  -0.01   0.01    -0.04   0.00   0.01
  48   6    -0.20   0.01   0.02     0.02  -0.00   0.01    -0.03  -0.00   0.00
  49   6    -0.16  -0.00   0.02     0.04   0.00   0.01     0.03  -0.01  -0.01
  50   7    -0.07  -0.01   0.01     0.06   0.01  -0.01     0.09  -0.02  -0.01
  51   6     0.01  -0.01  -0.00     0.05  -0.00  -0.01     0.09  -0.01  -0.01
  52   6    -0.00  -0.00  -0.00     0.01  -0.01  -0.00     0.04  -0.00  -0.00
  53   1     0.04  -0.00  -0.01    -0.02  -0.01   0.00    -0.01   0.00   0.00
  54   1    -0.02   0.01   0.00    -0.03  -0.01   0.01    -0.05   0.01   0.01
  55   1    -0.07   0.01   0.01    -0.02  -0.01   0.01    -0.05   0.01   0.01
  56   1    -0.08   0.00   0.01     0.00  -0.00   0.01    -0.02   0.00   0.00
  57   1    -0.06   0.00   0.01     0.02   0.00   0.00     0.01  -0.00  -0.00
  58   1     0.03  -0.01  -0.00     0.02  -0.00  -0.01     0.04  -0.00  -0.00
  59   6     0.20  -0.01  -0.05     0.00  -0.02   0.01     0.14  -0.01  -0.04
  60   6     0.28   0.03  -0.15    -0.07  -0.02   0.09     0.07   0.01   0.02
  61   6     0.23   0.03  -0.14    -0.09  -0.02   0.10     0.03   0.02   0.02
  62   6     0.10  -0.01  -0.04    -0.04  -0.02   0.03     0.05   0.00  -0.02
  63   6     0.04  -0.05   0.05     0.03  -0.02  -0.04     0.12  -0.02  -0.08
  64   6     0.09  -0.05   0.04     0.06  -0.02  -0.05     0.17  -0.02  -0.09
  65   1     0.11   0.02  -0.07    -0.03  -0.01   0.04     0.02   0.01   0.02
  66   1     0.08   0.02  -0.06    -0.04  -0.01   0.05    -0.00   0.01   0.02
  67   1    -0.02  -0.02   0.04     0.02  -0.01  -0.03     0.04  -0.01  -0.04
  68   1     0.01  -0.02   0.03     0.03  -0.00  -0.03     0.06  -0.01  -0.04
  69   6     0.03  -0.01  -0.01    -0.06  -0.02   0.03    -0.01   0.00  -0.01
  70   6    -0.12   0.00   0.02    -0.06  -0.02   0.03    -0.05   0.01   0.00
  71   6    -0.19   0.00   0.04    -0.08  -0.02   0.02    -0.11   0.01   0.02
  72   6    -0.12  -0.02   0.04    -0.08  -0.01   0.02    -0.13   0.00   0.02
  73   7     0.02  -0.03   0.01    -0.08  -0.00   0.03    -0.10  -0.00   0.01
  74   6     0.10  -0.03  -0.01    -0.07  -0.01   0.03    -0.05  -0.00  -0.00
  75   1    -0.05   0.01   0.01    -0.01  -0.01   0.01    -0.01   0.00  -0.00
  76   1    -0.09   0.00   0.02    -0.03  -0.01   0.01    -0.04   0.00   0.01
  77   1    -0.05  -0.00   0.02    -0.03  -0.00   0.00    -0.05   0.00   0.01
  78   1     0.06  -0.01  -0.01    -0.02  -0.00   0.01    -0.01  -0.00  -0.00
  79   6     0.03   0.02  -0.03     0.03   0.00   0.02    -0.03   0.00  -0.15
  80   6     0.02   0.02  -0.02     0.01   0.00   0.02    -0.01   0.00  -0.11
  81   6     0.01   0.02  -0.02     0.01   0.01   0.02    -0.00   0.01  -0.05
  82   6     0.00   0.04  -0.03     0.01   0.01   0.05     0.01   0.01   0.04
  83   6    -0.01   0.04  -0.02     0.01   0.01   0.05     0.02   0.02   0.12
  84   6    -0.01   0.03   0.00     0.01   0.01   0.02     0.02   0.01   0.12
  85   6    -0.01   0.02   0.02     0.00   0.01  -0.01     0.00   0.01   0.04
  86   6    -0.01   0.01   0.04     0.00   0.01  -0.04    -0.00   0.00   0.03
  87   6    -0.01  -0.00   0.05    -0.00   0.01  -0.06    -0.01  -0.01  -0.04
  88   7     0.00  -0.00   0.04    -0.00   0.01  -0.06    -0.01  -0.01  -0.09
  89   6     0.01   0.00   0.02    -0.00   0.01  -0.04    -0.01  -0.00  -0.09
  90   6     0.00   0.02   0.01     0.00   0.01  -0.01    -0.00   0.00  -0.04
  91   1     0.00   0.01  -0.02     0.00   0.00   0.02     0.00   0.00   0.01
  92   1    -0.00   0.01  -0.01     0.01   0.00   0.02     0.01   0.01   0.06
  93   1    -0.01   0.01   0.00     0.00   0.00   0.01     0.01   0.00   0.05
  94   1    -0.01   0.00   0.01     0.00   0.00  -0.01     0.00   0.00   0.02
  95   1    -0.00  -0.00   0.02    -0.00   0.00  -0.02    -0.00  -0.00  -0.02
  96   1     0.00   0.00   0.00    -0.00   0.00  -0.01    -0.00  -0.00  -0.04
  97   6     0.02   0.02  -0.03     0.04  -0.00   0.02    -0.04   0.01  -0.14
  98   6    -0.03   0.04  -0.07     0.12  -0.01   0.10     0.01   0.02  -0.08
  99   6    -0.05   0.04  -0.07     0.11  -0.01   0.11     0.02   0.02  -0.04
 100   6    -0.02   0.03  -0.03     0.03   0.00   0.05    -0.03   0.01  -0.05
 101   6     0.03   0.01   0.01    -0.04   0.01  -0.02    -0.09  -0.00  -0.12
 102   6     0.05   0.00   0.01    -0.04   0.01  -0.04    -0.10  -0.00  -0.16
 103   1    -0.02   0.01  -0.03     0.05  -0.00   0.04     0.01   0.01  -0.02
 104   1    -0.02   0.02  -0.03     0.05  -0.01   0.05     0.02   0.01   0.00
 105   1     0.02  -0.00   0.01    -0.03   0.00  -0.02    -0.04  -0.00  -0.04
 106   1     0.03  -0.00   0.01    -0.03   0.00  -0.03    -0.04  -0.00  -0.06
 107   6    -0.03   0.03  -0.03     0.02   0.01   0.06    -0.01   0.00   0.01
 108   6    -0.03   0.02  -0.00     0.00  -0.00   0.04     0.00   0.01   0.04
 109   6    -0.03   0.03   0.00    -0.01   0.00   0.05     0.02   0.01   0.11
 110   6    -0.04   0.03  -0.01    -0.01   0.02   0.07     0.02  -0.00   0.12
 111   7    -0.04   0.04  -0.03     0.00   0.03   0.08     0.01  -0.01   0.10
 112   6    -0.03   0.03  -0.05     0.02   0.02   0.08    -0.00  -0.01   0.04
 113   1    -0.01   0.01   0.00     0.00  -0.00   0.00    -0.00   0.01   0.01
 114   1    -0.01   0.01   0.01    -0.01  -0.00   0.01     0.01   0.00   0.04
 115   1    -0.01   0.01  -0.00    -0.01   0.01   0.02     0.01  -0.00   0.05
 116   1    -0.01   0.01  -0.02     0.01   0.01   0.03    -0.00  -0.00   0.01
 117   6     0.15   0.00  -0.02     0.14  -0.01  -0.05    -0.15   0.01   0.03
 118   6     0.12   0.00  -0.02     0.12  -0.00  -0.02    -0.12   0.01   0.01
 119   6     0.06   0.00  -0.01     0.07  -0.00  -0.01    -0.05   0.00   0.00
 120   6     0.02   0.01  -0.00     0.09  -0.01  -0.02     0.03   0.01  -0.01
 121   6    -0.08   0.01   0.01     0.01  -0.01  -0.01     0.12   0.01  -0.02
 122   6    -0.13   0.01   0.02    -0.07  -0.00   0.00     0.12   0.00  -0.02
 123   6    -0.08   0.01   0.02    -0.08   0.00   0.01     0.04   0.00  -0.00
 124   6    -0.12   0.01   0.02    -0.15   0.01   0.01     0.03  -0.00   0.00
 125   6    -0.07   0.00   0.01    -0.14   0.02   0.01    -0.03  -0.01   0.01
 126   7    -0.00   0.00  -0.00    -0.09   0.02   0.01    -0.09  -0.01   0.01
 127   6     0.04   0.00  -0.01    -0.02   0.01   0.00    -0.09  -0.00   0.01
 128   6     0.01   0.00  -0.00    -0.01   0.00  -0.00    -0.04   0.00   0.00
 129   1     0.02   0.00  -0.00     0.04  -0.00  -0.01     0.01   0.00  -0.00
 130   1    -0.03   0.00   0.01     0.01  -0.00  -0.00     0.05   0.00  -0.01
 131   1    -0.06   0.00   0.01    -0.04  -0.00   0.00     0.06   0.00  -0.01
 132   1    -0.05   0.00   0.01    -0.06   0.00   0.00     0.02  -0.00  -0.00
 133   1    -0.03   0.00   0.01    -0.05   0.01   0.01    -0.01  -0.00   0.00
 134   1     0.03  -0.00  -0.01     0.01   0.00  -0.00    -0.04  -0.00   0.00
 135   6     0.14   0.00  -0.02     0.14  -0.01  -0.06    -0.14   0.01   0.04
 136   6     0.10   0.03  -0.01     0.03   0.03   0.05    -0.17  -0.00   0.09
 137   6     0.05   0.04   0.00     0.00   0.03   0.05    -0.12  -0.01   0.08
 138   6     0.04   0.01  -0.00     0.10  -0.01  -0.05    -0.05   0.01   0.02
 139   6     0.08  -0.02  -0.02     0.21  -0.05  -0.17    -0.04   0.02  -0.02
 140   6     0.13  -0.02  -0.03     0.24  -0.05  -0.18    -0.08   0.02  -0.02
 141   1     0.03   0.02  -0.00    -0.01   0.02   0.04    -0.06  -0.00   0.04
 142   1     0.01   0.02   0.00    -0.02   0.02   0.04    -0.04  -0.01   0.03
 143   1     0.02  -0.01  -0.01     0.08  -0.02  -0.07     0.00   0.01  -0.02
 144   1     0.05  -0.01  -0.01     0.09  -0.02  -0.08    -0.02   0.01  -0.02
 145   6    -0.02   0.02   0.01     0.06   0.00  -0.02     0.01  -0.00   0.01
 146   6    -0.12   0.02   0.03    -0.05  -0.00   0.01     0.05   0.00  -0.00
 147   6    -0.19   0.02   0.04    -0.08   0.01   0.03     0.11  -0.00  -0.02
 148   6    -0.14   0.02   0.03    -0.02   0.02   0.03     0.13  -0.01  -0.02
 149   7    -0.05   0.02   0.02     0.07   0.03   0.01     0.10  -0.01  -0.01
 150   6     0.01   0.02   0.01     0.12   0.02  -0.02     0.04  -0.01   0.00
 151   1    -0.04   0.00   0.01    -0.03  -0.00   0.00     0.01   0.00   0.00
 152   1    -0.08   0.01   0.01    -0.05  -0.00   0.02     0.04  -0.00  -0.01
 153   1    -0.05   0.01   0.01    -0.01   0.01   0.01     0.05  -0.00  -0.01
 154   1     0.02   0.00   0.00     0.06   0.01  -0.01     0.01  -0.00   0.00
                     16                     17                     18
                        a                      a                      a 
 Frequencies --    46.8483                54.5258                55.0321
 Red. masses --    18.3535                10.5734                16.2555
 Frc consts  --     0.0000                 0.0000                 0.0000
 IR Inten    --     0.0070                 0.0071                 0.0105
 Raman Activ --     0.0000                 0.0000                 0.0000
 Depolar     --     0.0000                 0.0000                 0.0000
 Atom AN      X      Y      Z        X      Y      Z        X      Y      Z
   1  46    -0.01  -0.19   0.00     0.00   0.02  -0.00     0.01   0.16  -0.00
   2  46     0.01   0.19  -0.00    -0.00  -0.02  -0.00     0.01   0.17  -0.00
   3   6     0.10   0.07  -0.05     0.00  -0.01  -0.03    -0.06  -0.02   0.08
   4   6     0.04   0.06  -0.04     0.00  -0.01  -0.01     0.01  -0.01   0.09
   5   6     0.02   0.06  -0.02     0.00  -0.01   0.00     0.02  -0.01   0.07
   6   6     0.02   0.05  -0.01     0.02  -0.01   0.08     0.02  -0.02   0.09
   7   6     0.02   0.05   0.02     0.02  -0.01   0.10    -0.01  -0.03   0.02
   8   6     0.01   0.06   0.04     0.01  -0.01   0.03    -0.04  -0.01  -0.07
   9   6     0.01   0.07   0.02    -0.00  -0.01  -0.05    -0.03   0.00  -0.07
  10   6     0.01   0.07   0.03    -0.01  -0.01  -0.10    -0.06   0.02  -0.14
  11   6     0.01   0.08   0.01    -0.02  -0.01  -0.13    -0.05   0.04  -0.12
  12   7     0.01   0.08  -0.02    -0.02  -0.01  -0.13    -0.01   0.04  -0.04
  13   6     0.01   0.07  -0.02    -0.01  -0.01  -0.09     0.01   0.02   0.02
  14   6     0.01   0.07  -0.01    -0.00  -0.01  -0.05    -0.00   0.00   0.01
  15   1     0.01   0.01  -0.00     0.01  -0.00   0.04     0.01  -0.01   0.04
  16   1     0.00   0.01   0.01     0.01  -0.00   0.05    -0.00  -0.01   0.01
  17   1     0.00   0.02   0.02     0.00  -0.00   0.01    -0.02  -0.00  -0.04
  18   1     0.00   0.02   0.01    -0.00  -0.00  -0.03    -0.02   0.00  -0.06
  19   1     0.00   0.02   0.00    -0.01  -0.00  -0.05    -0.02   0.01  -0.05
  20   1     0.00   0.02  -0.01    -0.00  -0.00  -0.03     0.01   0.01   0.02
  21   6     0.12   0.07  -0.03    -0.01  -0.01  -0.03    -0.10  -0.02   0.03
  22   6     0.12   0.08  -0.02     0.10   0.01   0.07    -0.11  -0.05  -0.00
  23   6     0.12   0.08  -0.01     0.09   0.01   0.07    -0.12  -0.05  -0.05
  24   6     0.11   0.07  -0.01    -0.02  -0.01  -0.03    -0.11  -0.03  -0.05
  25   6     0.11   0.06  -0.02    -0.13  -0.03  -0.13    -0.12  -0.00  -0.04
  26   6     0.12   0.06  -0.03    -0.12  -0.03  -0.13    -0.12  -0.00   0.00
  27   1     0.04   0.03  -0.01     0.05   0.01   0.04    -0.03  -0.02   0.00
  28   1     0.04   0.03   0.00     0.05   0.01   0.04    -0.04  -0.02  -0.02
  29   1     0.03   0.01  -0.00    -0.06  -0.01  -0.06    -0.04   0.00  -0.01
  30   1     0.03   0.01  -0.01    -0.06  -0.01  -0.06    -0.03   0.01   0.01
  31   6     0.07   0.06  -0.01    -0.01  -0.01  -0.02    -0.07  -0.02  -0.06
  32   6     0.03   0.10   0.00     0.01  -0.01   0.09    -0.04  -0.05  -0.07
  33   6    -0.03   0.08   0.01     0.02  -0.00   0.09     0.01  -0.04  -0.03
  34   6    -0.04   0.02   0.01     0.01   0.00  -0.00     0.03   0.01   0.01
  35   7    -0.01  -0.02  -0.01    -0.01   0.00  -0.11    -0.00   0.04   0.01
  36   6     0.05  -0.00  -0.02    -0.02   0.00  -0.11    -0.05   0.03  -0.02
  37   1     0.01   0.04   0.00     0.00  -0.00   0.05    -0.02  -0.03  -0.03
  38   1    -0.02   0.03   0.01     0.01  -0.00   0.05     0.01  -0.02  -0.01
  39   1    -0.02   0.00   0.00     0.00   0.00  -0.00     0.02   0.01   0.01
  40   1     0.02  -0.01  -0.01    -0.01   0.00  -0.06    -0.02   0.02  -0.01
  41   6     0.04  -0.07   0.10     0.04   0.00   0.01     0.08  -0.03   0.06
  42   6     0.03  -0.07   0.04     0.02   0.01   0.00     0.09  -0.02  -0.01
  43   6     0.01  -0.06   0.02     0.00   0.01   0.01     0.07  -0.02  -0.02
  44   6     0.00  -0.05   0.02    -0.08   0.02   0.02     0.09  -0.03  -0.02
  45   6    -0.02  -0.05   0.01    -0.10   0.02   0.02     0.02  -0.03   0.01
  46   6    -0.03  -0.06   0.01    -0.03   0.01   0.01    -0.07  -0.01   0.04
  47   6    -0.02  -0.07   0.01     0.04   0.01  -0.00    -0.07   0.00   0.04
  48   6    -0.03  -0.07   0.01     0.09   0.00  -0.01    -0.14   0.02   0.06
  49   6    -0.02  -0.08   0.01     0.12  -0.00  -0.02    -0.12   0.04   0.05
  50   7     0.00  -0.09   0.01     0.13  -0.00  -0.02    -0.04   0.04   0.02
  51   6     0.01  -0.08   0.01     0.09   0.00  -0.01     0.02   0.02  -0.01
  52   6     0.00  -0.07   0.01     0.05   0.00  -0.00     0.00  -0.00   0.00
  53   1     0.00  -0.01   0.01    -0.04   0.01   0.01     0.04  -0.01  -0.01
[...]
  62   6    -0.00   0.00  -0.00     0.00   0.00   0.00     0.00  -0.00   0.00
  63   6    -0.00   0.00  -0.00     0.00  -0.00   0.00     0.00  -0.00   0.00
  64   6     0.00   0.00  -0.00     0.00   0.00   0.00     0.00  -0.00   0.00
  65   1    -0.00   0.00  -0.00     0.01  -0.01   0.01     0.11  -0.11   0.08
  66   1    -0.00  -0.00  -0.00    -0.01  -0.00  -0.01     0.04   0.02   0.04
  67   1     0.00  -0.00   0.00    -0.01   0.01  -0.00    -0.00   0.00  -0.00
  68   1    -0.00  -0.00  -0.00    -0.00  -0.00  -0.00    -0.00  -0.00  -0.00
  69   6     0.00  -0.00   0.00    -0.00   0.00  -0.00    -0.00   0.00  -0.00
  70   6    -0.00  -0.00  -0.00     0.01   0.03   0.10    -0.00  -0.00  -0.00
  71   6    -0.00   0.00  -0.00     0.01  -0.19   0.18     0.00  -0.00   0.00
  72   6     0.00   0.00   0.00    -0.00  -0.02  -0.01    -0.00  -0.00   0.00
  73   7     0.00  -0.00   0.00    -0.00   0.00  -0.00    -0.00   0.00  -0.00
  74   6    -0.00  -0.00   0.00    -0.00   0.00  -0.00     0.00   0.00  -0.00
  75   1     0.00   0.00   0.01    -0.04  -0.08  -0.33     0.00   0.00   0.00
  76   1     0.00  -0.01   0.01    -0.05   0.66  -0.60    -0.00   0.00  -0.00
  77   1    -0.00  -0.00  -0.00     0.00   0.04   0.02     0.00   0.00  -0.00
  78   1     0.00  -0.00   0.00    -0.00   0.00  -0.00     0.00  -0.00   0.00
  79   6    -0.00  -0.00   0.00    -0.00  -0.00  -0.00    -0.00   0.00   0.00
  80   6     0.00   0.00  -0.00     0.00   0.00  -0.00    -0.00  -0.00  -0.00
  81   6     0.00   0.00  -0.00    -0.00  -0.00   0.00     0.00   0.00  -0.00
  82   6    -0.00   0.00   0.00     0.00  -0.00  -0.00     0.00  -0.00  -0.00
  83   6    -0.00  -0.00   0.00     0.00   0.00  -0.00     0.00   0.00  -0.00
  84   6    -0.00  -0.00   0.00    -0.00  -0.00   0.00     0.00   0.00  -0.00
  85   6     0.00  -0.00  -0.00    -0.00  -0.00   0.00    -0.00  -0.00   0.00
  86   6    -0.00  -0.00   0.00    -0.00  -0.00   0.00    -0.00  -0.00   0.00
  87   6     0.00  -0.00  -0.00     0.00  -0.00  -0.00    -0.00   0.00  -0.00
  88   7     0.00   0.00  -0.00     0.00   0.00   0.00     0.00   0.00  -0.00
  89   6     0.00   0.00  -0.00    -0.00  -0.00   0.00     0.00   0.00  -0.00
  90   6     0.00   0.00  -0.00    -0.00   0.00  -0.00     0.00   0.00  -0.00
  91   1     0.00  -0.00  -0.00    -0.00   0.00   0.00    -0.00   0.00   0.00
  92   1     0.00   0.00  -0.00    -0.00  -0.00   0.00    -0.00  -0.00   0.00
  93   1     0.00   0.00  -0.00     0.00   0.00  -0.00    -0.00  -0.00   0.00
  94   1     0.00   0.00  -0.00     0.00   0.00  -0.00     0.00   0.00  -0.00
  95   1    -0.00   0.00   0.00    -0.00   0.00   0.00     0.00  -0.00  -0.00
  96   1    -0.00  -0.00   0.00     0.00   0.00  -0.00    -0.00  -0.00  -0.00
  97   6     0.00   0.00  -0.00    -0.00  -0.00   0.00     0.00   0.01  -0.00
  98   6    -0.00   0.00   0.00     0.00  -0.00  -0.00    -0.10   0.17   0.16
  99   6     0.00   0.00  -0.00     0.00   0.00  -0.00    -0.06  -0.03   0.06
 100   6     0.00   0.00  -0.00    -0.00   0.00   0.00     0.00  -0.00  -0.00
 101   6    -0.00   0.00   0.00     0.00  -0.00  -0.00     0.00  -0.00  -0.00
 102   6    -0.00  -0.00   0.00    -0.00   0.00   0.00     0.00  -0.00  -0.00
 103   1     0.00  -0.00  -0.00    -0.00   0.00   0.00     0.36  -0.58  -0.57
 104   1    -0.00  -0.00   0.00    -0.00  -0.00   0.00     0.19   0.09  -0.20
 105   1     0.00  -0.00  -0.00    -0.00   0.00   0.00    -0.00   0.00   0.00
 106   1     0.00   0.00  -0.00     0.00   0.00  -0.00    -0.01  -0.00   0.01
 107   6     0.00  -0.00  -0.00    -0.00   0.00   0.00    -0.00   0.00   0.00
 108   6    -0.00  -0.00   0.00     0.00   0.00  -0.00    -0.00  -0.00   0.00
 109   6    -0.00   0.00   0.00     0.00  -0.00  -0.00    -0.00   0.00   0.00
 110   6     0.00   0.00  -0.00    -0.00  -0.00   0.00     0.00   0.00  -0.00
 111   7     0.00  -0.00  -0.00    -0.00   0.00   0.00     0.00   0.00  -0.00
 112   6     0.00  -0.00  -0.00    -0.00  -0.00   0.00    -0.00  -0.00  -0.00
 113   1     0.00   0.00  -0.00    -0.00  -0.00   0.00     0.01   0.00  -0.00
 114   1     0.00  -0.00  -0.00    -0.01   0.01   0.00     0.01  -0.01  -0.00
 115   1    -0.00  -0.00   0.00     0.00   0.00  -0.00    -0.00  -0.00   0.00
 116   1    -0.00   0.00   0.00    -0.00   0.00  -0.00     0.00   0.00  -0.00
 117   6     0.00  -0.00  -0.00     0.00   0.00   0.00     0.00  -0.00  -0.00
 118   6    -0.00   0.00   0.00    -0.00   0.00  -0.00    -0.00  -0.00   0.00
 119   6    -0.00  -0.00   0.00    -0.00   0.00  -0.00    -0.00   0.00  -0.00
 120   6    -0.00  -0.00  -0.00     0.00   0.00   0.00    -0.00   0.00   0.00
 121   6    -0.00   0.00  -0.00     0.00  -0.00   0.00    -0.00   0.00  -0.00
 122   6     0.00  -0.00   0.00     0.00  -0.00   0.00    -0.00   0.00  -0.00
 123   6    -0.00  -0.00   0.00    -0.00  -0.00  -0.00    -0.00  -0.00  -0.00
 124   6     0.00  -0.00   0.00     0.00  -0.00   0.00    -0.00   0.00  -0.00
 125   6    -0.00  -0.00  -0.00    -0.00  -0.00  -0.00     0.00   0.00   0.00
 126   7    -0.00   0.00  -0.00     0.00   0.00  -0.00     0.00   0.00   0.00
 127   6     0.00  -0.00   0.00    -0.00   0.00  -0.00     0.00  -0.00   0.00
 128   6     0.00   0.00   0.00    -0.00   0.00  -0.00    -0.00   0.00  -0.00
 129   1     0.00   0.00   0.00    -0.00  -0.00  -0.00    -0.00  -0.00  -0.00
 130   1     0.00  -0.00   0.00    -0.00   0.00  -0.00     0.00   0.00   0.00
 131   1    -0.00   0.00  -0.00    -0.00   0.00  -0.00     0.00  -0.00   0.00
 132   1    -0.00   0.00  -0.00    -0.00   0.00  -0.00     0.00  -0.00   0.00
 133   1     0.00   0.00   0.00     0.00   0.00   0.00    -0.00  -0.00  -0.00
 134   1     0.00   0.00  -0.00     0.00  -0.00   0.00     0.00   0.00  -0.00
 135   6     0.00   0.00  -0.00     0.00   0.00  -0.00    -0.00   0.00  -0.00
 136   6    -0.00   0.00  -0.00     0.00  -0.00   0.00     0.00  -0.00   0.00
 137   6    -0.00  -0.00  -0.00     0.00   0.00   0.00    -0.00  -0.00   0.00
 138   6    -0.00  -0.00  -0.00    -0.00   0.00  -0.00    -0.00  -0.00   0.00
 139   6     0.00  -0.00   0.00    -0.00   0.00  -0.00     0.01  -0.00   0.01
 140   6     0.00   0.00   0.00     0.00   0.00   0.00     0.02   0.02   0.01
 141   1     0.00  -0.00   0.00    -0.00   0.00  -0.00    -0.00   0.00  -0.00
 142   1     0.00   0.00   0.00    -0.00  -0.00  -0.00     0.00   0.00   0.00
 143   1    -0.00   0.00  -0.00     0.00  -0.00   0.00    -0.02   0.01  -0.02
 144   1    -0.00  -0.00  -0.00    -0.00  -0.00  -0.00    -0.07  -0.07  -0.05
 145   6     0.00   0.00   0.00    -0.00  -0.00  -0.00     0.00   0.00   0.00
 146   6    -0.00   0.00  -0.00     0.00  -0.00   0.00     0.00  -0.00   0.00
 147   6    -0.00  -0.01  -0.01     0.00   0.00   0.00     0.00   0.00   0.00
 148   6    -0.00  -0.00   0.00     0.00   0.00   0.00    -0.00  -0.00  -0.00
 149   7     0.00   0.00   0.00    -0.00  -0.00  -0.00    -0.00  -0.00  -0.00
 150   6     0.00   0.00   0.00    -0.00  -0.00  -0.00    -0.00  -0.00  -0.00
 151   1     0.00  -0.00   0.01    -0.00   0.00  -0.00    -0.00   0.00  -0.00
 152   1     0.00   0.02   0.02    -0.00  -0.00  -0.00    -0.00  -0.00  -0.00
 153   1     0.00   0.00  -0.00    -0.00   0.00  -0.00     0.00   0.00   0.00
 154   1    -0.00  -0.00  -0.00     0.00   0.00   0.00    -0.00   0.00   0.00
                    454                    455                    456
                        a                      a                      a 
 Frequencies --  3123.9776              3124.1894              3124.5427
 Red. masses --     1.8614                 1.8619                 1.8618
 Frc consts  --     0.0000                 0.0000                 0.0000
 IR Inten    --     0.1255                 0.1319                 0.0634
 Raman Activ --     0.0000                 0.0000                 0.0000
 Depolar     --     0.0000                 0.0000                 0.0000
 Atom AN      X      Y      Z        X      Y      Z        X      Y      Z
   1  46    -0.00   0.00   0.00     0.00   0.00   0.00     0.00   0.00  -0.00
   2  46    -0.00  -0.00   0.00     0.00  -0.00   0.00     0.00  -0.00  -0.00
   3   6    -0.00  -0.00   0.00     0.00   0.00  -0.00     0.00   0.00  -0.00
   4   6    -0.00   0.00  -0.00     0.00  -0.00   0.00     0.00  -0.00   0.00
   5   6     0.00  -0.00  -0.00    -0.00   0.00   0.00    -0.00   0.00   0.00
   6   6     0.00   0.00  -0.00    -0.00  -0.00   0.00    -0.00  -0.00   0.00
   7   6     0.00  -0.00  -0.00    -0.00   0.00   0.00    -0.00   0.00   0.00
   8   6     0.00  -0.00  -0.00    -0.00   0.00   0.00     0.00  -0.00   0.00
   9   6    -0.00   0.00   0.00     0.00  -0.00  -0.00     0.00  -0.00  -0.00
  10   6     0.00  -0.00  -0.00     0.00  -0.00  -0.00     0.00  -0.00  -0.00
  11   6    -0.00  -0.00   0.00    -0.00   0.00   0.00    -0.00  -0.00   0.00
  12   7     0.00  -0.00  -0.00    -0.00   0.00   0.00    -0.00  -0.00   0.00
  13   6     0.00  -0.00   0.00    -0.00   0.00  -0.00    -0.00   0.00   0.00
  14   6     0.00  -0.00  -0.00    -0.00   0.00   0.00     0.00   0.00  -0.00
  15   1    -0.00  -0.00   0.00     0.00   0.00  -0.00     0.00   0.00  -0.00
  16   1    -0.00   0.00   0.00     0.00  -0.00  -0.00     0.00  -0.00  -0.00
  17   1    -0.00   0.00   0.00     0.00  -0.00  -0.00    -0.00   0.00   0.00
  18   1    -0.00   0.00   0.00    -0.00   0.00   0.00    -0.00   0.00   0.00
  19   1     0.00   0.00  -0.00    -0.00   0.00   0.00     0.00   0.00  -0.00
  20   1    -0.00   0.00  -0.00     0.00  -0.00   0.00     0.00  -0.00   0.00
  21   6     0.00  -0.00  -0.00    -0.00   0.01   0.00    -0.00   0.00   0.00
  22   6     0.00   0.00  -0.00    -0.00  -0.00   0.00    -0.00  -0.00   0.00
  23   6     0.00   0.00  -0.00    -0.00  -0.00   0.00    -0.00   0.00   0.00
  24   6     0.00   0.00  -0.00    -0.00  -0.00   0.00    -0.00  -0.00   0.00
  25   6    -0.03   0.02   0.03     0.04  -0.02  -0.04     0.03  -0.02  -0.03
  26   6    -0.06  -0.08   0.08     0.08   0.11  -0.12     0.06   0.08  -0.09
  27   1    -0.00   0.00   0.00     0.00  -0.00  -0.00     0.01  -0.00  -0.01
  28   1    -0.00  -0.00   0.00     0.00   0.00  -0.00    -0.00  -0.00   0.00
  29   1     0.09  -0.05  -0.10    -0.12   0.08   0.13    -0.09   0.06   0.10
  30   1     0.21   0.27  -0.30    -0.29  -0.38   0.42    -0.22  -0.29   0.32
  31   6    -0.00  -0.00   0.00     0.00   0.00  -0.00     0.00   0.00  -0.00
  32   6    -0.00   0.00   0.00     0.00  -0.00  -0.00     0.00  -0.00  -0.00
  33   6    -0.00  -0.00   0.00     0.00   0.00  -0.00     0.00   0.00  -0.00
  34   6     0.00  -0.00  -0.00    -0.00   0.00   0.00    -0.00   0.00  -0.00
  35   7     0.00  -0.00   0.00    -0.00   0.00   0.00    -0.00   0.00   0.00
  36   6    -0.00  -0.00  -0.00    -0.00  -0.00   0.00     0.00   0.00   0.00
  37   1     0.00  -0.00  -0.00    -0.01   0.00   0.00    -0.01   0.00   0.00
  38   1     0.00   0.00  -0.00    -0.01  -0.01   0.00    -0.00  -0.00   0.00
  39   1    -0.00   0.00   0.00     0.00  -0.00  -0.00     0.00  -0.00  -0.00
  40   1     0.00   0.00  -0.00     0.00   0.00   0.00    -0.00  -0.00  -0.00
  41   6     0.00  -0.00   0.00     0.00  -0.00   0.00     0.00  -0.00   0.00
  42   6    -0.00   0.00   0.00     0.00   0.00   0.00     0.00   0.00   0.00
  43   6    -0.00  -0.00  -0.00    -0.00  -0.00  -0.00    -0.00  -0.00  -0.00
  44   6    -0.00   0.00  -0.00    -0.00   0.00  -0.00    -0.00   0.00  -0.00
  45   6    -0.00  -0.00  -0.00    -0.00  -0.00  -0.00    -0.00  -0.00  -0.00
  46   6    -0.00  -0.00  -0.00    -0.00  -0.00  -0.00     0.00   0.00   0.00
  47   6     0.00   0.00   0.00     0.00   0.00   0.00     0.00   0.00   0.00
  48   6     0.00   0.00   0.00     0.00   0.00   0.00     0.00   0.00   0.00
  49   6    -0.00  -0.00   0.00    -0.00   0.00  -0.00    -0.00   0.00  -0.00
  50   7    -0.00  -0.00  -0.00    -0.00   0.00  -0.00    -0.00   0.00  -0.00
  51   6    -0.00  -0.00  -0.00    -0.00  -0.00  -0.00    -0.00  -0.00  -0.00
  52   6    -0.00  -0.00  -0.00     0.00  -0.00   0.00    -0.00  -0.00   0.00
  53   1     0.00  -0.00   0.00     0.00  -0.00   0.00     0.00  -0.00   0.00
  54   1     0.00   0.00   0.00     0.00   0.00   0.00     0.00   0.00   0.00
  55   1     0.00   0.00   0.00     0.00   0.00   0.00    -0.00  -0.00  -0.00
  56   1    -0.00  -0.00  -0.00    -0.00  -0.00  -0.00    -0.00  -0.00  -0.00
  57   1    -0.00   0.00  -0.00     0.00  -0.00   0.00     0.00  -0.00   0.00
  58   1     0.00   0.00   0.00     0.00   0.00   0.00     0.00   0.00   0.00
  59   6    -0.00  -0.01  -0.00    -0.00  -0.00  -0.00    -0.00  -0.00  -0.00
  60   6     0.14  -0.15   0.10     0.06  -0.06   0.04     0.05  -0.06   0.04
  61   6     0.05   0.02   0.05     0.02   0.01   0.02     0.02   0.01   0.02
  62   6    -0.00   0.00  -0.00    -0.00   0.00  -0.00    -0.00   0.00  -0.00
  63   6    -0.00   0.00  -0.00    -0.00  -0.00  -0.00    -0.00  -0.00  -0.00
  64   6    -0.00   0.00  -0.00    -0.00   0.00  -0.00    -0.00   0.00  -0.00
  65   1    -0.48   0.52  -0.35    -0.19   0.21  -0.14    -0.18   0.20  -0.13
  66   1    -0.17  -0.08  -0.15    -0.07  -0.03  -0.06    -0.06  -0.03  -0.06
  67   1     0.00  -0.00   0.00    -0.00   0.00  -0.00    -0.00   0.00  -0.00
  68   1     0.01   0.00   0.01     0.00   0.00   0.00     0.00   0.00   0.00
  69   6     0.00  -0.00   0.00     0.00  -0.00   0.00     0.00  -0.00   0.00
  70   6     0.00   0.00   0.00     0.00   0.00   0.00     0.00   0.00   0.00
  71   6     0.00  -0.00   0.00     0.00  -0.00   0.00     0.00  -0.00   0.00
  72   6    -0.00  -0.00  -0.00     0.00  -0.00  -0.00    -0.00  -0.00  -0.00
  73   7    -0.00  -0.00  -0.00    -0.00  -0.00  -0.00    -0.00  -0.00   0.00
  74   6    -0.00   0.00  -0.00    -0.00  -0.00   0.00    -0.00  -0.00   0.00
  75   1    -0.00  -0.00  -0.01    -0.00  -0.00  -0.00    -0.00  -0.00  -0.00
  76   1    -0.00   0.01  -0.01    -0.00   0.00  -0.00    -0.00   0.00  -0.00
  77   1     0.00   0.00   0.00     0.00   0.00   0.00     0.00   0.00   0.00
  78   1    -0.00  -0.00   0.00     0.00   0.00  -0.00     0.00   0.00  -0.00
  79   6    -0.00   0.00   0.00    -0.00   0.00  -0.00    -0.00   0.00   0.00
  80   6    -0.00  -0.00   0.00    -0.00  -0.00   0.00    -0.00  -0.00  -0.00
  81   6     0.00   0.00  -0.00     0.00   0.00  -0.00     0.00   0.00  -0.00
  82   6     0.00  -0.00  -0.00     0.00  -0.00  -0.00     0.00  -0.00  -0.00
  83   6     0.00   0.00  -0.00    -0.00  -0.00   0.00    -0.00  -0.00   0.00
  84   6     0.00   0.00  -0.00    -0.00  -0.00   0.00    -0.00  -0.00   0.00
  85   6    -0.00   0.00   0.00    -0.00  -0.00   0.00     0.00  -0.00  -0.00
  86   6    -0.00  -0.00   0.00    -0.00  -0.00   0.00    -0.00  -0.00   0.00
  87   6     0.00  -0.00  -0.00     0.00  -0.00   0.00     0.00  -0.00  -0.00
  88   7     0.00  -0.00  -0.00     0.00  -0.00   0.00     0.00  -0.00  -0.00
  89   6     0.00   0.00  -0.00     0.00   0.00  -0.00     0.00   0.00  -0.00
  90   6    -0.00  -0.00   0.00     0.00  -0.00  -0.00    -0.00   0.00   0.00
  91   1    -0.00   0.00   0.00    -0.00   0.00   0.00    -0.00   0.00   0.00
  92   1    -0.00  -0.00   0.00     0.00   0.00  -0.00     0.00   0.00  -0.00
  93   1    -0.00  -0.00   0.00     0.00   0.00  -0.00     0.00   0.00  -0.00
  94   1     0.00   0.00  -0.00     0.00   0.00  -0.00     0.00   0.00  -0.00
  95   1    -0.00   0.00   0.00    -0.00   0.00   0.00    -0.00   0.00   0.00
  96   1    -0.00  -0.00   0.00    -0.00  -0.00   0.00    -0.00  -0.00   0.00
  97   6     0.00   0.00   0.00     0.00   0.00   0.00     0.00   0.00  -0.00
  98   6    -0.01   0.02   0.02    -0.00   0.00   0.00    -0.02   0.03   0.03
  99   6    -0.01  -0.00   0.01    -0.00  -0.00   0.00    -0.01  -0.01   0.01
 100   6     0.00  -0.00  -0.00     0.00  -0.00   0.00     0.00  -0.00  -0.00
 101   6     0.00   0.00   0.00     0.00   0.00   0.00     0.00   0.00   0.00
 102   6     0.00   0.00  -0.00     0.00   0.00  -0.00     0.00  -0.00  -0.00
 103   1     0.05  -0.08  -0.08     0.01  -0.01  -0.01     0.07  -0.11  -0.11
 104   1     0.03   0.01  -0.03     0.01   0.00  -0.01     0.03   0.02  -0.04
 105   1     0.00  -0.00  -0.00     0.00  -0.00  -0.00     0.00  -0.00  -0.00
 106   1    -0.00  -0.00   0.00    -0.00  -0.00   0.00    -0.00  -0.00   0.00
 107   6    -0.00   0.00   0.00    -0.00   0.00   0.00    -0.00  -0.00   0.00
 108   6    -0.00  -0.00   0.00    -0.00  -0.00   0.00    -0.00  -0.00   0.00
 109   6     0.00  -0.00  -0.00     0.00  -0.00  -0.00    -0.00   0.00   0.00
 110   6     0.00   0.00   0.00     0.00   0.00  -0.00     0.00   0.00  -0.00
 111   7    -0.00   0.00   0.00    -0.00   0.00   0.00    -0.00   0.00  -0.00
 112   6    -0.00   0.00   0.00    -0.00   0.00   0.00    -0.00   0.00  -0.00
 113   1     0.00   0.00  -0.00     0.00   0.00  -0.00     0.00   0.00  -0.00
 114   1    -0.00   0.00   0.00    -0.00   0.00   0.00     0.00  -0.00  -0.00
 115   1     0.00  -0.00  -0.00    -0.00  -0.00   0.00    -0.00  -0.00   0.00
 116   1     0.00  -0.00   0.00     0.00  -0.00   0.00     0.00  -0.00   0.00
 117   6     0.00   0.00   0.00     0.00   0.00   0.00    -0.00  -0.00  -0.00
 118   6    -0.00  -0.00   0.00    -0.00  -0.00   0.00     0.00   0.00  -0.00
 119   6    -0.00   0.00  -0.00    -0.00   0.00  -0.00     0.00  -0.00   0.00
 120   6    -0.00  -0.00  -0.00    -0.00  -0.00  -0.00     0.00   0.00   0.00
 121   6    -0.00   0.00  -0.00    -0.00   0.00  -0.00     0.00  -0.00   0.00
 122   6    -0.00   0.00  -0.00    -0.00   0.00  -0.00     0.00   0.00   0.00
 123   6     0.00   0.00   0.00     0.00  -0.00   0.00    -0.00   0.00  -0.00
 124   6    -0.00   0.00  -0.00    -0.00   0.00  -0.00    -0.00   0.00  -0.00
 125   6     0.00   0.00   0.00     0.00   0.00   0.00     0.00   0.00   0.00
 126   7    -0.00   0.00  -0.00    -0.00   0.00  -0.00     0.00   0.00   0.00
 127   6     0.00  -0.00   0.00     0.00   0.00  -0.00    -0.00  -0.00   0.00
 128   6     0.00   0.00   0.00    -0.00   0.00  -0.00     0.00  -0.00  -0.00
 129   1     0.00   0.00   0.00     0.00   0.00   0.00    -0.00  -0.00  -0.00
 130   1     0.00  -0.00   0.00     0.00  -0.00   0.00    -0.00   0.00  -0.00
 131   1     0.00  -0.00   0.00     0.00  -0.00   0.00     0.00  -0.00   0.00
 132   1     0.00  -0.00   0.00     0.00  -0.00   0.00     0.00  -0.00   0.00
 133   1    -0.00  -0.00  -0.00    -0.00  -0.00  -0.00    -0.00  -0.00  -0.00
 134   1    -0.00   0.00  -0.00    -0.00  -0.00   0.00     0.00   0.00  -0.00
 135   6    -0.00   0.00  -0.00    -0.00   0.00  -0.00    -0.00  -0.01   0.00
 136   6    -0.00  -0.00  -0.00    -0.00  -0.00  -0.00     0.00   0.00   0.00
 137   6    -0.00  -0.00  -0.00    -0.00  -0.00  -0.00     0.00  -0.00   0.00
 138   6    -0.00  -0.00  -0.00    -0.00  -0.00  -0.00     0.00   0.00   0.00
 139   6     0.00  -0.00   0.00     0.04  -0.02   0.04    -0.05   0.03  -0.04
 140   6     0.01   0.01   0.01     0.11   0.10   0.07    -0.13  -0.12  -0.09
 141   1     0.00  -0.00   0.00     0.01  -0.00   0.01    -0.01   0.00  -0.01
 142   1     0.00   0.00   0.00     0.00   0.00   0.00     0.00   0.00   0.00
 143   1    -0.01   0.00  -0.01    -0.12   0.07  -0.12     0.15  -0.08   0.14
 144   1    -0.04  -0.03  -0.02    -0.39  -0.35  -0.25     0.47   0.42   0.30
 145   6     0.00   0.00   0.00     0.00   0.00   0.00    -0.00  -0.00  -0.00
 146   6     0.00   0.00   0.00     0.00  -0.00   0.00    -0.00   0.00  -0.00
 147   6    -0.00  -0.00  -0.00     0.00   0.00   0.00    -0.00  -0.00  -0.00
 148   6     0.00  -0.00   0.00     0.00   0.00  -0.00    -0.00  -0.00   0.00
 149   7    -0.00  -0.00  -0.00    -0.00   0.00  -0.00     0.00  -0.00   0.00
 150   6    -0.00  -0.00  -0.00    -0.00   0.00   0.00     0.00  -0.00  -0.00
 151   1    -0.00   0.00  -0.00    -0.00   0.00  -0.01     0.00  -0.00   0.01
 152   1     0.00   0.00   0.00    -0.00  -0.00  -0.00     0.00   0.01   0.01
 153   1     0.00   0.00  -0.00    -0.00  -0.00   0.00     0.00   0.00  -0.00
 154   1    -0.00   0.00   0.00    -0.00  -0.00  -0.00     0.00   0.00   0.00
