 Entering Gaussian System, Link 0=g16
 Input=cis_l1_lb_4.com
 Output=cis_l1_lb_4.log
 Initial command:
 /apps/gaussian/g16-c01-avx/g16/l1.exe "/rds/general/user/vposligu/home/work/Pd2L4_cages/New_Cages/opt/PBE0-def2svp-solvent/SP-more_LoT/cis_l1_lb/HSE/opt/Gau-831222.inp" -scrdir="/rds/general/user/vposligu/home/work/Pd2L4_cages/New_Cages/opt/PBE0-def2svp-solvent/SP-more_LoT/cis_l1_lb/HSE/opt/"
 Entering Link 1 = /apps/gaussian/g16-c01-avx/g16/l1.exe PID=    831223.
  
 Copyright (c) 1988-2019, Gaussian, Inc.  All Rights Reserved.
  
 This is part of the Gaussian(R) 16 program.  It is based on
 the Gaussian(R) 09 system (copyright 2009, Gaussian, Inc.),
 the Gaussian(R) 03 system (copyright 2003, Gaussian, Inc.),
 the Gaussian(R) 98 system (copyright 1998, Gaussian, Inc.),
 the Gaussian(R) 94 system (copyright 1995, Gaussian, Inc.),
 the Gaussian 92(TM) system (copyright 1992, Gaussian, Inc.),
 the Gaussian 90(TM) system (copyright 1990, Gaussian, Inc.),
 the Gaussian 88(TM) system (copyright 1988, Gaussian, Inc.),
 the Gaussian 86(TM) system (copyright 1986, Carnegie Mellon
 University), and the Gaussian 82(TM) system (copyright 1983,
 Carnegie Mellon University). Gaussian is a federally registered
 trademark of Gaussian, Inc.
  
 This software contains proprietary and confidential information,
 including trade secrets, belonging to Gaussian, Inc.
  
 This software is provided under written license and may be
 used, copied, transmitted, or stored only in accord with that
 written license.
  
 The following legend is applicable only to US Government
 contracts under FAR:
  
                    RESTRICTED RIGHTS LEGEND
  
 Use, reproduction and disclosure by the US Government is
 subject to restrictions as set forth in subparagraphs (a)
 and (c) of the Commercial Computer Software - Restricted
 Rights clause in FAR 52.227-19.
  
 Gaussian, Inc.
 340 Quinnipiac St., Bldg. 40, Wallingford CT 06492
  
  
 ---------------------------------------------------------------
 Warning -- This program may not be used in any manner that
 competes with the business of Gaussian, Inc. or will provide
 assistance to any competitor of Gaussian, Inc.  The licensee
 of this program is prohibited from giving any competitor of
 Gaussian, Inc. access to this program.  By using this program,
 the user acknowledges that Gaussian, Inc. is engaged in the
 business of creating and licensing software in the field of
 computational chemistry and represents and warrants to the
 licensee that it is not a competitor of Gaussian, Inc. and that
 it will not use this program in any manner prohibited above.
 ---------------------------------------------------------------
  

 Cite this work as:
 Gaussian 16, Revision C.01,
 M. J. Frisch, G. W. Trucks, H. B. Schlegel, G. E. Scuseria, 
 M. A. Robb, J. R. Cheeseman, G. Scalmani, V. Barone, 
 G. A. Petersson, H. Nakatsuji, X. Li, M. Caricato, A. V. Marenich, 
 J. Bloino, B. G. Janesko, R. Gomperts, B. Mennucci, H. P. Hratchian, 
 J. V. Ortiz, A. F. Izmaylov, J. L. Sonnenberg, D. Williams-Young, 
 F. Ding, F. Lipparini, F. Egidi, J. Goings, B. Peng, A. Petrone, 
 T. Henderson, D. Ranasinghe, V. G. Zakrzewski, J. Gao, N. Rega, 
 G. Zheng, W. Liang, M. Hada, M. Ehara, K. Toyota, R. Fukuda, 
 J. Hasegawa, M. Ishida, T. Nakajima, Y. Honda, O. Kitao, H. Nakai, 
 T. Vreven, K. Throssell, J. A. Montgomery, Jr., J. E. Peralta, 
 F. Ogliaro, M. J. Bearpark, J. J. Heyd, E. N. Brothers, K. N. Kudin, 
 V. N. Staroverov, T. A. Keith, R. Kobayashi, J. Normand, 
 K. Raghavachari, A. P. Rendell, J. C. Burant, S. S. Iyengar, 
 J. Tomasi, M. Cossi, J. M. Millam, M. Klene, C. Adamo, R. Cammi, 
 J. W. Ochterski, R. L. Martin, K. Morokuma, O. Farkas, 
 J. B. Foresman, and D. J. Fox, Gaussian, Inc., Wallingford CT, 2019.
 
 ******************************************
 Gaussian 16:  ES64L-G16RevC.01  3-Jul-2019
                28-Jul-2023 
 ******************************************
 %nprocshared=48
 Will use up to   48 processors via shared memory.
 %mem=120GB
 %oldchk=cis_l1_lb_3.chk
 %chk=cis_l1_lb_4.chk
 Copying data from "cis_l1_lb_3.chk" to current chk file "cis_l1_lb_4.chk"
 IOpt=  2 FromEx=T IUOpen= 4 IOptOp= 5 NList=   0 IFRang= 0 IUIn= 4 IUOut= 2.
 --------------------------------------------------
 # OPT=restart HSEH1PBE/def2svp scrf=(solvent=dmso)
 --------------------------------------------------
 1/18=20,19=15,26=3,35=1/3(2);
 2/9=110/2;
 99//99;
 2/9=110/2;
 3/5=43,7=101,11=2,25=1,30=1,70=2205,71=1,72=21,74=-51/1,2,3;
 4/5=5,16=3,69=1/1;
 5/5=2,38=5,53=21/2;
 7//1,2,3,16;
 1/18=20,19=15,26=3/3(-5);
 2/9=110/2;
 6/7=2,8=2,9=2,10=2,19=2,28=1/1;
 99/9=1/99;

 GradGradGradGradGradGradGradGradGradGradGradGradGradGradGradGradGradGrad
 Berny optimization.
 Restoring state from the checkpoint file "cis_l1_lb_4.chk".
 ONIOM results not found on unit 2.
 Title:  cis_l1_lb
 Route:  # OPT HSEH1PBE/def2svp scrf=(solvent=dmso)
 Using GEDIIS/GDIIS optimizer.
 FormGI is forming the generalized inverse of G from B-inverse, IUseBI=4.
 Internal  Forces:  Max     0.000019131 RMS     0.000003658
 Search for a local minimum.
 Step number  84 out of a maximum of 1248
 All quantities printed in internal units (Hartrees-Bohrs-Radians)
 Mixed Optimization -- En-DIIS/RFO-DIIS
 Swapping is turned off.
 Update second derivatives using D2CorX and points   12   14   15   16   17
                                                     18   19   20   21   22
                                                     23   24   25   26   27
                                                     28   29   30   31   32
                                                     33   34   35   36   37
                                                     38   39   40   41   42
                                                     43   44   45   46   47
                                                     48   49   50   51   52
                                                     53   54   55   56   57
                                                     58   59   60   61   62
                                                     63   64   65   66   67
                                                     68   69   70   71   72
                                                     73   74   75   76   77
                                                     78   79   80   81   83
                                                     84
 DE= -1.20D-06 DEPred=-6.39D-08 R= 1.88D+01
 TightC=F SS=  1.41D+00  RLast= 1.01D-02 DXNew= 8.4090D-02 3.0289D-02
 Trust test= 1.88D+01 RLast= 1.01D-02 DXMaxT set to 5.00D-02
 ITU=  1 -1 -1 -1  1  1 -1  1 -1 -1  1  1 -1  1 -1 -1  1  1 -1  1
 ITU=  0 -1  1  1  1  1  1 -1  1 -1  1  1 -1  1  1 -1  1 -1  1  1
 ITU= -1  1  1 -1  1 -1  1  1 -1  1  1 -1  1  1  1  1  1  1  1  1
 ITU=  0  1  1  1  1  0 -1  1  1  1  1  0  0  1  0  1  0  0  0 -1
 ITU= -1  0 -1  0
     Eigenvalues ---    0.00000   0.00155   0.00197   0.00242   0.00363
     Eigenvalues ---    0.00499   0.00621   0.00680   0.00786   0.00834
     Eigenvalues ---    0.00869   0.01044   0.01086   0.01126   0.01180
     Eigenvalues ---    0.01228   0.01271   0.01374   0.01416   0.01425
     Eigenvalues ---    0.01437   0.01466   0.01507   0.01518   0.01529
     Eigenvalues ---    0.01543   0.01583   0.01601   0.01607   0.01629
     Eigenvalues ---    0.01674   0.01685   0.01703   0.01718   0.01727
     Eigenvalues ---    0.01735   0.01745   0.01750   0.01770   0.01791
     Eigenvalues ---    0.01793   0.01804   0.01814   0.01821   0.01825
     Eigenvalues ---    0.01832   0.01834   0.01841   0.01842   0.01847
     Eigenvalues ---    0.01849   0.01857   0.01864   0.01871   0.01886
     Eigenvalues ---    0.01889   0.01890   0.01911   0.01922   0.01940
     Eigenvalues ---    0.01946   0.01953   0.01955   0.01968   0.01975
     Eigenvalues ---    0.01983   0.01992   0.01994   0.02004   0.02008
     Eigenvalues ---    0.02019   0.02024   0.02033   0.02037   0.02044
     Eigenvalues ---    0.02051   0.02053   0.02064   0.02066   0.02070
     Eigenvalues ---    0.02070   0.02075   0.02077   0.02079   0.02080
     Eigenvalues ---    0.02082   0.02086   0.02086   0.02087   0.02088
     Eigenvalues ---    0.02093   0.02095   0.02098   0.02104   0.02106
     Eigenvalues ---    0.02108   0.02113   0.02114   0.02117   0.02119
     Eigenvalues ---    0.02122   0.02123   0.02133   0.02139   0.02140
     Eigenvalues ---    0.02141   0.02143   0.02144   0.02147   0.02147
     Eigenvalues ---    0.02148   0.02149   0.02151   0.02153   0.02155
     Eigenvalues ---    0.02156   0.02158   0.02159   0.02161   0.02161
     Eigenvalues ---    0.02162   0.02163   0.02165   0.02166   0.02166
     Eigenvalues ---    0.02167   0.02167   0.02169   0.02170   0.02170
     Eigenvalues ---    0.02170   0.02172   0.02173   0.02175   0.02177
     Eigenvalues ---    0.02180   0.02184   0.02185   0.02189   0.02192
     Eigenvalues ---    0.02192   0.02201   0.02204   0.02208   0.02214
     Eigenvalues ---    0.02218   0.02219   0.02222   0.02223   0.02226
     Eigenvalues ---    0.02230   0.02234   0.02237   0.02242   0.02245
     Eigenvalues ---    0.02249   0.02252   0.02253   0.02257   0.02261
     Eigenvalues ---    0.02267   0.02268   0.02275   0.02284   0.02289
     Eigenvalues ---    0.02301   0.02315   0.02319   0.02334   0.02339
     Eigenvalues ---    0.02349   0.02363   0.02368   0.02387   0.02402
     Eigenvalues ---    0.02411   0.02412   0.02432   0.02449   0.02493
     Eigenvalues ---    0.02552   0.02564   0.02647   0.02653   0.02702
     Eigenvalues ---    0.02785   0.02836   0.02912   0.03009   0.03155
     Eigenvalues ---    0.03285   0.03495   0.03526   0.03595   0.03646
     Eigenvalues ---    0.03791   0.03833   0.04028   0.04146   0.04606
     Eigenvalues ---    0.04827   0.05119   0.05400   0.05563   0.05755
     Eigenvalues ---    0.06584   0.07144   0.07398   0.07950   0.08659
     Eigenvalues ---    0.09554   0.09792   0.10639   0.11138   0.11572
     Eigenvalues ---    0.12074   0.13412   0.13636   0.14367   0.14739
     Eigenvalues ---    0.15066   0.15255   0.15474   0.15676   0.15816
     Eigenvalues ---    0.15890   0.15919   0.15946   0.15963   0.15975
     Eigenvalues ---    0.15980   0.15981   0.15986   0.15987   0.15987
     Eigenvalues ---    0.15988   0.15989   0.15991   0.15991   0.15993
     Eigenvalues ---    0.15994   0.15994   0.15995   0.15996   0.15996
     Eigenvalues ---    0.15996   0.15996   0.15997   0.15997   0.15998
     Eigenvalues ---    0.15998   0.15998   0.15999   0.15999   0.15999
     Eigenvalues ---    0.16000   0.16000   0.16000   0.16000   0.16000
     Eigenvalues ---    0.16000   0.16000   0.16000   0.16000   0.16001
     Eigenvalues ---    0.16001   0.16002   0.16002   0.16004   0.16004
     Eigenvalues ---    0.16006   0.16007   0.16009   0.16010   0.16011
     Eigenvalues ---    0.16014   0.16016   0.16021   0.16028   0.16031
     Eigenvalues ---    0.16053   0.16064   0.16072   0.16109   0.16143
     Eigenvalues ---    0.16151   0.16165   0.16248   0.16277   0.16350
     Eigenvalues ---    0.16475   0.16598   0.16640   0.16662   0.16761
     Eigenvalues ---    0.16839   0.17137   0.17197   0.17431   0.17722
     Eigenvalues ---    0.18358   0.18603   0.18738   0.19358   0.19977
     Eigenvalues ---    0.20985   0.21189   0.21817   0.21895   0.21989
     Eigenvalues ---    0.22011   0.22032   0.22036   0.22086   0.22098
     Eigenvalues ---    0.22104   0.22137   0.22148   0.22191   0.22227
     Eigenvalues ---    0.22247   0.22342   0.22408   0.22434   0.22457
     Eigenvalues ---    0.22474   0.22524   0.22555   0.22604   0.22808
     Eigenvalues ---    0.22937   0.22945   0.22959   0.22967   0.22986
     Eigenvalues ---    0.22990   0.23007   0.23041   0.23145   0.23278
     Eigenvalues ---    0.23419   0.23440   0.23489   0.23501   0.23533
     Eigenvalues ---    0.23541   0.23574   0.23579   0.23600   0.23606
     Eigenvalues ---    0.23651   0.23682   0.23707   0.23741   0.23805
     Eigenvalues ---    0.23916   0.23996   0.24050   0.24132   0.24175
     Eigenvalues ---    0.24284   0.24389   0.24428   0.24485   0.24566
     Eigenvalues ---    0.24577   0.24614   0.24669   0.24692   0.24712
     Eigenvalues ---    0.24746   0.24839   0.24870   0.24902   0.24919
     Eigenvalues ---    0.24927   0.24941   0.24959   0.24965   0.24992
     Eigenvalues ---    0.25001   0.25043   0.25101   0.25126   0.25219
     Eigenvalues ---    0.25418   0.25441   0.25562   0.25916   0.26050
     Eigenvalues ---    0.26256   0.27148   0.27417   0.28634   0.32457
     Eigenvalues ---    0.34247   0.34399   0.34415   0.34434   0.34442
     Eigenvalues ---    0.34451   0.34496   0.34512   0.34513   0.34516
     Eigenvalues ---    0.34536   0.34538   0.34544   0.34546   0.34548
     Eigenvalues ---    0.34553   0.34557   0.34563   0.34567   0.34569
     Eigenvalues ---    0.34575   0.34579   0.34583   0.34588   0.34589
     Eigenvalues ---    0.34591   0.34593   0.34604   0.34605   0.34613
     Eigenvalues ---    0.34617   0.34626   0.34636   0.34637   0.34642
     Eigenvalues ---    0.34648   0.34651   0.34655   0.34656   0.34658
     Eigenvalues ---    0.34662   0.34668   0.34673   0.34675   0.34677
     Eigenvalues ---    0.34678   0.34684   0.34690   0.34692   0.34696
     Eigenvalues ---    0.34700   0.34705   0.34707   0.34708   0.34712
     Eigenvalues ---    0.34715   0.34719   0.34720   0.34726   0.34734
     Eigenvalues ---    0.34737   0.34741   0.34747   0.34754   0.34756
     Eigenvalues ---    0.34759   0.34765   0.34787   0.34790   0.34797
     Eigenvalues ---    0.34805   0.34808   0.34813   0.34830   0.34855
     Eigenvalues ---    0.34935   0.35104   0.35131   0.35238   0.35429
     Eigenvalues ---    0.35681   0.35861   0.36440   0.36791   0.36935
     Eigenvalues ---    0.36988   0.37031   0.37058   0.37516   0.37727
     Eigenvalues ---    0.39069   0.39295   0.39924   0.39977   0.40082
     Eigenvalues ---    0.40253   0.40304   0.40314   0.40469   0.40541
     Eigenvalues ---    0.40616   0.40659   0.40720   0.40785   0.40870
     Eigenvalues ---    0.40958   0.41054   0.41150   0.41178   0.41206
     Eigenvalues ---    0.41315   0.41332   0.41354   0.41423   0.41466
     Eigenvalues ---    0.41543   0.41646   0.41714   0.41816   0.41833
     Eigenvalues ---    0.41880   0.41905   0.41949   0.41979   0.42043
     Eigenvalues ---    0.42476   0.42477   0.42623   0.42754   0.42787
     Eigenvalues ---    0.42883   0.42938   0.42957   0.42999   0.43015
     Eigenvalues ---    0.43033   0.43091   0.43161   0.43220   0.43276
     Eigenvalues ---    0.43365   0.43441   0.43698   0.43954   0.44069
     Eigenvalues ---    0.44469   0.44520   0.44587   0.44698   0.44795
     Eigenvalues ---    0.44814   0.44875   0.44935   0.45013   0.45063
     Eigenvalues ---    0.45346   0.45529   0.45601   0.45681   0.45729
     Eigenvalues ---    0.45852   0.45934   0.45970   0.46033   0.46100
     Eigenvalues ---    0.46141   0.46182   0.46300   0.46418   0.46524
     Eigenvalues ---    0.46926   0.46971   0.47015   0.47026   0.47058
     Eigenvalues ---    0.47076   0.47098   0.47114   0.47133   0.47159
     Eigenvalues ---    0.47176   0.47293   0.47375   0.47477   0.47577
     Eigenvalues ---    0.47651   0.47721   0.47999   0.48290   0.48308
     Eigenvalues ---    0.48338   0.48399   0.48732   0.48759   0.48830
     Eigenvalues ---    0.49133   0.49402   0.49445   0.49476   0.50048
     Eigenvalues ---    0.50187   0.50573   0.51377   0.51407   0.51472
     Eigenvalues ---    0.51627   0.51851   0.52349   0.54671   0.54735
     Eigenvalues ---    0.54864   0.54954   0.55181   0.55622   0.55801
     Eigenvalues ---    0.56283   0.56520   0.56814   0.56896   0.57094
     Eigenvalues ---    0.59272   0.59441   0.60856   0.62716   0.95542
     Eigenvalues ---    0.96238   0.96247   0.96687   1.24243
 Eigenvalue     1 is   9.54D-07 Eigenvector:
                          D29       D30      D498      D500      D328
   1                    0.15575   0.14849   0.14632   0.14419   0.14053
                         D312       D31      D326       D32      D327
   1                    0.13957   0.13819   0.13296   0.13092   0.13019
 En-DIIS/RFO-DIIS/Sim-DIIS IScMMF=       -3 using points:    84   83   82   81   80   79   78   77   76   75
 RFO step:  Lambda=-2.07769207D-07.
 DIIS inversion failure, remove point  10.
 DIIS inversion failure, remove point   9.
 DIIS inversion failure, remove point   8.
 DIIS inversion failure, remove point   7.
 DIIS inversion failure, remove point   6.
 DIIS inversion failure, remove point   5.
 RFO-DIIS uses    4 points instead of   10
 EnCoef did   100 forward-backward iterations
 EnCoef did   100 forward-backward iterations
 EnCoef did   100 forward-backward iterations
 EnCoef did   100 forward-backward iterations
 EnCoef did   100 forward-backward iterations
 EnCoef did   100 forward-backward iterations
 EnCoef did   100 forward-backward iterations
 DidBck=T Rises=T En-DIIS coefs:    0.42767    0.00000    0.00000    0.00000    0.00000
                  En-DIIS coefs:    0.00000    0.00000    0.57233    0.00000    0.00000
 Iteration  1 RMS(Cart)=  0.01310143 RMS(Int)=  0.00001048
 Iteration  2 RMS(Cart)=  0.00004342 RMS(Int)=  0.00000054
 Iteration  3 RMS(Cart)=  0.00000000 RMS(Int)=  0.00000054
 Variable       Old X    -DE/DX   Delta X   Delta X   Delta X     New X
                                 (Linear)    (Quad)   (Total)
    R1        3.86184  -0.00001  -0.00031   0.00000  -0.00031   3.86153
    R2        3.86045  -0.00000   0.00008   0.00000   0.00008   3.86053
    R3        3.85983  -0.00001   0.00035   0.00000   0.00035   3.86018
    R4        3.85924  -0.00001   0.00091   0.00000   0.00091   3.86016
    R5        3.86190  -0.00001   0.00024   0.00000   0.00024   3.86214
    R6        3.86052  -0.00000   0.00072   0.00000   0.00072   3.86124
    R7        3.85986  -0.00001   0.00046   0.00000   0.00046   3.86032
    R8        3.85911  -0.00001  -0.00053   0.00000  -0.00053   3.85858
    R9        2.53529   0.00000  -0.00004   0.00000  -0.00004   2.53524
   R10        2.61429  -0.00000   0.00010   0.00000   0.00010   2.61439
   R11        2.06327   0.00000  -0.00004   0.00000  -0.00004   2.06322
   R12        2.53572  -0.00000   0.00006   0.00000   0.00006   2.53578
   R13        2.61971  -0.00000  -0.00011   0.00000  -0.00011   2.61960
   R14        2.06335  -0.00000   0.00001   0.00000   0.00001   2.06335
   R15        2.65193   0.00000   0.00003   0.00000   0.00003   2.65196
   R16        2.06107  -0.00000  -0.00002   0.00000  -0.00002   2.06105
   R17        2.78799  -0.00000   0.00005   0.00000   0.00005   2.78804
   R18        2.65319  -0.00000   0.00004   0.00000   0.00004   2.65323
   R19        2.67033  -0.00000   0.00007   0.00000   0.00007   2.67040
   R20        2.64732   0.00000   0.00002   0.00000   0.00002   2.64733
   R21        2.63041  -0.00000  -0.00002   0.00000  -0.00001   2.63040
   R22        2.06357  -0.00000  -0.00002   0.00000  -0.00002   2.06355
   R23        2.62508  -0.00000  -0.00002   0.00000  -0.00002   2.62506
   R24        2.06102  -0.00000  -0.00000   0.00000  -0.00000   2.06101
   R25        2.57131  -0.00000  -0.00001   0.00000  -0.00001   2.57130
   R26        2.65750   0.00000  -0.00000   0.00000  -0.00000   2.65749
   R27        2.57132  -0.00000   0.00006   0.00000   0.00006   2.57139
   R28        2.62508  -0.00000   0.00002   0.00000   0.00002   2.62510
   R29        2.65749   0.00000  -0.00005   0.00000  -0.00005   2.65745
   R30        2.63042  -0.00000   0.00007   0.00000   0.00007   2.63049
   R31        2.06102  -0.00000   0.00000   0.00000   0.00000   2.06102
   R32        2.67032  -0.00000  -0.00008   0.00000  -0.00008   2.67024
   R33        2.06357  -0.00000   0.00003   0.00000   0.00003   2.06360
   R34        2.78800  -0.00000  -0.00002   0.00000  -0.00002   2.78798
   R35        2.64731   0.00000  -0.00003   0.00000  -0.00003   2.64728
   R36        2.65318  -0.00000  -0.00005   0.00000  -0.00005   2.65313
   R37        2.65192   0.00000  -0.00004   0.00000  -0.00004   2.65188
   R38        2.61428  -0.00000  -0.00008   0.00000  -0.00008   2.61421
   R39        2.06052  -0.00000   0.00001   0.00000   0.00001   2.06053
   R40        2.53530   0.00000   0.00002   0.00000   0.00002   2.53532
   R41        2.06328  -0.00000   0.00006   0.00000   0.00006   2.06334
   R42        2.53571  -0.00000   0.00009   0.00000   0.00009   2.53580
   R43        2.61972  -0.00000   0.00008   0.00000   0.00008   2.61980
   R44        2.06335  -0.00000   0.00004   0.00000   0.00004   2.06339
   R45        2.06107  -0.00000   0.00002   0.00000   0.00002   2.06110
   R46        2.63033   0.00000  -0.00006   0.00000  -0.00006   2.63028
   R47        2.06259  -0.00000  -0.00000   0.00000  -0.00000   2.06259
   R48        2.73264   0.00000  -0.00006   0.00000  -0.00007   2.73258
   R49        2.63034   0.00000   0.00001   0.00000   0.00001   2.63035
   R50        2.06260   0.00000   0.00004   0.00000   0.00004   2.06264
   R51        2.06052  -0.00000  -0.00001   0.00000  -0.00001   2.06051
   R52        2.53532  -0.00000  -0.00006   0.00000  -0.00006   2.53526
   R53        2.61523  -0.00000  -0.00000   0.00000  -0.00000   2.61522
   R54        2.06401  -0.00000   0.00002   0.00000   0.00002   2.06403
   R55        2.53558  -0.00000   0.00004   0.00000   0.00004   2.53562
   R56        2.61941  -0.00000   0.00005   0.00000   0.00005   2.61946
   R57        2.06323  -0.00000  -0.00001   0.00000  -0.00001   2.06322
   R58        2.65193   0.00000   0.00001   0.00000   0.00001   2.65194
   R59        2.06118  -0.00000   0.00003   0.00000   0.00003   2.06121
   R60        2.78808  -0.00000  -0.00003   0.00000  -0.00003   2.78805
   R61        2.65335  -0.00000  -0.00010   0.00000  -0.00010   2.65325
   R62        2.67018  -0.00000  -0.00006   0.00000  -0.00006   2.67012
   R63        2.64757   0.00000  -0.00005   0.00000  -0.00005   2.64752
   R64        2.62996  -0.00000   0.00006   0.00000   0.00006   2.63002
   R65        2.06355  -0.00000   0.00002   0.00000   0.00002   2.06357
   R66        2.62485  -0.00000   0.00003   0.00000   0.00003   2.62488
   R67        2.06102  -0.00000   0.00000   0.00000   0.00000   2.06102
   R68        2.57093  -0.00000   0.00006   0.00000   0.00006   2.57099
   R69        2.65783   0.00000  -0.00005   0.00000  -0.00006   2.65778
   R70        2.57093  -0.00000   0.00001   0.00000   0.00001   2.57094
   R71        2.62485  -0.00000  -0.00004   0.00000  -0.00004   2.62481
   R72        2.65784   0.00000  -0.00000   0.00000  -0.00000   2.65784
   R73        2.62995  -0.00000  -0.00003   0.00000  -0.00002   2.62993
   R74        2.06102  -0.00000   0.00000   0.00000   0.00000   2.06102
   R75        2.67019  -0.00000   0.00006   0.00000   0.00006   2.67025
   R76        2.06355  -0.00000  -0.00002   0.00000  -0.00002   2.06353
   R77        2.78808  -0.00000   0.00003   0.00000   0.00003   2.78811
   R78        2.64757   0.00000  -0.00001   0.00000  -0.00001   2.64756
   R79        2.65335  -0.00000   0.00011   0.00000   0.00011   2.65347
   R80        2.65194  -0.00000  -0.00008   0.00000  -0.00008   2.65186
   R81        2.61524  -0.00000   0.00016   0.00000   0.00016   2.61540
   R82        2.06074  -0.00000   0.00002   0.00000   0.00002   2.06076
   R83        2.53532   0.00000   0.00021   0.00000   0.00021   2.53552
   R84        2.06400  -0.00000   0.00001   0.00000   0.00001   2.06401
   R85        2.53559  -0.00000  -0.00012   0.00000  -0.00012   2.53547
   R86        2.61940  -0.00000  -0.00012   0.00000  -0.00012   2.61928
   R87        2.06323  -0.00000   0.00001   0.00000   0.00001   2.06324
   R88        2.06118  -0.00000  -0.00002   0.00000  -0.00002   2.06116
   R89        2.63098   0.00000   0.00003   0.00000   0.00003   2.63101
   R90        2.06275  -0.00000   0.00005   0.00000   0.00005   2.06280
   R91        2.73338   0.00001  -0.00010   0.00000  -0.00010   2.73328
   R92        2.63097   0.00000  -0.00007   0.00000  -0.00007   2.63090
   R93        2.06274   0.00000   0.00001   0.00000   0.00001   2.06275
   R94        2.06074  -0.00000   0.00001   0.00000   0.00001   2.06075
   R95        2.58752   0.00000   0.00007   0.00000   0.00007   2.58760
   R96        2.67798   0.00000   0.00006   0.00000   0.00006   2.67804
   R97        2.06210  -0.00000   0.00000   0.00000   0.00000   2.06211
   R98        2.57374   0.00000  -0.00003   0.00000  -0.00003   2.57371
   R99        2.06162  -0.00000   0.00000   0.00000   0.00000   2.06162
   R100       2.49815  -0.00001  -0.00004   0.00000  -0.00004   2.49811
   R101       2.66901  -0.00001  -0.00011   0.00000  -0.00011   2.66891
   R102       2.06245  -0.00000   0.00001   0.00000   0.00001   2.06245
   R103       2.70881  -0.00001  -0.00003   0.00000  -0.00003   2.70877
   R104       2.70151  -0.00001  -0.00004   0.00000  -0.00004   2.70147
   R105       2.80075  -0.00000   0.00003   0.00000   0.00003   2.80078
   R106       2.61617  -0.00000  -0.00002   0.00000  -0.00002   2.61615
   R107       2.65360  -0.00000  -0.00002   0.00000  -0.00002   2.65358
   R108       2.65645   0.00000   0.00001   0.00000   0.00001   2.65646
   R109       2.62457   0.00000   0.00004   0.00000   0.00004   2.62461
   R110       2.06434  -0.00000   0.00000   0.00000   0.00000   2.06434
   R111       2.66136   0.00000  -0.00001   0.00000  -0.00001   2.66135
   R112       2.06282  -0.00000  -0.00000   0.00000  -0.00000   2.06281
   R113       2.69231  -0.00000  -0.00003   0.00000  -0.00003   2.69228
   R114       2.66003  -0.00000   0.00000   0.00000   0.00000   2.66003
   R115       2.30381  -0.00000  -0.00002   0.00000  -0.00002   2.30379
   R116       2.70764  -0.00000  -0.00003   0.00000  -0.00002   2.70761
   R117       2.53074   0.00000   0.00001   0.00000   0.00001   2.53075
   R118       2.66033  -0.00000  -0.00000   0.00000  -0.00000   2.66033
   R119       2.53074   0.00000   0.00000   0.00000   0.00000   2.53074
   R120       2.70764  -0.00000  -0.00001   0.00000  -0.00001   2.70762
   R121       2.66033  -0.00000   0.00001   0.00000   0.00001   2.66035
   R122       2.30382  -0.00000   0.00000   0.00000   0.00000   2.30382
   R123       2.69231  -0.00000  -0.00001   0.00000  -0.00001   2.69230
   R124       2.66136   0.00000  -0.00004   0.00000  -0.00004   2.66131
   R125       2.66003  -0.00000   0.00008   0.00000   0.00008   2.66011
   R126       2.62456   0.00000  -0.00004   0.00000  -0.00004   2.62453
   R127       2.06282  -0.00000  -0.00000   0.00000  -0.00000   2.06281
   R128       2.65360  -0.00000  -0.00003   0.00000  -0.00003   2.65358
   R129       2.06434  -0.00000   0.00001   0.00000   0.00001   2.06434
   R130       2.80075  -0.00000  -0.00002   0.00000  -0.00002   2.80073
   R131       2.65644   0.00000   0.00001   0.00000   0.00001   2.65645
   R132       2.61617  -0.00000  -0.00003   0.00000  -0.00003   2.61614
   R133       2.70880  -0.00001   0.00005   0.00000   0.00005   2.70886
   R134       2.66849   0.00000   0.00000   0.00000   0.00000   2.66849
   R135       2.06393  -0.00000   0.00003   0.00000   0.00003   2.06396
   R136       2.59984   0.00000   0.00001   0.00000   0.00001   2.59985
   R137       2.06386  -0.00000   0.00000   0.00000   0.00000   2.06387
   R138       2.67372  -0.00000  -0.00001   0.00000  -0.00001   2.67371
   R139       2.06326  -0.00000   0.00000   0.00000   0.00000   2.06326
   R140       2.67797   0.00000  -0.00002   0.00000  -0.00002   2.67795
   R141       2.70152  -0.00000  -0.00003   0.00000  -0.00003   2.70148
   R142       2.58751   0.00000  -0.00000   0.00000  -0.00000   2.58751
   R143       2.06210  -0.00000   0.00001   0.00000   0.00001   2.06211
   R144       2.57376  -0.00000   0.00009   0.00000   0.00009   2.57384
   R145       2.06162   0.00000  -0.00002   0.00000  -0.00002   2.06160
   R146       2.49816  -0.00001  -0.00003   0.00000  -0.00003   2.49812
   R147       2.66903  -0.00001   0.00007   0.00000   0.00007   2.66910
   R148       2.06244  -0.00000  -0.00002   0.00000  -0.00002   2.06242
   R149       2.62462  -0.00000   0.00008   0.00000   0.00008   2.62469
   R150       2.06470   0.00000   0.00000   0.00000   0.00000   2.06470
   R151       2.06281  -0.00000   0.00001   0.00000   0.00001   2.06282
   R152       2.62612  -0.00000   0.00002   0.00000   0.00002   2.62615
   R153       2.06126  -0.00000   0.00001   0.00000   0.00001   2.06127
   R154       2.62613  -0.00000   0.00002   0.00000   0.00002   2.62614
   R155       2.06371  -0.00000  -0.00000   0.00000  -0.00000   2.06370
   R156       2.06126  -0.00000   0.00000   0.00000   0.00000   2.06126
   R157       2.62461  -0.00000  -0.00005   0.00000  -0.00005   2.62455
   R158       2.06281   0.00000  -0.00000   0.00000  -0.00000   2.06281
   R159       2.06470   0.00000  -0.00003   0.00000  -0.00003   2.06467
   R160       2.66850   0.00000   0.00005   0.00000   0.00005   2.66855
   R161       2.06393  -0.00000  -0.00000   0.00000  -0.00000   2.06393
   R162       2.59985   0.00000   0.00005   0.00000   0.00005   2.59989
   R163       2.06386  -0.00000  -0.00000   0.00000  -0.00000   2.06386
   R164       2.67372  -0.00000  -0.00000   0.00000  -0.00000   2.67372
   R165       2.06326  -0.00000   0.00001   0.00000   0.00001   2.06327
   R166       2.58841   0.00000   0.00008   0.00000   0.00008   2.58850
   R167       2.67796   0.00000   0.00006   0.00000   0.00006   2.67801
   R168       2.06208  -0.00000   0.00003   0.00000   0.00003   2.06211
   R169       2.57366   0.00000   0.00004   0.00000   0.00004   2.57370
   R170       2.06094  -0.00000  -0.00001   0.00000  -0.00001   2.06093
   R171       2.49813  -0.00001   0.00001   0.00000   0.00001   2.49813
   R172       2.66848  -0.00001  -0.00018   0.00000  -0.00018   2.66830
   R173       2.06171   0.00000  -0.00015   0.00000  -0.00015   2.06156
   R174       2.70784  -0.00001  -0.00003   0.00000  -0.00003   2.70780
   R175       2.70054  -0.00000  -0.00006   0.00000  -0.00006   2.70048
   R176       2.80344  -0.00000   0.00004   0.00000   0.00004   2.80348
   R177       2.61347  -0.00000  -0.00002   0.00000  -0.00002   2.61345
   R178       2.65165  -0.00000   0.00006   0.00000   0.00006   2.65171
   R179       2.65385   0.00000   0.00004   0.00000   0.00004   2.65389
   R180       2.62540  -0.00000   0.00011   0.00000   0.00011   2.62551
   R181       2.06439  -0.00000  -0.00000   0.00000  -0.00000   2.06438
   R182       2.65868  -0.00000   0.00005   0.00000   0.00005   2.65873
   R183       2.06279  -0.00000  -0.00000   0.00000  -0.00000   2.06278
   R184       2.69531  -0.00000   0.00006   0.00000   0.00006   2.69538
   R185       2.65989   0.00000   0.00004   0.00000   0.00004   2.65993
   R186       2.30271  -0.00000   0.00007   0.00000   0.00007   2.30278
   R187       2.71047  -0.00000   0.00007   0.00000   0.00007   2.71054
   R188       2.52991   0.00000   0.00003   0.00000   0.00003   2.52993
   R189       2.65810  -0.00000   0.00009   0.00000   0.00009   2.65819
   R190       2.52991   0.00000   0.00006   0.00000   0.00006   2.52996
   R191       2.71048  -0.00000   0.00010   0.00000   0.00010   2.71058
   R192       2.65810  -0.00000   0.00000   0.00000   0.00000   2.65810
   R193       2.30271  -0.00000   0.00003   0.00000   0.00003   2.30274
   R194       2.69532  -0.00000   0.00007   0.00000   0.00007   2.69538
   R195       2.65868  -0.00000  -0.00000   0.00000  -0.00000   2.65867
   R196       2.65988   0.00000  -0.00002   0.00000  -0.00002   2.65986
   R197       2.62540  -0.00000   0.00002   0.00000   0.00002   2.62542
   R198       2.06278  -0.00000   0.00000   0.00000   0.00000   2.06279
   R199       2.65165  -0.00000   0.00001   0.00000   0.00001   2.65165
   R200       2.06439  -0.00000   0.00001   0.00000   0.00001   2.06439
   R201       2.80346  -0.00000   0.00006   0.00000   0.00006   2.80352
   R202       2.65384   0.00000   0.00005   0.00000   0.00005   2.65390
   R203       2.61346  -0.00000  -0.00001   0.00000  -0.00001   2.61346
   R204       2.70783  -0.00001   0.00014   0.00000   0.00014   2.70797
   R205       2.67017   0.00000   0.00003   0.00000   0.00003   2.67020
   R206       2.06404  -0.00000   0.00001   0.00000   0.00001   2.06406
   R207       2.59975   0.00000   0.00003   0.00000   0.00003   2.59978
   R208       2.06393  -0.00000  -0.00000   0.00000  -0.00000   2.06393
   R209       2.67425  -0.00000  -0.00001   0.00000  -0.00001   2.67425
   R210       2.06329  -0.00000   0.00002   0.00000   0.00002   2.06331
   R211       2.67796   0.00000   0.00013   0.00000   0.00013   2.67808
   R212       2.70055  -0.00000  -0.00002   0.00000  -0.00002   2.70053
   R213       2.58841   0.00000   0.00009   0.00000   0.00009   2.58850
   R214       2.06208  -0.00000  -0.00001   0.00000  -0.00001   2.06207
   R215       2.57366   0.00000   0.00007   0.00000   0.00007   2.57373
   R216       2.06094   0.00000  -0.00001   0.00000  -0.00001   2.06093
   R217       2.49812  -0.00001  -0.00022   0.00000  -0.00022   2.49791
   R218       2.66848  -0.00001  -0.00006   0.00000  -0.00006   2.66842
   R219       2.06171   0.00000  -0.00013   0.00000  -0.00013   2.06158
   R220       2.62569  -0.00000   0.00003   0.00000   0.00003   2.62572
   R221       2.06505   0.00000  -0.00002   0.00000  -0.00002   2.06503
   R222       2.06319   0.00000  -0.00004   0.00000  -0.00004   2.06315
   R223       2.62662  -0.00000   0.00003   0.00000   0.00003   2.62665
   R224       2.06130  -0.00000   0.00000   0.00000   0.00000   2.06131
   R225       2.62662  -0.00000  -0.00000   0.00000  -0.00000   2.62662
   R226       2.06295  -0.00000  -0.00000   0.00000  -0.00000   2.06294
   R227       2.06130  -0.00000   0.00000   0.00000   0.00000   2.06131
   R228       2.62568   0.00000  -0.00004   0.00000  -0.00004   2.62565
   R229       2.06319   0.00000   0.00002   0.00000   0.00002   2.06320
   R230       2.06505   0.00000   0.00001   0.00000   0.00001   2.06506
   R231       2.67016   0.00000   0.00004   0.00000   0.00004   2.67020
   R232       2.06404  -0.00000   0.00001   0.00000   0.00001   2.06406
   R233       2.59975   0.00000   0.00007   0.00000   0.00007   2.59981
   R234       2.06393  -0.00000  -0.00000   0.00000  -0.00000   2.06393
   R235       2.67425  -0.00000  -0.00000   0.00000  -0.00000   2.67425
   R236       2.06329  -0.00000  -0.00002   0.00000  -0.00002   2.06327
    A1        1.54100  -0.00001   0.00025   0.00000   0.00025   1.54125
    A2        1.57389   0.00001  -0.00102   0.00000  -0.00102   1.57286
    A3        1.57888   0.00001   0.00007   0.00000   0.00008   1.57896
    A4        1.58905  -0.00001   0.00069   0.00000   0.00069   1.58973
    A5        1.54100  -0.00001   0.00059   0.00000   0.00059   1.54159
    A6        1.57399   0.00001   0.00025   0.00000   0.00025   1.57424
    A7        1.57870   0.00001  -0.00141   0.00000  -0.00141   1.57730
    A8        1.58913  -0.00002   0.00061   0.00000   0.00062   1.58974
    A9        2.13155   0.00000  -0.00013   0.00000  -0.00012   2.13142
   A10        2.04460  -0.00000   0.00029   0.00000   0.00029   2.04489
   A11        2.10702   0.00000  -0.00016   0.00000  -0.00016   2.10686
   A12        2.09161  -0.00001   0.00063   0.00000   0.00062   2.09223
   A13        2.11242   0.00001  -0.00053   0.00000  -0.00053   2.11189
   A14        2.07649   0.00000   0.00008   0.00000   0.00008   2.07656
   A15        2.13093  -0.00000   0.00002   0.00000   0.00002   2.13095
   A16        2.03936   0.00000   0.00001   0.00000   0.00001   2.03937
   A17        2.11266   0.00000  -0.00003   0.00000  -0.00003   2.11263
   A18        2.09407   0.00000   0.00005   0.00000   0.00005   2.09413
   A19        2.07117  -0.00000  -0.00005   0.00000  -0.00005   2.07112
   A20        2.11699  -0.00000   0.00003   0.00000   0.00003   2.11701
   A21        2.13416  -0.00001  -0.00013   0.00000  -0.00012   2.13404
   A22        2.03651   0.00000  -0.00007   0.00000  -0.00007   2.03644
   A23        2.11193   0.00000   0.00022   0.00000   0.00022   2.11215
   A24        2.11736  -0.00001  -0.00035   0.00000  -0.00035   2.11701
   A25        2.07643   0.00001   0.00049   0.00000   0.00048   2.07692
   A26        2.08907   0.00000  -0.00012   0.00000  -0.00012   2.08895
   A27        2.12929   0.00000   0.00016   0.00000   0.00016   2.12944
   A28        2.08425  -0.00000  -0.00000   0.00000  -0.00000   2.08424
   A29        2.06942   0.00000  -0.00015   0.00000  -0.00015   2.06927
   A30        2.04052  -0.00000  -0.00004   0.00000  -0.00004   2.04048
   A31        2.12260  -0.00000  -0.00002   0.00000  -0.00002   2.12257
   A32        2.12006   0.00000   0.00007   0.00000   0.00006   2.12013
   A33        2.19884  -0.00000   0.00006   0.00000   0.00006   2.19891
   A34        2.13963   0.00000  -0.00010   0.00000  -0.00010   2.13954
   A35        1.94461   0.00000   0.00003   0.00000   0.00003   1.94464
   A36        1.86299   0.00000  -0.00001   0.00000  -0.00001   1.86298
   A37        2.19884  -0.00000   0.00011   0.00000   0.00011   2.19895
   A38        1.94460   0.00000  -0.00006   0.00000  -0.00006   1.94454
   A39        2.13964   0.00000  -0.00005   0.00000  -0.00005   2.13959
   A40        2.04053  -0.00000   0.00000   0.00000   0.00001   2.04053
   A41        2.12006   0.00000   0.00002   0.00000   0.00002   2.12008
   A42        2.12260  -0.00000  -0.00003   0.00000  -0.00003   2.12257
   A43        2.12927   0.00000  -0.00007   0.00000  -0.00007   2.12920
   A44        2.06944   0.00000   0.00014   0.00000   0.00014   2.06958
   A45        2.08424  -0.00000  -0.00007   0.00000  -0.00007   2.08416
   A46        2.11742  -0.00001   0.00037   0.00000   0.00037   2.11779
   A47        2.08909   0.00000   0.00009   0.00000   0.00009   2.08919
   A48        2.07634   0.00001  -0.00048   0.00000  -0.00048   2.07586
   A49        2.11192   0.00000  -0.00022   0.00000  -0.00023   2.11170
   A50        2.13413  -0.00001   0.00001   0.00000   0.00001   2.13414
   A51        2.03654   0.00000   0.00019   0.00000   0.00019   2.03673
   A52        2.09565  -0.00000  -0.00016   0.00000  -0.00016   2.09549
   A53        2.11649   0.00000  -0.00007   0.00000  -0.00007   2.11642
   A54        2.07103   0.00000   0.00023   0.00000   0.00023   2.07126
   A55        2.13156   0.00000   0.00006   0.00000   0.00006   2.13162
   A56        2.10708  -0.00000   0.00047   0.00000   0.00047   2.10755
   A57        2.04453  -0.00000  -0.00053   0.00000  -0.00053   2.04400
   A58        2.09155  -0.00001  -0.00028   0.00000  -0.00028   2.09127
   A59        2.11243   0.00000   0.00013   0.00000   0.00013   2.11256
   A60        2.07649   0.00000   0.00003   0.00000   0.00003   2.07652
   A61        2.13091  -0.00000  -0.00009   0.00000  -0.00009   2.13082
   A62        2.03936   0.00000   0.00005   0.00000   0.00005   2.03940
   A63        2.11267   0.00000   0.00004   0.00000   0.00004   2.11272
   A64        2.09406   0.00000  -0.00010   0.00000  -0.00010   2.09396
   A65        2.11697  -0.00000  -0.00008   0.00000  -0.00008   2.11689
   A66        2.07119  -0.00000   0.00016   0.00000   0.00016   2.07135
   A67        2.07818  -0.00000  -0.00009   0.00000  -0.00008   2.07809
   A68        2.10621   0.00000   0.00021   0.00000   0.00021   2.10642
   A69        2.09804   0.00000  -0.00010   0.00000  -0.00010   2.09794
   A70        2.08953  -0.00000   0.00008   0.00000   0.00008   2.08961
   A71        1.83626  -0.00000   0.00009   0.00000   0.00009   1.83635
   A72        2.35722   0.00000  -0.00016   0.00000  -0.00016   2.35706
   A73        1.83625  -0.00000  -0.00005   0.00000  -0.00005   1.83620
   A74        2.08954  -0.00000   0.00016   0.00000   0.00016   2.08970
   A75        2.35722   0.00001  -0.00013   0.00000  -0.00013   2.35709
   A76        2.07818  -0.00000  -0.00005   0.00000  -0.00005   2.07813
   A77        2.10621   0.00000   0.00020   0.00000   0.00020   2.10641
   A78        2.09803   0.00000  -0.00017   0.00000  -0.00017   2.09786
   A79        2.09568  -0.00000   0.00012   0.00000   0.00012   2.09580
   A80        2.07099   0.00000  -0.00013   0.00000  -0.00013   2.07085
   A81        2.11650   0.00000   0.00001   0.00000   0.00001   2.11651
   A82        2.13037   0.00000  -0.00014   0.00000  -0.00014   2.13023
   A83        2.04517  -0.00000   0.00034   0.00000   0.00034   2.04551
   A84        2.10763  -0.00000  -0.00020   0.00000  -0.00020   2.10743
   A85        2.09276  -0.00001   0.00079   0.00000   0.00079   2.09355
   A86        2.10917   0.00001  -0.00110   0.00000  -0.00110   2.10807
   A87        2.07757   0.00000   0.00017   0.00000   0.00017   2.07773
   A88        2.13087  -0.00000  -0.00005   0.00000  -0.00005   2.13082
   A89        2.03875   0.00000  -0.00012   0.00000  -0.00012   2.03864
   A90        2.11327   0.00000   0.00015   0.00000   0.00015   2.11343
   A91        2.09357   0.00000  -0.00019   0.00000  -0.00019   2.09338
   A92        2.07138  -0.00000   0.00022   0.00000   0.00022   2.07160
   A93        2.11717  -0.00000  -0.00005   0.00000  -0.00005   2.11712
   A94        2.13184  -0.00000  -0.00006   0.00000  -0.00006   2.13178
   A95        2.03710   0.00000   0.00019   0.00000   0.00019   2.03729
   A96        2.11361   0.00000  -0.00017   0.00000  -0.00018   2.11344
   A97        2.11504  -0.00001   0.00040   0.00000   0.00041   2.11545
   A98        2.07798   0.00001  -0.00054   0.00000  -0.00054   2.07744
   A99        2.08979   0.00000   0.00011   0.00000   0.00011   2.08990
   A100       2.12905   0.00000  -0.00008   0.00000  -0.00008   2.12898
   A101       2.08380  -0.00000  -0.00007   0.00000  -0.00007   2.08372
   A102       2.07011   0.00000   0.00015   0.00000   0.00015   2.07026
   A103       2.04024  -0.00000   0.00001   0.00000   0.00001   2.04025
   A104       2.12297  -0.00000  -0.00004   0.00000  -0.00004   2.12294
   A105       2.11997   0.00000   0.00003   0.00000   0.00003   2.12000
   A106       2.19752  -0.00000   0.00012   0.00000   0.00012   2.19764
   A107       2.14061   0.00000  -0.00005   0.00000  -0.00005   2.14055
   A108       1.94494   0.00000  -0.00007   0.00000  -0.00007   1.94487
   A109       1.86294   0.00000  -0.00002   0.00000  -0.00002   1.86292
   A110       2.19752  -0.00001   0.00006   0.00000   0.00007   2.19758
   A111       1.94496   0.00000   0.00003   0.00000   0.00003   1.94499
   A112       2.14060   0.00000  -0.00010   0.00000  -0.00010   2.14050
   A113       2.04023   0.00000  -0.00006   0.00000  -0.00006   2.04018
   A114       2.11997   0.00000   0.00008   0.00000   0.00008   2.12006
   A115       2.12297  -0.00000  -0.00003   0.00000  -0.00003   2.12295
   A116       2.12907   0.00000   0.00015   0.00000   0.00015   2.12923
   A117       2.07009   0.00000  -0.00011   0.00000  -0.00011   2.06997
   A118       2.08380  -0.00000  -0.00003   0.00000  -0.00003   2.08377
   A119       2.11497  -0.00001  -0.00036   0.00000  -0.00036   2.11461
   A120       2.08977   0.00000  -0.00007   0.00000  -0.00007   2.08971
   A121       2.07807   0.00001   0.00043   0.00000   0.00043   2.07850
   A122       2.11363   0.00001   0.00036   0.00000   0.00035   2.11399
   A123       2.13185  -0.00001  -0.00033   0.00000  -0.00033   2.13152
   A124       2.03707   0.00000  -0.00001   0.00000  -0.00001   2.03707
   A125       2.09567  -0.00000   0.00006   0.00000   0.00006   2.09573
   A126       2.11582   0.00000  -0.00008   0.00000  -0.00008   2.11573
   A127       2.07169   0.00000   0.00002   0.00000   0.00002   2.07171
   A128       2.13038   0.00000  -0.00017   0.00000  -0.00017   2.13021
   A129       2.10761  -0.00000  -0.00005   0.00000  -0.00005   2.10756
   A130       2.04518  -0.00000   0.00022   0.00000   0.00022   2.04540
   A131       2.09283  -0.00001   0.00101   0.00000   0.00101   2.09384
   A132       2.10916   0.00001  -0.00078   0.00000  -0.00078   2.10838
   A133       2.07755   0.00000   0.00001   0.00000   0.00001   2.07756
   A134       2.13088  -0.00000   0.00015   0.00000   0.00015   2.13103
   A135       2.03877   0.00000  -0.00003   0.00000  -0.00003   2.03874
   A136       2.11324   0.00000  -0.00011   0.00000  -0.00011   2.11313
   A137       2.09359   0.00000   0.00000   0.00000   0.00000   2.09359
   A138       2.11718  -0.00000   0.00005   0.00000   0.00005   2.11723
   A139       2.07136  -0.00000  -0.00004   0.00000  -0.00004   2.07132
   A140       2.07780  -0.00000  -0.00012   0.00000  -0.00012   2.07769
   A141       2.10575   0.00000   0.00022   0.00000   0.00022   2.10597
   A142       2.09883   0.00000  -0.00013   0.00000  -0.00013   2.09870
   A143       2.08873  -0.00000   0.00020   0.00000   0.00020   2.08893
   A144       1.83593  -0.00000  -0.00006   0.00000  -0.00006   1.83587
   A145       2.35833   0.00001  -0.00016   0.00000  -0.00016   2.35817
   A146       1.83595  -0.00000   0.00011   0.00000   0.00011   1.83606
   A147       2.08872  -0.00000   0.00009   0.00000   0.00009   2.08881
   A148       2.35832   0.00001  -0.00021   0.00000  -0.00021   2.35811
   A149       2.07781  -0.00000  -0.00010   0.00000  -0.00010   2.07771
   A150       2.10575   0.00000   0.00026   0.00000   0.00026   2.10601
   A151       2.09883   0.00000  -0.00013   0.00000  -0.00013   2.09870
   A152       2.09565  -0.00000  -0.00003   0.00000  -0.00003   2.09562
   A153       2.07172   0.00000   0.00019   0.00000   0.00019   2.07191
   A154       2.11580   0.00000  -0.00016   0.00000  -0.00016   2.11565
   A155       2.09727  -0.00000   0.00001   0.00000   0.00001   2.09729
   A156       2.08859   0.00000   0.00000   0.00000   0.00000   2.08859
   A157       2.09732   0.00000  -0.00001   0.00000  -0.00001   2.09731
   A158       2.12114  -0.00000  -0.00004   0.00000  -0.00004   2.12110
   A159       2.12650   0.00000  -0.00007   0.00000  -0.00007   2.12643
   A160       2.03551   0.00000   0.00011   0.00000   0.00011   2.03562
   A161       2.10125   0.00001   0.00071   0.00000   0.00071   2.10196
   A162       2.08712  -0.00002  -0.00067   0.00000  -0.00067   2.08645
   A163       2.09474   0.00000  -0.00005   0.00000  -0.00005   2.09470
   A164       2.14683   0.00000   0.00012   0.00000   0.00012   2.14695
   A165       2.04153  -0.00000  -0.00024   0.00000  -0.00024   2.04128
   A166       2.09456  -0.00000   0.00013   0.00000   0.00013   2.09470
   A167       2.13767  -0.00001  -0.00007   0.00000  -0.00007   2.13760
   A168       2.04791   0.00000  -0.00004   0.00000  -0.00004   2.04787
   A169       2.09692   0.00001   0.00011   0.00000   0.00011   2.09703
   A170       2.13773  -0.00002  -0.00026   0.00000  -0.00026   2.13747
   A171       2.05749   0.00000  -0.00002   0.00000  -0.00002   2.05747
   A172       2.08749   0.00002   0.00028   0.00000   0.00028   2.08777
   A173       2.10222   0.00001   0.00018   0.00000   0.00018   2.10240
   A174       2.11375  -0.00001  -0.00015   0.00000  -0.00015   2.11359
   A175       2.06526   0.00000  -0.00001   0.00000  -0.00001   2.06525
   A176       2.11198  -0.00000  -0.00001   0.00000  -0.00001   2.11196
   A177       2.08655   0.00000   0.00000   0.00000   0.00000   2.08655
   A178       2.08465   0.00000   0.00001   0.00000   0.00001   2.08466
   A179       2.10357   0.00000  -0.00001   0.00000  -0.00001   2.10357
   A180       2.09396  -0.00000   0.00001   0.00000   0.00001   2.09397
   A181       2.08563  -0.00000  -0.00000   0.00000  -0.00000   2.08563
   A182       2.10357  -0.00000   0.00015   0.00000   0.00015   2.10372
   A183       2.07029   0.00000   0.00002   0.00000   0.00002   2.07031
   A184       2.10896   0.00000  -0.00016   0.00000  -0.00016   2.10880
   A185       2.05693   0.00001  -0.00017   0.00000  -0.00016   2.05677
   A186       2.08233  -0.00001   0.00015   0.00000   0.00015   2.08248
   A187       2.14381   0.00000   0.00001   0.00000   0.00001   2.14382
   A188       2.06419  -0.00000   0.00002   0.00000   0.00002   2.06422
   A189       2.05695   0.00001   0.00001   0.00000   0.00002   2.05696
   A190       2.14381   0.00000  -0.00004   0.00000  -0.00004   2.14377
   A191       2.08232  -0.00001   0.00002   0.00000   0.00002   2.08234
   A192       2.10351  -0.00000  -0.00028   0.00000  -0.00028   2.10323
   A193       2.10902  -0.00000   0.00030   0.00000   0.00030   2.10932
   A194       2.07029   0.00000  -0.00001   0.00000  -0.00001   2.07028
   A195       2.10357   0.00000  -0.00002   0.00000  -0.00002   2.10355
   A196       2.08563  -0.00000  -0.00000   0.00000  -0.00000   2.08563
   A197       2.09396  -0.00000   0.00002   0.00000   0.00002   2.09398
   A198       2.11198  -0.00000   0.00006   0.00000   0.00006   2.11204
   A199       2.08466   0.00000   0.00001   0.00000   0.00001   2.08467
   A200       2.08654   0.00000  -0.00007   0.00000  -0.00007   2.08647
   A201       2.10215   0.00001  -0.00024   0.00000  -0.00024   2.10191
   A202       2.06526   0.00000   0.00001   0.00000   0.00001   2.06528
   A203       2.11382  -0.00001   0.00023   0.00000   0.00023   2.11405
   A204       2.08745   0.00002   0.00001   0.00000   0.00001   2.08745
   A205       2.13776  -0.00002  -0.00004   0.00000  -0.00004   2.13772
   A206       2.05751   0.00000   0.00005   0.00000   0.00005   2.05756
   A207       2.12535  -0.00000  -0.00004   0.00000  -0.00004   2.12531
   A208       2.07948   0.00000  -0.00000   0.00000  -0.00000   2.07948
   A209       2.07759   0.00000   0.00005   0.00000   0.00005   2.07764
   A210       2.11095   0.00000   0.00002   0.00000   0.00002   2.11096
   A211       2.07742  -0.00000   0.00000   0.00000   0.00000   2.07743
   A212       2.09453  -0.00000  -0.00002   0.00000  -0.00002   2.09452
   A213       2.08646  -0.00000   0.00001   0.00000   0.00001   2.08647
   A214       2.11318   0.00000  -0.00002   0.00000  -0.00002   2.11316
   A215       2.08354   0.00000   0.00001   0.00000   0.00001   2.08355
   A216       2.14043   0.00001   0.00008   0.00000   0.00008   2.14051
   A217       2.08728  -0.00000   0.00001   0.00000   0.00001   2.08730
   A218       2.05545  -0.00000  -0.00009   0.00000  -0.00009   2.05536
   A219       2.09726  -0.00000  -0.00005   0.00000  -0.00005   2.09721
   A220       2.09733   0.00000   0.00005   0.00000   0.00005   2.09738
   A221       2.08859   0.00000  -0.00000   0.00000  -0.00000   2.08859
   A222       2.12117  -0.00000   0.00019   0.00000   0.00019   2.12136
   A223       2.12649   0.00000  -0.00011   0.00000  -0.00011   2.12638
   A224       2.03549   0.00000  -0.00007   0.00000  -0.00007   2.03541
   A225       2.10103   0.00001  -0.00085   0.00000  -0.00085   2.10019
   A226       2.08734  -0.00001   0.00100   0.00000   0.00100   2.08834
   A227       2.09473   0.00000  -0.00018   0.00000  -0.00018   2.09455
   A228       2.14682   0.00000  -0.00000   0.00000  -0.00000   2.14681
   A229       2.04160  -0.00000   0.00058   0.00000   0.00058   2.04219
   A230       2.09450  -0.00000  -0.00058   0.00000  -0.00058   2.09392
   A231       2.09689   0.00001  -0.00003   0.00000  -0.00003   2.09686
   A232       2.13767  -0.00001  -0.00011   0.00000  -0.00011   2.13757
   A233       2.04793   0.00000   0.00014   0.00000   0.00014   2.04807
   A234       2.11225   0.00000  -0.00007   0.00000  -0.00006   2.11218
   A235       2.09250  -0.00000   0.00001   0.00000   0.00001   2.09251
   A236       2.07764  -0.00000   0.00007   0.00000   0.00007   2.07771
   A237       2.10294  -0.00000   0.00002   0.00000   0.00002   2.10296
   A238       2.08654   0.00000  -0.00000   0.00000  -0.00000   2.08653
   A239       2.09345   0.00000  -0.00001   0.00000  -0.00001   2.09344
   A240       2.06816   0.00000   0.00002   0.00000   0.00002   2.06818
   A241       2.09490  -0.00000  -0.00002   0.00000  -0.00002   2.09488
   A242       2.12011   0.00000   0.00000   0.00000   0.00000   2.12011
   A243       2.07822  -0.00000  -0.00000   0.00000  -0.00000   2.07822
   A244       2.10248   0.00000   0.00000   0.00000   0.00000   2.10249
   A245       2.10248   0.00000  -0.00000   0.00000  -0.00000   2.10248
   A246       2.06816   0.00000  -0.00002   0.00000  -0.00002   2.06814
   A247       2.09490  -0.00000   0.00001   0.00000   0.00001   2.09491
   A248       2.12011  -0.00000   0.00001   0.00000   0.00001   2.12011
   A249       2.10294  -0.00000  -0.00002   0.00000  -0.00002   2.10292
   A250       2.08653   0.00000  -0.00001   0.00000  -0.00001   2.08653
   A251       2.09346   0.00000   0.00003   0.00000   0.00003   2.09349
   A252       2.11225   0.00000   0.00004   0.00000   0.00004   2.11229
   A253       2.09250  -0.00000  -0.00005   0.00000  -0.00005   2.09245
   A254       2.07763  -0.00000   0.00002   0.00000   0.00002   2.07765
   A255       2.12534  -0.00000  -0.00006   0.00000  -0.00006   2.12528
   A256       2.07949   0.00000   0.00003   0.00000   0.00003   2.07952
   A257       2.07758   0.00000   0.00003   0.00000   0.00003   2.07761
   A258       2.11096   0.00000   0.00004   0.00000   0.00004   2.11100
   A259       2.07742  -0.00000  -0.00002   0.00000  -0.00002   2.07740
   A260       2.09453  -0.00000  -0.00003   0.00000  -0.00003   2.09450
   A261       2.08646  -0.00000  -0.00000   0.00000  -0.00000   2.08646
   A262       2.11318   0.00000   0.00001   0.00000   0.00001   2.11319
   A263       2.08354   0.00000  -0.00001   0.00000  -0.00001   2.08353
   A264       2.05545  -0.00000  -0.00002   0.00000  -0.00002   2.05543
   A265       2.14045   0.00001   0.00010   0.00000   0.00010   2.14056
   A266       2.08726  -0.00000  -0.00008   0.00000  -0.00008   2.08718
   A267       2.09827  -0.00000  -0.00001   0.00000  -0.00001   2.09827
   A268       2.08791   0.00000   0.00005   0.00000   0.00005   2.08795
   A269       2.09691   0.00000  -0.00004   0.00000  -0.00004   2.09687
   A270       2.12107  -0.00000  -0.00007   0.00000  -0.00007   2.12100
   A271       2.12409   0.00000  -0.00007   0.00000  -0.00007   2.12401
   A272       2.03789   0.00000   0.00013   0.00000   0.00013   2.03802
   A273       2.11080   0.00002   0.00041   0.00000   0.00041   2.11121
   A274       2.07749  -0.00002  -0.00040   0.00000  -0.00041   2.07709
   A275       2.09462   0.00000  -0.00001   0.00000  -0.00001   2.09462
   A276       2.14747   0.00000   0.00005   0.00000   0.00005   2.14751
   A277       2.04298  -0.00000   0.00031   0.00000   0.00031   2.04330
   A278       2.09261   0.00000  -0.00038   0.00000  -0.00038   2.09222
   A279       2.13479  -0.00001  -0.00017   0.00000  -0.00017   2.13462
   A280       2.04960   0.00000   0.00002   0.00000   0.00002   2.04962
   A281       2.09782   0.00001   0.00017   0.00000   0.00017   2.09799
   A282       2.12478  -0.00001  -0.00008   0.00000  -0.00008   2.12470
   A283       2.06027  -0.00000  -0.00006   0.00000  -0.00006   2.06021
   A284       2.09792   0.00001   0.00019   0.00000   0.00019   2.09811
   A285       2.09404  -0.00000   0.00055   0.00000   0.00055   2.09459
   A286       2.12039   0.00000  -0.00044   0.00000  -0.00044   2.11995
   A287       2.06864   0.00000  -0.00012   0.00000  -0.00012   2.06852
   A288       2.11085   0.00000   0.00005   0.00000   0.00005   2.11090
   A289       2.08569  -0.00000   0.00001   0.00000   0.00001   2.08570
   A290       2.08641  -0.00000  -0.00005   0.00000  -0.00005   2.08636
   A291       2.10218   0.00000   0.00003   0.00000   0.00003   2.10221
   A292       2.09461  -0.00000  -0.00006   0.00000  -0.00006   2.09455
   A293       2.08639  -0.00000   0.00003   0.00000   0.00003   2.08642
   A294       2.10651  -0.00000   0.00067   0.00000   0.00067   2.10718
   A295       2.07223   0.00000  -0.00009   0.00000  -0.00009   2.07213
   A296       2.10443   0.00000  -0.00057   0.00000  -0.00057   2.10386
   A297       2.04947   0.00001   0.00048   0.00000   0.00048   2.04994
   A298       2.09018  -0.00001  -0.00043   0.00000  -0.00043   2.08975
   A299       2.14351   0.00000  -0.00005   0.00000  -0.00005   2.14347
   A300       2.06556  -0.00000  -0.00002   0.00000  -0.00003   2.06554
   A301       2.04944   0.00001   0.00003   0.00000   0.00003   2.04948
   A302       2.14352   0.00000   0.00004   0.00000   0.00004   2.14356
   A303       2.09020  -0.00001  -0.00008   0.00000  -0.00008   2.09012
   A304       2.10646  -0.00000  -0.00009   0.00000  -0.00009   2.10637
   A305       2.10447   0.00000   0.00012   0.00000   0.00012   2.10459
   A306       2.07223   0.00000  -0.00003   0.00000  -0.00003   2.07220
   A307       2.10217   0.00000   0.00003   0.00000   0.00003   2.10221
   A308       2.08639  -0.00000  -0.00002   0.00000  -0.00002   2.08636
   A309       2.09461  -0.00000  -0.00001   0.00000  -0.00001   2.09460
   A310       2.11085  -0.00000   0.00001   0.00000   0.00001   2.11086
   A311       2.08642   0.00000  -0.00002   0.00000  -0.00002   2.08639
   A312       2.08569   0.00000  -0.00000   0.00000  -0.00000   2.08569
   A313       2.09397  -0.00000  -0.00037   0.00000  -0.00037   2.09361
   A314       2.06865   0.00000  -0.00008   0.00000  -0.00008   2.06857
   A315       2.12045   0.00000   0.00047   0.00000   0.00047   2.12092
   A316       2.09794   0.00002   0.00024   0.00000   0.00023   2.09817
   A317       2.12475  -0.00002  -0.00016   0.00000  -0.00016   2.12459
   A318       2.06028  -0.00000  -0.00011   0.00000  -0.00011   2.06016
   A319       2.12299  -0.00000   0.00003   0.00000   0.00003   2.12302
   A320       2.07965   0.00000   0.00002   0.00000   0.00002   2.07967
   A321       2.08030   0.00000  -0.00005   0.00000  -0.00005   2.08025
   A322       2.11179   0.00000   0.00005   0.00000   0.00005   2.11184
   A323       2.07733  -0.00000  -0.00009   0.00000  -0.00009   2.07724
   A324       2.09405  -0.00000   0.00004   0.00000   0.00004   2.09409
   A325       2.08709  -0.00000  -0.00004   0.00000  -0.00004   2.08706
   A326       2.11280   0.00000   0.00005   0.00000   0.00005   2.11285
   A327       2.08323   0.00000  -0.00002   0.00000  -0.00002   2.08322
   A328       2.14205   0.00001   0.00005   0.00000   0.00005   2.14210
   A329       2.08592  -0.00000  -0.00002   0.00000  -0.00002   2.08591
   A330       2.05502  -0.00000  -0.00003   0.00000  -0.00003   2.05498
   A331       2.09827  -0.00000   0.00014   0.00000   0.00014   2.09841
   A332       2.09691   0.00000  -0.00011   0.00000  -0.00011   2.09680
   A333       2.08791   0.00000  -0.00003   0.00000  -0.00003   2.08787
   A334       2.12105  -0.00000  -0.00024   0.00000  -0.00024   2.12082
   A335       2.12409   0.00000  -0.00004   0.00000  -0.00004   2.12405
   A336       2.03790   0.00000   0.00028   0.00000   0.00028   2.03818
   A337       2.11081   0.00001  -0.00013   0.00000  -0.00014   2.11068
   A338       2.07745  -0.00001   0.00006   0.00000   0.00006   2.07751
   A339       2.09465   0.00000   0.00006   0.00000   0.00006   2.09470
   A340       2.14746   0.00000   0.00022   0.00000   0.00022   2.14768
   A341       2.04292   0.00000  -0.00014   0.00000  -0.00014   2.04278
   A342       2.09268  -0.00000  -0.00008   0.00000  -0.00008   2.09259
   A343       2.09781   0.00001   0.00010   0.00000   0.00010   2.09791
   A344       2.13480  -0.00001   0.00000   0.00000   0.00001   2.13480
   A345       2.04959   0.00000  -0.00012   0.00000  -0.00012   2.04947
   A346       2.10963  -0.00000   0.00005   0.00000   0.00005   2.10968
   A347       2.09198   0.00000  -0.00006   0.00000  -0.00006   2.09192
   A348       2.08139   0.00000   0.00002   0.00000   0.00002   2.08141
   A349       2.10252  -0.00000  -0.00001   0.00000  -0.00001   2.10250
   A350       2.08685   0.00000   0.00004   0.00000   0.00004   2.08689
   A351       2.09381   0.00000  -0.00003   0.00000  -0.00003   2.09379
   A352       2.06715   0.00000   0.00000   0.00000   0.00001   2.06715
   A353       2.09617  -0.00000   0.00001   0.00000   0.00001   2.09618
   A354       2.11987  -0.00000  -0.00002   0.00000  -0.00002   2.11986
   A355       2.07939  -0.00000  -0.00004   0.00000  -0.00004   2.07935
   A356       2.10189   0.00000   0.00003   0.00000   0.00003   2.10193
   A357       2.10190   0.00000   0.00001   0.00000   0.00001   2.10191
   A358       2.06715   0.00000   0.00007   0.00000   0.00007   2.06721
   A359       2.09616  -0.00000  -0.00004   0.00000  -0.00004   2.09612
   A360       2.11987  -0.00000  -0.00003   0.00000  -0.00003   2.11985
   A361       2.10252  -0.00000   0.00006   0.00000   0.00006   2.10258
   A362       2.08685   0.00000   0.00002   0.00000   0.00002   2.08687
   A363       2.09381   0.00000  -0.00008   0.00000  -0.00008   2.09373
   A364       2.10964  -0.00000   0.00009   0.00000   0.00009   2.10973
   A365       2.09199   0.00000   0.00001   0.00000   0.00001   2.09200
   A366       2.08138   0.00000  -0.00012   0.00000  -0.00012   2.08126
   A367       2.12299  -0.00000  -0.00006   0.00000  -0.00006   2.12293
   A368       2.07965   0.00000   0.00005   0.00000   0.00005   2.07970
   A369       2.08030   0.00000   0.00000   0.00000   0.00000   2.08030
   A370       2.11179   0.00000   0.00006   0.00000   0.00006   2.11185
   A371       2.07733  -0.00000  -0.00005   0.00000  -0.00005   2.07728
   A372       2.09405  -0.00000  -0.00002   0.00000  -0.00002   2.09403
   A373       2.08709  -0.00000  -0.00000   0.00000  -0.00000   2.08709
   A374       2.11280   0.00000  -0.00001   0.00000  -0.00001   2.11279
   A375       2.08324   0.00000   0.00001   0.00000   0.00001   2.08325
   A376       2.05501  -0.00000  -0.00002   0.00000  -0.00002   2.05499
   A377       2.14207   0.00001   0.00014   0.00000   0.00014   2.14221
   A378       2.08592  -0.00000  -0.00012   0.00000  -0.00012   2.08580
   A379       3.16293  -0.00000  -0.00033   0.00000  -0.00033   3.16260
   A380       3.16793  -0.00000   0.00076   0.00000   0.00076   3.16869
   A381       3.16312  -0.00000   0.00086   0.00000   0.00086   3.16398
   A382       3.16783  -0.00001  -0.00079   0.00000  -0.00079   3.16704
   A383       3.16826   0.00001  -0.00098   0.00000  -0.00098   3.16728
   A384       3.19508   0.00001  -0.00002   0.00000  -0.00002   3.19507
   A385       3.19646   0.00001   0.00005   0.00000   0.00005   3.19651
   A386       3.16363   0.00001   0.00020   0.00000   0.00020   3.16383
   A387       3.13144   0.00000   0.00158   0.00000   0.00157   3.13301
   A388       3.16392   0.00001   0.00095   0.00000   0.00095   3.16487
   A389       3.15946   0.00001  -0.00057   0.00000  -0.00057   3.15889
   A390       3.13011   0.00000  -0.00227   0.00000  -0.00227   3.12784
   A391       3.12482  -0.00001  -0.00023   0.00000  -0.00023   3.12459
   A392       3.16408   0.00001   0.00026   0.00000   0.00026   3.16433
   A393       3.15821   0.00001  -0.00068   0.00000  -0.00067   3.15754
   A394       3.11919  -0.00001   0.00169   0.00000   0.00169   3.12089
   A395       3.12980   0.00000  -0.00032   0.00000  -0.00032   3.12948
   A396       3.15416   0.00000  -0.00071   0.00000  -0.00071   3.15345
   A397       3.14023  -0.00000   0.00094   0.00000   0.00094   3.14116
   A398       3.12117  -0.00000   0.00129   0.00000   0.00129   3.12246
   A399       3.13321   0.00001  -0.00124   0.00000  -0.00124   3.13197
   A400       3.12322   0.00001  -0.00188   0.00000  -0.00188   3.12134
   A401       3.11849   0.00001  -0.00071   0.00000  -0.00071   3.11778
   A402       3.13505   0.00000  -0.00010   0.00000  -0.00010   3.13494
    D1        1.42858  -0.00001  -0.00313   0.00000  -0.00312   1.42546
    D2       -1.63377  -0.00001  -0.00569   0.00000  -0.00569  -1.63946
    D3       -1.69096   0.00000  -0.00289   0.00000  -0.00289  -1.69385
    D4        1.52987   0.00000  -0.00546   0.00000  -0.00545   1.52442
    D5       -1.44239   0.00001  -0.00124   0.00000  -0.00124  -1.44363
    D6        1.60614   0.00001  -0.00298   0.00000  -0.00298   1.60316
    D7        1.68291  -0.00000  -0.00148   0.00000  -0.00148   1.68143
    D8       -1.55175  -0.00000  -0.00322   0.00000  -0.00322  -1.55496
    D9        1.71925   0.00001   0.00008   0.00000   0.00008   1.71933
   D10       -1.40952   0.00000   0.00045   0.00000   0.00045  -1.40907
   D11       -1.44483  -0.00000  -0.00018   0.00000  -0.00018  -1.44501
   D12        1.70959  -0.00001   0.00019   0.00000   0.00019   1.70978
   D13       -1.78968  -0.00001  -0.01013   0.00000  -0.01013  -1.79981
   D14        1.32699  -0.00000  -0.01015   0.00000  -0.01015   1.31683
   D15        1.36868  -0.00000  -0.00989   0.00000  -0.00989   1.35879
   D16       -1.79784   0.00000  -0.00992   0.00000  -0.00992  -1.80775
   D17       -1.42882   0.00001  -0.00203   0.00000  -0.00203  -1.43085
   D18        1.63301   0.00001  -0.00379   0.00000  -0.00379   1.62921
   D19        1.69081   0.00000  -0.00037   0.00000  -0.00037   1.69043
   D20       -1.53055  -0.00000  -0.00213   0.00000  -0.00213  -1.53269
   D21        1.44234  -0.00001   0.00077   0.00000   0.00077   1.44311
   D22       -1.60674  -0.00001  -0.00236   0.00000  -0.00236  -1.60910
   D23       -1.68311  -0.00000   0.00012   0.00000   0.00012  -1.68299
   D24        1.55099   0.00000  -0.00301   0.00000  -0.00301   1.54798
   D25       -1.71945  -0.00001  -0.00219   0.00000  -0.00219  -1.72165
   D26        1.40881  -0.00000  -0.00464   0.00000  -0.00464   1.40417
   D27        1.44454   0.00000  -0.00388   0.00000  -0.00389   1.44065
   D28       -1.71039   0.00001  -0.00633   0.00000  -0.00633  -1.71672
   D29        1.78875   0.00001  -0.00483   0.00000  -0.00483   1.78393
   D30       -1.32781   0.00000  -0.00392   0.00000  -0.00392  -1.33173
   D31       -1.36946   0.00000  -0.00415   0.00000  -0.00415  -1.37361
   D32        1.79716  -0.00000  -0.00324   0.00000  -0.00324   1.79392
   D33       -3.03379   0.00000  -0.00369   0.00000  -0.00369  -3.03747
   D34        0.03019   0.00000  -0.00120   0.00000  -0.00120   0.02900
   D35        0.10237   0.00000  -0.00373   0.00000  -0.00372   0.09864
   D36       -3.11683  -0.00000  -0.00124   0.00000  -0.00124  -3.11807
   D37        0.00521  -0.00000   0.00019   0.00000   0.00019   0.00539
   D38       -3.12974  -0.00000   0.00041   0.00000   0.00041  -3.12933
   D39       -3.13076  -0.00000   0.00023   0.00000   0.00023  -3.13054
   D40        0.01748   0.00000   0.00045   0.00000   0.00045   0.01793
   D41        3.03433  -0.00000   0.00348   0.00000   0.00348   3.03781
   D42       -0.08391  -0.00000   0.00317   0.00000   0.00317  -0.08074
   D43       -0.02869   0.00000   0.00091   0.00000   0.00091  -0.02779
   D44        3.13625   0.00000   0.00060   0.00000   0.00060   3.13685
   D45       -0.00817  -0.00000   0.00039   0.00000   0.00039  -0.00778
   D46       -3.10335  -0.00000  -0.00031   0.00000  -0.00031  -3.10367
   D47        3.10911  -0.00000   0.00071   0.00000   0.00071   3.10982
   D48        0.01392  -0.00000   0.00001   0.00000   0.00001   0.01393
   D49       -3.06315   0.00000  -0.00213   0.00000  -0.00213  -3.06528
   D50        0.04191   0.00000  -0.00135   0.00000  -0.00135   0.04056
   D51        0.03080  -0.00000  -0.00141   0.00000  -0.00141   0.02938
   D52        3.13585   0.00000  -0.00063   0.00000  -0.00063   3.13522
   D53       -0.59262  -0.00000   0.00303   0.00000   0.00304  -0.58959
   D54        2.52168  -0.00000   0.00373   0.00000   0.00373   2.52541
   D55        2.58706  -0.00000   0.00223   0.00000   0.00223   2.58929
   D56       -0.58182  -0.00000   0.00292   0.00000   0.00292  -0.57890
   D57       -0.04054   0.00000   0.00108   0.00000   0.00108  -0.03946
   D58        3.09423  -0.00000   0.00085   0.00000   0.00085   3.09508
   D59        3.06502   0.00000   0.00184   0.00000   0.00184   3.06686
   D60       -0.08340  -0.00000   0.00161   0.00000   0.00161  -0.08179
   D61        3.11738  -0.00000   0.00014   0.00000   0.00014   3.11752
   D62       -0.04806  -0.00000   0.00039   0.00000   0.00039  -0.04767
   D63        0.00328  -0.00000  -0.00057   0.00000  -0.00057   0.00271
   D64        3.12102   0.00000  -0.00032   0.00000  -0.00032   3.12070
   D65       -3.10380   0.00000  -0.00119   0.00000  -0.00119  -3.10499
   D66       -0.00404   0.00000  -0.00174   0.00000  -0.00174  -0.00577
   D67        0.01095   0.00000  -0.00051   0.00000  -0.00051   0.01044
   D68        3.11072  -0.00000  -0.00106   0.00000  -0.00106   3.10966
   D69       -0.01380  -0.00000   0.00067   0.00000   0.00067  -0.01313
   D70        3.13043   0.00000   0.00058   0.00000   0.00058   3.13101
   D71       -3.13174  -0.00000   0.00042   0.00000   0.00042  -3.13132
   D72        0.01249  -0.00000   0.00033   0.00000   0.00033   0.01282
   D73       -3.11441   0.00000   0.00024   0.00000   0.00024  -3.11417
   D74        0.01063   0.00000   0.00029   0.00000   0.00029   0.01092
   D75        0.02456   0.00000   0.00033   0.00000   0.00033   0.02489
   D76       -3.13359  -0.00000   0.00038   0.00000   0.00038  -3.13322
   D77        3.11644  -0.00000   0.00023   0.00000   0.00023   3.11667
   D78       -0.01017  -0.00000   0.00019   0.00000   0.00019  -0.00998
   D79       -3.12099   0.00000  -0.00072   0.00000  -0.00072  -3.12171
   D80        0.00320   0.00000  -0.00135   0.00000  -0.00135   0.00184
   D81        0.00621   0.00000  -0.00068   0.00000  -0.00068   0.00553
   D82        3.13040  -0.00000  -0.00131   0.00000  -0.00131   3.12909
   D83       -3.11635   0.00000   0.00067   0.00000   0.00067  -3.11568
   D84        0.01025   0.00000   0.00041   0.00000   0.00041   0.01066
   D85        3.11438  -0.00000  -0.00014   0.00000  -0.00014   3.11423
   D86       -0.02452  -0.00000   0.00005   0.00000   0.00005  -0.02447
   D87       -0.01065  -0.00000   0.00014   0.00000   0.00014  -0.01051
   D88        3.13364   0.00000   0.00033   0.00000   0.00033   3.13397
   D89       -3.13069   0.00000  -0.00110   0.00000  -0.00110  -3.13179
   D90       -0.00642  -0.00000  -0.00081   0.00000  -0.00081  -0.00723
   D91       -0.00350  -0.00000  -0.00134   0.00000  -0.00134  -0.00484
   D92        3.12078  -0.00000  -0.00106   0.00000  -0.00106   3.11972
   D93        0.01399   0.00000   0.00081   0.00000   0.00080   0.01480
   D94        3.13190   0.00000   0.00059   0.00000   0.00059   3.13249
   D95       -3.13030   0.00000   0.00061   0.00000   0.00061  -3.12969
   D96       -0.01239  -0.00000   0.00040   0.00000   0.00040  -0.01199
   D97       -3.11716   0.00000   0.00015   0.00000   0.00015  -3.11700
   D98       -0.00333  -0.00000  -0.00055   0.00000  -0.00055  -0.00389
   D99        0.04832   0.00000   0.00037   0.00000   0.00037   0.04868
   D100      -3.12104  -0.00000  -0.00034   0.00000  -0.00034  -3.12138
   D101      -2.58677   0.00000   0.00355   0.00000   0.00355  -2.58322
   D102       0.59322   0.00000   0.00439   0.00000   0.00439   0.59760
   D103       0.58240   0.00000   0.00424   0.00000   0.00424   0.58664
   D104      -2.52081   0.00000   0.00508   0.00000   0.00508  -2.51573
   D105      -0.01122  -0.00000  -0.00066   0.00000  -0.00066  -0.01188
   D106      -3.11109   0.00000  -0.00113   0.00000  -0.00113  -3.11222
   D107       3.10326  -0.00000  -0.00134   0.00000  -0.00134   3.10192
   D108       0.00339  -0.00000  -0.00181   0.00000  -0.00181   0.00158
   D109      -3.06449  -0.00000   0.00178   0.00000   0.00178  -3.06271
   D110       0.08379  -0.00000   0.00150   0.00000   0.00150   0.08529
   D111       0.04078  -0.00000   0.00098   0.00000   0.00098   0.04176
   D112      -3.09412   0.00000   0.00070   0.00000   0.00070  -3.09342
   D113       3.06258  -0.00000  -0.00214   0.00000  -0.00214   3.06044
   D114      -0.03120   0.00000  -0.00165   0.00000  -0.00165  -0.03285
   D115      -0.04219  -0.00000  -0.00133   0.00000  -0.00133  -0.04351
   D116      -3.13597   0.00000  -0.00083   0.00000  -0.00083  -3.13680
   D117      -0.00519   0.00000   0.00026   0.00000   0.00026  -0.00493
   D118       3.13067  -0.00000  -0.00011   0.00000  -0.00011   3.13056
   D119       3.12988   0.00000   0.00053   0.00000   0.00053   3.13042
   D120      -0.01744  -0.00000   0.00016   0.00000   0.00016  -0.01727
   D121       3.03304  -0.00000  -0.00289   0.00000  -0.00289   3.03015
   D122      -0.03043  -0.00000  -0.00117   0.00000  -0.00117  -0.03160
   D123      -0.10302  -0.00000  -0.00254   0.00000  -0.00254  -0.10556
   D124       3.11669   0.00000  -0.00082   0.00000  -0.00082   3.11588
   D125      -3.03361   0.00000   0.00257   0.00000   0.00257  -3.03105
   D126       0.08454   0.00000   0.00252   0.00000   0.00252   0.08706
   D127       0.02889  -0.00000   0.00081   0.00000   0.00081   0.02969
   D128      -3.13615  -0.00000   0.00076   0.00000   0.00076  -3.13539
   D129       0.00823   0.00000   0.00046   0.00000   0.00046   0.00869
   D130       3.10326   0.00000  -0.00002   0.00000  -0.00003   3.10324
   D131      -3.10895   0.00000   0.00051   0.00000   0.00051  -3.10844
   D132      -0.01392   0.00000   0.00002   0.00000   0.00002  -0.01390
   D133       0.01450   0.00000   0.00157   0.00000   0.00157   0.01607
   D134      -3.10343   0.00000   0.00118   0.00000   0.00118  -3.10225
   D135       3.11458  -0.00000   0.00204   0.00000   0.00204   3.11662
   D136      -0.00336   0.00000   0.00166   0.00000   0.00165  -0.00171
   D137       0.00012   0.00000   0.00087   0.00000   0.00087   0.00099
   D138      -3.12008   0.00000   0.00165   0.00000   0.00165  -3.11843
   D139       3.12042  -0.00000   0.00122   0.00000   0.00122   3.12164
   D140       0.00023   0.00000   0.00200   0.00000   0.00200   0.00223
   D141      -0.01407  -0.00000   0.00143   0.00000   0.00143  -0.01264
   D142      -3.11403   0.00000   0.00197   0.00000   0.00197  -3.11206
   D143       3.10375  -0.00000   0.00056   0.00000   0.00056   3.10431
   D144       0.00379  -0.00000   0.00110   0.00000   0.00110   0.00489
   D145       3.01879  -0.00000  -0.00255   0.00000  -0.00255   3.01623
   D146      -0.03142  -0.00000  -0.00077   0.00000  -0.00077  -0.03220
   D147      -0.11669  -0.00000  -0.00228   0.00000  -0.00228  -0.11897
   D148       3.11628   0.00000  -0.00050   0.00000  -0.00050   3.11578
   D149      -0.00466   0.00000   0.00011   0.00000   0.00011  -0.00455
   D150       3.13218   0.00000   0.00063   0.00000   0.00063   3.13281
   D151       3.13060  -0.00000  -0.00017   0.00000  -0.00017   3.13043
   D152      -0.01574  -0.00000   0.00035   0.00000   0.00035  -0.01539
   D153      -3.02066   0.00000   0.00217   0.00000   0.00217  -3.01849
   D154       0.09524   0.00000   0.00185   0.00000   0.00185   0.09709
   D155       0.02866  -0.00000   0.00048   0.00000   0.00048   0.02914
   D156      -3.13862  -0.00000   0.00016   0.00000   0.00016  -3.13846
   D157       0.01015   0.00000   0.00046   0.00000   0.00047   0.01062
   D158       3.10275   0.00000  -0.00009   0.00000  -0.00009   3.10266
   D159      -3.10467   0.00000   0.00081   0.00000   0.00081  -3.10387
   D160      -0.01207   0.00000   0.00025   0.00000   0.00025  -0.01182
   D161       3.05927  -0.00000  -0.00234   0.00000  -0.00234   3.05693
   D162      -0.04446  -0.00000  -0.00108   0.00000  -0.00108  -0.04554
   D163      -0.03202   0.00000  -0.00177   0.00000  -0.00177  -0.03380
   D164      -3.13574   0.00000  -0.00052   0.00000  -0.00052  -3.13627
   D165       0.60142   0.00000   0.00328   0.00000   0.00328   0.60470
   D166      -2.51042   0.00000   0.00402   0.00000   0.00402  -2.50640
   D167      -2.57968   0.00000   0.00198   0.00000   0.00198  -2.57769
   D168       0.59167   0.00000   0.00273   0.00000   0.00273   0.59439
   D169       0.04188  -0.00000   0.00081   0.00000   0.00081   0.04270
   D170      -3.09483   0.00000   0.00028   0.00000   0.00028  -3.09456
   D171      -3.06226  -0.00000   0.00205   0.00000   0.00205  -3.06021
   D172       0.08421   0.00000   0.00151   0.00000   0.00151   0.08572
   D173      -3.11451   0.00000   0.00057   0.00000   0.00057  -3.11395
   D174       0.05014   0.00000   0.00064   0.00000   0.00064   0.05078
   D175      -0.00287   0.00000  -0.00019   0.00000  -0.00019  -0.00306
   D176      -3.12140  -0.00000  -0.00012   0.00000  -0.00012  -3.12152
   D177       3.10033  -0.00000  -0.00153   0.00000  -0.00153   3.09880
   D178       0.00153  -0.00000  -0.00225   0.00000  -0.00225  -0.00072
   D179      -0.01195  -0.00000  -0.00080   0.00000  -0.00080  -0.01275
   D180      -3.11075   0.00000  -0.00153   0.00000  -0.00153  -3.11228
   D181       0.01414   0.00000   0.00057   0.00000   0.00057   0.01470
   D182      -3.13087  -0.00000   0.00044   0.00000   0.00044  -3.13043
   D183       3.13284   0.00000   0.00050   0.00000   0.00050   3.13334
   D184      -0.01216  -0.00000   0.00037   0.00000   0.00037  -0.01180
   D185       3.11311  -0.00000  -0.00037   0.00000  -0.00037   3.11274
   D186      -0.01114  -0.00000   0.00004   0.00000   0.00004  -0.01111
   D187      -0.02508  -0.00000  -0.00024   0.00000  -0.00024  -0.02531
   D188       3.13386   0.00000   0.00016   0.00000   0.00016   3.13402
   D189      -3.11527   0.00000   0.00068   0.00000   0.00068  -3.11459
   D190       0.01063   0.00000   0.00032   0.00000   0.00032   0.01096
   D191       3.11989  -0.00000  -0.00094   0.00000  -0.00094   3.11895
   D192      -0.00327  -0.00000  -0.00102   0.00000  -0.00102  -0.00429
   D193      -0.00662  -0.00000  -0.00059   0.00000  -0.00059  -0.00721
   D194      -3.12978   0.00000  -0.00067   0.00000  -0.00067  -3.13045
   D195       3.11535  -0.00000   0.00008   0.00000   0.00008   3.11543
   D196      -0.01059  -0.00000   0.00010   0.00000   0.00010  -0.01049
   D197      -3.11317   0.00000   0.00020   0.00000   0.00020  -3.11296
   D198       0.02508   0.00000   0.00027   0.00000   0.00027   0.02534
   D199       0.01112   0.00000   0.00019   0.00000   0.00019   0.01131
   D200      -3.13383  -0.00000   0.00025   0.00000   0.00025  -3.13357
   D201       3.12962  -0.00000  -0.00118   0.00000  -0.00118   3.12844
   D202       0.00650   0.00000  -0.00045   0.00000  -0.00045   0.00605
   D203       0.00309   0.00000  -0.00117   0.00000  -0.00117   0.00192
   D204      -3.12003   0.00000  -0.00044   0.00000  -0.00044  -3.12047
   D205      -0.01401  -0.00000   0.00062   0.00000   0.00062  -0.01339
   D206      -3.13271  -0.00000   0.00038   0.00000   0.00038  -3.13233
   D207       3.13094   0.00000   0.00056   0.00000   0.00056   3.13150
   D208       0.01223  -0.00000   0.00032   0.00000   0.00032   0.01255
   D209       3.11472  -0.00000  -0.00020   0.00000  -0.00020   3.11452
   D210       0.00284   0.00000  -0.00046   0.00000  -0.00046   0.00239
   D211      -0.04993  -0.00000   0.00004   0.00000   0.00004  -0.04989
   D212       3.12138   0.00000  -0.00022   0.00000  -0.00022   3.12116
   D213       2.57990  -0.00000   0.00093   0.00000   0.00093   2.58083
   D214      -0.60093  -0.00000   0.00143   0.00000   0.00143  -0.59950
   D215      -0.59121  -0.00000   0.00118   0.00000   0.00118  -0.59003
   D216       2.51114  -0.00000   0.00168   0.00000   0.00168   2.51282
   D217       0.01177   0.00000  -0.00053   0.00000  -0.00053   0.01124
   D218       3.11053  -0.00000  -0.00127   0.00000  -0.00127   3.10926
   D219      -3.10074   0.00000  -0.00077   0.00000  -0.00077  -3.10151
   D220      -0.00198   0.00000  -0.00151   0.00000  -0.00151  -0.00349
   D221       3.06276   0.00000   0.00123   0.00000   0.00123   3.06398
   D222      -0.08385  -0.00000   0.00089   0.00000   0.00089  -0.08296
   D223      -0.04164   0.00000   0.00077   0.00000   0.00077  -0.04088
   D224       3.09494  -0.00000   0.00043   0.00000   0.00043   3.09537
   D225      -3.05979   0.00000  -0.00131   0.00000  -0.00131  -3.06110
   D226       0.03165  -0.00000  -0.00095   0.00000  -0.00095   0.03070
   D227       0.04419   0.00000  -0.00082   0.00000  -0.00082   0.04336
   D228       3.13562   0.00000  -0.00046   0.00000  -0.00046   3.13516
   D229       0.00466  -0.00000  -0.00006   0.00000  -0.00006   0.00460
   D230      -3.13069   0.00000  -0.00027   0.00000  -0.00027  -3.13095
   D231      -3.13205  -0.00000   0.00027   0.00000   0.00027  -3.13178
[...]
 Alpha virt. eigenvalues --    3.35472   3.35592   3.39048   3.39114   3.40487
 Alpha virt. eigenvalues --    3.40795   3.42182   3.42840   3.42938   3.43335
 Alpha virt. eigenvalues --    3.47028   3.47141   3.47921   3.47999   3.50432
 Alpha virt. eigenvalues --    3.50549   3.52470   3.52574   3.58045   3.58388
 Alpha virt. eigenvalues --    3.59727   3.59940   3.61506   3.61555   3.61709
 Alpha virt. eigenvalues --    3.61744   3.63026   3.63087   3.71742   3.71920
 Alpha virt. eigenvalues --    3.77850   3.78010   3.78013   3.78045  51.66695
 Alpha virt. eigenvalues --   51.66814
          Condensed to atoms (all electrons):
 Mulliken charges:
               1
     1  Pd   0.505762
     2  Pd   0.505737
     3  C    0.136059
     4  N   -0.303213
     5  C    0.144312
     6  C   -0.043574
     7  C    0.064796
     8  C    0.032741
     9  C   -0.034855
    10  C   -0.073454
    11  C    0.204942
    12  O   -0.256085
    13  C    0.204941
    14  C   -0.073496
    15  C   -0.034678
    16  C    0.032482
    17  C    0.064512
    18  C   -0.052029
    19  C    0.136088
    20  N   -0.303154
    21  C    0.144256
    22  C   -0.043386
    23  C   -0.058206
    24  C    0.024659
    25  C    0.024687
    26  C   -0.058319
    27  C   -0.052202
    28  H    0.096200
    29  H    0.103749
    30  H    0.062782
    31  H    0.049945
    32  H    0.046062
    33  H    0.046064
    34  H    0.049937
    35  H    0.064169
    36  H    0.096236
    37  H    0.103700
    38  H    0.062771
    39  H    0.037413
    40  H    0.037426
    41  H    0.064149
    42  C    0.138763
    43  N   -0.302475
    44  C    0.144840
    45  C   -0.043096
    46  C    0.062947
    47  C    0.031399
    48  C   -0.034491
    49  C   -0.073192
    50  C    0.204277
    51  O   -0.255798
    52  C    0.204267
    53  C   -0.073163
    54  C   -0.034618
    55  C    0.031531
    56  C    0.063067
    57  C   -0.052472
    58  C    0.138844
    59  N   -0.302492
    60  C    0.144783
    61  C   -0.043257
    62  C   -0.057176
    63  C    0.024673
    64  C    0.024652
    65  C   -0.057157
    66  C   -0.052475
    67  H    0.094026
    68  H    0.102635
    69  H    0.063027
    70  H    0.050076
    71  H    0.046057
    72  H    0.046054
    73  H    0.050085
    74  H    0.064036
    75  H    0.094059
    76  H    0.102646
    77  H    0.063016
    78  H    0.037335
    79  H    0.037324
    80  H    0.064065
    81  C   -0.031928
    82  C    0.127517
    83  N   -0.298050
    84  C    0.133019
    85  C   -0.011398
    86  C    0.050023
    87  C   -0.033821
    88  C   -0.016928
    89  C    0.005905
    90  C   -0.070152
    91  C   -0.022814
    92  C    0.032512
    93  C   -0.051042
    94  N   -0.177683
    95  C   -0.051016
    96  C    0.032458
    97  C   -0.022774
    98  C   -0.070142
    99  C    0.005900
   100  C   -0.016975
   101  C   -0.033816
   102  C    0.050031
   103  C   -0.027864
   104  C    0.006903
   105  C   -0.006884
   106  C    0.033253
   107  C   -0.031908
   108  C    0.127615
   109  N   -0.298035
   110  C    0.133039
   111  C   -0.011483
   112  C   -0.032261
   113  C    0.003738
   114  C    0.008113
   115  C    0.032672
   116  C    0.008155
   117  C    0.003729
   118  C   -0.032280
   119  C   -0.027847
   120  C    0.006907
   121  C   -0.006886
   122  C    0.033264
   123  H    0.058330
   124  H    0.091752
   125  H    0.099248
   126  H    0.042049
   127  H    0.041242
   128  H    0.041243
   129  H    0.042056
   130  H    0.046635
   131  H    0.057929
   132  H    0.045237
   133  H    0.058324
   134  H    0.091713
   135  H    0.099219
   136  H    0.048798
   137  H    0.040001
   138  H    0.048816
   139  H    0.061535
   140  H    0.048816
   141  H    0.040007
   142  H    0.048787
   143  H    0.046630
   144  H    0.057933
   145  H    0.045240
   146  C   -0.033394
   147  C    0.131767
   148  N   -0.297998
   149  C    0.141920
   150  C   -0.006102
   151  C    0.039516
   152  C   -0.052497
   153  C   -0.003696
   154  C    0.005433
   155  C   -0.071231
   156  C   -0.027153
   157  C    0.035237
   158  C   -0.054018
   159  N   -0.178103
   160  C   -0.054029
   161  C    0.035421
   162  C   -0.027364
   163  C   -0.071217
   164  C    0.005410
   165  C   -0.003607
   166  C   -0.052478
   167  C    0.039468
   168  C   -0.024541
   169  C    0.006134
   170  C   -0.006541
   171  C    0.033646
   172  C   -0.033420
   173  C    0.131670
   174  N   -0.297993
   175  C    0.141927
   176  C   -0.005968
   177  C   -0.027432
   178  C    0.005852
   179  C    0.011270
   180  C    0.038666
   181  C    0.011231
   182  C    0.005792
   183  C   -0.027332
   184  C   -0.024451
   185  C    0.006125
   186  C   -0.006547
   187  C    0.033659
   188  H    0.058105
   189  H    0.088536
   190  H    0.096201
   191  H    0.040804
   192  H    0.040686
   193  H    0.040687
   194  H    0.040814
   195  H    0.044942
   196  H    0.058021
   197  H    0.044948
   198  H    0.058103
   199  H    0.088696
   200  H    0.096220
   201  H    0.047346
   202  H    0.036565
   203  H    0.047517
   204  H    0.060535
   205  H    0.047514
   206  H    0.036598
   207  H    0.047366
   208  H    0.044944
   209  H    0.058020
   210  H    0.044944
 Sum of Mulliken charges =   4.00000
 Mulliken charges with hydrogens summed into heavy atoms:
               1
     1  Pd   0.505762
     2  Pd   0.505737
     3  C    0.232259
     4  N   -0.303213
     5  C    0.248061
     6  C    0.019208
     7  C    0.064796
     8  C    0.032741
     9  C    0.015090
    10  C   -0.027392
    11  C    0.204942
    12  O   -0.256085
    13  C    0.204941
    14  C   -0.027432
    15  C    0.015259
    16  C    0.032482
    17  C    0.064512
    18  C    0.012139
    19  C    0.232324
    20  N   -0.303154
    21  C    0.247956
    22  C    0.019385
    23  C   -0.020793
    24  C    0.024659
    25  C    0.024687
    26  C   -0.020892
    27  C    0.011947
    42  C    0.232789
    43  N   -0.302475
    44  C    0.247475
    45  C    0.019931
    46  C    0.062947
    47  C    0.031399
    48  C    0.015585
    49  C   -0.027134
    50  C    0.204277
    51  O   -0.255798
    52  C    0.204267
    53  C   -0.027108
    54  C    0.015467
    55  C    0.031531
    56  C    0.063067
    57  C    0.011564
    58  C    0.232902
    59  N   -0.302492
    60  C    0.247429
    61  C    0.019758
    62  C   -0.019840
    63  C    0.024673
    64  C    0.024652
    65  C   -0.019833
    66  C    0.011590
    81  C    0.026403
    82  C    0.219269
    83  N   -0.298050
    84  C    0.232267
    85  C   -0.011398
    86  C    0.050023
    87  C   -0.033821
    88  C    0.025121
    89  C    0.047147
    90  C   -0.070152
    91  C   -0.022814
    92  C    0.032512
    93  C   -0.051042
    94  N   -0.177683
    95  C   -0.051016
    96  C    0.032458
    97  C   -0.022774
    98  C   -0.070142
    99  C    0.047143
   100  C    0.025081
   101  C   -0.033816
   102  C    0.050031
   103  C    0.018771
   104  C    0.064832
   105  C    0.038352
   106  C    0.033253
   107  C    0.026416
   108  C    0.219328
   109  N   -0.298035
   110  C    0.232258
   111  C   -0.011483
   112  C    0.016537
   113  C    0.043739
   114  C    0.056929
   115  C    0.094207
   116  C    0.056971
   117  C    0.043736
   118  C    0.016507
   119  C    0.018783
   120  C    0.064840
   121  C    0.038354
   122  C    0.033264
   146  C    0.024711
   147  C    0.220303
   148  N   -0.297998
   149  C    0.238122
   150  C   -0.006102
   151  C    0.039516
   152  C   -0.052497
   153  C    0.037108
   154  C    0.046119
   155  C   -0.071231
   156  C   -0.027153
   157  C    0.035237
   158  C   -0.054018
   159  N   -0.178103
   160  C   -0.054029
   161  C    0.035421
   162  C   -0.027364
   163  C   -0.071217
   164  C    0.046098
   165  C    0.037208
   166  C   -0.052478
   167  C    0.039468
   168  C    0.020401
   169  C    0.064154
   170  C    0.038407
   171  C    0.033646
   172  C    0.024683
   173  C    0.220366
   174  N   -0.297993
   175  C    0.238147
   176  C   -0.005968
   177  C    0.019914
   178  C    0.042417
   179  C    0.058788
   180  C    0.099200
   181  C    0.058746
   182  C    0.042390
   183  C    0.020034
   184  C    0.020493
   185  C    0.064145
   186  C    0.038397
   187  C    0.033659
 Electronic spatial extent (au):  <R**2>=         221900.4937
 Charge=              4.0000 electrons
 Dipole moment (field-independent basis, Debye):
    X=              0.0144    Y=            -21.4810    Z=              6.0105  Tot=             22.3060
 Quadrupole moment (field-independent basis, Debye-Ang):
   XX=            426.8408   YY=           -507.9390   ZZ=           -587.6636
   XY=              0.1322   XZ=             -0.1398   YZ=              4.4537
 Traceless Quadrupole moment (field-independent basis, Debye-Ang):
   XX=            649.7614   YY=           -285.0184   ZZ=           -364.7430
   XY=              0.1322   XZ=             -0.1398   YZ=              4.4537
 Octapole moment (field-independent basis, Debye-Ang**2):
  XXX=              3.4589  YYY=            152.5056  ZZZ=             70.2527  XYY=             -0.2404
  XXY=           -931.2720  XXZ=            236.3112  XZZ=             -0.3017  YZZ=           -463.1757
  YYZ=            -32.4295  XYZ=             -0.3238
 Hexadecapole moment (field-independent basis, Debye-Ang**3):
 XXXX=         -82011.1112 YYYY=         -53774.6352 ZZZZ=         -49216.3607 XXXY=             22.5245
 XXXZ=             16.4374 YYYX=              6.3469 YYYZ=            977.5060 ZZZX=            -13.7903
 ZZZY=          -1371.1834 XXYY=         -32683.4682 XXZZ=         -25754.0673 YYZZ=         -18527.5987
 XXYZ=           2578.1217 YYXZ=             -1.0052 ZZXY=             -5.1605
 N-N= 2.831076986115D+04 E-N=-6.940036220362D+04  KE= 5.421478930648D+03
 Unable to Open any file for archive entry.
 1\1\GINC-CX3-14-24\FOpt\RHSEH1PBE\def2SVP\C122H74N10O2Pd2(4+)\VPOSLIGU
 \28-Jul-2023\0\\# OPT HSEH1PBE/def2svp scrf=(solvent=dmso)\\cis_l1_lb\
 \4,1\Pd,7.2495888124,-1.2950621081,0.0967091213\Pd,-7.1961618485,-1.51
 67516637,-0.4841951263\C,4.9552489443,-1.2920094156,-1.7584789848\N,6.
 0606873915,-1.9731191166,-1.4208126046\C,6.3167523747,-3.140471987,-2.
 0309789923\C,5.4584503719,-3.6816562258,-2.9755360625\C,4.273705658,-3
 .0095827252,-3.3132807621\C,3.2781888699,-3.5842281339,-4.2381696263\C
 ,3.6699113286,-4.392141871,-5.3293352038\C,2.7414237638,-4.9648098685,
 -6.1939183469\C,1.4001206941,-4.7206224759,-5.9275242198\O,0.343244622
 6,-5.2105983159,-6.6306528205\C,-0.7817627061,-4.7543157428,-6.0161084
 217\C,-2.0888994707,-5.0396950045,-6.3898149237\C,-3.1016369018,-4.496
 8699669,-5.604136822\C,-2.8246612034,-3.6777543503,-4.486522218\C,-3.9
 087764674,-3.134791751,-3.645969419\C,-3.7775750115,-1.8886977329,-3.0
 125343789\C,-4.766427206,-1.439029075,-2.1559307826\N,-5.8720263162,-2
 .1559017058,-1.9035618393\C,-6.0412474262,-3.3313806638,-2.5282405489\
 C,-5.09409556,-3.8448432893,-3.4006636167\C,-1.4955565425,-3.397767046
 9,-4.1436154015\C,-0.4699169345,-3.9468047706,-4.9078249973\C,0.974755
 2151,-3.9247029527,-4.8490018005\C,1.9176371926,-3.3461301305,-4.00422
 62334\C,4.0521938134,-1.7707600699,-2.6907827688\H,4.7881263405,-0.334
 8841492,-1.2604116924\H,7.2280429782,-3.6630318314,-1.7331899512\H,5.7
 032567948,-4.6515255617,-3.4102579569\H,4.7322806897,-4.5589056619,-5.
 5190889933\H,3.0512132744,-5.5790968695,-7.0401938999\H,-2.3099800812,
 -5.6625431188,-7.2573896703\H,-4.1395215244,-4.6964797469,-5.878757909
 8\H,-2.9073883283,-1.2548144716,-3.185446734\H,-4.6708437089,-0.476338
 9849,-1.6497502495\H,-6.9556933762,-3.8832222204,-2.3013598941\H,-5.27
 21992294,-4.8224608431,-3.8502404244\H,-1.2626544253,-2.7902887265,-3.
 2672322858\H,1.5957743628,-2.7485016177,-3.1494927338\H,3.1779576955,-
 1.1650032616,-2.930972124\C,4.8397859551,-1.5332962247,1.7833797031\N,
 5.9608981386,-2.1725927261,1.4168514783\C,6.1643146204,-3.4279731941,1
 .8446699987\C,5.2370762187,-4.0987549543,2.6267610854\C,4.0353126151,-
 3.4684139584,2.9842743198\C,2.9712815367,-4.1705646351,3.726946959\C,3
 .2804836405,-5.1448921372,4.7024543528\C,2.2899734765,-5.8398278194,5.
 3900983962\C,0.9727552454,-5.5453473875,5.0620992668\O,-0.1326579829,-
 6.1338178957,5.5937865668\C,-1.2087658315,-5.5784708724,4.973714027\C,
 -2.5386605335,-5.9129610232,5.1946726116\C,-3.4908927176,-5.2475982335
 ,4.4282500122\C,-3.1335264681,-4.2636808277,3.4791452544\C,-4.15518072
 7,-3.5937489535,2.6519733521\C,-3.9944146315,-2.2616569268,2.238169962
 1\C,-4.9192992662,-1.6836838569,1.3861764572\N,-5.9884618699,-2.356260
 62,0.9338062436\C,-6.1873995113,-3.6171422712,1.3471817566\C,-5.305367
 0273,-4.2598270524,2.2017263497\C,-1.7839437476,-3.9387211071,3.289644
 1411\C,-0.8166124527,-4.6067876983,4.035526112\C,0.6284485712,-4.58474
 32691,4.0942085471\C,1.632216891,-3.8861852125,3.4287805502\C,3.868106
 2473,-2.1406669802,2.5593782014\H,4.7164204876,-0.5043892826,1.4382785
 424\H,7.089663487,-3.9126331931,1.52704857\H,5.4426566796,-5.130951087
 8,2.9131359041\H,4.3257722459,-5.3485417407,4.9439870756\H,2.535011365
 1,-6.5836813162,6.1491430114\H,-2.8216488643,-6.664639641,5.932512597\
 H,-4.545629517,-5.4829040462,4.5850507126\H,-3.1502196344,-1.661638263
 9,2.5794985821\H,-4.7997709533,-0.6516181037,1.049249879\H,-7.06984376
 11,-4.1293564916,0.9586029983\H,-5.5020915065,-5.2977294494,2.47327637
 31\H,-1.4887831054,-3.202135467,2.5400888703\H,1.3764254731,-3.1568548
 178,2.6579639532\H,2.9819496476,-1.5669708042,2.8328489463\C,10.321888
 6799,-0.81639986,3.0276655908\C,9.517570899,-1.2772396008,2.0198963005
 \N,8.3924153695,-0.6081003877,1.6441053145\C,8.0253182222,0.4843752733
 ,2.2916540646\C,8.7513285603,1.0132794047,3.3815845519\C,8.3279476663,
 2.1833441645,4.0932183095\C,7.0133829676,2.8260022308,3.857543835\C,6.
 9258002333,4.2121630942,3.6508264613\C,5.6939026102,4.8385545075,3.512
 8883823\C,4.5007918905,4.0935753969,3.5828507682\C,3.2358925875,4.7427
 36758,3.4912235192\C,2.1570703365,5.308725925,3.4458430936\C,0.9204117
 298,6.0322656084,3.4347373823\N,-0.214921312,5.3291314897,3.3341862944
 \C,-1.376596975,5.9953881461,3.3437616842\C,-2.5864907287,5.2326527861
 ,3.2579390548\C,-3.6471209127,4.6328775865,3.2178801103\C,-4.894727895
 5,3.9449846186,3.2091848078\C,-6.1009036567,4.6533821205,3.0458688099\
 C,-7.3200367968,3.9892855069,3.0861662042\C,-7.3810985865,2.6005132971
 ,3.2846856404\C,-8.6898533645,1.9175531587,3.4162923903\C,-9.626288851
 4,2.4008029333,4.3141476263\C,-10.852302147,1.737204282,4.5390531897\C
 ,-11.1567767561,0.5699033985,3.8776306616\C,-10.2471953453,0.048783341
 ,2.9273903696\C,-10.5016179334,-1.1385749203,2.1968473621\C,-9.6070371
 631,-1.5720630263,1.2552114031\N,-8.4768864138,-0.8679605135,0.9688297
 51\C,-8.1952015002,0.2334316331,1.6434841083\C,-9.0202506044,0.7370498
 379,2.673301266\C,-6.174906526,1.8945325994,3.4356676624\C,-4.95164500
 53,2.5512320718,3.398103574\C,-1.451744261,7.3969403659,3.4527267139\C
 ,-0.2685380206,8.1182128537,3.5577961661\C,0.941772854,7.4353613889,3.
 5475753593\C,4.5851676523,2.7023656188,3.7798937962\C,5.8211355437,2.0
 835297845,3.915506797\C,9.1759265838,2.695128024,5.0604871269\C,10.400
 088813,2.0692518668,5.3826445226\C,10.7908439078,0.9116148485,4.750207
 4888\C,9.9748950634,0.3627964053,3.7329093933\H,11.2323962441,-1.36062
 63155,3.2836992834\H,9.7480597193,-2.1923248026,1.4724538526\H,7.12933
 9059,0.9944559821,1.9336322132\H,7.8401712024,4.8070574153,3.592815873
 7\H,5.6453378529,5.9176507207,3.3554919879\H,-6.0732163589,5.733901025
 2,2.8932496543\H,-8.2448267831,4.5561728945,2.956766456\H,-9.394881505
 4,3.2975898174,4.8930311032\H,-11.5528509966,2.1507712822,5.2677416242
 \H,-12.0920329973,0.0404888379,4.0702613272\H,-11.4122871041,-1.711011
 4834,2.3805873831\H,-9.7656744031,-2.4924576535,0.6913901896\H,-7.2901
 051108,0.7718501923,1.3570414713\H,-6.1937482455,0.8187325403,3.625555
 6117\H,-4.0266786028,1.9887269065,3.5381174378\H,-2.4233551301,7.89264
 6902,3.4589288461\H,-0.2895916691,9.2063089385,3.6483952909\H,1.893458
 4481,7.9619271186,3.6300954807\H,3.6696499769,2.1118658801,3.848541420
 7\H,5.8577781719,1.0089827317,4.1097856043\H,8.8726558967,3.5845559088
 ,5.6170954816\H,11.0283642515,2.5041263523,6.1629913916\H,11.723746619
 ,0.4109895072,5.0169676051\C,10.4943693559,-0.3866026518,-2.5401059045
 \C,9.677850544,-0.9559529768,-1.5991775289\N,8.4821872336,-0.397638639
 3,-1.2622400433\C,8.0916534387,0.7264721147,-1.8379343582\C,8.86113333
 64,1.4008606398,-2.8110763374\C,8.4067965486,2.5998845875,-3.450748455
 6\C,7.1233490619,3.2444584313,-3.0790322227\C,6.12832423,3.4371323261,
 -4.0494928216\C,4.9157935939,4.0307134789,-3.7213795233\C,4.6676888989
 ,4.4658446764,-2.4066431935\C,3.41807591,5.0593926991,-2.0594383532\C,
 2.3458254856,5.5529024208,-1.7567756164\C,1.1012842801,6.1491568019,-1
 .3657131599\N,-0.0233867839,5.5881118718,-1.826863038\C,-1.1960083901,
 6.1167911874,-1.4556563981\C,-2.3887703804,5.4859546554,-1.9421858135\
 C,-3.4191896798,4.9622876001,-2.3280150006\C,-4.6187675026,4.331846750
 7,-2.7729088809\C,-4.7487599456,3.8933718445,-4.1034139578\C,-5.912043
 2985,3.2623808663,-4.526265967\C,-6.9734860793,3.034807247,-3.63716127
 19\C,-8.201445945,2.3489764726,-4.1089766809\C,-8.92050416,2.862917945
 2,-5.1726818255\C,-10.0988721255,2.2394811541,-5.6410167006\C,-10.5690
 050328,1.0849937177,-5.0589707002\C,-9.8530171333,0.5015162877,-3.9867
 895783\C,-10.2497125539,-0.7113833415,-3.3705039313\C,-9.491368749,-1.
 2557747168,-2.3681205986\N,-8.3470234306,-0.6571212967,-1.9357135954\C
 ,-7.9516927992,0.4823286378,-2.4768242366\C,-8.6637788479,1.1330057188
 ,-3.508105133\C,-6.8474924054,3.4855276863,-2.3130614119\C,-5.69251667
 33,4.1289630976,-1.8857277429\C,-1.2936458172,7.2406585283,-0.61545896
 63\C,-0.1205303348,7.8239314359,-0.1511711663\C,1.1012339235,7.2744005
 478,-0.5216633956\C,5.6740392381,4.2974775329,-1.4370345651\C,6.878988
 1511,3.6911260488,-1.7702163341\C,9.1901576517,3.1376412341,-4.4556332
 129\C,10.4227353535,2.5548471191,-4.8266795788\C,10.8846162792,1.41792
 6921,-4.2047970614\C,10.1060447673,0.8108526411,-3.1909185484\H,11.439
 6897138,-0.8677463964,-2.7962635722\H,9.9446495071,-1.8861664544,-1.09
 62474303\H,7.119167385,1.1233246662,-1.5429937746\H,6.3016255296,3.096
 0599776,-5.0727380746\H,4.1460226142,4.1581346626,-4.4847662508\H,-3.9
 257416637,4.0475124744,-4.8037195673\H,-5.9931956734,2.9188489331,-5.5
 600939709\H,-8.5809746294,3.7857531363,-5.648184887\H,-10.6420298769,2
 .6910679793,-6.4740324478\H,-11.4813642717,0.6044087838,-5.4178260903\
 H,-11.1540559757,-1.2242267044,-3.7019887834\H,-9.7645895436,-2.196853
 6574,-1.8894443213\H,-7.0209781052,0.9122277301,-2.1037621795\H,-7.673
 0958822,3.3477197528,-1.6105369428\H,-5.6127627901,4.4784987941,-0.854
 4880465\H,-2.2728433642,7.6367298001,-0.3431754776\H,-0.1583043901,8.7
 005789062,0.4982816999\H,2.0446103307,7.6976545774,-0.174196329\H,5.50
 22130464,4.644693436,-0.4162815493\H,7.6506322633,3.5801365837,-1.0044
 388429\H,8.8582281778,4.0480861393,-4.9595369444\H,11.0146587129,3.024
 2830686,-5.6154279722\H,11.838789617,0.9690974629,-4.4880353715\\Versi
 on=ES64L-G16RevC.01\State=1-A\HF=-5637.1479178\RMSD=1.909e-09\RMSF=1.2
 13e-05\Dipole=0.1671171,-8.7469625,-0.6918481\Quadrupole=481.7427314,-
 220.9446876,-260.7980438,9.9944804,29.5129988,22.1411991\PG=C01 [X(C12
 2H74N10O2Pd2)]\\@
 The archive entry for this job was punched.


 I HAVE NOT FAILED, I HAVE ONLY DISCOVERED 10,000
 WAYS THAT DIDN'T WORK.  -- THOMAS A. EDISON
 Job cpu time:       4 days 19 hours 26 minutes 30.4 seconds.
 Elapsed time:       0 days  2 hours 41 minutes  3.1 seconds.
 File lengths (MBytes):  RWF=   7288 Int=      0 D2E=      0 Chk=    568 Scr=     16
 Normal termination of Gaussian 16 at Fri Jul 28 22:52:44 2023.
