      -----------------------------------------------------------      
     |                   =====================                   |     
     |                           x T B                           |     
     |                   =====================                   |     
     |                         S. Grimme                         |     
     |          Mulliken Center for Theoretical Chemistry        |     
     |                    University of Bonn                     |     
     |                Version 6.2 RC2 (SAW190805)                |     
      -----------------------------------------------------------      

   This program is distributed in the hope that it will be useful,
   but WITHOUT ANY WARRANTY; without even the implied warranty of
   MERCHANTABILITY or FITNESS FOR A PARTICULAR PURPOSE.
   
   FOR NON-COMMERCIAL, ACADEMIA USE ONLY.
   
   Cite this work as:
   * S. Grimme, C. Bannwarth, P. Shushkov, J. Chem. Theory Comput., 2017,
     13, 1989-2009. DOI: 10.1021/acs.jctc.7b00118
   * C. Bannwarth, S. Ehlert and S. Grimme., J. Chem. Theory Comput., 2019,
     15, 1652-1671. DOI: 10.1021/acs.jctc.8b01176
   * P. Pracht, E. Caldeweyher, S. Ehlert, S. Grimme, ChemRxiv, 2019, preprint.
     DOI: 10.26434/chemrxiv.8326202.v1
   
   for DFT-D4:
   * E. Caldeweyher, C. Bannwarth and S. Grimme, J. Chem. Phys., 2017,
     147, 034112. DOI: 10.1063/1.4993215
   * E. Caldeweyher, S. Ehlert, A. Hansen, H. Neugebauer, S. Spicher,
     C. Bannwarth and S. Grimme, J. Chem. Phys., 2019, 150, 154122.
     DOI: 10.1063/1.5090222
   
   for sTDA-xTB:
   * S. Grimme and C. Bannwarth, J. Chem. Phys., 2016, 145, 054103.
     DOI: 10.1063/1.4959605
   
   in the mass-spec context:
   * V. Asgeirsson, C. Bauer and S. Grimme, Chem. Sci., 2017, 8, 4879.
     DOI: 10.1039/c7sc00601b
   
   for metadynamics refer to:
   * S. Grimme, J. Chem. Theory Comput., 2019, 155, 2847-2862
     DOI: 10.1021/acs.jctc.9b00143
   
   with help from (in alphabetical order)
   C. Bannwarth, F. Bohle, G. Brandenburg, E. Caldeweyher, M. Checinski,
   S. Dohm, S. Ehlert, S. Ehrlich, F. März, H. Neugebauer, J. Pisarek,
   P. Pracht, P. Shushkov, and S. Spicher.
   
 * started run on 2021/06/22 at 00:10:32.549     

           -------------------------------------------------
          |                Calculation Setup                |
           -------------------------------------------------

          program call               : /home/atarzia/software/xtb-190806/bin/xtb /data/atarzia/projects/unsymm/screening/production/free_energy_calculations/fe_5a3_d/input_structure.xyz --gfn 2 --hess --parallel 6 --etemp 300 --gbsa dmso --chrg 4 --uhf 0 -I det_control.in
          coordinate file            : /data/atarzia/projects/unsymm/screening/production/free_energy_calculations/fe_5a3_d/input_structure.xyz
          omp threads                :                     6
          number of atoms            :                   186
          number of electrons        :                   568
          charge                     :                     4
          spin                       :                   0.0
          first test random number   :      0.47619348646907


########################################################################
# WARNING! Please study the warnings concerning your input carefully
#  - XTBHOME is not set, using HOME instead
#  - XTBPATH is not set, using XTBHOME instead
#  - Process number higher than OMP_NUM_THREADS, I hope you know what you are doing.
########################################################################

           ------------------------------------------------- 
          |                 G F N 2 - x T B                 |
          | Geometry, Frequencies, Noncovalent interactions |
          |            JCTC 2019 parametrisation            |
           ------------------------------------------------- 
             k(s)              :                1.8500
             k(p)              :                2.2300
             k(d)              :                2.2300
             k(f)              :                2.0000
             kEN (H0ij)        :               -2.0000
             D4 a1             :                0.5200
             D4 a2             :                5.0000
             D4 s6             :                1.0000
             D4 s8             :                2.7000
             D4 s9             :                5.0000
             alphaj            :                2.0000

  Z AO/shell   Hii/eV     exponent
  1     Wed Apr 25 08:07:45 CEST 2018   EN: 2.200 GM2: 0.406  GM3: 0.0800  RAES: 1.40
     1s    -10.707211    1.230000
  6     Wed Apr 25 08:07:45 CEST 2018   EN: 2.550 GM2: 0.538  GM3: 0.1500  RAES: 3.00
     2s    -13.970922    2.096432
     2p    -10.063292    1.800000
  7     Wed Apr 25 08:07:45 CEST 2018   EN: 3.040 GM2: 0.461  GM3:-0.0640  RAES: 1.90
     2s    -16.686243    2.339881
     2p    -12.523956    2.014332
 46     Wed Apr 25 16:26:58 CEST 2018   EN: 2.200 GM2: 0.273  GM3: 0.0800  RAES: 5.00
     4d    -11.963518    2.353691
     5s     -9.714059    1.828354
     5p     -2.035281    1.333352

 Solvent             : dmso
 Using internal parameter file: .param_gbsa2_dmso
 Gsolv ref. state (COSMO-RS): gsolv [1 M gas/solution]
 temperature (mdtemp)       :    298.150000000000     
 dielectric constant        :    46.6800000000000     
 rho                        :    1.10000000000000     
 mass                       :    78.1300000000000     
 surface tension            :    15.5689454083859     
 probe radius               :   0.949087640000000     
 vdW radii scaling          :    1.00000000000000     
 Gshift (Eh)                :   5.161738145414381E-003
 c1                         :    1.63948621000000     
 soset                      :   1.179665000000000E-002
 HB correction              :  T
           ------------------------------------------------- 
          |        Self-Consistent Charge Iterations        |
           ------------------------------------------------- 

          ...................................................
          :                      SETUP                      :
          :.................................................:
          :  # basis functions                 564          :
          :  # atomic orbitals                 562          :
          :  # shells                          310          :
          :  # electrons                       568          :
          :  max. iterations                   250          :
          :  Hamiltonian                  GFN2-xTB          :
          :  restarted?                      false          :
          :  GBSA solvation                   true          :
          :  PC potential                    false          :
          :  electronic temp.          300.0000000     K    :
          :  accuracy                    1.0000000          :
          :  -> integral cutoff          0.2500000E+02      :
          :  -> integral neglect         0.1000000E-07      :
          :  -> SCF convergence          0.1000000E-05 Eh   :
          :  -> wf. convergence          0.1000000E-03 e    :
          :  Broyden damping             0.4000000          :
          ...................................................

 iter      E             dE          RMSdq      gap      omega  full diag
   1   -308.6818322 -0.308682E+03  0.616E+00    2.11       0.0  T
   2   -309.1672656 -0.485433E+00  0.409E+00    1.60       1.0  T
   3   -308.8557069  0.311559E+00  0.218E+00    1.83       1.0  T
   4   -309.3205300 -0.464823E+00  0.968E-01    1.82       1.0  T
   5   -309.4040297 -0.834997E-01  0.486E-01    1.83       1.0  T
   6   -309.4408480 -0.368182E-01  0.197E-01    1.85       1.0  T
   7   -309.4431651 -0.231717E-02  0.886E-02    1.86       1.0  T
   8   -309.4432401 -0.749861E-04  0.298E-02    1.86       1.0  T
   9   -309.4433113 -0.712087E-04  0.137E-02    1.86       1.0  T
  10   -309.4433237 -0.123849E-04  0.525E-03    1.86       1.4  T
  11   -309.4433247 -0.981371E-06  0.308E-03    1.86       2.4  T
  12   -309.4433251 -0.441839E-06  0.138E-03    1.86       5.3  T
  13   -309.4433252 -0.107116E-06  0.790E-04    1.86       9.3  T
  14   -309.4433253 -0.447640E-07  0.475E-04    1.86      15.4  T

   *** convergence criteria satisfied after 14 iterations ***

         #    Occupation            Energy/Eh            Energy/eV
      -------------------------------------------------------------
         1        2.0000           -0.7276171             -19.7995
       ...           ...                  ...                  ...
       278        2.0000           -0.3961074             -10.7786
       279        2.0000           -0.3960681             -10.7776
       280        2.0000           -0.3959702             -10.7749
       281        2.0000           -0.3864678             -10.5163
       282        2.0000           -0.3864602             -10.5161
       283        2.0000           -0.3864562             -10.5160
       284        2.0000           -0.3863894             -10.5142 (HOMO)
       285                         -0.3180661              -8.6550 (LUMO)
       286                         -0.3180554              -8.6547
       287                         -0.3152673              -8.5789
       288                         -0.3152537              -8.5785
       289                         -0.3080148              -8.3815
       ...                                ...                  ...
       562                          1.4084696              38.3264
      -------------------------------------------------------------
                  HL-Gap            0.0683234 Eh            1.8592 eV
             Fermi-level           -0.3522277 Eh           -9.5846 eV

 SCC (total)                   0 d,  0 h,  0 min,  3.412 sec
 SCC setup                      ...        0 min,  0.180 sec (  5.263%)
 Dispersion                     ...        0 min,  0.047 sec (  1.367%)
 integral evaluation            ...        0 min,  0.358 sec ( 10.479%)
 zeroth order Hamiltonian       ...        0 min,  0.004 sec (  0.122%)
 iterations                     ...        0 min,  2.468 sec ( 72.344%)
 molecular gradient             ...        0 min,  0.344 sec ( 10.079%)
 printout                       ...        0 min,  0.012 sec (  0.344%)

         :::::::::::::::::::::::::::::::::::::::::::::::::::::
         ::                     SUMMARY                     ::
         :::::::::::::::::::::::::::::::::::::::::::::::::::::
         :: total energy            -303.575265352978 Eh    ::
         :: total w/o Gsasa/hb      -303.430839700824 Eh    ::
         :: gradient norm              0.000802573430 Eh/a0 ::
         :: HOMO-LUMO gap              1.859173248910 eV    ::
         ::.................................................::
         :: SCC energy              -309.573443785692 Eh    ::
         :: -> isotropic ES            0.591212569618 Eh    ::
         :: -> anisotropic ES         -0.085515033356 Eh    ::
         :: -> anisotropic XC          0.213220542237 Eh    ::
         :: -> dispersion             -0.265028932750 Eh    ::
         :: -> Gsolv                  -0.648223747790 Eh    ::
         ::    -> Gborn               -0.503798095636 Eh    ::
         ::    -> Gsasa               -0.135280238481 Eh    ::
         ::    -> Ghb                 -0.014307151819 Eh    ::
         ::    -> Gshift               0.005161738145 Eh    ::
         :: repulsion energy           5.997809435951 Eh    ::
         :: add. restraining           0.000000000000 Eh    ::
         :::::::::::::::::::::::::::::::::::::::::::::::::::::

           ------------------------------------------------- 
          |                Numerical Hessian                |
           ------------------------------------------------- 
step length          :   0.00500
SCC accuracy         :   0.30000
Hessian scale factor :   1.00000
frozen atoms in %    :   0.00000    0
RMS gradient         :   0.00080
estimated CPU  time    149.94 min
estimated wall time     37.51 min

writing file <hessian>.

 projected vibrational frequencies (cm-1)
eigval :       -0.00    -0.00    -0.00     0.00     0.00     0.00
eigval :        4.47     5.69     6.07     7.05     9.94    13.75
eigval :       13.99    14.36    14.45    16.28    19.44    20.58
eigval :       21.71    27.08    27.21    32.75    35.30    35.46
eigval :       35.63    37.61    40.04    41.86    42.18    45.46
eigval :       49.11    49.29    53.56    54.46    54.60    68.59
eigval :       71.95    72.10    76.47    76.63    81.61    83.00
eigval :       83.95    91.59    96.03    96.22    98.65    99.53
eigval :       99.95   100.12   110.76   111.40   111.55   116.44
eigval :      127.31   130.34   130.44   133.46   133.86   134.61
eigval :      146.95   146.98   147.04   147.67   162.78   163.08
eigval :      171.59   176.89   179.70   179.83   180.11   180.58
eigval :      181.67   182.21   194.74   195.58   195.62   195.67
eigval :      196.08   198.70   211.27   211.43   216.29   216.39
eigval :      228.59   232.28   245.75   246.24   255.98   256.43
eigval :      267.81   270.59   283.31   283.33   283.60   283.66
eigval :      287.59   287.62   292.30   292.63   304.60   304.75
eigval :      307.02   307.10   307.15   307.89   336.16   336.21
eigval :      336.24   337.27   337.45   337.67   346.57   346.68
eigval :      357.68   358.31   358.44   358.60   378.85   379.00
eigval :      392.61   392.72   392.79   392.93   397.96   398.05
eigval :      430.17   430.39   430.46   430.66   432.89   432.95
eigval :      433.14   433.19   439.13   439.21   439.41   439.49
eigval :      445.29   445.38   451.27   451.47   454.31   454.77
eigval :      456.71   456.73   462.56   462.58   462.79   463.30
eigval :      481.30   481.33   482.79   483.11   491.08   491.14
eigval :      491.17   491.34   492.52   492.56   492.71   492.82
eigval :      507.50   507.62   518.55   518.62   519.42   519.50
eigval :      523.12   523.16   537.54   538.03   540.91   540.98
eigval :      563.28   563.42   565.87   565.88   569.36   569.93
eigval :      570.39   570.45   599.56   599.59   599.62   599.62
eigval :      607.76   608.37   609.70   609.70   614.07   614.47
eigval :      618.66   618.68   623.37   623.40   628.99   629.02
eigval :      632.26   633.14   633.83   633.86   666.30   666.33
eigval :      669.59   669.64   672.51   673.87   674.40   674.41
eigval :      718.54   718.54   718.58   718.69   724.81   724.86
eigval :      725.99   726.04   755.80   755.97   756.01   756.39
eigval :      770.84   771.32   775.07   775.45   778.71   778.92
eigval :      779.44   780.10   789.14   789.33   789.43   789.63
eigval :      795.96   796.02   798.76   798.76   798.98   798.99
eigval :      799.21   799.22   815.47   815.51   818.64   818.65
eigval :      838.07   838.49   840.84   840.86   844.23   844.35
eigval :      844.52   844.55   847.89   848.17   850.64   851.01
eigval :      851.04   851.34   851.95   852.03   860.09   860.17
eigval :      862.90   862.99   864.05   864.24   864.49   864.77
eigval :      877.08   877.76   882.14   882.19   887.98   888.21
eigval :      889.21   889.60   893.42   893.99   894.42   894.90
eigval :      895.35   895.52   895.64   895.67   920.22   920.23
eigval :      920.27   920.39   926.35   926.43   926.46   926.70
eigval :      930.27   930.64   930.87   930.95   933.39   933.62
eigval :      933.67   933.77   946.98   947.70   948.33   948.38
eigval :      975.26   977.02   978.71   978.75  1003.66  1004.47
eigval :     1004.48  1004.74  1045.47  1045.52  1045.54  1045.58
eigval :     1072.39  1072.68  1073.47  1073.73  1084.18  1084.18
eigval :     1084.43  1084.52  1108.79  1108.80  1109.13  1109.26
eigval :     1118.67  1118.76  1120.69  1120.78  1135.51  1135.79
eigval :     1135.84  1135.86  1141.69  1141.75  1142.03  1143.25
eigval :     1152.08  1152.12  1152.90  1156.42  1164.69  1165.39
eigval :     1165.45  1169.00  1169.95  1169.99  1170.47  1170.68
eigval :     1170.70  1170.74  1170.83  1172.63  1186.47  1186.50
eigval :     1187.06  1188.08  1205.85  1207.06  1207.13  1208.55
eigval :     1216.73  1217.56  1217.75  1218.60  1218.71  1218.90
eigval :     1219.06  1219.12  1224.45  1224.50  1224.52  1224.70
eigval :     1228.99  1229.05  1232.60  1233.65  1252.19  1252.36
eigval :     1252.36  1252.40  1285.22  1285.27  1286.55  1286.85
eigval :     1292.88  1292.89  1294.31  1295.42  1295.77  1295.78
eigval :     1296.21  1296.60  1307.44  1307.50  1307.52  1308.38
eigval :     1317.66  1317.67  1318.05  1318.15  1342.20  1342.24
eigval :     1345.25  1345.96  1368.03  1368.15  1368.29  1368.62
eigval :     1373.79  1373.83  1376.70  1376.89  1387.24  1387.26
eigval :     1387.28  1387.35  1394.08  1394.13  1394.15  1394.21
eigval :     1400.64  1400.68  1400.86  1400.89  1415.03  1415.15
eigval :     1415.19  1415.23  1421.70  1421.84  1421.85  1421.91
eigval :     1448.07  1448.10  1448.72  1448.75  1456.61  1456.62
eigval :     1457.64  1457.76  1466.21  1466.25  1467.33  1467.39
eigval :     1493.62  1493.67  1493.74  1493.84  1524.25  1524.30
eigval :     1526.00  1526.00  1535.25  1535.30  1535.43  1535.49
eigval :     1539.74  1539.78  1539.80  1539.84  1547.50  1547.52
eigval :     1547.65  1547.68  1557.31  1557.38  1558.33  1558.37
eigval :     1567.34  1567.36  1567.75  1567.76  1585.19  1585.28
eigval :     1585.29  1585.31  1593.82  1593.87  1593.91  1594.01
eigval :     2303.04  2303.31  2303.36  2303.53  2305.82  2306.07
eigval :     2306.44  2306.79  2940.81  2941.17  2944.53  2944.98
eigval :     2956.22  2956.52  2959.36  2959.71  3009.81  3009.97
eigval :     3010.34  3010.37  3012.22  3012.94  3013.40  3014.16
eigval :     3070.65  3071.05  3071.13  3071.45  3074.22  3074.46
eigval :     3074.67  3074.86  3089.59  3089.69  3090.35  3090.37
eigval :     3093.21  3093.27  3093.43  3093.53  3093.99  3094.06
eigval :     3094.09  3094.31  3094.61  3094.68  3094.80  3094.85
eigval :     3098.27  3098.44  3098.56  3099.16  3101.58  3101.65
eigval :     3101.87  3102.60  3107.14  3107.47  3107.67  3107.79
eigval :     3109.60  3109.81  3110.02  3110.47  3115.99  3116.19
eigval :     3117.15  3117.25  3118.15  3118.19  3118.42  3118.50
           -------------------------------------------------
          |                Property Printout                |
           -------------------------------------------------

    * Orbital Energies and Occupations

         #    Occupation            Energy/Eh            Energy/eV
      -------------------------------------------------------------
         1        2.0000           -0.7276114             -19.7993
       ...           ...                  ...                  ...
       272        2.0000           -0.4183923             -11.3850
       273        2.0000           -0.4183673             -11.3844
       274        2.0000           -0.4179347             -11.3726
       275        2.0000           -0.4173817             -11.3575
       276        2.0000           -0.4157557             -11.3133
       277        2.0000           -0.3961053             -10.7786
       278        2.0000           -0.3961029             -10.7785
       279        2.0000           -0.3960636             -10.7774
       280        2.0000           -0.3959657             -10.7748
       281        2.0000           -0.3864634             -10.5162
       282        2.0000           -0.3864558             -10.5160
       283        2.0000           -0.3864520             -10.5159
       284        2.0000           -0.3863851             -10.5141 (HOMO)
       285                         -0.3180606              -8.6549 (LUMO)
       286                         -0.3180499              -8.6546
       287                         -0.3152617              -8.5787
       288                         -0.3152481              -8.5783
       289                         -0.3080087              -8.3813
       290                         -0.3080010              -8.3811
       291                         -0.3049783              -8.2989
       292                         -0.3048258              -8.2947
       293                         -0.2958551              -8.0506
       294                         -0.2958475              -8.0504
       295                         -0.2932948              -7.9810
       ...                                ...                  ...
       562                          1.4084742              38.3265
      -------------------------------------------------------------
                  HL-Gap            0.0683245 Eh            1.8592 eV
             Fermi-level           -0.3522229 Eh           -9.5845 eV

     #   Z        covCN         q      C6AA      α(0)
     1  46 Pd     3.549    -0.100   275.086    34.204
     2  46 Pd     3.549    -0.099   275.085    34.204
     3   6 C      1.983    -0.024    31.692     9.091
     4   6 C      1.981    -0.036    32.030     9.140
     5   6 C      2.965     0.044    27.020     8.526
     6   6 C      2.923    -0.019    28.485     8.752
     7   6 C      2.914    -0.019    28.493     8.753
     8   6 C      2.914    -0.033    28.811     8.802
     9   6 C      2.981     0.004    27.936     8.670
    10   6 C      2.891     0.058    26.695     8.471
    11   7 N      2.667    -0.097    23.136     7.144
    12   6 C      2.923     0.042    27.066     8.532
    13   6 C      2.911    -0.028    28.694     8.784
    14   6 C      2.997     0.017    27.614     8.620
    15   1 H      0.926     0.057     2.232     2.337
    16   1 H      0.926     0.058     2.227     2.334
    17   1 H      0.926     0.071     2.071     2.250
    18   1 H      0.925     0.115     1.651     2.009
    19   1 H      0.924     0.140     1.461     1.890
    20   1 H      0.926     0.097     1.812     2.105
    21   6 C      2.968     0.037    27.158     8.548
    22   6 C      2.921    -0.029    28.715     8.787
    23   6 C      2.916    -0.033    28.816     8.803
    24   6 C      2.985     0.015    27.666     8.628
    25   6 C      2.916    -0.032    28.807     8.801
    26   6 C      2.922    -0.030    28.743     8.792
    27   6 C      2.968     0.037    27.177     8.551
    28   6 C      2.927    -0.038    28.941     8.822
    29   6 C      2.984     0.011    27.768     8.644
    30   6 C      2.929    -0.039    28.959     8.825
    31   1 H      0.926     0.037     2.484     2.465
    32   1 H      0.926     0.031     2.574     2.509
    33   1 H      0.926     0.032     2.557     2.500
    34   1 H      0.926     0.043     2.404     2.424
    35   1 H      0.926     0.076     2.020     2.223
    36   1 H      0.926     0.068     2.112     2.273
    37   6 C      1.984    -0.009    31.287     9.033
    38   6 C      1.980    -0.036    32.029     9.140
    39   6 C      2.965     0.049    26.896     8.507
    40   6 C      2.931    -0.007    28.190     8.707
    41   6 C      2.911    -0.029    28.725     8.788
    42   6 C      2.925     0.053    26.805     8.490
    43   7 N      2.667    -0.088    22.962     7.117
    44   6 C      2.901     0.048    26.927     8.508
    45   1 H      0.926     0.083     1.949     2.183
    46   1 H      0.926     0.092     1.857     2.131
    47   1 H      0.924     0.127     1.558     1.952
    48   1 H      0.925     0.132     1.519     1.927
    49   6 C      1.983    -0.024    31.692     9.091
    50   6 C      1.981    -0.036    32.030     9.140
    51   6 C      2.965     0.044    27.020     8.526
    52   6 C      2.923    -0.019    28.486     8.752
    53   6 C      2.914    -0.019    28.493     8.753
    54   6 C      2.914    -0.033    28.812     8.802
    55   6 C      2.981     0.004    27.937     8.670
    56   6 C      2.891     0.058    26.695     8.471
    57   7 N      2.667    -0.097    23.136     7.144
    58   6 C      2.923     0.042    27.066     8.532
    59   6 C      2.911    -0.028    28.693     8.784
    60   6 C      2.997     0.017    27.614     8.620
    61   1 H      0.926     0.057     2.232     2.336
    62   1 H      0.926     0.058     2.227     2.334
    63   1 H      0.926     0.071     2.071     2.250
    64   1 H      0.925     0.115     1.651     2.009
    65   1 H      0.924     0.140     1.461     1.890
    66   1 H      0.926     0.097     1.812     2.105
    67   6 C      2.968     0.037    27.158     8.548
    68   6 C      2.921    -0.029    28.715     8.787
    69   6 C      2.916    -0.033    28.816     8.803
    70   6 C      2.985     0.015    27.666     8.628
    71   6 C      2.916    -0.032    28.806     8.801
    72   6 C      2.922    -0.030    28.742     8.792
    73   6 C      2.968     0.037    27.177     8.551
    74   6 C      2.927    -0.038    28.941     8.822
    75   6 C      2.984     0.011    27.769     8.644
    76   6 C      2.929    -0.039    28.958     8.825
    77   1 H      0.926     0.037     2.484     2.465
    78   1 H      0.926     0.031     2.574     2.509
    79   1 H      0.926     0.032     2.557     2.500
    80   1 H      0.926     0.043     2.404     2.425
    81   1 H      0.926     0.076     2.020     2.223
    82   1 H      0.926     0.068     2.113     2.273
    83   6 C      1.984    -0.009    31.287     9.033
    84   6 C      1.980    -0.036    32.029     9.139
    85   6 C      2.965     0.049    26.896     8.507
    86   6 C      2.931    -0.007    28.190     8.707
    87   6 C      2.911    -0.029    28.725     8.788
    88   6 C      2.925     0.053    26.804     8.490
    89   7 N      2.667    -0.088    22.964     7.117
    90   6 C      2.901     0.048    26.927     8.508
    91   1 H      0.926     0.083     1.949     2.183
    92   1 H      0.926     0.092     1.857     2.131
    93   1 H      0.924     0.127     1.558     1.952
    94   1 H      0.925     0.132     1.519     1.927
    95   6 C      1.983    -0.024    31.692     9.091
    96   6 C      1.981    -0.036    32.030     9.140
    97   6 C      2.965     0.044    27.020     8.526
    98   6 C      2.923    -0.019    28.485     8.752
    99   6 C      2.914    -0.019    28.493     8.753
   100   6 C      2.914    -0.033    28.811     8.802
   101   6 C      2.981     0.004    27.936     8.670
   102   6 C      2.891     0.058    26.694     8.471
   103   7 N      2.666    -0.097    23.143     7.145
   104   6 C      2.923     0.042    27.066     8.532
   105   6 C      2.911    -0.028    28.694     8.784
   106   6 C      2.997     0.017    27.614     8.620
   107   1 H      0.926     0.057     2.232     2.336
   108   1 H      0.926     0.058     2.227     2.334
   109   1 H      0.926     0.071     2.071     2.250
   110   1 H      0.925     0.115     1.651     2.009
   111   1 H      0.924     0.140     1.461     1.890
   112   1 H      0.926     0.097     1.812     2.105
   113   6 C      2.968     0.037    27.158     8.548
   114   6 C      2.921    -0.029    28.714     8.787
   115   6 C      2.916    -0.033    28.815     8.803
   116   6 C      2.985     0.015    27.666     8.628
   117   6 C      2.916    -0.032    28.806     8.801
   118   6 C      2.922    -0.030    28.743     8.792
   119   6 C      2.968     0.037    27.177     8.551
   120   6 C      2.927    -0.038    28.941     8.822
   121   6 C      2.984     0.011    27.769     8.644
   122   6 C      2.929    -0.039    28.959     8.825
   123   1 H      0.926     0.037     2.484     2.465
   124   1 H      0.926     0.031     2.574     2.509
   125   1 H      0.926     0.032     2.557     2.501
   126   1 H      0.926     0.043     2.403     2.424
   127   1 H      0.926     0.076     2.020     2.222
   128   1 H      0.926     0.068     2.112     2.273
   129   6 C      1.984    -0.009    31.287     9.033
   130   6 C      1.980    -0.036    32.029     9.139
   131   6 C      2.965     0.049    26.897     8.507
   132   6 C      2.931    -0.007    28.189     8.707
   133   6 C      2.911    -0.029    28.725     8.788
   134   6 C      2.925     0.053    26.804     8.490
   135   7 N      2.667    -0.088    22.972     7.118
   136   6 C      2.901     0.048    26.926     8.508
   137   1 H      0.926     0.083     1.948     2.183
   138   1 H      0.926     0.092     1.857     2.131
   139   1 H      0.925     0.127     1.559     1.952
   140   1 H      0.925     0.132     1.519     1.928
   141   6 C      1.983    -0.024    31.692     9.091
   142   6 C      1.981    -0.036    32.030     9.140
   143   6 C      2.965     0.044    27.020     8.526
   144   6 C      2.923    -0.019    28.485     8.752
   145   6 C      2.914    -0.019    28.493     8.753
   146   6 C      2.914    -0.033    28.811     8.802
   147   6 C      2.981     0.004    27.937     8.670
   148   6 C      2.891     0.058    26.693     8.471
   149   7 N      2.666    -0.097    23.142     7.145
   150   6 C      2.923     0.042    27.066     8.532
   151   6 C      2.911    -0.028    28.694     8.784
   152   6 C      2.997     0.017    27.614     8.620
   153   1 H      0.926     0.057     2.232     2.336
   154   1 H      0.926     0.058     2.227     2.334
   155   1 H      0.926     0.071     2.071     2.250
   156   1 H      0.925     0.115     1.651     2.009
   157   1 H      0.924     0.140     1.461     1.890
   158   1 H      0.926     0.097     1.812     2.105
   159   6 C      2.968     0.037    27.158     8.548
   160   6 C      2.921    -0.029    28.715     8.787
   161   6 C      2.916    -0.033    28.816     8.803
   162   6 C      2.985     0.015    27.666     8.628
   163   6 C      2.916    -0.032    28.806     8.801
   164   6 C      2.922    -0.030    28.743     8.792
   165   6 C      2.968     0.037    27.177     8.551
   166   6 C      2.927    -0.038    28.940     8.822
   167   6 C      2.984     0.011    27.769     8.644
   168   6 C      2.929    -0.039    28.959     8.825
   169   1 H      0.926     0.037     2.484     2.465
   170   1 H      0.926     0.031     2.574     2.509
   171   1 H      0.926     0.032     2.557     2.500
   172   1 H      0.926     0.043     2.404     2.424
   173   1 H      0.926     0.076     2.020     2.223
   174   1 H      0.926     0.068     2.112     2.273
   175   6 C      1.984    -0.009    31.287     9.033
   176   6 C      1.980    -0.036    32.029     9.140
   177   6 C      2.965     0.049    26.896     8.507
   178   6 C      2.931    -0.007    28.190     8.707
   179   6 C      2.911    -0.029    28.725     8.789
   180   6 C      2.925     0.053    26.804     8.490
   181   7 N      2.667    -0.088    22.971     7.118
   182   6 C      2.901     0.048    26.926     8.508
   183   1 H      0.926     0.083     1.948     2.183
   184   1 H      0.926     0.092     1.856     2.131
   185   1 H      0.924     0.127     1.559     1.952
   186   1 H      0.925     0.132     1.519     1.928

 Mol. C6AA /au·bohr⁶  :     576718.162176
 Mol. C8AA /au·bohr⁸  :   16183461.028493
 Mol. α(0) /au        :       1245.567101


Wiberg/Mayer (AO) data.
largest (>0.10) Wiberg bond orders for each atom
          total WBO             WBO to atom ...
     1  Pd  3.534        N   57 0.595    N  149 0.595    N   43 0.593    N  135 0.593
     2  Pd  3.535        N   11 0.595    N  103 0.595    N   89 0.593    N  181 0.593
     3  C   3.945        C    4 2.638    C   21 1.135
     4  C   3.951        C    3 2.638    C    5 1.144
     5  C   3.987        C    6 1.436    C   14 1.215    C    4 1.144
     6  C   3.963        C    5 1.436    C    7 1.350    H   15 0.969
     7  C   3.987        C    8 1.531    C    6 1.350    H   16 0.968
     8  C   3.940        C    7 1.531    C    9 1.273    H   17 0.965
     9  C   3.987        C   10 1.288    C    8 1.273    C   14 1.236
    10  C   3.963        N   11 1.452    C    9 1.288    H   18 0.920    C   13 0.103
    11  N   3.537        C   10 1.452    C   12 1.236    Pd   2 0.595
    12  C   3.963        C   13 1.547    N   11 1.236    H   19 0.891
    13  C   3.981        C   12 1.547    C   14 1.292    H   20 0.956    C   10 0.103
    14  C   3.980        C   13 1.292    C    9 1.236    C    5 1.215
    15  H   0.996        C    6 0.969
    16  H   0.995        C    7 0.968
    17  H   0.994        C    8 0.965
    18  H   0.985        C   10 0.920
    19  H   0.979        C   12 0.891
    20  H   0.989        C   13 0.956
    21  C   3.988        C   30 1.453    C   22 1.246    C    3 1.135
    22  C   3.969        C   23 1.574    C   21 1.246    H   31 0.970
    23  C   3.990        C   22 1.574    C   24 1.275    H   32 0.968    C   30 0.104
    24  C   3.950        C   23 1.275    C   25 1.275    C   29 1.237
    25  C   3.990        C   26 1.574    C   24 1.275    H   33 0.967    C   28 0.104
    26  C   3.969        C   25 1.574    C   27 1.243    H   34 0.970
    27  C   3.987        C   28 1.453    C   26 1.243    C   37 1.137
    28  C   3.952        C   27 1.453    C   29 1.291    H   35 0.963    C   25 0.104
    29  C   3.989        C   28 1.291    C   30 1.291    C   24 1.237
    30  C   3.951        C   21 1.453    C   29 1.291    H   36 0.965    C   23 0.104
    31  H   0.998        C   22 0.970
    32  H   0.997        C   23 0.968
    33  H   0.997        C   25 0.967
    34  H   0.998        C   26 0.970
    35  H   0.994        C   28 0.963
    36  H   0.995        C   30 0.965
    37  C   3.947        C   38 2.639    C   27 1.137
    38  C   3.949        C   37 2.639    C   39 1.142
    39  C   3.985        C   44 1.345    C   40 1.338    C   38 1.142
    40  C   3.964        C   41 1.454    C   39 1.338    H   45 0.964
    41  C   3.981        C   40 1.454    C   42 1.425    H   46 0.961
    42  C   3.930        C   41 1.425    N   43 1.338    H   47 0.900
    43  N   3.542        C   44 1.373    C   42 1.338    Pd   1 0.593
    44  C   3.948        N   43 1.373    C   39 1.345    H   48 0.916
    45  H   0.991        C   40 0.964
    46  H   0.990        C   41 0.961
    47  H   0.983        C   42 0.900
    48  H   0.982        C   44 0.916
    49  C   3.945        C   50 2.638    C   67 1.135
    50  C   3.951        C   49 2.638    C   51 1.144
    51  C   3.987        C   52 1.436    C   60 1.215    C   50 1.144
    52  C   3.963        C   51 1.436    C   53 1.350    H   61 0.969
    53  C   3.987        C   54 1.531    C   52 1.350    H   62 0.968
    54  C   3.940        C   53 1.531    C   55 1.273    H   63 0.965
    55  C   3.987        C   56 1.288    C   54 1.273    C   60 1.236
    56  C   3.963        N   57 1.452    C   55 1.288    H   64 0.920    C   59 0.103
    57  N   3.537        C   56 1.452    C   58 1.236    Pd   1 0.595
    58  C   3.963        C   59 1.547    N   57 1.236    H   65 0.891
    59  C   3.981        C   58 1.547    C   60 1.292    H   66 0.956    C   56 0.103
    60  C   3.980        C   59 1.292    C   55 1.236    C   51 1.215
    61  H   0.996        C   52 0.969
    62  H   0.995        C   53 0.968
    63  H   0.994        C   54 0.965
    64  H   0.985        C   56 0.920
    65  H   0.979        C   58 0.891
    66  H   0.989        C   59 0.956
    67  C   3.988        C   76 1.453    C   68 1.246    C   49 1.135
    68  C   3.969        C   69 1.574    C   67 1.246    H   77 0.970
    69  C   3.990        C   68 1.574    C   70 1.275    H   78 0.968    C   76 0.104
    70  C   3.950        C   69 1.275    C   71 1.275    C   75 1.237
    71  C   3.990        C   72 1.575    C   70 1.275    H   79 0.967    C   74 0.104
    72  C   3.969        C   71 1.575    C   73 1.243    H   80 0.970
    73  C   3.987        C   74 1.453    C   72 1.243    C   83 1.137
    74  C   3.952        C   73 1.453    C   75 1.291    H   81 0.963    C   71 0.104
    75  C   3.989        C   74 1.291    C   76 1.291    C   70 1.237
    76  C   3.951        C   67 1.453    C   75 1.291    H   82 0.965    C   69 0.104
    77  H   0.998        C   68 0.970
    78  H   0.997        C   69 0.968
    79  H   0.997        C   71 0.967
    80  H   0.998        C   72 0.970
    81  H   0.994        C   74 0.963
    82  H   0.995        C   76 0.965
    83  C   3.947        C   84 2.640    C   73 1.137
    84  C   3.949        C   83 2.640    C   85 1.142
    85  C   3.985        C   90 1.345    C   86 1.338    C   84 1.142
    86  C   3.964        C   87 1.454    C   85 1.338    H   91 0.964
    87  C   3.981        C   86 1.454    C   88 1.425    H   92 0.961
    88  C   3.931        C   87 1.425    N   89 1.338    H   93 0.900
    89  N   3.542        C   90 1.373    C   88 1.338    Pd   2 0.593
    90  C   3.948        N   89 1.373    C   85 1.345    H   94 0.916
    91  H   0.991        C   86 0.964
    92  H   0.990        C   87 0.961
    93  H   0.983        C   88 0.900
    94  H   0.982        C   90 0.916
    95  C   3.945        C   96 2.638    C  113 1.135
    96  C   3.951        C   95 2.638    C   97 1.143
    97  C   3.987        C   98 1.436    C  106 1.215    C   96 1.143
    98  C   3.963        C   97 1.436    C   99 1.350    H  107 0.969
    99  C   3.987        C  100 1.531    C   98 1.350    H  108 0.968
   100  C   3.940        C   99 1.531    C  101 1.273    H  109 0.965
   101  C   3.987        C  102 1.288    C  100 1.273    C  106 1.236
   102  C   3.963        N  103 1.452    C  101 1.288    H  110 0.920    C  105 0.103
   103  N   3.536        C  102 1.452    C  104 1.236    Pd   2 0.595
   104  C   3.963        C  105 1.547    N  103 1.236    H  111 0.891
   105  C   3.981        C  104 1.547    C  106 1.292    H  112 0.956    C  102 0.103
   106  C   3.980        C  105 1.292    C  101 1.236    C   97 1.215
   107  H   0.996        C   98 0.969
   108  H   0.995        C   99 0.968
   109  H   0.994        C  100 0.965
   110  H   0.985        C  102 0.920
   111  H   0.979        C  104 0.891
   112  H   0.989        C  105 0.956
   113  C   3.988        C  122 1.453    C  114 1.246    C   95 1.135
   114  C   3.969        C  115 1.574    C  113 1.246    H  123 0.970
   115  C   3.990        C  114 1.574    C  116 1.275    H  124 0.967    C  122 0.104
   116  C   3.950        C  115 1.275    C  117 1.275    C  121 1.237
   117  C   3.990        C  118 1.574    C  116 1.275    H  125 0.967    C  120 0.104
   118  C   3.969        C  117 1.574    C  119 1.244    H  126 0.970
   119  C   3.987        C  120 1.453    C  118 1.244    C  129 1.137
   120  C   3.952        C  119 1.453    C  121 1.292    H  127 0.963    C  117 0.104
   121  C   3.989        C  120 1.292    C  122 1.291    C  116 1.237
   122  C   3.951        C  113 1.453    C  121 1.291    H  128 0.965    C  115 0.104
   123  H   0.998        C  114 0.970
   124  H   0.997        C  115 0.967
   125  H   0.997        C  117 0.967
   126  H   0.998        C  118 0.970
   127  H   0.994        C  120 0.963
   128  H   0.995        C  122 0.965
   129  C   3.947        C  130 2.639    C  119 1.137
   130  C   3.949        C  129 2.639    C  131 1.142
   131  C   3.985        C  136 1.345    C  132 1.338    C  130 1.142
   132  C   3.964        C  133 1.454    C  131 1.338    H  137 0.964
   133  C   3.981        C  132 1.454    C  134 1.425    H  138 0.961
   134  C   3.930        C  133 1.425    N  135 1.338    H  139 0.900
   135  N   3.542        C  136 1.373    C  134 1.338    Pd   1 0.593
   136  C   3.948        N  135 1.373    C  131 1.345    H  140 0.916
   137  H   0.991        C  132 0.964
   138  H   0.990        C  133 0.961
   139  H   0.983        C  134 0.900
   140  H   0.982        C  136 0.916
   141  C   3.945        C  142 2.638    C  159 1.135
   142  C   3.950        C  141 2.638    C  143 1.144
   143  C   3.987        C  144 1.437    C  152 1.215    C  142 1.144
   144  C   3.963        C  143 1.437    C  145 1.350    H  153 0.969
   145  C   3.987        C  146 1.531    C  144 1.350    H  154 0.968
   146  C   3.940        C  145 1.531    C  147 1.273    H  155 0.965
   147  C   3.987        C  148 1.288    C  146 1.273    C  152 1.236
   148  C   3.963        N  149 1.452    C  147 1.288    H  156 0.920    C  151 0.103
   149  N   3.536        C  148 1.452    C  150 1.236    Pd   1 0.595
   150  C   3.963        C  151 1.547    N  149 1.236    H  157 0.891
   151  C   3.981        C  150 1.547    C  152 1.292    H  158 0.956    C  148 0.103
   152  C   3.980        C  151 1.292    C  147 1.236    C  143 1.215
   153  H   0.996        C  144 0.969
   154  H   0.995        C  145 0.968
   155  H   0.994        C  146 0.965
   156  H   0.985        C  148 0.920
   157  H   0.979        C  150 0.891
   158  H   0.989        C  151 0.956
   159  C   3.988        C  168 1.453    C  160 1.246    C  141 1.135
   160  C   3.969        C  161 1.574    C  159 1.246    H  169 0.970
   161  C   3.990        C  160 1.574    C  162 1.275    H  170 0.968    C  168 0.104
   162  C   3.950        C  161 1.275    C  163 1.275    C  167 1.237
   163  C   3.990        C  164 1.574    C  162 1.275    H  171 0.967    C  166 0.104
   164  C   3.969        C  163 1.574    C  165 1.243    H  172 0.970
   165  C   3.987        C  166 1.453    C  164 1.243    C  175 1.137
   166  C   3.952        C  165 1.453    C  167 1.292    H  173 0.963    C  163 0.104
   167  C   3.989        C  166 1.292    C  168 1.291    C  162 1.237
   168  C   3.951        C  159 1.453    C  167 1.291    H  174 0.965    C  161 0.104
   169  H   0.998        C  160 0.970
   170  H   0.997        C  161 0.968
   171  H   0.997        C  163 0.967
   172  H   0.998        C  164 0.970
   173  H   0.994        C  166 0.963
   174  H   0.995        C  168 0.965
   175  C   3.947        C  176 2.639    C  165 1.137
   176  C   3.949        C  175 2.639    C  177 1.142
   177  C   3.985        C  182 1.345    C  178 1.338    C  176 1.142
   178  C   3.964        C  179 1.454    C  177 1.338    H  183 0.964
   179  C   3.981        C  178 1.454    C  180 1.425    H  184 0.961
   180  C   3.930        C  179 1.425    N  181 1.338    H  185 0.900
   181  N   3.542        C  182 1.373    C  180 1.338    Pd   2 0.593
   182  C   3.948        N  181 1.373    C  177 1.345    H  186 0.916
   183  H   0.991        C  178 0.964
   184  H   0.990        C  179 0.961
   185  H   0.983        C  180 0.900
   186  H   0.982        C  182 0.916

molecular dipole:
                 x           y           z       tot (Debye)
 q only:        0.599     -10.093      -0.079
   full:        0.593     -10.094      -0.083      25.701
molecular quadrupole (traceless):
                xx          xy          yy          xz          yz          zz
 q only:     -262.561     -28.981     526.392       2.618      -7.148    -263.831
  q+dip:     -278.995     -30.705     559.436       3.761      -7.602    -280.441
   full:     -262.064     -28.905     525.457       3.202      -7.104    -263.393

           -------------------------------------------------
          |               Frequency Printout                |
           -------------------------------------------------
 projected vibrational frequencies (cm-1)
eigval :       -0.00    -0.00    -0.00     0.00     0.00     0.00
eigval :        4.47     5.69     6.07     7.05     9.94    13.75
eigval :       13.99    14.36    14.45    16.28    19.44    20.58
eigval :       21.71    27.08    27.21    32.75    35.30    35.46
eigval :       35.63    37.61    40.04    41.86    42.18    45.46
eigval :       49.11    49.29    53.56    54.46    54.60    68.59
eigval :       71.95    72.10    76.47    76.63    81.61    83.00
eigval :       83.95    91.59    96.03    96.22    98.65    99.53
eigval :       99.95   100.12   110.76   111.40   111.55   116.44
eigval :      127.31   130.34   130.44   133.46   133.86   134.61
eigval :      146.95   146.98   147.04   147.67   162.78   163.08
eigval :      171.59   176.89   179.70   179.83   180.11   180.58
eigval :      181.67   182.21   194.74   195.58   195.62   195.67
eigval :      196.08   198.70   211.27   211.43   216.29   216.39
eigval :      228.59   232.28   245.75   246.24   255.98   256.43
eigval :      267.81   270.59   283.31   283.33   283.60   283.66
eigval :      287.59   287.62   292.30   292.63   304.60   304.75
eigval :      307.02   307.10   307.15   307.89   336.16   336.21
eigval :      336.24   337.27   337.45   337.67   346.57   346.68
eigval :      357.68   358.31   358.44   358.60   378.85   379.00
eigval :      392.61   392.72   392.79   392.93   397.96   398.05
eigval :      430.17   430.39   430.46   430.66   432.89   432.95
eigval :      433.14   433.19   439.13   439.21   439.41   439.49
eigval :      445.29   445.38   451.27   451.47   454.31   454.77
eigval :      456.71   456.73   462.56   462.58   462.79   463.30
eigval :      481.30   481.33   482.79   483.11   491.08   491.14
eigval :      491.17   491.34   492.52   492.56   492.71   492.82
eigval :      507.50   507.62   518.55   518.62   519.42   519.50
eigval :      523.12   523.16   537.54   538.03   540.91   540.98
eigval :      563.28   563.42   565.87   565.88   569.36   569.93
eigval :      570.39   570.45   599.56   599.59   599.62   599.62
eigval :      607.76   608.37   609.70   609.70   614.07   614.47
eigval :      618.66   618.68   623.37   623.40   628.99   629.02
eigval :      632.26   633.14   633.83   633.86   666.30   666.33
eigval :      669.59   669.64   672.51   673.87   674.40   674.41
eigval :      718.54   718.54   718.58   718.69   724.81   724.86
eigval :      725.99   726.04   755.80   755.97   756.01   756.39
eigval :      770.84   771.32   775.07   775.45   778.71   778.92
eigval :      779.44   780.10   789.14   789.33   789.43   789.63
eigval :      795.96   796.02   798.76   798.76   798.98   798.99
eigval :      799.21   799.22   815.47   815.51   818.64   818.65
eigval :      838.07   838.49   840.84   840.86   844.23   844.35
eigval :      844.52   844.55   847.89   848.17   850.64   851.01
eigval :      851.04   851.34   851.95   852.03   860.09   860.17
eigval :      862.90   862.99   864.05   864.24   864.49   864.77
eigval :      877.08   877.76   882.14   882.19   887.98   888.21
eigval :      889.21   889.60   893.42   893.99   894.42   894.90
eigval :      895.35   895.52   895.64   895.67   920.22   920.23
eigval :      920.27   920.39   926.35   926.43   926.46   926.70
eigval :      930.27   930.64   930.87   930.95   933.39   933.62
eigval :      933.67   933.77   946.98   947.70   948.33   948.38
eigval :      975.26   977.02   978.71   978.75  1003.66  1004.47
eigval :     1004.48  1004.74  1045.47  1045.52  1045.54  1045.58
eigval :     1072.39  1072.68  1073.47  1073.73  1084.18  1084.18
eigval :     1084.43  1084.52  1108.79  1108.80  1109.13  1109.26
eigval :     1118.67  1118.76  1120.69  1120.78  1135.51  1135.79
eigval :     1135.84  1135.86  1141.69  1141.75  1142.03  1143.25
eigval :     1152.08  1152.12  1152.90  1156.42  1164.69  1165.39
eigval :     1165.45  1169.00  1169.95  1169.99  1170.47  1170.68
eigval :     1170.70  1170.74  1170.83  1172.63  1186.47  1186.50
eigval :     1187.06  1188.08  1205.85  1207.06  1207.13  1208.55
eigval :     1216.73  1217.56  1217.75  1218.60  1218.71  1218.90
eigval :     1219.06  1219.12  1224.45  1224.50  1224.52  1224.70
eigval :     1228.99  1229.05  1232.60  1233.65  1252.19  1252.36
eigval :     1252.36  1252.40  1285.22  1285.27  1286.55  1286.85
eigval :     1292.88  1292.89  1294.31  1295.42  1295.77  1295.78
eigval :     1296.21  1296.60  1307.44  1307.50  1307.52  1308.38
eigval :     1317.66  1317.67  1318.05  1318.15  1342.20  1342.24
eigval :     1345.25  1345.96  1368.03  1368.15  1368.29  1368.62
eigval :     1373.79  1373.83  1376.70  1376.89  1387.24  1387.26
eigval :     1387.28  1387.35  1394.08  1394.13  1394.15  1394.21
eigval :     1400.64  1400.68  1400.86  1400.89  1415.03  1415.15
eigval :     1415.19  1415.23  1421.70  1421.84  1421.85  1421.91
eigval :     1448.07  1448.10  1448.72  1448.75  1456.61  1456.62
eigval :     1457.64  1457.76  1466.21  1466.25  1467.33  1467.39
eigval :     1493.62  1493.67  1493.74  1493.84  1524.25  1524.30
eigval :     1526.00  1526.00  1535.25  1535.30  1535.43  1535.49
eigval :     1539.74  1539.78  1539.80  1539.84  1547.50  1547.52
eigval :     1547.65  1547.68  1557.31  1557.38  1558.33  1558.37
eigval :     1567.34  1567.36  1567.75  1567.76  1585.19  1585.28
eigval :     1585.29  1585.31  1593.82  1593.87  1593.91  1594.01
eigval :     2303.04  2303.31  2303.36  2303.53  2305.82  2306.07
eigval :     2306.44  2306.79  2940.81  2941.17  2944.53  2944.98
eigval :     2956.22  2956.52  2959.36  2959.71  3009.81  3009.97
eigval :     3010.34  3010.37  3012.22  3012.94  3013.40  3014.16
eigval :     3070.65  3071.05  3071.13  3071.45  3074.22  3074.46
eigval :     3074.67  3074.86  3089.59  3089.69  3090.35  3090.37
eigval :     3093.21  3093.27  3093.43  3093.53  3093.99  3094.06
eigval :     3094.09  3094.31  3094.61  3094.68  3094.80  3094.85
eigval :     3098.27  3098.44  3098.56  3099.16  3101.58  3101.65
eigval :     3101.87  3102.60  3107.14  3107.47  3107.67  3107.79
eigval :     3109.60  3109.81  3110.02  3110.47  3115.99  3116.19
eigval :     3117.15  3117.25  3118.15  3118.19  3118.42  3118.50
 reduced masses (amu)
   1: 20.10   2: 22.73   3: 21.98   4: 16.21   5: 22.63   6: 22.96   7: 11.42   8: 16.09
   9: 16.18  10: 11.41  11: 11.07  12: 14.54  13: 13.63  14: 18.14  15: 17.58  16: 22.68
  17: 11.24  18: 24.30  19: 10.90  20: 14.18  21: 14.20  22: 10.33  23: 10.67  24: 10.55
  25: 10.66  26: 30.35  27: 10.51  28: 10.78  29: 10.79  30: 10.94  31: 15.80  32: 15.84
  33: 11.23  34: 11.36  35: 13.54  36: 24.51  37: 11.33  38: 11.37  39: 14.42  40: 14.40
  41: 10.82  42: 14.74  43: 11.02  44: 18.77  45: 12.71  46: 12.60  47: 10.79  48: 11.15
  49: 14.80  50: 14.24  51: 12.26  52: 12.32  53: 12.31  54: 12.06  55: 11.86  56: 13.19
  57: 13.18  58: 11.11  59: 12.74  60: 11.02  61: 10.47  62: 10.47  63: 10.47  64: 10.37
  65: 18.16  66: 18.13  67: 12.24  68: 13.36  69: 11.68  70: 11.60  71: 11.09  72: 10.78
  73: 19.44  74: 19.77  75: 19.05  76: 10.46  77: 10.48  78: 10.47  79: 10.53  80: 19.59
  81: 23.44  82: 23.41  83: 11.21  84: 11.21  85: 37.74  86: 39.71  87: 28.31  88: 27.41
  89: 42.16  90: 41.32  91: 22.75  92: 25.52  93: 27.44  94: 26.54  95: 10.59  96: 11.61
  97: 14.10  98: 14.14  99: 10.47 100: 10.53 101: 28.32 102: 28.85 103: 16.36 104: 12.24
 105: 16.86 106: 12.22 107: 10.88 108: 12.29 109: 12.45 110: 10.21 111: 10.58 112: 10.51
 113: 13.91 114: 13.98 115: 10.83 116: 10.95 117: 10.94 118: 10.85 119:  9.97 120:  9.98
 121:  9.53 122:  9.53 123:  9.51 124:  9.51 125: 13.30 126: 13.30 127: 10.82 128: 10.83
 129: 10.82 130: 10.83 131: 11.67 132: 11.67 133: 11.67 134: 11.66 135:  8.57 136:  8.56
 137:  8.59 138:  8.57 139: 10.24 140: 10.23 141: 11.48 142: 11.49 143: 11.66 144: 11.64
 145: 11.64 146: 11.65 147: 11.50 148: 11.50 149: 11.49 150: 11.45 151: 11.99 152: 11.99
 153: 11.46 154: 11.47 155: 11.46 156: 11.70 157: 11.71 158: 11.44 159: 11.21 160: 11.20
 161: 11.21 162: 11.23 163: 11.09 164: 11.09 165: 11.50 166: 11.49 167: 11.47 168: 11.47
 169: 12.90 170: 12.90 171: 10.82 172: 10.83 173: 11.19 174: 11.18 175: 11.59 176: 11.59
 177: 12.46 178: 12.47 179: 11.25 180: 11.26 181: 11.34 182: 11.34 183: 11.44 184: 11.45
 185: 11.46 186: 11.46 187: 10.08 188: 10.05 189:  9.87 190:  9.86 191: 10.09 192: 10.06
 193: 10.64 194: 10.65 195: 11.85 196: 11.85 197: 12.40 198: 12.40 199: 11.30 200: 11.31
 201: 11.76 202: 11.76 203:  9.35 204:  9.36 205:  9.56 206:  9.57 207: 11.45 208: 11.47
 209: 11.60 210: 11.60 211: 11.28 212: 11.28 213: 11.28 214: 11.27 215: 10.63 216: 10.65
 217: 10.79 218: 10.80 219: 11.32 220: 11.38 221: 11.38 222: 11.35 223:  4.79 224:  4.84
 225:  4.80 226:  4.79 227:  4.28 228:  4.27 229:  4.22 230:  4.30 231:  4.61 232:  4.62
 233:  4.62 234:  4.61 235: 11.15 236: 11.14 237: 10.81 238: 10.81 239: 10.65 240: 10.66
 241: 11.08 242: 11.08 243:  3.74 244:  3.74 245:  3.77 246:  3.78 247: 11.54 248: 11.55
 249: 11.64 250: 11.64 251:  4.72 252:  4.69 253:  4.70 254:  4.72 255:  4.34 256:  4.38
 257:  3.50 258:  3.55 259:  3.56 260:  3.56 261:  3.98 262:  4.05 263:  4.39 264:  4.39
 265:  4.08 266:  4.09 267:  3.96 268:  3.95 269:  3.95 270:  3.96 271: 11.05 272: 11.06
 273: 11.16 274: 11.17 275:  3.77 276:  3.77 277:  3.77 278:  3.77 279:  3.45 280:  3.47
 281:  3.39 282:  3.52 283:  4.05 284:  3.92 285:  4.04 286:  4.04 287:  3.35 288:  3.34
 289:  3.34 290:  3.34 291:  3.51 292:  3.51 293:  3.51 294:  3.51 295:  3.81 296:  3.80
 297:  3.80 298:  3.80 299:  3.69 300:  3.69 301:  3.69 302:  3.69 303: 10.61 304: 10.59
 305: 10.62 306: 10.62 307: 10.34 308: 10.27 309: 10.25 310: 10.25 311: 10.13 312: 10.30
 313: 10.30 314: 10.05 315:  9.09 316:  9.21 317:  9.08 318:  9.21 319:  7.29 320:  7.29
 321:  7.28 322:  7.28 323:  6.65 324:  6.65 325:  6.71 326:  6.71 327:  5.99 328:  6.00
 329:  6.00 330:  6.00 331:  3.64 332:  3.64 333:  3.64 334:  3.64 335:  5.90 336:  5.97
 337:  5.98 338:  5.98 339:  4.48 340:  4.49 341:  4.62 342:  4.67 343:  3.59 344:  3.59
 345:  3.59 346:  3.53 347:  3.95 348:  2.73 349:  2.74 350:  3.59 351:  4.25 352:  4.22
 353:  2.95 354:  1.83 355:  1.83 356:  1.94 357:  1.89 358:  3.06 359:  3.14 360:  3.14
 361:  3.11 362:  3.25 363:  5.17 364:  5.30 365:  5.31 366:  5.50 367:  4.16 368:  4.80
 369:  4.79 370:  7.19 371:  7.20 372:  6.70 373:  6.55 374:  6.30 375:  6.74 376:  6.69
 377:  6.70 378:  7.17 379:  3.54 380:  3.51 381:  3.15 382:  3.53 383:  4.07 384:  4.07
 385:  4.07 386:  4.07 387:  7.53 388:  7.53 389:  7.62 390:  7.57 391: 11.18 392: 11.18
 393:  9.74 394:  9.40 395:  9.34 396:  9.32 397: 10.97 398: 10.85 399:  9.15 400:  9.13
 401:  9.12 402:  8.93 403: 10.07 404: 10.07 405: 10.12 406: 10.08 407:  9.98 408:  9.97
 409:  9.97 410:  9.88 411:  9.90 412: 10.08 413: 10.08 414:  9.83 415: 10.18 416: 10.18
 417: 10.25 418: 10.20 419: 10.76 420: 10.66 421: 10.76 422: 10.68 423: 10.12 424: 10.13
 425: 10.13 426: 10.12 427: 11.29 428: 11.29 429: 11.35 430: 11.33 431: 10.55 432: 10.53
 433: 10.53 434: 10.53 435: 10.21 436: 10.16 437: 10.16 438: 10.16 439: 11.01 440: 11.01
 441: 11.03 442: 11.04 443: 11.09 444: 11.09 445: 11.10 446: 11.08 447: 11.44 448: 11.45
 449: 11.47 450: 11.46 451: 10.75 452: 10.75 453: 10.76 454: 10.76 455: 11.54 456: 11.54
 457: 11.56 458: 11.56 459: 11.67 460: 11.67 461: 11.68 462: 11.67 463: 11.66 464: 11.66
 465: 11.66 466: 11.67 467: 11.70 468: 11.69 469: 11.71 470: 11.72 471: 11.71 472: 11.70
 473: 11.65 474: 11.65 475: 11.52 476: 11.52 477: 11.54 478: 11.54 479: 11.53 480: 11.53
 481: 11.53 482: 11.53 483: 11.51 484: 11.51 485: 11.51 486: 11.51 487: 12.01 488: 12.01
 489: 12.01 490: 12.01 491: 12.01 492: 12.01 493: 12.01 494: 12.01 495:  1.86 496:  1.86
 497:  1.86 498:  1.86 499:  1.86 500:  1.86 501:  1.85 502:  1.85 503:  1.84 504:  1.84
 505:  1.84 506:  1.84 507:  1.85 508:  1.85 509:  1.84 510:  1.85 511:  1.80 512:  1.80
 513:  1.80 514:  1.80 515:  1.79 516:  1.79 517:  1.78 518:  1.79 519:  1.87 520:  1.87
 521:  1.87 522:  1.87 523:  1.78 524:  1.78 525:  1.78 526:  1.87 527:  1.86 528:  1.86
 529:  1.78 530:  1.86 531:  1.83 532:  1.83 533:  1.83 534:  1.83 535:  1.83 536:  1.83
 537:  1.83 538:  1.83 539:  1.84 540:  1.84 541:  1.84 542:  1.84 543:  1.81 544:  1.81
 545:  1.81 546:  1.81 547:  1.90 548:  1.90 549:  1.90 550:  1.90 551:  1.85 552:  1.85
 553:  1.85 554:  1.85 555:  1.90 556:  1.90 557:  1.90 558:  1.90
 IR intensities (amu)
   1:  0.45   2:  0.72   3:  0.43   4:  0.42   5:  0.20   6:  0.54   7:  0.02   8:  0.59
   9:  0.60  10:  0.09  11:  0.02  12:  0.19  13:  0.18  14:  0.04  15:  0.04  16:  0.00
  17:  0.01  18:  0.00  19:  0.01  20:  0.21  21:  0.21  22:  0.00  23:  0.01  24:  0.01
  25:  0.01  26:  0.02  27:  0.00  28:  0.03  29:  0.03  30:  0.00  31:  0.22  32:  0.23
  33:  0.03  34:  0.01  35:  0.11  36:  0.00  37:  0.06  38:  0.07  39:  0.22  40:  0.22
  41:  0.00  42:  0.00  43:  0.00  44:  0.08  45:  0.14  46:  0.14  47:  0.01  48:  0.02
  49:  0.06  50:  0.06  51:  0.01  52:  0.04  53:  0.04  54:  0.00  55:  0.01  56:  0.41
  57:  0.41  58:  0.00  59:  0.04  60:  0.00  61:  0.01  62:  0.01  63:  0.01  64:  0.01
  65:  0.70  66:  0.70  67:  0.02  68:  0.00  69:  0.14  70:  0.13  71:  0.10  72:  0.05
  73:  0.30  74:  0.29  75:  0.00  76:  0.01  77:  0.02  78:  0.01  79:  0.00  80:  0.01
  81:  0.75  82:  0.75  83:  0.00  84:  0.01  85:  0.24  86:  0.00  87:  0.74  88:  0.74
  89:  0.93  90:  0.90  91:  0.01  92:  0.16  93:  0.64  94:  0.62  95:  0.06  96:  0.17
  97:  0.21  98:  0.22  99:  0.01 100:  0.01 101:  0.59 102:  0.60 103:  0.47 104:  0.21
 105:  0.49 106:  0.02 107:  0.05 108:  0.10 109:  0.12 110:  0.08 111:  0.13 112:  0.13
 113:  0.00 114:  0.07 115:  0.02 116:  0.14 117:  0.14 118:  0.06 119:  0.01 120:  0.01
 121:  0.02 122:  0.03 123:  0.01 124:  0.00 125:  0.18 126:  0.17 127:  0.01 128:  0.02
 129:  0.01 130:  0.02 131:  0.04 132:  0.04 133:  0.17 134:  0.32 135:  0.00 136:  0.02
 137:  0.01 138:  0.02 139:  0.00 140:  0.00 141:  0.09 142:  0.09 143:  0.00 144:  0.00
 145:  0.17 146:  0.16 147:  0.07 148:  0.06 149:  0.26 150:  0.00 151:  0.44 152:  0.43
 153:  0.11 154:  0.01 155:  0.02 156:  0.04 157:  0.03 158:  0.35 159:  0.08 160:  0.07
 161:  0.03 162:  0.22 163:  0.00 164:  0.00 165:  0.03 166:  0.04 167:  0.00 168:  0.01
 169:  0.29 170:  0.28 171:  0.00 172:  0.00 173:  0.00 174:  0.00 175:  0.00 176:  0.00
 177:  0.59 178:  0.58 179:  0.00 180:  0.01 181:  0.03 182:  0.03 183:  0.05 184:  0.29
 185:  0.15 186:  0.14 187:  0.00 188:  0.01 189:  0.06 190:  0.06 191:  0.00 192:  0.00
 193:  0.20 194:  0.20 195:  0.17 196:  0.08 197:  0.52 198:  0.52 199:  0.01 200:  0.20
 201:  0.08 202:  0.08 203:  0.00 204:  0.01 205:  0.26 206:  0.25 207:  0.85 208:  0.00
 209:  0.08 210:  0.08 211:  0.03 212:  0.04 213:  0.04 214:  0.04 215:  0.00 216:  0.01
 217:  0.09 218:  0.09 219:  0.01 220:  0.46 221:  0.46 222:  0.06 223:  0.01 224:  0.00
 225:  0.36 226:  0.36 227:  0.10 228:  0.10 229:  0.01 230:  0.01 231:  0.02 232:  0.04
 233:  0.04 234:  0.03 235:  0.03 236:  0.16 237:  0.38 238:  0.38 239:  0.13 240:  0.01
 241:  0.40 242:  0.39 243:  0.01 244:  0.03 245:  0.37 246:  0.37 247:  0.00 248:  0.06
 249:  0.11 250:  0.12 251:  0.14 252:  0.23 253:  0.36 254:  0.35 255:  0.01 256:  0.01
 257:  0.05 258:  0.04 259:  0.04 260:  0.01 261:  0.15 262:  0.14 263:  0.10 264:  0.10
 265:  0.01 266:  0.01 267:  0.01 268:  0.05 269:  0.05 270:  0.02 271:  0.28 272:  0.01
 273:  0.57 274:  0.57 275:  0.00 276:  0.01 277:  0.07 278:  0.06 279:  0.05 280:  0.04
 281:  0.00 282:  0.01 283:  0.01 284:  0.02 285:  0.01 286:  0.01 287:  0.00 288:  0.00
 289:  0.00 290:  0.00 291:  0.03 292:  0.03 293:  0.03 294:  0.03 295:  0.02 296:  0.02
 297:  0.02 298:  0.03 299:  0.02 300:  0.02 301:  0.02 302:  0.02 303:  0.05 304:  0.00
 305:  0.12 306:  0.12 307:  0.00 308:  0.12 309:  0.13 310:  0.13 311:  0.12 312:  0.22
 313:  0.22 314:  0.03 315:  0.15 316:  0.20 317:  0.26 318:  0.20 319:  0.04 320:  0.05
 321:  0.65 322:  0.65 323:  0.51 324:  0.50 325:  0.46 326:  0.28 327:  0.30 328:  0.28
 329:  0.37 330:  0.33 331:  0.41 332:  0.41 333:  0.21 334:  0.14 335:  0.08 336:  1.06
 337:  0.85 338:  0.84 339:  0.28 340:  0.27 341:  0.03 342:  1.06 343:  0.23 344:  0.23
 345:  0.11 346:  0.01 347:  0.02 348:  0.53 349:  0.54 350:  0.43 351:  0.72 352:  0.72
 353:  0.16 354:  0.05 355:  0.19 356:  0.30 357:  0.33 358:  0.01 359:  0.23 360:  0.22
 361:  0.04 362:  0.18 363:  0.78 364:  0.16 365:  0.15 366:  0.01 367:  0.03 368:  0.14
 369:  0.13 370:  0.17 371:  0.17 372:  0.24 373:  0.23 374:  0.27 375:  0.03 376:  0.07
 377:  0.05 378:  0.43 379:  0.04 380:  0.04 381:  0.19 382:  0.01 383:  0.12 384:  0.13
 385:  0.13 386:  0.06 387:  0.21 388:  0.21 389:  0.26 390:  0.01 391:  0.03 392:  0.02
 393:  0.01 394:  0.04 395:  0.53 396:  0.53 397:  0.13 398:  0.02 399:  0.50 400:  0.36
 401:  0.33 402:  0.02 403:  0.16 404:  0.18 405:  0.15 406:  0.65 407:  0.24 408:  0.24
 409:  0.02 410:  0.69 411:  1.31 412:  0.55 413:  0.53 414:  0.19 415:  1.06 416:  1.06
 417:  0.01 418:  0.53 419:  0.16 420:  0.06 421:  0.17 422:  0.03 423:  0.18 424:  0.58
 425:  0.50 426:  0.27 427:  1.55 428:  1.57 429:  0.48 430:  0.30 431:  1.48 432:  0.34
 433:  0.30 434:  0.22 435:  0.11 436:  0.68 437:  0.74 438:  0.31 439:  0.01 440:  0.01
 441:  0.77 442:  0.58 443:  0.05 444:  0.05 445:  1.01 446:  0.05 447:  0.69 448:  0.69
 449:  0.35 450:  1.02 451:  0.27 452:  0.27 453:  0.28 454:  0.09 455:  0.13 456:  0.04
 457:  0.79 458:  0.79 459:  0.16 460:  0.16 461:  0.76 462:  0.16 463:  2.26 464:  0.37
 465:  1.18 466:  0.29 467:  0.97 468:  0.93 469:  0.45 470:  2.60 471:  0.45 472:  0.09
 473:  0.75 474:  0.75 475:  0.66 476:  0.72 477:  0.51 478:  0.50 479:  0.44 480:  0.56
 481:  0.31 482:  0.48 483:  0.13 484:  0.11 485:  0.15 486:  0.13 487:  1.39 488:  0.16
 489:  0.54 490:  4.22 491:  2.65 492:  2.72 493:  3.00 494:  3.03 495:  0.01 496:  0.01
 497:  0.10 498:  0.13 499:  0.02 500:  0.04 501:  0.15 502:  0.17 503:  0.04 504:  0.04
 505:  0.01 506:  0.01 507:  0.06 508:  0.06 509:  0.05 510:  0.05 511:  0.12 512:  0.14
 513:  0.10 514:  0.09 515:  0.37 516:  0.36 517:  0.39 518:  0.38 519:  0.40 520:  0.43
 521:  0.39 522:  0.44 523:  0.17 524:  0.17 525:  0.17 526:  0.44 527:  0.39 528:  0.51
 529:  0.13 530:  0.47 531:  0.09 532:  0.10 533:  0.09 534:  0.07 535:  0.01 536:  0.02
 537:  0.01 538:  0.03 539:  0.22 540:  0.23 541:  0.21 542:  0.22 543:  0.08 544:  0.07
 545:  0.07 546:  0.07 547:  0.30 548:  0.27 549:  0.35 550:  0.33 551:  0.06 552:  0.06
 553:  0.05 554:  0.05 555:  0.05 556:  0.06 557:  0.05 558:  0.05
 Raman intensities (amu)
   1:  0.00   2:  0.00   3:  0.00   4:  0.00   5:  0.00   6:  0.00   7:  0.00   8:  0.00
   9:  0.00  10:  0.00  11:  0.00  12:  0.00  13:  0.00  14:  0.00  15:  0.00  16:  0.00
  17:  0.00  18:  0.00  19:  0.00  20:  0.00  21:  0.00  22:  0.00  23:  0.00  24:  0.00
  25:  0.00  26:  0.00  27:  0.00  28:  0.00  29:  0.00  30:  0.00  31:  0.00  32:  0.00
  33:  0.00  34:  0.00  35:  0.00  36:  0.00  37:  0.00  38:  0.00  39:  0.00  40:  0.00
  41:  0.00  42:  0.00  43:  0.00  44:  0.00  45:  0.00  46:  0.00  47:  0.00  48:  0.00
  49:  0.00  50:  0.00  51:  0.00  52:  0.00  53:  0.00  54:  0.00  55:  0.00  56:  0.00
  57:  0.00  58:  0.00  59:  0.00  60:  0.00  61:  0.00  62:  0.00  63:  0.00  64:  0.00
  65:  0.00  66:  0.00  67:  0.00  68:  0.00  69:  0.00  70:  0.00  71:  0.00  72:  0.00
  73:  0.00  74:  0.00  75:  0.00  76:  0.00  77:  0.00  78:  0.00  79:  0.00  80:  0.00
  81:  0.00  82:  0.00  83:  0.00  84:  0.00  85:  0.00  86:  0.00  87:  0.00  88:  0.00
  89:  0.00  90:  0.00  91:  0.00  92:  0.00  93:  0.00  94:  0.00  95:  0.00  96:  0.00
  97:  0.00  98:  0.00  99:  0.00 100:  0.00 101:  0.00 102:  0.00 103:  0.00 104:  0.00
 105:  0.00 106:  0.00 107:  0.00 108:  0.00 109:  0.00 110:  0.00 111:  0.00 112:  0.00
 113:  0.00 114:  0.00 115:  0.00 116:  0.00 117:  0.00 118:  0.00 119:  0.00 120:  0.00
 121:  0.00 122:  0.00 123:  0.00 124:  0.00 125:  0.00 126:  0.00 127:  0.00 128:  0.00
 129:  0.00 130:  0.00 131:  0.00 132:  0.00 133:  0.00 134:  0.00 135:  0.00 136:  0.00
 137:  0.00 138:  0.00 139:  0.00 140:  0.00 141:  0.00 142:  0.00 143:  0.00 144:  0.00
 145:  0.00 146:  0.00 147:  0.00 148:  0.00 149:  0.00 150:  0.00 151:  0.00 152:  0.00
 153:  0.00 154:  0.00 155:  0.00 156:  0.00 157:  0.00 158:  0.00 159:  0.00 160:  0.00
 161:  0.00 162:  0.00 163:  0.00 164:  0.00 165:  0.00 166:  0.00 167:  0.00 168:  0.00
 169:  0.00 170:  0.00 171:  0.00 172:  0.00 173:  0.00 174:  0.00 175:  0.00 176:  0.00
 177:  0.00 178:  0.00 179:  0.00 180:  0.00 181:  0.00 182:  0.00 183:  0.00 184:  0.00
 185:  0.00 186:  0.00 187:  0.00 188:  0.00 189:  0.00 190:  0.00 191:  0.00 192:  0.00
 193:  0.00 194:  0.00 195:  0.00 196:  0.00 197:  0.00 198:  0.00 199:  0.00 200:  0.00
 201:  0.00 202:  0.00 203:  0.00 204:  0.00 205:  0.00 206:  0.00 207:  0.00 208:  0.00
 209:  0.00 210:  0.00 211:  0.00 212:  0.00 213:  0.00 214:  0.00 215:  0.00 216:  0.00
 217:  0.00 218:  0.00 219:  0.00 220:  0.00 221:  0.00 222:  0.00 223:  0.00 224:  0.00
 225:  0.00 226:  0.00 227:  0.00 228:  0.00 229:  0.00 230:  0.00 231:  0.00 232:  0.00
 233:  0.00 234:  0.00 235:  0.00 236:  0.00 237:  0.00 238:  0.00 239:  0.00 240:  0.00
 241:  0.00 242:  0.00 243:  0.00 244:  0.00 245:  0.00 246:  0.00 247:  0.00 248:  0.00
 249:  0.00 250:  0.00 251:  0.00 252:  0.00 253:  0.00 254:  0.00 255:  0.00 256:  0.00
 257:  0.00 258:  0.00 259:  0.00 260:  0.00 261:  0.00 262:  0.00 263:  0.00 264:  0.00
 265:  0.00 266:  0.00 267:  0.00 268:  0.00 269:  0.00 270:  0.00 271:  0.00 272:  0.00
 273:  0.00 274:  0.00 275:  0.00 276:  0.00 277:  0.00 278:  0.00 279:  0.00 280:  0.00
 281:  0.00 282:  0.00 283:  0.00 284:  0.00 285:  0.00 286:  0.00 287:  0.00 288:  0.00
 289:  0.00 290:  0.00 291:  0.00 292:  0.00 293:  0.00 294:  0.00 295:  0.00 296:  0.00
 297:  0.00 298:  0.00 299:  0.00 300:  0.00 301:  0.00 302:  0.00 303:  0.00 304:  0.00
 305:  0.00 306:  0.00 307:  0.00 308:  0.00 309:  0.00 310:  0.00 311:  0.00 312:  0.00
 313:  0.00 314:  0.00 315:  0.00 316:  0.00 317:  0.00 318:  0.00 319:  0.00 320:  0.00
 321:  0.00 322:  0.00 323:  0.00 324:  0.00 325:  0.00 326:  0.00 327:  0.00 328:  0.00
 329:  0.00 330:  0.00 331:  0.00 332:  0.00 333:  0.00 334:  0.00 335:  0.00 336:  0.00
 337:  0.00 338:  0.00 339:  0.00 340:  0.00 341:  0.00 342:  0.00 343:  0.00 344:  0.00
 345:  0.00 346:  0.00 347:  0.00 348:  0.00 349:  0.00 350:  0.00 351:  0.00 352:  0.00
 353:  0.00 354:  0.00 355:  0.00 356:  0.00 357:  0.00 358:  0.00 359:  0.00 360:  0.00
 361:  0.00 362:  0.00 363:  0.00 364:  0.00 365:  0.00 366:  0.00 367:  0.00 368:  0.00
 369:  0.00 370:  0.00 371:  0.00 372:  0.00 373:  0.00 374:  0.00 375:  0.00 376:  0.00
 377:  0.00 378:  0.00 379:  0.00 380:  0.00 381:  0.00 382:  0.00 383:  0.00 384:  0.00
 385:  0.00 386:  0.00 387:  0.00 388:  0.00 389:  0.00 390:  0.00 391:  0.00 392:  0.00
 393:  0.00 394:  0.00 395:  0.00 396:  0.00 397:  0.00 398:  0.00 399:  0.00 400:  0.00
 401:  0.00 402:  0.00 403:  0.00 404:  0.00 405:  0.00 406:  0.00 407:  0.00 408:  0.00
 409:  0.00 410:  0.00 411:  0.00 412:  0.00 413:  0.00 414:  0.00 415:  0.00 416:  0.00
 417:  0.00 418:  0.00 419:  0.00 420:  0.00 421:  0.00 422:  0.00 423:  0.00 424:  0.00
 425:  0.00 426:  0.00 427:  0.00 428:  0.00 429:  0.00 430:  0.00 431:  0.00 432:  0.00
 433:  0.00 434:  0.00 435:  0.00 436:  0.00 437:  0.00 438:  0.00 439:  0.00 440:  0.00
 441:  0.00 442:  0.00 443:  0.00 444:  0.00 445:  0.00 446:  0.00 447:  0.00 448:  0.00
 449:  0.00 450:  0.00 451:  0.00 452:  0.00 453:  0.00 454:  0.00 455:  0.00 456:  0.00
 457:  0.00 458:  0.00 459:  0.00 460:  0.00 461:  0.00 462:  0.00 463:  0.00 464:  0.00
 465:  0.00 466:  0.00 467:  0.00 468:  0.00 469:  0.00 470:  0.00 471:  0.00 472:  0.00
 473:  0.00 474:  0.00 475:  0.00 476:  0.00 477:  0.00 478:  0.00 479:  0.00 480:  0.00
 481:  0.00 482:  0.00 483:  0.00 484:  0.00 485:  0.00 486:  0.00 487:  0.00 488:  0.00
 489:  0.00 490:  0.00 491:  0.00 492:  0.00 493:  0.00 494:  0.00 495:  0.00 496:  0.00
 497:  0.00 498:  0.00 499:  0.00 500:  0.00 501:  0.00 502:  0.00 503:  0.00 504:  0.00
 505:  0.00 506:  0.00 507:  0.00 508:  0.00 509:  0.00 510:  0.00 511:  0.00 512:  0.00
 513:  0.00 514:  0.00 515:  0.00 516:  0.00 517:  0.00 518:  0.00 519:  0.00 520:  0.00
 521:  0.00 522:  0.00 523:  0.00 524:  0.00 525:  0.00 526:  0.00 527:  0.00 528:  0.00
 529:  0.00 530:  0.00 531:  0.00 532:  0.00 533:  0.00 534:  0.00 535:  0.00 536:  0.00
 537:  0.00 538:  0.00 539:  0.00 540:  0.00 541:  0.00 542:  0.00 543:  0.00 544:  0.00
 545:  0.00 546:  0.00 547:  0.00 548:  0.00 549:  0.00 550:  0.00 551:  0.00 552:  0.00
 553:  0.00 554:  0.00 555:  0.00 556:  0.00 557:  0.00 558:  0.00
 output can be read by thermo (or use thermo option).
 writing <g98.out> molden fake output.
 recommended (thermochemical) frequency scaling factor: 1.0
           -------------------------------------------------
          |             Thermodynamic Functions             |
           -------------------------------------------------

Refinement of some symmetry elements was terminated before convergence was reached.
Some symmetry elements may remain unidentified.
Molecule has the following symmetry elements: (C2) 
It seems to be the C2 point group
c2  symmetry found (for desy threshold:  0.10E+00) used in thermo

          ...................................................
          :                      SETUP                      :
          :.................................................:
          :  # frequencies                         552      :
          :  # imaginary freq.                       0      :
          :  linear?                             false      :
          :  only rotor calc.                    false      :
          :  symmetry                               c2      :
          :  rotational number                       2      :
          :  scaling factor                  1.0000000      :
          :  rotor cutoff                   50.0000000 cm⁻¹ :
          :  imag. cutoff                  -20.0000000 cm⁻¹ :
          :.................................................:

    mode    ω/cm⁻¹     T·S(HO)/kcal·mol⁻¹    T·S(FR)/kcal·mol⁻¹   T·S(vib)
   ------------------------------------------------------------------------
       1      4.47    -2.86549 (  0.01%)    -1.77184 ( 99.99%)    -1.77191
       2      5.69    -2.72216 (  0.02%)    -1.70017 ( 99.98%)    -1.70035
       3      6.07    -2.68450 (  0.02%)    -1.68135 ( 99.98%)    -1.68156
       4      7.05    -2.59582 (  0.04%)    -1.63701 ( 99.96%)    -1.63738
       5      9.94    -2.39235 (  0.16%)    -1.53526 ( 99.84%)    -1.53659
       6     13.75    -2.19982 (  0.57%)    -1.43897 ( 99.43%)    -1.44330
       7     13.99    -2.18947 (  0.61%)    -1.43379 ( 99.39%)    -1.43840
       8     14.36    -2.17436 (  0.67%)    -1.42623 ( 99.33%)    -1.43128
       9     14.45    -2.17046 (  0.69%)    -1.42428 ( 99.31%)    -1.42945
      10     16.28    -2.10001 (  1.11%)    -1.38904 ( 98.89%)    -1.39693
      11     19.44    -1.99473 (  2.24%)    -1.33637 ( 97.76%)    -1.35108
      12     20.58    -1.96118 (  2.79%)    -1.31958 ( 97.21%)    -1.33747
      13     21.71    -1.92932 (  3.43%)    -1.30364 ( 96.57%)    -1.32513
      14     27.08    -1.79853 (  7.93%)    -1.23817 ( 92.07%)    -1.28259
      15     27.21    -1.79580 (  8.06%)    -1.23680 ( 91.94%)    -1.28187
      16     32.75    -1.68611 ( 15.55%)    -1.18186 ( 84.45%)    -1.26028
      17     35.30    -1.64181 ( 19.90%)    -1.15966 ( 80.10%)    -1.25563
      18     35.46    -1.63913 ( 20.20%)    -1.15832 ( 79.80%)    -1.25542
      19     35.63    -1.63638 ( 20.50%)    -1.15694 ( 79.50%)    -1.25521
      20     37.61    -1.60444 ( 24.24%)    -1.14093 ( 75.76%)    -1.25330
      21     40.04    -1.56748 ( 29.13%)    -1.12239 ( 70.87%)    -1.25205
      22     41.86    -1.54119 ( 32.94%)    -1.10921 ( 67.06%)    -1.25149
      23     42.18    -1.53671 ( 33.61%)    -1.10696 ( 66.39%)    -1.25140
      24     45.46    -1.49245 ( 40.60%)    -1.08474 ( 59.40%)    -1.25025
      25     49.11    -1.44685 ( 48.21%)    -1.06185 ( 51.79%)    -1.24747
      26     49.29    -1.44475 ( 48.57%)    -1.06079 ( 51.43%)    -1.24727
      27     53.56    -1.39582 ( 56.83%)    -1.03620 ( 43.17%)    -1.24056
      28     54.46    -1.38595 ( 58.46%)    -1.03124 ( 41.54%)    -1.23861
      29     54.60    -1.38439 ( 58.72%)    -1.03046 ( 41.28%)    -1.23828
      30     68.59    -1.25025 ( 77.98%)    -0.96289 ( 22.02%)    -1.18698
      31     71.95    -1.22223 ( 81.09%)    -0.94875 ( 18.91%)    -1.17050
      32     72.10    -1.22101 ( 81.21%)    -0.94813 ( 18.79%)    -1.16975
      33     76.47    -1.18650 ( 84.55%)    -0.93069 ( 15.45%)    -1.14697
      34     76.63    -1.18525 ( 84.66%)    -0.93006 ( 15.34%)    -1.14610
      35     81.61    -1.14839 ( 87.65%)    -0.91140 ( 12.35%)    -1.11912
      36     83.00    -1.13856 ( 88.36%)    -0.90642 ( 11.64%)    -1.11154
      37     83.95    -1.13185 ( 88.82%)    -0.90303 ( 11.18%)    -1.10628
      38     91.59    -1.08103 ( 91.84%)    -0.87723 (  8.16%)    -1.06440
      39     96.03    -1.05345 ( 93.15%)    -0.86320 (  6.85%)    -1.04042
      40     96.22    -1.05230 ( 93.20%)    -0.86262 (  6.80%)    -1.03941
      41     98.65    -1.03783 ( 93.81%)    -0.85525 (  6.19%)    -1.02652
      42     99.53    -1.03266 ( 94.01%)    -0.85262 (  5.99%)    -1.02188
      43     99.95    -1.03018 ( 94.11%)    -0.85135 (  5.89%)    -1.01964
      44    100.12    -1.02922 ( 94.14%)    -0.85086 (  5.86%)    -1.01877
      45    110.76    -0.97063 ( 96.01%)    -0.82093 (  3.99%)    -0.96466
      46    111.40    -0.96732 ( 96.10%)    -0.81923 (  3.90%)    -0.96154
      47    111.55    -0.96653 ( 96.12%)    -0.81883 (  3.88%)    -0.96080
      48    116.44    -0.94173 ( 96.71%)    -0.80611 (  3.29%)    -0.93727
      49    127.31    -0.89035 ( 97.68%)    -0.77968 (  2.32%)    -0.88778
      50    130.34    -0.87686 ( 97.88%)    -0.77271 (  2.12%)    -0.87466
      51    130.44    -0.87642 ( 97.89%)    -0.77248 (  2.11%)    -0.87422
      52    133.46    -0.86330 ( 98.07%)    -0.76570 (  1.93%)    -0.86142
      53    133.86    -0.86160 ( 98.09%)    -0.76482 (  1.91%)    -0.85975
      54    134.61    -0.85841 ( 98.13%)    -0.76317 (  1.87%)    -0.85663
      55    146.95    -0.80839 ( 98.68%)    -0.73718 (  1.32%)    -0.80745
      56    146.98    -0.80828 ( 98.68%)    -0.73712 (  1.32%)    -0.80734
      57    147.04    -0.80804 ( 98.68%)    -0.73700 (  1.32%)    -0.80711
      58    147.67    -0.80559 ( 98.70%)    -0.73572 (  1.30%)    -0.80469
      59    162.78    -0.75052 ( 99.12%)    -0.70688 (  0.88%)    -0.75013
      60    163.08    -0.74948 ( 99.12%)    -0.70633 (  0.88%)    -0.74910
      61    171.59    -0.72091 ( 99.28%)    -0.69125 (  0.72%)    -0.72070
      62    176.89    -0.70393 ( 99.37%)    -0.68225 (  0.63%)    -0.70379
      63    179.70    -0.69516 ( 99.40%)    -0.67759 (  0.60%)    -0.69505
      64    179.83    -0.69475 ( 99.41%)    -0.67737 (  0.59%)    -0.69465
      65    180.11    -0.69388 ( 99.41%)    -0.67691 (  0.59%)    -0.69378
      66    180.58    -0.69242 ( 99.42%)    -0.67613 (  0.58%)    -0.69233
      67    181.67    -0.68908 ( 99.43%)    -0.67435 (  0.57%)    -0.68899
      68    182.21    -0.68744 ( 99.44%)    -0.67347 (  0.56%)    -0.68736
      69    194.74    -0.65064 ( 99.57%)    -0.65377 (  0.43%)    -0.65066
      70    195.58    -0.64825 ( 99.57%)    -0.65249 (  0.43%)    -0.64827
      71    195.62    -0.64814 ( 99.58%)    -0.65242 (  0.42%)    -0.64816
      72    195.67    -0.64802 ( 99.58%)    -0.65236 (  0.42%)    -0.64804
      73    196.08    -0.64684 ( 99.58%)    -0.65173 (  0.42%)    -0.64686
      74    198.70    -0.63956 ( 99.60%)    -0.64780 (  0.40%)    -0.63959
      75    211.27    -0.60605 ( 99.69%)    -0.62964 (  0.31%)    -0.60612
      76    211.43    -0.60562 ( 99.69%)    -0.62940 (  0.31%)    -0.60569
      77    216.29    -0.59331 ( 99.72%)    -0.62268 (  0.28%)    -0.59339
      78    216.39    -0.59306 ( 99.72%)    -0.62254 (  0.28%)    -0.59314
      79    228.59    -0.56349 ( 99.77%)    -0.60629 (  0.23%)    -0.56359
      80    232.28    -0.55494 ( 99.79%)    -0.60155 (  0.21%)    -0.55504
      81    245.75    -0.52500 ( 99.83%)    -0.58485 (  0.17%)    -0.52510
      82    246.24    -0.52395 ( 99.83%)    -0.58425 (  0.17%)    -0.52405
      83    255.98    -0.50358 ( 99.85%)    -0.57276 (  0.15%)    -0.50368
      84    256.43    -0.50267 ( 99.86%)    -0.57225 (  0.14%)    -0.50277
      85    267.81    -0.48011 ( 99.88%)    -0.55938 (  0.12%)    -0.48021
      86    270.59    -0.47478 ( 99.88%)    -0.55632 (  0.12%)    -0.47488
      87    283.31    -0.45128 ( 99.90%)    -0.54271 (  0.10%)    -0.45137
      88    283.33    -0.45124 ( 99.90%)    -0.54269 (  0.10%)    -0.45133
      89    283.60    -0.45076 ( 99.90%)    -0.54241 (  0.10%)    -0.45085
      90    283.66    -0.45065 ( 99.90%)    -0.54234 (  0.10%)    -0.45074
      91    287.59    -0.44367 ( 99.91%)    -0.53827 (  0.09%)    -0.44376
      92    287.62    -0.44362 ( 99.91%)    -0.53824 (  0.09%)    -0.44371
      93    292.30    -0.43548 ( 99.91%)    -0.53346 (  0.09%)    -0.43557
      94    292.63    -0.43492 ( 99.91%)    -0.53313 (  0.09%)    -0.43500
   ------------------------------------------------------------------------

   temp. (K)  partition function   enthalpy   heat capacity  entropy
                                   cal/mol     cal/K/mol   cal/K/mol   J/K/mol
 298.15  VIB  0.218E+54            63359.535    403.888    403.305
         ROT  0.719E+09              888.752      2.981     43.509
         INT  0.157E+63            64248.288    406.868    446.815
         TR   0.699E+29             1481.254      4.968     48.201
         TOT                       65729.5417   411.8366   495.0159  2071.1466

       T/K    H(0)-H(T)+PV         H(T)/Eh          T*S/Eh         G(T)/Eh
   ------------------------------------------------------------------------
    298.15    0.104747E+00    0.146585E+01    0.235198E+00    0.123066E+01
   ------------------------------------------------------------------------

         :::::::::::::::::::::::::::::::::::::::::::::::::::::
         ::                  THERMODYNAMIC                  ::
         :::::::::::::::::::::::::::::::::::::::::::::::::::::
         :: total free energy        -302.344609518813 Eh   ::
         ::.................................................::
         :: total energy             -303.575265239207 Eh   ::
         :: zero point energy           1.361107065226 Eh   ::
         :: G(RRHO) w/o ZPVE           -0.130451344832 Eh   ::
         :: G(RRHO) contrib.            1.230655720394 Eh   ::
         :::::::::::::::::::::::::::::::::::::::::::::::::::::

           -------------------------------------------------
          | TOTAL ENERGY             -303.575265239207 Eh   |
          | TOTAL ENTHALPY           -302.109411481879 Eh   |
          | TOTAL FREE ENERGY        -302.344609518813 Eh   |
          | GRADIENT NORM               0.000802769426 Eh/α |
          | HOMO-LUMO GAP               1.859205412989 eV   |
           -------------------------------------------------

------------------------------------------------------------------------
 * finished run on 2021/06/22 at 00:28:45.776     
------------------------------------------------------------------------
 total:
 * wall-time:     0 d,  0 h, 18 min, 13.227 sec
 *  cpu-time:     0 d,  1 h, 12 min,  8.620 sec
 * ratio c/w:     3.959 speedup
 SCF:
 * wall-time:     0 d,  0 h,  0 min,  3.420 sec
 *  cpu-time:     0 d,  0 h,  0 min, 10.398 sec
 * ratio c/w:     3.040 speedup
 numerical hessian:
 * wall-time:     0 d,  0 h, 18 min,  4.079 sec
 *  cpu-time:     0 d,  1 h, 11 min, 52.497 sec
 * ratio c/w:     3.978 speedup

