43
 energy: -68.521782759242 gnorm: 0.000121921096 xtb: 6.3.1 (2faf18d)
Zn       -0.38869130226941    0.27571930392622    0.29053636231738
C         1.01519700484323    4.94891021470576    0.75091980594137
C         1.90129222966162    3.88135144525417    0.73066928249663
C         1.39649440294906    2.58546062519717    0.63186658317636
H         2.96595507109102    4.04632114657321    0.78744419442929
N         0.07768692705115    2.33364160275394    0.55742394507592
C         2.29559301813699    1.44427975126944    0.61033178091792
C        -0.76119141959339    3.35884592103550    0.58155813723404
C        -0.34310410703480    4.68128613706536    0.67687859895139
H        -1.81392313395036    3.11866619305885    0.52500953931969
H        -1.06874521171697    5.47856854283322    0.69208743241816
H         1.37794959097516    5.96251362005460    0.82348904720154
N         1.80984066941158    0.27302192967556    0.48688763425798
H         3.35986883106167    1.65041261307846    0.70339385602800
Br        2.92851986487800   -1.20163915651619    0.46997475862993
C        -0.49686676055074   -1.17468602080519    4.95711232611459
C        -0.42938267660846   -2.03182451797131    3.86614304931460
C        -0.45664572226296   -1.49142024218257    2.58405470720188
H        -0.35490045950382   -3.09927110278120    4.00502325575194
N        -0.54648721862444   -0.16961453818727    2.36275770776011
C        -0.38656713845396   -2.34088123954193    1.40013744902848
C        -0.61533465311064    0.64165979927240    3.40596625480552
C        -0.59466557928682    0.18709245241585    4.72104532964387
H        -0.69249819760969    1.69871786115282    3.19148637084031
H        -0.65311807209832    0.89007247257714    5.53659526386130
H        -0.47451646208553   -1.56296754154340    5.96359764968255
N        -0.40110490327555   -1.80919103688782    0.25054910411359
H        -0.32402623084451   -3.41514922473515    1.56985428915683
H        -0.33759272179097   -2.45296574964315   -0.53282441527954
C        -5.01267927412825    0.61969297207295   -1.24060117408155
C        -3.90343979282664    0.61123109639530   -2.07694131806849
C        -2.63405349800017    0.54403283000693   -1.50997914929501
H        -4.01961955049259    0.65224305030308   -3.14895027916400
N        -2.44318381622220    0.49149587662086   -0.18092664250166
C        -1.43352681430473    0.51952679157225   -2.33928619635693
C        -3.50354353025280    0.50224470429172    0.61076917915645
C        -4.80761591375317    0.56464846931387    0.12855568932497
H        -3.31122405105354    0.46062940685367    1.67403371715014
H        -5.63840357096398    0.56894887273786    0.81593030290731
H        -6.00959290881858    0.66750102418693   -1.65071974341515
N        -0.29484956321610    0.42318172880779   -1.79174401448787
H        -1.58308312913915    0.58229729464543   -3.41691524129968
H         0.49928377378425    0.40036662108896   -2.42528843026177
