43
 energy: -68.474158447947 gnorm: 0.240483157287 xtb: 6.3.1 (2faf18d)
Zn       -0.21860000000000    0.21860000000000    0.21860000000000
C         0.90232100000000    4.92683000000000    0.78896200000000
C         1.84100800000000    3.89053200000000    0.78279200000000
C         1.40513500000000    2.56907400000000    0.60709500000000
H         2.89184500000000    4.11911200000000    0.91437900000000
N         0.06876900000000    2.32744100000000    0.44544700000000
C         2.32853500000000    1.50336800000000    0.60028800000000
C        -0.86070900000000    3.31840300000000    0.44848200000000
C        -0.45567900000000    4.64291900000000    0.62134500000000
H        -1.90788800000000    3.08199100000000    0.32026200000000
H        -1.18607800000000    5.44151100000000    0.62633300000000
H         1.22767100000000    5.95019100000000    0.92425400000000
N         1.91022100000000    0.22545400000000    0.43383500000000
H         3.38585000000000    1.70120700000000    0.73057600000000
Br        3.08662200000000   -1.25449300000000    0.42420300000000
C        -0.71755500000000   -1.08570400000000    4.88279700000000
C        -0.69328200000000   -1.98476800000000    3.81218300000000
C        -0.54214300000000   -1.49537200000000    2.50645100000000
H        -0.79181500000000   -3.04677300000000    4.00260000000000
N        -0.42179600000000   -0.14728000000000    2.31387600000000
C        -0.51653400000000   -2.37893500000000    1.40762000000000
C        -0.44269900000000    0.74464700000000    3.33854600000000
C        -0.59197300000000    0.28618100000000    4.64837900000000
H        -0.34631600000000    1.80307000000000    3.14019300000000
H        -0.61079500000000    0.98610800000000    5.47361100000000
H        -0.83406200000000   -1.45257000000000    5.89435200000000
N        -0.37143200000000   -1.91646000000000    0.14199400000000
H        -0.61266900000000   -3.44622900000000    1.56824600000000
H        -0.34953700000000   -2.54883100000000   -0.68796500000000
C        -4.90349600000000    0.62713100000000   -1.04174200000000
C        -3.83840200000000    0.66340600000000   -1.94698000000000
C        -2.52581100000000    0.53227700000000   -1.47017900000000
H        -4.03828800000000    0.79301400000000   -3.00389600000000
N        -2.32136300000000    0.37129900000000   -0.12813700000000
C        -1.43216900000000    0.56871100000000   -2.35983400000000
C        -3.34043800000000    0.33355000000000    0.76966800000000
C        -4.65685500000000    0.46163800000000    0.32376500000000
H        -3.13259800000000    0.20756500000000    1.82316400000000
H        -5.47775700000000    0.43388100000000    1.02848000000000
H        -5.92023200000000    0.72787600000000   -1.39883900000000
N        -0.15993000000000    0.44622500000000   -1.90912700000000
H        -1.60215700000000    0.69721400000000   -3.42228600000000
H         0.66658500000000    0.47196100000000   -2.54588700000000
43
 energy: -68.511417558709 gnorm: 0.100394238713 xtb: 6.3.1 (2faf18d)
Zn       -0.22836164964523    0.21806584754861    0.21592015126715
C         0.90782600794052    4.92684192206228    0.78916750440857
C         1.83496855505570    3.89201296554995    0.78173826922000
C         1.38892944827184    2.57297127027314    0.60621528039544
H         2.88542326181876    4.11228837653293    0.91185723047457
N         0.06792927655235    2.31704131958220    0.44910134421782
C         2.31853773811982    1.48281475130585    0.59719400573949
C        -0.82544316052128    3.31048568556624    0.45221424163356
C        -0.44017032456596    4.63748448983855    0.62162694599566
H        -1.87073239199019    3.06361066613563    0.32314174488197
H        -1.17645453575993    5.42966354263957    0.62526930728025
H         1.23145724872521    5.94820315065889    0.92383999721261
N         1.89691648889633    0.26125637012197    0.43560041303947
H         3.37673663434178    1.69008495272856    0.72780724009924
Br        3.07861042320582   -1.18580950895574    0.42942499924338
C        -0.71736251910429   -1.09065231631591    4.88312049448558
C        -0.69182352500176   -1.97776323842950    3.81319054183264
C        -0.53965211677189   -1.47703357088110    2.51210639543351
H        -0.78953915662143   -3.03935632039753    3.99475904777617
N        -0.42194250132920   -0.14550239622788    2.30473247307156
C        -0.51035473819992   -2.36222682932982    1.38243664341166
C        -0.44387381803585    0.71035162537975    3.32934597105967
C        -0.59191323498890    0.27094542570292    4.64262826250744
H        -0.34792080628854    1.76742809637573    3.12057166004924
H        -0.60961201151470    0.97706202257460    5.46167173859545
H        -0.83343756552144   -1.45589717041694    5.89270243529612
N        -0.37365179338920   -1.89800256867509    0.18383192336155
H        -0.60829829900542   -3.43202897395594    1.55384198390434
H        -0.34985259638100   -2.54647960769216   -0.61225750420198
C        -4.90526864898931    0.62751395106893   -1.04729534872790
C        -3.84085602940865    0.66244835674379   -1.94087023605475
C        -2.53294944287721    0.53154201507203   -1.45245963814497
H        -4.03156687018950    0.79075044412040   -2.99747191469035
N        -2.31624934444331    0.37566271329732   -0.12663860986457
C        -1.40737499617071    0.56520311954103   -2.34337675521014
C        -3.33440151595701    0.33789646527223    0.73531498336639
C        -4.65359714028414    0.46243667154763    0.30813680174533
H        -3.11496004470408    0.21135292341592    1.78704176478121
H        -5.46794483359418    0.43348851816931    1.01903164980620
H        -5.91978484533456    0.72768308776167   -1.40289557289844
N        -0.20167837834567    0.44644258700338   -1.89114974261624
H        -1.58798164772270    0.69362470356595   -3.40848632274032
H         0.59117939972900    0.47106646412063   -2.54377580044362
43
 energy: -68.519402955585 gnorm: 0.034805502187 xtb: 6.3.1 (2faf18d)
Zn       -0.24237892577465    0.22154579072416    0.21866360312533
C         0.91577460558482    4.93228018683989    0.78958515089989
C         1.83652029468958    3.89608730181926    0.78171711616915
C         1.38220422203547    2.58519663610419    0.60796641119046
H         2.88800617283129    4.10275590209601    0.90835957557625
N         0.07526466702783    2.30962160114022    0.45332728570790
C         2.31552248925573    1.47471546661167    0.59492670727489
C        -0.79561700799629    3.30388489125237    0.45731413457844
C        -0.42732771115815    4.63470809227089    0.62233076142192
H        -1.83803883465994    3.04290518752786    0.32807009767240
H        -1.17141200846449    5.41664600405838    0.62233435829803
H         1.23925836578622    5.95257747221420    0.92351819048507
N         1.88708566806456    0.29233303675391    0.43132999797981
H         3.37221245757098    1.70058680592169    0.72849134408190
Br        3.05807565149622   -1.14414313206111    0.43026134433228
C        -0.71658490468583   -1.09824567870311    4.88909255514866
C        -0.69039806447590   -1.97908763509586    3.81748178945766
C        -0.53942785696644   -1.46997236477259    2.52651715976176
H        -0.78560859611616   -3.04108682060957    3.98468346996116
N        -0.42332652735286   -0.15239062955624    2.29887677455027
C        -0.50353371891540   -2.35271660501733    1.36788936918783
C        -0.44598658053050    0.68166715559012    3.32260698538749
C        -0.59101756994662    0.25848875165693    4.64021768396801
H        -0.35002120029863    1.73656621625544    3.10014973037895
H        -0.60655246964413    0.97308923747740    5.44911239578051
H        -0.83265690560110   -1.46314832862004    5.89752053454570
N        -0.36514359928331   -1.87398780195658    0.21421196253640
H        -0.60074392584527   -3.42322164664796    1.55814543990339
H        -0.34041107302769   -2.53466897865084   -0.55720863971139
C        -4.91421268919165    0.62847174442501   -1.05631126550566
C        -3.84790441687414    0.66336206187943   -1.94353637568357
C        -2.54999591129740    0.53422416969610   -1.44626775633790
H        -4.02430695465001    0.78819843747624   -3.00086447355711
N        -2.31429164682090    0.38159648138511   -0.13413133860456
C        -1.39466263513904    0.56139778932563   -2.33449102470826
C        -3.33180134089651    0.34417714809445    0.70589065930163
C        -4.65517582733579    0.46397315859864    0.29441009040994
H        -3.09800138518035    0.21742351750731    1.75512443046052
H        -5.45957412602603    0.43143219306894    1.01326500264080
H        -5.92750175193591    0.72758507222045   -1.41201300911850
N        -0.23380024382388    0.43657477323678   -1.86804277034449
H        -1.59357358001561    0.69128042356822   -3.40004840374546
H         0.53456939558788    0.46228891489430   -2.53257105485752
43
 energy: -68.520458467768 gnorm: 0.009862792374 xtb: 6.3.1 (2faf18d)
Zn       -0.25504665719422    0.22815975496772    0.22566263866695
C         0.92441635970134    4.94070189854726    0.78856038334781
C         1.84621679848682    3.90449205680067    0.78100429988140
C         1.39151032529855    2.59631791607391    0.61080440840213
H         2.89862016890784    4.10635241647300    0.90418118178081
N         0.08665319072265    2.31151824530031    0.46022945106609
C         2.32354505769174    1.48321958788380    0.59579869931251
C        -0.78444698942209    3.30589864952082    0.46316745932711
C        -0.41830186884787    4.63773564909432    0.62313045864549
H        -1.82484939592459    3.03837291901038    0.33639200370141
H        -1.16621057867438    5.41465427398103    0.62031208034150
H         1.24742281060107    5.96158175933478    0.91988091340410
N         1.88092875345728    0.30050475417506    0.42911288755797
H         3.37934090025218    1.71190652819361    0.73056671724839
Br        3.04591310761707   -1.13887345125092    0.42286964539425
C        -0.71391242229329   -1.10599525016197    4.89839838293737
C        -0.68682394348617   -1.98793786268808    3.82676589113024
C        -0.53872505841979   -1.47844044307723    2.53890076261925
H        -0.77849041972393   -3.05061777550391    3.98865907164093
N        -0.42777491819095   -0.16223957088048    2.30209948976654
C        -0.49518268699148   -2.35806643820613    1.37579738552047
C        -0.44949857174769    0.67209698762781    3.32608467053142
C        -0.59005577173399    0.25057009473679    4.64453728820703
H        -0.35542899568689    1.72521684779472    3.09757546536281
H        -0.60345219540405    0.96903864359420    5.44871404872901
H        -0.82808822039848   -1.47043381275898    5.90728949688730
N        -0.35387730282387   -1.86152666751935    0.22006568923639
H        -0.58667328073380   -3.42829379434116    1.56638241777732
H        -0.31652255798321   -2.52283105621032   -0.54950811714622
C        -4.92835395565265    0.62898852644987   -1.06684542904829
C        -3.86135247043010    0.66457442304482   -1.95436656827264
C        -2.56673925072010    0.53877665113922   -1.45582252583149
H        -4.03209381321323    0.78549327501733   -3.01268340578260
N        -2.32251698157462    0.39030840867627   -0.14487551840697
C        -1.40612229688609    0.55974860485305   -2.34045117648783
C        -3.34120346477911    0.35166096113632    0.69465382827140
C        -4.66520993873687    0.46624084878266    0.28385966800970
H        -3.10197003888333    0.22703247706688    1.74221658301804
H        -5.46543970957220    0.43044019264903    1.00579600446361
H        -5.94196007128441    0.72487079699668   -1.42294990963460
N        -0.24363450571591    0.42544225325851   -1.85659283038630
H        -1.60458894609850    0.68782702372924   -3.40560772205859
H         0.52348380649134    0.44048469668849   -2.52186016913126
43
 energy: -68.520806381376 gnorm: 0.005286038089 xtb: 6.3.1 (2faf18d)
Zn       -0.26662233352313    0.23273470252006    0.23045972215210
C         0.93435039707749    4.94886062900238    0.78599989314397
C         1.85668866752090    3.91177109426291    0.77932486952663
C         1.40109163761221    2.60487103189464    0.61552620792885
H         2.91047579076884    4.10936252390337    0.89752718413947
N         0.09651003651979    2.31326183309696    0.47124387861515
C         2.33233006034697    1.48937820412407    0.59810236809149
C        -0.77509858686115    3.30955889000543    0.47261726684784
C        -0.40831951850570    4.64194468985468    0.62492268814965
H        -1.81461056266751    3.03788728973729    0.35066101849667
H        -1.15929031175371    5.41511661653714    0.61932047802213
H         1.25761577964967    5.97037922954660    0.91315691712135
N         1.88041333897599    0.30839170974467    0.42834977838783
H         3.38716585634763    1.71999398851741    0.73135582011884
Br        3.03045027425239   -1.14134886978505    0.41147286678200
C        -0.70872099402992   -1.11472876201390    4.90720621651953
C        -0.68036761110583   -1.99646188879243    3.83399137324846
C        -0.53893047827038   -1.48461965749324    2.54808421194434
H        -0.76535311336308   -3.06056523938700    3.99054266424986
N        -0.43818033563857   -0.16783178744574    2.30574383902396
C        -0.48263446719662   -2.36041071471637    1.38069085621448
C        -0.45818768978066    0.66590037377211    3.33240137927739
C        -0.58975662008445    0.24210306096760    4.65101128005817
H        -0.36828812024243    1.71831268086010    3.10102080200440
H        -0.60038997189567    0.96288880616970    5.45240049587644
H        -0.81912989068644   -1.48025141676502    5.91633366672799
N        -0.34154693822529   -1.85207777065178    0.22775487357926
H        -0.56060064574532   -3.43080325724325    1.56922328036172
H        -0.28893093196617   -2.51519888246324   -0.54028074922023
C        -4.94349185046641    0.62844550569112   -1.07992144901957
C        -3.87386418873228    0.66459401372740   -1.96596759637212
C        -2.58179093796413    0.54439285242264   -1.46379140080771
H        -4.03838267440462    0.78053315792154   -3.02593120321457
N        -2.33317213780137    0.40340703549116   -0.15194560942536
C        -1.41576459894572    0.55491255110405   -2.34404199835876
C        -3.35575222131530    0.36355272325138    0.68584840728318
C        -4.67932182523123    0.47016825956107    0.27136669173955
H        -3.11482479626158    0.24373353736631    1.73310010718083
H        -5.47752902135412    0.43120240908696    0.99459624592671
H        -5.95699238238721    0.71994635060962   -1.43833262289435
N        -0.25661367138582    0.41435443108557   -1.84854713397684
H        -1.61083622931399    0.67962161558999   -3.40887590622011
H         0.50970781803397    0.41768844933117   -2.51581567923060
43
 energy: -68.520958346305 gnorm: 0.005947158825 xtb: 6.3.1 (2faf18d)
Zn       -0.27598708459337    0.23589913738356    0.23380585286707
C         0.94250094485914    4.95298367440608    0.78319541933083
C         1.86412394621892    3.91472004367306    0.77736354050944
C         1.40711071526161    2.60783017288289    0.61872500275696
H         2.91888994077012    4.11034681792429    0.89137650098127
N         0.10176488673264    2.31553186350039    0.47923623875829
C         2.33740644111114    1.49084230378265    0.59913172793285
C        -0.76978841377683    3.31337482036044    0.48082883573265
C        -0.40052593362326    4.64546837230964    0.62725985457839
H        -1.80950193943718    3.04091278117219    0.36445196868702
H        -1.15229544232186    5.41783410042930    0.62033623589702
H         1.26687577895896    5.97481705393856    0.90571373877127
N         1.88143744069214    0.31205649335825    0.42745751285375
H         3.39216079507127    1.72052673650846    0.73166894017067
Br        3.02473698169745   -1.14185380288911    0.40333244551451
C        -0.70326244926833   -1.12132556023669    4.91272670049925
C        -0.67361109223362   -2.00164872121298    3.83785536863697
C        -0.53779668606753   -1.48719571053510    2.55259464435772
H        -0.75256212391987   -3.06679709116275    3.99148402227442
N        -0.44621901820862   -0.16914255601089    2.31036504653253
C        -0.47111782310676   -2.36005359254959    1.38322132002957
C        -0.46622804777093    0.66351538721898    3.33912315226154
C        -0.59003400847495    0.23597156105560    4.65721088923582
H        -0.38279542209169    1.71628095639741    3.10784681540215
H        -0.59844764638923    0.95676520732521    5.45863314394154
H        -0.80908684514036   -1.48873262051541    5.92176316086474
N        -0.33232552831374   -1.84725489190184    0.23192924518945
H        -0.53604058554769   -3.43134146791966    1.56897469977015
H        -0.26842519802461   -2.50968961634950   -0.53652267068894
C        -4.95458331618255    0.62768778030171   -1.09098677932421
C        -3.88217810055260    0.66372073045127   -1.97431296645980
C        -2.59148049524466    0.54756459077554   -1.46815070032193
H        -4.04256048877638    0.77591251344359   -3.03547534359356
N        -2.34442928284780    0.41257940259952   -0.15471801949729
C        -1.42237035566474    0.55101411970770   -2.34476553166388
C        -3.37023875093495    0.37379867115696    0.68089496252865
C        -4.69256208123375    0.47437087587987    0.26115226844868
H        -3.13091984732256    0.26020066055037    1.72900609339972
H        -5.49156502974452    0.43370294094240    0.98344187534143
H        -5.96749822345959    0.71485348802102   -1.45253670644104
N        -0.26555599120384    0.40640136490266   -1.84483709423817
H        -1.61341574344862    0.67078091764886   -3.41034874122090
H         0.50190512355365    0.40174209127514   -2.51154667060664
43
 energy: -68.521097627838 gnorm: 0.004152410142 xtb: 6.3.1 (2faf18d)
Zn       -0.28538712060668    0.23906769299134    0.23714934537560
C         0.95082191468527    4.95524392493095    0.77952135529920
C         1.87076572950335    3.91556934442576    0.77472453839439
C         1.41173825955139    2.60832316706969    0.62136133788706
H         2.92625191464617    4.11011095147396    0.88495442621773
N         0.10532486716360    2.31815850085255    0.48674184429291
C         2.34108740412879    1.49023559691441    0.60024295023870
C        -0.76551619954447    3.31726088839130    0.48973183096260
C        -0.39298277553185    4.64887966428806    0.63011430722064
H        -1.80593782936672    3.04549545779337    0.37949257684955
H        -1.14430552675160    5.42195387879846    0.62297975545212
H         1.27700367237495    5.97716827410255    0.89654292483527
N         1.88402372139628    0.31321952913404    0.42636799792144
H         3.39623355414960    1.71830819482702    0.73234708432747
Br        3.02395826053835   -1.14257393526300    0.39669048444743
C        -0.69583680988492   -1.12766780624835    4.91744148817468
C        -0.66525040081651   -2.00565634133190    3.84072493158242
C        -0.53493857995041   -1.48816527162588    2.55575998013735
H        -0.73872758911103   -3.07155258798753    3.99230853749318
N        -0.45326272537760   -0.16869712369452    2.31628440659839
C        -0.45848299176619   -2.35822344739249    1.38550736095215
C        -0.47451071461993    0.66226414322560    3.34673969189985
C        -0.58951965509445    0.23034971249547    4.66423444342195
H        -0.39868817453535    1.71588129133588    3.11704487932933
H        -0.59604959916673    0.94984652260068    5.46717612778453
H        -0.79655859142527   -1.49755869114520    5.92611827980533
N        -0.32496215664743   -1.84350230954496    0.23533111816868
H        -0.50945841169496   -3.43081876280974    1.56822802825592
H        -0.25069061426192   -2.50339330192298   -0.53445799222311
C        -4.96519204308134    0.62623293636135   -1.10332406718617
C        -3.88945456685653    0.66209671239461   -1.98254859766360
C        -2.60002851515388    0.54933919405597   -1.47143926344027
H        -4.04606761113520    0.77107595626277   -3.04469252175792
N        -2.35772709438534    0.42061810536418   -0.15610802964541
C        -1.42880320592223    0.54618607394569   -2.34441432423280
C        -3.38676853233919    0.38438670053222    0.67626505047600
C        -4.70752855170360    0.47891060243440    0.25006985891959
H        -3.15120558934438    0.27779092551355    1.72592007574932
H        -5.50911706368630    0.43781482045549    0.96986354093125
H        -5.97703400874274    0.70899386987309   -1.46902887607797
N        -0.27402281381878    0.40061691267708   -1.84226209856508
H        -1.61531202588694    0.66185049953293   -3.41126792534761
H         0.49562279007274    0.38953153391227   -2.50653086326222
43
 energy: -68.521205697073 gnorm: 0.002463437508 xtb: 6.3.1 (2faf18d)
Zn       -0.29440511227907    0.24271453329903    0.24105068775793
C         0.95903940056499    4.95588786415686    0.77541557934501
C         1.87654603648349    3.91449183719197    0.77116555429683
C         1.41463632625275    2.60719276813846    0.62292821652102
H         2.93263545297539    4.10811495722391    0.87763296080498
N         0.10715710079186    2.32053858366808    0.49343875819371
C         2.34286498095667    1.48822054326180    0.60081826807602
C        -0.76195814748624    3.32093667332298    0.49830261521938
C        -0.38604407146017    4.65212080534351    0.63319460290148
H        -1.80346658068294    3.05096229094149    0.39424275469964
H        -1.13569289666901    5.42706179737378    0.62727888331956
H         1.28776739014316    5.97761049525587    0.88671076317872
N         1.88597298432527    0.31199471700127    0.42600440527621
H         3.39859815746273    1.71477833182948    0.73291130322984
Br        3.02606313934478   -1.14337862401127    0.39238604989232
C        -0.68677485806626   -1.13370009171723    4.92164267353943
C        -0.65459082300781   -2.00900803668564    3.84313663488102
C        -0.53009207104422   -1.48825699170172    2.55847715580201
H        -0.72226062628416   -3.07548249868888    3.99332625797913
N        -0.45881600222237   -0.16760082337258    2.32261354458802
C        -0.44630473089606   -2.35578402691815    1.38784439719251
C        -0.48259416959917    0.66114045478602    3.35434523663661
C        -0.58904410196484    0.22540356763007    4.67145131648294
H        -0.41588216036699    1.71595175339103    3.12692059116844
H        -0.59550043903947    0.94273385792851    5.47660238559539
H        -0.78162983702909   -1.50638446306822    5.92985012788942
N        -0.32154237756290   -1.83956920554453    0.23802343829984
H        -0.48329000878296   -3.42967839076635    1.56834782497223
H        -0.23942056739458   -2.49601637031188   -0.53344088691764
C        -4.97452380487894    0.62444628527169   -1.11612659382009
C        -3.89531071298170    0.65912493525154   -1.99069248392753
C        -2.60732863798580    0.54970747400721   -1.47409010231786
H        -4.04842436973806    0.76472595355805   -3.05369298985721
N        -2.37099749030476    0.42710090647668   -0.15704989383611
C        -1.43443032332047    0.54274996650803   -2.34347412722894
C        -3.40307396786340    0.39420311336050    0.67125801179468
C        -4.72237283640680    0.48383545039237    0.23889584939504
H        -3.17238801270298    0.29463593663390    1.72277732542643
H        -5.52748929199179    0.44406319320854    0.95517489102736
H        -5.98500382237178    0.70290938354523   -1.48648680481253
N        -0.28109561141096    0.39850609539173   -1.83921985655267
H        -1.61715243967143    0.65293469403144   -3.41198450631763
H         0.49112393416614    0.38303230340565   -2.50000481979511
43
 energy: -68.521280052010 gnorm: 0.002094054836 xtb: 6.3.1 (2faf18d)
Zn       -0.30154265842344    0.24617397906674    0.24478500431394
C         0.96571423136521    4.95543977902957    0.77183385155805
C         1.88077007459576    3.91225496777943    0.76740191494304
C         1.41567065277441    2.60535106889200    0.62371213002221
H         2.93742992239113    4.10473957071329    0.87020084672399
N         0.10727583288160    2.32188716495359    0.49885375216992
C         2.34263572020529    1.48560053082048    0.60117108730871
C        -0.75962586324895    3.32375615353302    0.50538953851428
C        -0.38076325593032    4.65460332545627    0.63599707989505
H        -1.80223791337454    3.05605301750992    0.40594549978076
H        -1.12820765154783    5.43173106527038    0.63180348935435
H         1.29709905365341    5.97675082906973    0.87862786385789
N         1.88595133552250    0.30943481316915    0.42637067400762
H         3.39893466199064    1.71129830452077    0.73211737141342
Br        3.02735408805828   -1.14507246290496    0.39180404888838
C        -0.67754935232107   -1.13845996565962    4.92502015201037
C        -0.64306274158546   -2.01154491158248    3.84507177466272
C        -0.52446224021025   -1.48795190338711    2.56076660690273
H        -0.70459557625969   -3.07851409745275    3.99433903502238
N        -0.46270695957761   -0.16647914602345    2.32762647813190
C        -0.43696548885368   -2.35354487907931    1.38969687252426
C        -0.48983503342679    0.66017660514862    3.36035836931694
C        -0.58921529835275    0.22181848035542    4.67731515156285
H        -0.43122747501910    1.71606135378054    3.13514239228370
H        -0.59757917660141    0.93702181853184    5.48438558477588
H        -0.76705560756052   -1.51355229122731    5.93280872020414
N        -0.32263378103123   -1.83582186300660    0.23964340508974
H        -0.46272473152955   -3.42813784671420    1.56929119239555
H        -0.23678086917005   -2.48964039999581   -0.53314139087938
C        -4.98105810477870    0.62263176843128   -1.12695519185797
C        -3.89888575741204    0.65535834841493   -1.99755921949770
C        -2.61236136683540    0.54901065954297   -1.47608931648665
H        -4.04905364716074    0.75708328024685   -3.06134242953523
N        -2.38100557039897    0.43178030531204   -0.15777198974495
C        -1.43798536860117    0.54002275164296   -2.34257300074990
C        -3.41563586572540    0.40197807403607    0.66672996202209
C        -4.73383253298816    0.48837125817393    0.22965390314402
H        -3.18947749276132    0.30731713963401    1.71978881774585
H        -5.54211894555631    0.45125169508813    0.94259384945090
H        -5.99025324590337    0.69803369348244   -1.50134140508341
N        -0.28542160106958    0.40059315753816   -1.83574335906292
H        -1.61831728209257    0.64628581390282   -3.41220182774348
H         0.48884688186978    0.38382099398658   -2.49362128935630
43
 energy: -68.521341415419 gnorm: 0.002075939626 xtb: 6.3.1 (2faf18d)
Zn       -0.30721830463664    0.24937033284260    0.24824122298407
C         0.97089236673008    4.95438702505846    0.76895995518687
C         1.88368459546659    3.90941083798749    0.76347872780154
C         1.41537392253836    2.60321837810970    0.62369530270728
H         2.94093878596769    4.10040462080347    0.86258046566270
N         0.10609738104011    2.32240803822380    0.50324584471919
C         2.34085952638715    1.48259779293966    0.60096711622421
C        -0.75846983175252    3.32592852826011    0.51118542839877
C        -0.37688057080912    4.65639070877109    0.63859721145538
H        -1.80215378054533    3.06062970748400    0.41543969988273
H        -1.12207050639185    5.43562867377871    0.63634903007743
H         1.30485883082250    5.97517361922269    0.87239261604079
N         1.88368929209342    0.30614075695861    0.42863756938325
H         3.39757051168617    1.70764858578634    0.73064667110826
Br        3.02628659023021   -1.14786290436356    0.39390341324671
C        -0.66846183223944   -1.14200321424435    4.92771118556693
C        -0.63089796594578   -2.01339200809069    3.84664114183940
C        -0.51863001857170   -1.48742180650713    2.56267541551560
H        -0.68555046945707   -3.08083784391915    3.99522594958161
N        -0.46549239516958   -0.16539466259574    2.33128536166511
C        -0.43056862110724   -2.35150043770175    1.39087312454988
C        -0.49615404914708    0.65950400302344    3.36492234750734
C        -0.59001159050723    0.21934159186274    4.68177060349946
H        -0.44512688805211    1.71629036199697    3.14156455808704
H        -0.60188690637071    0.93281794951258    5.49025227352213
H        -0.75284760452056   -1.51906348442001    5.93520062283336
N        -0.32688450036554   -1.83244513699690    0.24035270695868
H        -0.44740727793495   -3.42628507051751    1.57037863603198
H        -0.24083054440381   -2.48473696896294   -0.53339856919679
C        -4.98518128690056    0.62109967859806   -1.13581363715968
C        -3.90058164032528    0.65101734563786   -2.00329509060889
C        -2.61544165178810    0.54777614562096   -1.47769103409446
H        -4.04818119783565    0.74859211417916   -3.06779619284758
N        -2.38790917410616    0.43494568968494   -0.15843466022025
C        -1.43946256099982    0.53940275224681   -2.34159713865709
C        -3.42472350349634    0.40777181812787    0.66282560880365
C        -4.74199295241664    0.49254259927569    0.22215880903403
H        -3.20236027963835    0.31669635886854    1.71710217195024
H        -5.55282744820645    0.45864322087018    0.93229046416166
H        -5.99326969735427    0.69428416768641   -1.51352653430993
N        -0.28732710905410    0.40543536980458   -1.83209743169025
H        -1.61842448354494    0.64110857766952   -3.41205090140931
H         0.48847884063272    0.38930818742710   -2.48794406579338
43
 energy: -68.521403799599 gnorm: 0.001990175358 xtb: 6.3.1 (2faf18d)
Zn       -0.31257693167249    0.25267962660069    0.25195397158432
C         0.97538717038335    4.95300952035641    0.76632135544758
C         1.88571852077736    3.90597429910891    0.75927998872535
C         1.41407219610006    2.60070230728207    0.62359227125916
H         2.94372209235896    4.09492171600892    0.85393170316523