      -----------------------------------------------------------      
     |                   =====================                   |     
     |                           x T B                           |     
     |                   =====================                   |     
     |                         S. Grimme                         |     
     |          Mulliken Center for Theoretical Chemistry        |     
     |                    University of Bonn                     |     
      -----------------------------------------------------------      

   * xtb version 6.4.0 (d4b70c2) compiled by 'ehlert@majestix' on 2021-02-01

   xtb is free software: you can redistribute it and/or modify it under
   the terms of the GNU Lesser General Public License as published by
   the Free Software Foundation, either version 3 of the License, or
   (at your option) any later version.
   
   xtb is distributed in the hope that it will be useful,
   but WITHOUT ANY WARRANTY; without even the implied warranty of
   MERCHANTABILITY or FITNESS FOR A PARTICULAR PURPOSE.  See the
   GNU Lesser General Public License for more details.
   
   Cite this work as:
   * C. Bannwarth, E. Caldeweyher, S. Ehlert, A. Hansen, P. Pracht,
     J. Seibert, S. Spicher, S. Grimme, WIREs Comput. Mol. Sci., 2020,
     e01493. DOI: 10.1002/wcms.1493
   
   for GFN2-xTB:
   * C. Bannwarth, S. Ehlert and S. Grimme., J. Chem. Theory Comput., 2019,
     15, 1652-1671. DOI: 10.1021/acs.jctc.8b01176
   for GFN1-xTB:
   * S. Grimme, C. Bannwarth, P. Shushkov, J. Chem. Theory Comput., 2017,
     13, 1989-2009. DOI: 10.1021/acs.jctc.7b00118
   for GFN0-xTB:
   * P. Pracht, E. Caldeweyher, S. Ehlert, S. Grimme, ChemRxiv, 2019, preprint.
     DOI: 10.26434/chemrxiv.8326202.v1
   for GFN-FF:
   * S. Spicher and S. Grimme, Angew. Chem. Int. Ed., 2020, 59, 15665-15673.
     DOI: 10.1002/anie.202004239
   
   for DFT-D4:
   * E. Caldeweyher, C. Bannwarth and S. Grimme, J. Chem. Phys., 2017,
     147, 034112. DOI: 10.1063/1.4993215
   * E. Caldeweyher, S. Ehlert, A. Hansen, H. Neugebauer, S. Spicher,
     C. Bannwarth and S. Grimme, J. Chem. Phys., 2019, 150, 154122.
     DOI: 10.1063/1.5090222
   * E. Caldeweyher, J.-M. Mewes, S. Ehlert and S. Grimme, Phys. Chem. Chem. Phys.
     2020, 22, 8499-8512. DOI: 10.1039/D0CP00502A
   
   for sTDA-xTB:
   * S. Grimme and C. Bannwarth, J. Chem. Phys., 2016, 145, 054103.
     DOI: 10.1063/1.4959605
   
   in the mass-spec context:
   * V. Asgeirsson, C. Bauer and S. Grimme, Chem. Sci., 2017, 8, 4879.
     DOI: 10.1039/c7sc00601b
   * J. Koopman and S. Grimme, ACS Omega 2019, 4, 12, 15120-15133.
     DOI: 10.1021/acsomega.9b02011
   
   for metadynamics refer to:
   * S. Grimme, J. Chem. Theory Comput., 2019, 155, 2847-2862
     DOI: 10.1021/acs.jctc.9b00143
   
   with help from (in alphabetical order)
   P. Atkinson, C. Bannwarth, F. Bohle, G. Brandenburg, E. Caldeweyher
   M. Checinski, S. Dohm, S. Ehlert, S. Ehrlich, I. Gerasimov, J. Koopman
   C. Lavinge, S. Lehtola, F. März, M. Müller, F. Musil, H. Neugebauer
   J. Pisarek, P. Pracht, J. Seibert, P. Shushkov, S. Spicher, M. Stahn
   T. Strunk, J. Stückrath, T. Rose, and J. Unsleber
   
 * started run on 2021/03/23 at 15:55:06.114     

           -------------------------------------------------
          |                Calculation Setup                |
           -------------------------------------------------

          program call               : /home/atarzia/software/xtb-6.4.0/bin/xtb zn2ll.xyz --opt --charge 4 --uhf 0 -P 4
          coordinate file            : zn2ll.xyz
          omp threads                :                     4
          number of atoms            :                   260
          number of electrons        :                   750
          charge                     :                     4
          spin                       :                   0.0
          first test random number   :      0.57758863740369

   ID    Z sym.   atoms
    1   30 Zn     1, 162
    2    8 O      2, 42, 82, 122, 163, 203
    3    6 C      3, 6, 7, 9, 11, 13, 15, 17, 19, 20, 22, 24, 25, 27, 28, 30,
                  31, 33, 35, 37, 39-41, 43, 46, 47, 49, 51, 53, 55, 57, 59,
                  60, 62, 64, 65, 67, 68, 70, 71, 73, 75, 77, 79-81, 83, 86,
                  87, 89, 91, 93, 95, 97, 99, 100, 102, 104, 105, 107, 108,
                  110, 111, 113, 115, 117, 119-121, 123, 126, 127, 129, 131,
                  133, 135, 137, 139, 140, 142, 144, 145, 147, 148, 150, 151,
                  153, 155, 157, 159-161, 164, 167, 168, 170, 172, 174, 176,
                  178, 180, 181, 183, 185, 186, 188, 189, 191, 192, 194, 196,
                  198, 200-202, 204, 207, 208, 210, 212, 214, 216, 218, 220,
                  221, 223, 225, 226, 228, 229, 231, 232, 234, 236, 238,
                  240-242
    4    7 N      4, 5, 44, 45, 84, 85, 124, 125, 165, 166, 205, 206
    5    1 H      8, 10, 12, 14, 16, 18, 21, 23, 26, 29, 32, 34, 36, 38, 48,
                  50, 52, 54, 56, 58, 61, 63, 66, 69, 72, 74, 76, 78, 88, 90,
                  92, 94, 96, 98, 101, 103, 106, 109, 112, 114, 116, 118,
                  128, 130, 132, 134, 136, 138, 141, 143, 146, 149, 152, 154,
                  156, 158, 169, 171, 173, 175, 177, 179, 182, 184, 187, 190,
                  193, 195, 197, 199, 209, 211, 213, 215, 217, 219, 222, 224,
                  227, 230, 233, 235, 237, 239, 243-260
########################################################################
[WARNING] Please study the warnings concerning your input carefully
-1- prog_main_parseArguments: Process number higher than OMP_NUM_THREADS, I hope you know what you are doing.
########################################################################

           -------------------------------------------------
          |                 G F N 2 - x T B                 |
           -------------------------------------------------

        Reference                      10.1021/acs.jctc.8b01176
      * Hamiltonian:
        H0-scaling (s, p, d)           1.850000    2.230000    2.230000
        zeta-weighting                 0.500000
      * Dispersion:
        s8                             2.700000
        a1                             0.520000
        a2                             5.000000
        s9                             5.000000
      * Repulsion:
        kExp                           1.500000    1.000000
        rExp                           1.000000
      * Coulomb:
        alpha                          2.000000
        third order                    shell-resolved
        anisotropic                    true
        a3                             3.000000
        a5                             4.000000
        cn-shift                       1.200000
        cn-exp                         4.000000
        max-rad                        5.000000


          ...................................................
          :                      SETUP                      :
          :.................................................:
          :  # basis functions                 734          :
          :  # atomic orbitals                 734          :
          :  # shells                          418          :
          :  # electrons                       750          :
          :  max. iterations                   250          :
          :  Hamiltonian                  GFN2-xTB          :
          :  restarted?                      false          :
          :  GBSA solvation                  false          :
          :  PC potential                    false          :
          :  electronic temp.          300.0000000     K    :
          :  accuracy                    1.0000000          :
          :  -> integral cutoff          0.2500000E+02      :
          :  -> integral neglect         0.1000000E-07      :
          :  -> SCF convergence          0.1000000E-05 Eh   :
          :  -> wf. convergence          0.1000000E-03 e    :
          :  Broyden damping             0.4000000          :
          ...................................................

 iter      E             dE          RMSdq      gap      omega  full diag
   1   -411.4427091 -0.411443E+03  0.463E+00    0.57       0.0  T
   2   -411.9873450 -0.544636E+00  0.278E+00    0.03       1.0  T
   3   -411.7382278  0.249117E+00  0.180E+00    0.85       1.0  T
   4   -412.3201787 -0.581951E+00  0.755E-01    0.78       1.0  T
   5   -412.4386070 -0.118428E+00  0.384E-01    0.68       1.0  T
   6   -412.4562048 -0.175977E-01  0.224E-01    0.42       1.0  T
   7   -412.4513964  0.480835E-02  0.176E-01    0.13       1.0  T
   8   -412.4580253 -0.662892E-02  0.132E-01    0.47       1.0  T
   9   -412.4645500 -0.652464E-02  0.654E-02    0.28       1.0  T
  10   -412.4657230 -0.117304E-02  0.192E-02    0.20       1.0  T
  11   -412.4657606 -0.375325E-04  0.883E-03    0.19       1.0  T
  12   -412.4657730 -0.124006E-04  0.410E-03    0.19       1.5  T
  13   -412.4657695  0.347925E-05  0.368E-03    0.19       1.7  T
  14   -412.4657700 -0.566533E-06  0.325E-03    0.19       1.9  T
  15   -412.4657761 -0.605296E-05  0.856E-04    0.19       7.2  T
  16   -412.4657762 -0.962639E-07  0.589E-04    0.19      10.5  T
  17   -412.4657762 -0.221249E-07  0.490E-04    0.19      12.7  T

   *** convergence criteria satisfied after 17 iterations ***

         #    Occupation            Energy/Eh            Energy/eV
      -------------------------------------------------------------
         1        2.0000           -1.0113207             -27.5194
       ...           ...                  ...                  ...
       369        2.0000           -0.6331927             -17.2300
       370        2.0000           -0.6302905             -17.1511
       371        2.0000           -0.6247774             -17.0011
       372        2.0000           -0.6232075             -16.9583
       373        2.0000           -0.6231838             -16.9577
       374        1.9881           -0.6081937             -16.5498
       375        1.9381           -0.6066044             -16.5065 (HOMO)
       376        0.0396           -0.5996254             -16.3166 (LUMO)
       377        0.0340           -0.5994782             -16.3126
       378        0.0001           -0.5939629             -16.1626
       379        0.0001           -0.5939483             -16.1622
       380        0.0000           -0.5908826             -16.0787
       ...           ...                  ...                  ...
       734                          7.3908363             201.1149
      -------------------------------------------------------------
                  HL-Gap            0.0069790 Eh            0.1899 eV
             Fermi-level           -0.6033326 Eh          -16.4175 eV

 SCC (total)                   0 d,  0 h,  0 min, 29.917 sec
 SCC setup                      ...        0 min,  0.021 sec (  0.070%)
 Dispersion                     ...        0 min,  0.143 sec (  0.477%)
 classical contributions        ...        0 min,  0.013 sec (  0.043%)
 integral evaluation            ...        0 min,  2.690 sec (  8.992%)
 iterations                     ...        0 min, 22.275 sec ( 74.457%)
 molecular gradient             ...        0 min,  4.698 sec ( 15.703%)
 printout                       ...        0 min,  0.077 sec (  0.257%)

         :::::::::::::::::::::::::::::::::::::::::::::::::::::
         ::                     SUMMARY                     ::
         :::::::::::::::::::::::::::::::::::::::::::::::::::::
         :: total energy            -403.502753950560 Eh    ::
         :: gradient norm              9.969006469880 Eh/a0 ::
         :: HOMO-LUMO gap              0.189906990834 eV    ::
         ::.................................................::
         :: SCC energy              -412.465776220018 Eh    ::
         :: -> isotropic ES            0.753907444796 Eh    ::
         :: -> anisotropic ES         -0.044736477630 Eh    ::
         :: -> anisotropic XC          0.247563836952 Eh    ::
         :: -> dispersion             -0.505946436756 Eh    ::
         :: repulsion energy           8.906581090809 Eh    ::
         :: add. restraining           0.000000000000 Eh    ::
         :: total charge               4.000000000000 e     ::
         :::::::::::::::::::::::::::::::::::::::::::::::::::::

      ----------------------------------------------------------- 
     |                   =====================                   |
     |                        A N C O P T                        |
     |                   =====================                   |
     |               Approximate Normal Coordinate               |
     |                Rational Function Optimizer                |
      ----------------------------------------------------------- 

          ...................................................
          :                      SETUP                      :
          :.................................................:
          :   optimization level            normal          :
          :   max. optcycles                   780          :
          :   ANC micro-cycles                  20          :
          :   degrees of freedom               774          :
          :.................................................:
          :   RF solver                   davidson          :
          :   write xtbopt.log                true          :
          :   linear?                        false          :
          :   energy convergence         0.5000000E-05 Eh   :
          :   grad. convergence          0.1000000E-02 Eh/α :
          :   maximium RF displ.         1.0000000          :
          :   Hlow (freq-cutoff)         0.1000000E-01      :
          :   Hmax (freq-cutoff)         5.0000000          :
          :   S6 in model hess.         20.0000000          :
          ...................................................

generating ANC from model Hessian ...
Using Lindh-Hessian (1995)
 Shifting diagonal of input Hessian by   1.039907579441122E-002
 Lowest  eigenvalues of input Hessian
    0.010000    0.010286    0.000000    0.000000    0.000000    0.000000
    0.000000    0.000000    0.010424    0.010470    0.010489    0.010528
    0.010596    0.010664    0.010702    0.010711    0.010739    0.010765
 Highest eigenvalues
    2.807345    2.813965    4.402534    4.404223   16.375388   16.414230
 

........................................................................
.............................. CYCLE    1 ..............................
........................................................................
   1   -412.4657763 -0.412466E+03  0.251E-04    0.19       0.0  T
   2   -412.4657762  0.169136E-06  0.551E-04    0.19      11.3  T
   3   -412.4657764 -0.184476E-06  0.139E-04    0.19      44.6  T
     SCC iter.                  ...        0 min,  6.637 sec
     gradient                   ...        0 min,  6.528 sec
 * total energy  :  -403.5027541 Eh     change       -0.1318248E-06 Eh
   gradient norm :     9.9690075 Eh/α   predicted     0.0000000E+00 (-100.00%)
   displ. norm   :     0.8040814 α      lambda       -0.8010155E+01
   maximum displ.:     0.5671184 α      in ANC's #772, #771, #649, ...

........................................................................
.............................. CYCLE    2 ..............................
........................................................................
   1   -412.4749483 -0.412475E+03  0.263E-01    0.39       0.0  T
   2   -412.4742804  0.667869E-03  0.168E-01    0.22       1.0  T
   3   -412.4637061  0.105743E-01  0.150E-01    0.56       1.0  T
   4   -412.4750608 -0.113547E-01  0.493E-02    0.35       1.0  T
   5   -412.4757887 -0.727961E-03  0.141E-02    0.30       1.0  T
   6   -412.4758487 -0.599655E-04  0.750E-03    0.28       1.0  T
   7   -412.4758565 -0.776377E-05  0.427E-03    0.28       1.5  T
   8   -412.4758574 -0.918939E-06  0.268E-03    0.28       2.3  T
   9   -412.4758586 -0.122879E-05  0.792E-04    0.28       7.8  T
  10   -412.4758588 -0.174117E-06  0.307E-04    0.28      20.2  T
  11   -412.4758588 -0.991457E-08  0.146E-04    0.28      42.6  T
     SCC iter.                  ...        0 min, 48.844 sec
     gradient                   ...        0 min,  9.439 sec
 * total energy  :  -405.6124119 Eh     change       -0.2109658E+01 Eh
   gradient norm :     0.7280270 Eh/α   predicted    -0.6597827E+01 ( 212.74%)
   displ. norm   :     0.5132735 α      lambda       -0.2626527E+00
   maximum displ.:     0.0877180 α      in ANC's #232, #576, #478, ...

........................................................................
.............................. CYCLE    3 ..............................
........................................................................
   1   -412.6760162 -0.412676E+03  0.182E-01    0.72       0.0  T
   2   -412.6786156 -0.259935E-02  0.144E-01    0.44       1.0  T
   3   -412.6811555 -0.253995E-02  0.792E-02    0.53       1.0  T
   4   -412.6808221  0.333467E-03  0.496E-02    0.47       1.0  T
   5   -412.6815760 -0.753901E-03  0.157E-02    0.49       1.0  T
   6   -412.6816356 -0.596698E-04  0.558E-03    0.49       1.1  T
   7   -412.6816407 -0.503635E-05  0.254E-03    0.49       2.4  T
   8   -412.6816418 -0.117655E-05  0.117E-03    0.49       5.3  T
   9   -412.6816419 -0.547436E-07  0.576E-04    0.49      10.8  T
  10   -412.6816420 -0.650815E-07  0.247E-04    0.49      25.1  T
     SCC iter.                  ...        0 min, 43.580 sec
     gradient                   ...        0 min,  8.640 sec
 * total energy  :  -405.8235083 Eh     change       -0.2110964E+00 Eh
   gradient norm :     0.4971962 Eh/α   predicted    -0.1659237E+00 ( -21.40%)
   displ. norm   :     0.5622051 α      lambda       -0.1829390E+00
   maximum displ.:     0.0921662 α      in ANC's #232, #649, #576, ...

........................................................................
.............................. CYCLE    4 ..............................
........................................................................
   1   -412.8787545 -0.412879E+03  0.197E-01    0.99       0.0  T
   2   -412.8825863 -0.383176E-02  0.143E-01    0.81       1.0  T
   3   -412.8841103 -0.152402E-02  0.816E-02    0.87       1.0  T
   4   -412.8840335  0.767506E-04  0.419E-02    0.83       1.0  T
   5   -412.8845035 -0.469931E-03  0.121E-02    0.84       1.0  T
   6   -412.8845439 -0.404235E-04  0.440E-03    0.84       1.4  T
   7   -412.8845465 -0.256911E-05  0.214E-03    0.84       2.9  T
   8   -412.8845471 -0.578912E-06  0.117E-03    0.85       5.3  T
   9   -412.8845472 -0.150224E-06  0.443E-04    0.84      14.0  T
  10   -412.8845472 -0.379450E-07  0.179E-04    0.84      34.6  T
     SCC iter.                  ...        0 min, 43.216 sec
     gradient                   ...        0 min, 10.838 sec
 * total energy  :  -405.9411506 Eh     change       -0.1176423E+00 Eh
   gradient norm :     0.3123997 Eh/α   predicted    -0.1203806E+00 (   2.33%)
   displ. norm   :     0.6450531 α      lambda       -0.6102042E-01
   maximum displ.:     0.1377636 α      in ANC's #77, #172, #112, ...

........................................................................
.............................. CYCLE    5 ..............................
........................................................................
   1   -412.9566986 -0.412957E+03  0.144E-01    0.98       0.0  T
   2   -412.9569973 -0.298698E-03  0.920E-02    0.99       1.0  T
   3   -412.9565964  0.400954E-03  0.514E-02    0.98       1.0  T
   4   -412.9572169 -0.620506E-03  0.107E-02    0.97       1.0  T
   5   -412.9572434 -0.265059E-04  0.460E-03    0.98       1.3  T
   6   -412.9572472 -0.384503E-05  0.204E-03    0.98       3.0  T
   7   -412.9572475 -0.265170E-06  0.105E-03    0.98       5.9  T
   8   -412.9572477 -0.194720E-06  0.448E-04    0.98      13.8  T
   9   -412.9572477 -0.230785E-07  0.194E-04    0.98      32.0  T
     SCC iter.                  ...        0 min, 46.689 sec
     gradient                   ...        0 min, 13.339 sec
 * total energy  :  -405.9914290 Eh     change       -0.5027844E-01 Eh
   gradient norm :     0.2668171 Eh/α   predicted    -0.4320540E-01 ( -14.07%)
   displ. norm   :     0.7219321 α      lambda       -0.4996518E-01
   maximum displ.:     0.1890831 α      in ANC's #77, #112, #51, ...

........................................................................
.............................. CYCLE    6 ..............................
........................................................................
   1   -413.0011885 -0.413001E+03  0.145E-01    1.05       0.0  T
   2   -413.0014706 -0.282158E-03  0.915E-02    1.09       1.0  T
   3   -413.0009128  0.557857E-03  0.519E-02    1.06       1.0  T
   4   -413.0016843 -0.771495E-03  0.111E-02    1.07       1.0  T
   5   -413.0017117 -0.274205E-04  0.412E-03    1.07       1.5  T
   6   -413.0017142 -0.254334E-05  0.213E-03    1.07       2.9  T
   7   -413.0017147 -0.474155E-06  0.983E-04    1.07       6.3  T
   8   -413.0017149 -0.171948E-06  0.437E-04    1.07      14.2  T
     SCC iter.                  ...        0 min, 38.101 sec
     gradient                   ...        0 min,  9.943 sec
 * total energy  :  -406.0336073 Eh     change       -0.4217822E-01 Eh
   gradient norm :     0.2248879 Eh/α   predicted    -0.3800322E-01 (  -9.90%)
   displ. norm   :     0.7357930 α      lambda       -0.4260188E-01
   maximum displ.:     0.2171358 α      in ANC's #77, #74, #51, ...

........................................................................
.............................. CYCLE    7 ..............................
........................................................................
   1   -413.0345195 -0.413035E+03  0.137E-01    1.11       0.0  T
   2   -413.0347705 -0.251022E-03  0.831E-02    1.15       1.0  T
   3   -413.0342847  0.485789E-03  0.449E-02    1.12       1.0  T
   4   -413.0348927 -0.607933E-03  0.117E-02    1.13       1.0  T
   5   -413.0349262 -0.335193E-04  0.371E-03    1.13       1.7  T
   6   -413.0349280 -0.179838E-05  0.208E-03    1.13       3.0  T
   7   -413.0349287 -0.716268E-06  0.836E-04    1.13       7.4  T
   8   -413.0349288 -0.822412E-07  0.436E-04    1.13      14.2  T
     SCC iter.                  ...        0 min, 38.612 sec
     gradient                   ...        0 min,  9.231 sec
 * total energy  :  -406.0707175 Eh     change       -0.3711025E-01 Eh
   gradient norm :     0.1853776 Eh/α   predicted    -0.3283309E-01 ( -11.53%)
   displ. norm   :     0.7189636 α      lambda       -0.4090996E-01
   maximum displ.:     0.2282521 α      in ANC's #77, #74, #35, ...

........................................................................
.............................. CYCLE    8 ..............................
........................................................................
   1   -413.0613719 -0.413061E+03  0.135E-01    1.13       0.0  T
   2   -413.0617077 -0.335829E-03  0.796E-02    1.16       1.0  T
   3   -413.0613430  0.364678E-03  0.416E-02    1.13       1.0  T
   4   -413.0617749 -0.431883E-03  0.155E-02    1.15       1.0  T
   5   -413.0618490 -0.741066E-04  0.398E-03    1.15       1.6  T
   6   -413.0618507 -0.169585E-05  0.218E-03    1.15       2.8  T
   7   -413.0618517 -0.964190E-06  0.846E-04    1.15       7.3  T
   8   -413.0618517 -0.329452E-07  0.476E-04    1.15      13.0  T
     SCC iter.                  ...        0 min, 31.543 sec
     gradient                   ...        0 min, 10.195 sec
 * total energy  :  -406.1059622 Eh     change       -0.3524471E-01 Eh
   gradient norm :     0.1397517 Eh/α   predicted    -0.3102836E-01 ( -11.96%)
   displ. norm   :     0.6846200 α      lambda       -0.3818292E-01
   maximum displ.:     0.2303535 α      in ANC's #77, #74, #62, ...

........................................................................
.............................. CYCLE    9 ..............................
........................................................................
   1   -413.0863996 -0.413086E+03  0.142E-01    1.14       0.0  T
   2   -413.0869528 -0.553175E-03  0.830E-02    1.18       1.0  T
   3   -413.0867045  0.248288E-03  0.446E-02    1.14       1.0  T
   4   -413.0869964 -0.291880E-03  0.206E-02    1.17       1.0  T
   5   -413.0871447 -0.148344E-03  0.525E-03    1.16       1.2  T
   6   -413.0871474 -0.268673E-05  0.255E-03    1.16       2.4  T
   7   -413.0871483 -0.924204E-06  0.118E-03    1.16       5.2  T
   8   -413.0871484 -0.379783E-07  0.618E-04    1.16      10.0  T
   9   -413.0871484 -0.800897E-07  0.251E-04    1.16      24.7  T
     SCC iter.                  ...        0 min, 39.432 sec
     gradient                   ...        0 min,  9.725 sec
 * total energy  :  -406.1387030 Eh     change       -0.3274082E-01 Eh
   gradient norm :     0.1108410 Eh/α   predicted    -0.2803975E-01 ( -14.36%)
   displ. norm   :     0.6760257 α      lambda       -0.3898003E-01
   maximum displ.:     0.2218146 α      in ANC's #77, #74, #62, ...

........................................................................
.............................. CYCLE   10 ..............................
........................................................................
   1   -413.1191259 -0.413119E+03  0.203E-01    1.16       0.0  T
   2   -413.1204028 -0.127688E-02  0.118E-01    1.22       1.0  T
   3   -413.1201219  0.280905E-03  0.653E-02    1.17       1.0  T
   4   -413.1205432 -0.421304E-03  0.304E-02    1.21       1.0  T
   5   -413.1208792 -0.335986E-03  0.806E-03    1.20       1.0  T
   6   -413.1208842 -0.495756E-05  0.418E-03    1.20       1.5  T
   7   -413.1208861 -0.196056E-05  0.199E-03    1.20       3.1  T
   8   -413.1208863 -0.135020E-06  0.934E-04    1.20       6.6  T
   9   -413.1208864 -0.183729E-06  0.408E-04    1.20      15.2  T
     SCC iter.                  ...        0 min, 39.530 sec
     gradient                   ...        0 min,  9.104 sec
 * total energy  :  -406.1736321 Eh     change       -0.3492902E-01 Eh
   gradient norm :     0.1189340 Eh/α   predicted    -0.2839724E-01 ( -18.70%)
   displ. norm   :     0.7158489 α      lambda       -0.5181123E-01
   maximum displ.:     0.2434491 α      in ANC's #771, #772, #77, ...

........................................................................
.............................. CYCLE   11 ..............................
........................................................................
   1   -413.1753869 -0.413175E+03  0.323E-01    1.21       0.0  T
   2   -413.1786484 -0.326154E-02  0.186E-01    1.30       1.0  T
   3   -413.1782654  0.382965E-03  0.109E-01    1.23       1.0  T
   4   -413.1790610 -0.795540E-03  0.474E-02    1.29       1.0  T
   5   -413.1799184 -0.857459E-03  0.109E-02    1.27       1.0  T
   6   -413.1799272 -0.872926E-05  0.658E-03    1.27       1.0  T
   7   -413.1799316 -0.442604E-05  0.321E-03    1.27       1.9  T
   8   -413.1799320 -0.377443E-06  0.146E-03    1.27       4.3  T
   9   -413.1799323 -0.383979E-06  0.620E-04    1.27      10.0  T
  10   -413.1799324 -0.428948E-07  0.318E-04    1.27      19.5  T
     SCC iter.                  ...        0 min, 55.787 sec
     gradient                   ...        0 min, 13.871 sec
 * total energy  :  -406.2246465 Eh     change       -0.5101444E-01 Eh
   gradient norm :     0.1771624 Eh/α   predicted    -0.3918079E-01 ( -23.20%)
   displ. norm   :     0.9102925 α      lambda       -0.8610632E-01
   maximum displ.:     0.4127315 α      in ANC's #771, #772, #649, ...

........................................................................
.............................. CYCLE   12 ..............................
........................................................................
   1   -413.2477788 -0.413248E+03  0.286E-01    1.28       0.0  T
   2   -413.2506843 -0.290555E-02  0.168E-01    1.32       1.0  T
   3   -413.2503481  0.336182E-03  0.989E-02    1.28       1.0  T
   4   -413.2509872 -0.639103E-03  0.417E-02    1.31       1.0  T
   5   -413.2515954 -0.608138E-03  0.978E-03    1.31       1.0  T
   6   -413.2516056 -0.102583E-04  0.585E-03    1.31       1.1  T
   7   -413.2516092 -0.359240E-05  0.252E-03    1.31       2.5  T
   8   -413.2516095 -0.332206E-06  0.119E-03    1.31       5.2  T
   9   -413.2516098 -0.273804E-06  0.451E-04    1.31      13.7  T
  10   -413.2516098 -0.196283E-07  0.239E-04    1.31      25.9  T
     SCC iter.                  ...        1 min,  0.177 sec
     gradient                   ...        0 min, 11.866 sec
 * total energy  :  -406.2914953 Eh     change       -0.6684878E-01 Eh
   gradient norm :     0.2548772 Eh/α   predicted    -0.7872872E-01 (  17.77%)
   displ. norm   :     0.5439900 α      lambda       -0.5231617E-01
   maximum displ.:     0.2064553 α      in ANC's #771, #772, #649, ...

........................................................................
.............................. CYCLE   13 ..............................
........................................................................
   1   -413.2774064 -0.413277E+03  0.155E-01    1.32       0.0  T
   2   -413.2776493 -0.242960E-03  0.884E-02    1.29       1.0  T
   3   -413.2773112  0.338101E-03  0.386E-02    1.31       1.0  T
   4   -413.2777280 -0.416793E-03  0.978E-03    1.30       1.0  T
   5   -413.2777427 -0.146950E-04  0.457E-03    1.30       1.4  T
   6   -413.2777453 -0.259143E-05  0.223E-03    1.30       2.8  T
   7   -413.2777459 -0.594586E-06  0.106E-03    1.30       5.9  T
   8   -413.2777461 -0.174908E-06  0.411E-04    1.30      15.1  T
   9   -413.2777461 -0.283252E-07  0.185E-04    1.30      33.6  T
     SCC iter.                  ...        0 min, 53.050 sec
     gradient                   ...        0 min, 11.590 sec
 * total energy  :  -406.3325913 Eh     change       -0.4109604E-01 Eh
   gradient norm :     0.2398127 Eh/α   predicted    -0.3389898E-01 ( -17.51%)
   displ. norm   :     0.4845290 α      lambda       -0.7003354E-01
   maximum displ.:     0.1279886 α      in ANC's #676, #649, #675, ...

........................................................................
.............................. CYCLE   14 ..............................
........................................................................
   1   -413.3117190 -0.413312E+03  0.198E-01    1.33       0.0  T
   2   -413.3124007 -0.681667E-03  0.116E-01    1.29       1.0  T
   3   -413.3117727  0.627972E-03  0.619E-02    1.30       1.0  T
   4   -413.3125918 -0.819108E-03  0.161E-02    1.28       1.0  T
   5   -413.3126435 -0.516850E-04  0.717E-03    1.29       1.0  T
   6   -413.3126556 -0.120835E-04  0.276E-03    1.29       2.2  T
   7   -413.3126565 -0.942518E-06  0.137E-03    1.29       4.5  T
   8   -413.3126566 -0.990687E-07  0.685E-04    1.29       9.1  T
   9   -413.3126567 -0.934233E-07  0.239E-04    1.29      26.0  T
     SCC iter.                  ...        0 min, 47.874 sec
     gradient                   ...        0 min, 11.433 sec
 * total energy  :  -406.3839216 Eh     change       -0.5133031E-01 Eh
   gradient norm :     0.1510141 Eh/α   predicted    -0.4323763E-01 ( -15.77%)
   displ. norm   :     0.6271717 α      lambda       -0.5304024E-01
   maximum displ.:     0.1824518 α      in ANC's #77, #92, #104, ...

........................................................................
.............................. CYCLE   15 ..............................
........................................................................
   1   -413.3728670 -0.413373E+03  0.151E-01    1.33       0.0  T
   2   -413.3732212 -0.354261E-03  0.912E-02    1.30       1.0  T
   3   -413.3728677  0.353527E-03  0.464E-02    1.31       1.0  T
   4   -413.3733030 -0.435316E-03  0.125E-02    1.30       1.0  T
   5   -413.3733391 -0.360660E-04  0.560E-03    1.30       1.1  T
   6   -413.3733462 -0.713875E-05  0.201E-03    1.30       3.1  T
   7   -413.3733466 -0.399467E-06  0.993E-04    1.30       6.2  T
   8   -413.3733467 -0.462940E-07  0.515E-04    1.30      12.0  T
     SCC iter.                  ...        0 min, 49.589 sec
     gradient                   ...        0 min, 12.077 sec
 * total energy  :  -406.4105879 Eh     change       -0.2666632E-01 Eh
   gradient norm :     0.1042017 Eh/α   predicted    -0.3695167E-01 (  38.57%)
   displ. norm   :     0.5809626 α      lambda       -0.3211866E-01
   maximum displ.:     0.1597902 α      in ANC's #92, #78, #115, ...

........................................................................
.............................. CYCLE   16 ..............................
........................................................................
   1   -413.4299011 -0.413430E+03  0.122E-01    1.35       0.0  T
   2   -413.4300708 -0.169709E-03  0.740E-02    1.33       1.0  T
   3   -413.4298024  0.268376E-03  0.412E-02    1.33       1.0  T
   4   -413.4301558 -0.353372E-03  0.799E-03    1.33       1.0  T
   5   -413.4301686 -0.128441E-04  0.370E-03    1.33       1.7  T
   6   -413.4301720 -0.335112E-05  0.143E-03    1.33       4.3  T
   7   -413.4301721 -0.130650E-06  0.787E-04    1.33       7.9  T
   8   -413.4301722 -0.891764E-07  0.312E-04    1.33      19.9  T
     SCC iter.                  ...        0 min, 50.091 sec
     gradient                   ...        0 min, 12.147 sec
 * total energy  :  -406.4183211 Eh     change       -0.7733132E-02 Eh
   gradient norm :     0.1124034 Eh/α   predicted    -0.2147964E-01 ( 177.76%)
   displ. norm   :     0.5202113 α      lambda       -0.2282419E-01
   maximum displ.:     0.1842175 α      in ANC's #77, #1, #2, ...

........................................................................
.............................. CYCLE   17 ..............................
........................................................................
   1   -413.4268159 -0.413427E+03  0.890E-02    1.32       0.0  T
   2   -413.4269381 -0.122174E-03  0.531E-02    1.33       1.0  T
   3   -413.4267771  0.161027E-03  0.308E-02    1.33       1.0  T
   4   -413.4269880 -0.210911E-03  0.748E-03    1.33       1.0  T
   5   -413.4270005 -0.124661E-04  0.314E-03    1.33       2.0  T
   6   -413.4270025 -0.204921E-05  0.114E-03    1.33       5.4  T
   7   -413.4270026 -0.139356E-06  0.539E-04    1.33      11.5  T
   8   -413.4270027 -0.316226E-07  0.263E-04    1.33      23.6  T
     SCC iter.                  ...        1 min,  1.025 sec
     gradient                   ...        0 min, 11.640 sec
 * total energy  :  -406.4318557 Eh     change       -0.1353459E-01 Eh
   gradient norm :     0.0433343 Eh/α   predicted    -0.1450046E-01 (   7.14%)
   displ. norm   :     0.6802259 α      lambda       -0.1083260E-01
   maximum displ.:     0.2171033 α      in ANC's #2, #77, #20, ...

........................................................................
.............................. CYCLE   18 ..............................
........................................................................
   1   -413.4514059 -0.413451E+03  0.774E-02    1.33       0.0  T
   2   -413.4514263 -0.204146E-04  0.461E-02    1.33       1.0  T
   3   -413.4513167  0.109665E-03  0.201E-02    1.33       1.0  T
   4   -413.4514404 -0.123705E-03  0.345E-03    1.33       1.8  T
   5   -413.4514430 -0.263914E-05  0.165E-03    1.33       3.8  T
   6   -413.4514434 -0.378551E-06  0.627E-04    1.33       9.9  T
   7   -413.4514434 -0.300661E-07  0.275E-04    1.33      22.6  T
     SCC iter.                  ...        0 min, 42.472 sec
     gradient                   ...        0 min, 13.189 sec
 * total energy  :  -406.4399940 Eh     change       -0.8138318E-02 Eh
   gradient norm :     0.0426168 Eh/α   predicted    -0.7922473E-02 (  -2.65%)
   displ. norm   :     0.8106933 α      lambda       -0.1211354E-01
   maximum displ.:     0.2639851 α      in ANC's #2, #20, #1, ...

........................................................................
.............................. CYCLE   19 ..............................
........................................................................
   1   -413.4700721 -0.413470E+03  0.916E-02    1.32       0.0  T
   2   -413.4700972 -0.251154E-04  0.541E-02    1.32       1.0  T
   3   -413.4699726  0.124662E-03  0.216E-02    1.32       1.0  T
   4   -413.4701124 -0.139845E-03  0.372E-03    1.32       1.7  T
   5   -413.4701156 -0.319871E-05  0.174E-03    1.32       3.6  T
   6   -413.4701161 -0.444574E-06  0.819E-04    1.32       7.6  T
   7   -413.4701161 -0.406612E-07  0.346E-04    1.32      17.9  T
     SCC iter.                  ...        0 min, 37.512 sec
     gradient                   ...        0 min, 11.828 sec
 * total energy  :  -406.4467046 Eh     change       -0.6710662E-02 Eh
   gradient norm :     0.0633411 Eh/α   predicted    -0.1003744E-01 (  49.57%)
   displ. norm   :     0.6975928 α      lambda       -0.1327441E-01
   maximum displ.:     0.2073967 α      in ANC's #2, #1, #20, ...

........................................................................
.............................. CYCLE   20 ..............................
........................................................................
   1   -413.4736502 -0.413474E+03  0.888E-02    1.32       0.0  T
   2   -413.4736825 -0.323404E-04  0.524E-02    1.31       1.0  T
   3   -413.4735641  0.118489E-03  0.209E-02    1.32       1.0  T
   4   -413.4736984 -0.134364E-03  0.427E-03    1.31       1.5  T
   5   -413.4737015 -0.312045E-05  0.215E-03    1.32       2.9  T
   6   -413.4737022 -0.636481E-06  0.103E-03    1.32       6.0  T
   7   -413.4737023 -0.120153E-06  0.403E-04    1.32      15.4  T
   8   -413.4737023 -0.269634E-07  0.184E-04    1.32      33.7  T
     SCC iter.                  ...        0 min, 45.307 sec
     gradient                   ...        0 min, 10.871 sec
 * total energy  :  -406.4515657 Eh     change       -0.4861017E-02 Eh
   gradient norm :     0.0724121 Eh/α   predicted    -0.9867116E-02 ( 102.98%)
   displ. norm   :     0.5599673 α      lambda       -0.1079235E-01
   maximum displ.:     0.1880961 α      in ANC's #20, #1, #2, ...
 * RMSD in coord.:     0.5604542 α      energy gain  -0.2948812E+01 Eh

generating ANC from model Hessian ...
Using Lindh-Hessian (1995)
 Shifting diagonal of input Hessian by   1.013830139468583E-002
 Lowest  eigenvalues of input Hessian
    0.010000    0.010125    0.000000    0.000000    0.000000    0.000000
    0.000000    0.000000    0.010159    0.010175    0.010255    0.010271
    0.010310    0.010333    0.010358    0.010391    0.010427    0.010491
 Highest eigenvalues
    2.197498    2.197499    2.200587    2.200590    2.209602    2.209693
 

........................................................................
.............................. CYCLE   21 ..............................
........................................................................
   1   -413.4851652 -0.413485E+03  0.732E-02    1.32       0.0  T
   2   -413.4851850 -0.198517E-04  0.443E-02    1.32       1.0  T
   3   -413.4850598  0.125264E-03  0.199E-02    1.32       1.0  T
   4   -413.4852001 -0.140317E-03  0.330E-03    1.32       1.9  T
   5   -413.4852018 -0.176158E-05  0.171E-03    1.32       3.6  T
   6   -413.4852022 -0.331927E-06  0.811E-04    1.32       7.6  T
   7   -413.4852023 -0.853021E-07  0.291E-04    1.32      21.3  T
     SCC iter.                  ...        0 min, 40.703 sec
     gradient                   ...        0 min, 10.901 sec
 * total energy  :  -406.4583779 Eh     change       -0.6812260E-02 Eh
   gradient norm :     0.0364971 Eh/α   predicted     0.0000000E+00 (-100.00%)
   displ. norm   :     0.4820973 α      lambda       -0.9264404E-02
   maximum displ.:     0.1337166 α      in ANC's #12, #30, #22, ...

........................................................................
.............................. CYCLE   22 ..............................
........................................................................
   1   -413.5022034 -0.413502E+03  0.759E-02    1.33       0.0  T
   2   -413.5022175 -0.141421E-04  0.454E-02    1.33       1.0  T
   3   -413.5021045  0.113002E-03  0.193E-02    1.33       1.0  T
   4   -413.5022314 -0.126947E-03  0.273E-03    1.33       2.3  T
   5   -413.5022323 -0.880619E-06  0.159E-03    1.33       3.9  T
   6   -413.5022326 -0.320934E-06  0.757E-04    1.33       8.2  T
   7   -413.5022327 -0.620641E-07  0.338E-04    1.33      18.4  T
     SCC iter.                  ...        0 min, 35.699 sec
     gradient                   ...        0 min, 11.613 sec
 * total energy  :  -406.4660427 Eh     change       -0.7664756E-02 Eh
   gradient norm :     0.0187370 Eh/α   predicted    -0.5708927E-02 ( -25.52%)
   displ. norm   :     0.7316455 α      lambda       -0.8960481E-02
   maximum displ.:     0.2022274 α      in ANC's #12, #30, #22, ...

........................................................................
.............................. CYCLE   23 ..............................
........................................................................
   1   -413.5114001 -0.413511E+03  0.998E-02    1.33       0.0  T
   2   -413.5114312 -0.311166E-04  0.596E-02    1.33       1.0  T
   3   -413.5112014  0.229857E-03  0.278E-02    1.33       1.0  T
   4   -413.5114616 -0.260288E-03  0.391E-03    1.33       1.6  T
   5   -413.5114637 -0.209469E-05  0.221E-03    1.33       2.8  T
   6   -413.5114644 -0.696797E-06  0.103E-03    1.33       6.0  T
   7   -413.5114645 -0.928421E-07  0.486E-04    1.33      12.8  T
   8   -413.5114646 -0.440665E-07  0.195E-04    1.33      31.8  T
     SCC iter.                  ...        0 min, 46.399 sec
     gradient                   ...        0 min, 12.003 sec
 * total energy  :  -406.4732031 Eh     change       -0.7160409E-02 Eh
   gradient norm :     0.0193738 Eh/α   predicted    -0.6878600E-02 (  -3.94%)
   displ. norm   :     0.7366524 α      lambda       -0.6257564E-02
   maximum displ.:     0.2382294 α      in ANC's #12, #22, #19, ...

........................................................................
.............................. CYCLE   24 ..............................
........................................................................
   1   -413.5146345 -0.413515E+03  0.851E-02    1.33       0.0  T
   2   -413.5146602 -0.256583E-04  0.507E-02    1.33       1.0  T
   3   -413.5144820  0.178199E-03  0.248E-02    1.33       1.0  T
   4   -413.5146845 -0.202542E-03  0.350E-03    1.33       1.8  T
   5   -413.5146864 -0.183954E-05  0.193E-03    1.33       3.2  T
   6   -413.5146870 -0.578462E-06  0.898E-04    1.33       6.9  T
   7   -413.5146870 -0.629723E-07  0.424E-04    1.33      14.6  T
     SCC iter.                  ...        1 min,  1.901 sec
     gradient                   ...        0 min, 15.037 sec
 * total energy  :  -406.4786182 Eh     change       -0.5415085E-02 Eh
   gradient norm :     0.0225234 Eh/α   predicted    -0.4826641E-02 ( -10.87%)
   displ. norm   :     0.7783290 α      lambda       -0.5998333E-02
   maximum displ.:     0.2729240 α      in ANC's #12, #22, #19, ...

........................................................................
.............................. CYCLE   25 ..............................
........................................................................
   1   -413.5208594 -0.413521E+03  0.861E-02    1.33       0.0  T
   2   -413.5208822 -0.228094E-04  0.512E-02    1.32       1.0  T
   3   -413.5207085  0.173743E-03  0.244E-02    1.32       1.0  T
   4   -413.5209050 -0.196539E-03  0.335E-03    1.32       1.9  T
   5   -413.5209066 -0.163436E-05  0.187E-03    1.32       3.3  T
   6   -413.5209071 -0.506113E-06  0.888E-04    1.32       7.0  T
   7   -413.5209072 -0.690418E-07  0.404E-04    1.32      15.4  T
     SCC iter.                  ...        0 min, 55.196 sec
     gradient                   ...        0 min, 12.919 sec
 * total energy  :  -406.4838732 Eh     change       -0.5255048E-02 Eh
   gradient norm :     0.0156285 Eh/α   predicted    -0.4816053E-02 (  -8.35%)
   displ. norm   :     0.8193258 α      lambda       -0.5205374E-02
   maximum displ.:     0.2946811 α      in ANC's #12, #19, #22, ...

........................................................................
.............................. CYCLE   26 ..............................
........................................................................
   1   -413.5277876 -0.413528E+03  0.892E-02    1.32       0.0  T
   2   -413.5278090 -0.214154E-04  0.529E-02    1.31       1.0  T
   3   -413.5276428  0.166214E-03  0.238E-02    1.32       1.0  T
   4   -413.5278296 -0.186807E-03  0.327E-03    1.31       1.9  T
   5   -413.5278313 -0.163698E-05  0.179E-03    1.31       3.5  T
   6   -413.5278317 -0.374493E-06  0.918E-04    1.31       6.8  T
   7   -413.5278317 -0.785089E-07  0.397E-04    1.31      15.6  T
     SCC iter.                  ...        0 min, 52.144 sec
     gradient                   ...        0 min, 14.088 sec
 * total energy  :  -406.4884918 Eh     change       -0.4618576E-02 Eh
   gradient norm :     0.0117233 Eh/α   predicted    -0.4349861E-02 (  -5.82%)
   displ. norm   :     0.8303704 α      lambda       -0.4459480E-02
   maximum displ.:     0.3120809 α      in ANC's #12, #19, #22, ...

........................................................................
.............................. CYCLE   27 ..............................
........................................................................
   1   -413.5374286 -0.413537E+03  0.908E-02    1.31       0.0  T
   2   -413.5374477 -0.190454E-04  0.538E-02    1.30       1.0  T
   3   -413.5372907  0.156917E-03  0.230E-02    1.31       1.0  T
   4   -413.5374662 -0.175492E-03  0.323E-03    1.30       1.9  T
   5   -413.5374679 -0.166899E-05  0.174E-03    1.30       3.6  T
   6   -413.5374682 -0.315800E-06  0.890E-04    1.30       7.0  T
   7   -413.5374683 -0.755911E-07  0.384E-04    1.30      16.1  T
     SCC iter.                  ...        0 min, 51.531 sec
     gradient                   ...        0 min, 11.519 sec
 * total energy  :  -406.4924492 Eh     change       -0.3957451E-02 Eh
   gradient norm :     0.0082660 Eh/α   predicted    -0.3767181E-02 (  -4.81%)
   displ. norm   :     0.8527048 α      lambda       -0.3748138E-02
   maximum displ.:     0.3268082 α      in ANC's #12, #19, #87, ...

........................................................................
.............................. CYCLE   28 ..............................
........................................................................
   1   -413.5411998 -0.413541E+03  0.934E-02    1.30       0.0  T
   2   -413.5412203 -0.205243E-04  0.553E-02    1.29       1.0  T
   3   -413.5410584  0.161929E-03  0.232E-02    1.30       1.0  T
   4   -413.5412388 -0.180446E-03  0.337E-03    1.29       1.8  T
   5   -413.5412407 -0.190771E-05  0.179E-03    1.29       3.5  T
   6   -413.5412411 -0.343835E-06  0.930E-04    1.29       6.7  T
   7   -413.5412412 -0.704884E-07  0.400E-04    1.29      15.5  T
     SCC iter.                  ...        0 min, 53.799 sec
     gradient                   ...        0 min, 11.224 sec
 * total energy  :  -406.4957643 Eh     change       -0.3315014E-02 Eh
   gradient norm :     0.0116013 Eh/α   predicted    -0.3236737E-02 (  -2.36%)
   displ. norm   :     0.8386861 α      lambda       -0.3556060E-02
   maximum displ.:     0.3493945 α      in ANC's #12, #19, #22, ...

........................................................................
.............................. CYCLE   29 ..............................
........................................................................
   1   -413.5585773 -0.413559E+03  0.964E-02    1.29       0.0  T
   2   -413.5585921 -0.148465E-04  0.570E-02    1.29       1.0  T
   3   -413.5584307  0.161451E-03  0.229E-02    1.29       1.0  T
   4   -413.5586099 -0.179191E-03  0.329E-03    1.29       1.9  T
   5   -413.5586117 -0.181322E-05  0.172E-03    1.29       3.6  T
   6   -413.5586119 -0.205107E-06  0.816E-04    1.29       7.6  T
   7   -413.5586120 -0.790140E-07  0.334E-04    1.29      18.5  T
     SCC iter.                  ...        0 min, 37.488 sec
     gradient                   ...        0 min, 11.498 sec
 * total energy  :  -406.4985508 Eh     change       -0.2786566E-02 Eh
   gradient norm :     0.0134931 Eh/α   predicted    -0.3028706E-02 (   8.69%)
   displ. norm   :     0.8452857 α      lambda       -0.3175765E-02
   maximum displ.:     0.3405292 α      in ANC's #12, #19, #87, ...

........................................................................
.............................. CYCLE   30 ..............................
........................................................................
   1   -413.5515511 -0.413552E+03  0.940E-02    1.28       0.0  T
   2   -413.5515709 -0.198568E-04  0.557E-02    1.28       1.0  T
   3   -413.5513888  0.182173E-03  0.242E-02    1.28       1.0  T
   4   -413.5515913 -0.202555E-03  0.348E-03    1.28       1.8  T
   5   -413.5515932 -0.184943E-05  0.191E-03    1.28       3.3  T
   6   -413.5515935 -0.333270E-06  0.100E-03    1.28       6.2  T
   7   -413.5515936 -0.804234E-07  0.408E-04    1.28      15.2  T
   8   -413.5515936 -0.432877E-07  0.127E-04    1.28      48.9  T
     SCC iter.                  ...        0 min, 44.294 sec
     gradient                   ...        0 min, 13.649 sec
 * total energy  :  -406.5011156 Eh     change       -0.2564820E-02 Eh
   gradient norm :     0.0139802 Eh/α   predicted    -0.2722453E-02 (   6.15%)
   displ. norm   :     0.7883736 α      lambda       -0.2379020E-02
   maximum displ.:     0.3505914 α      in ANC's #12, #19, #22, ...

........................................................................
.............................. CYCLE   31 ..............................
........................................................................
   1   -413.5543911 -0.413554E+03  0.879E-02    1.28       0.0  T
   2   -413.5544018 -0.107452E-04  0.522E-02    1.27       1.0  T
   3   -413.5542207  0.181108E-03  0.240E-02    1.28       1.0  T
   4   -413.5544210 -0.200284E-03  0.297E-03    1.27       2.1  T
   5   -413.5544224 -0.143234E-05  0.159E-03    1.27       3.9  T
   6   -413.5544226 -0.165914E-06  0.779E-04    1.27       8.0  T
   7   -413.5544226 -0.637736E-07  0.312E-04    1.27      19.9  T
     SCC iter.                  ...        0 min, 43.337 sec
     gradient                   ...        0 min, 11.555 sec
 * total energy  :  -406.5032725 Eh     change       -0.2156890E-02 Eh
   gradient norm :     0.0138005 Eh/α   predicted    -0.1928837E-02 ( -10.57%)
   displ. norm   :     0.7869064 α      lambda       -0.2637652E-02
   maximum displ.:     0.3726863 α      in ANC's #12, #19, #20, ...

........................................................................
.............................. CYCLE   32 ..............................
........................................................................
   1   -413.5688928 -0.413569E+03  0.887E-02    1.27       0.0  T
   2   -413.5689032 -0.103598E-04  0.528E-02    1.27       1.0  T
   3   -413.5686890  0.214166E-03  0.264E-02    1.28       1.0  T
   4   -413.5689264 -0.237440E-03  0.304E-03    1.27       2.0  T
   5   -413.5689281 -0.162265E-05  0.156E-03    1.27       4.0  T
   6   -413.5689282 -0.159600E-06  0.783E-04    1.27       7.9  T
   7   -413.5689283 -0.664057E-07  0.300E-04    1.27      20.7  T
     SCC iter.                  ...        0 min, 48.854 sec
     gradient                   ...        0 min, 15.714 sec
 * total energy  :  -406.5055590 Eh     change       -0.2286448E-02 Eh
   gradient norm :     0.0079661 Eh/α   predicted    -0.2135471E-02 (  -6.60%)
   displ. norm   :     0.8690564 α      lambda       -0.2549491E-02
   maximum displ.:     0.4062880 α      in ANC's #12, #19, #20, ...

........................................................................
.............................. CYCLE   33 ..............................
........................................................................
   1   -413.5720222 -0.413572E+03  0.985E-02    1.27       0.0  T
   2   -413.5720375 -0.153008E-04  0.586E-02    1.27       1.0  T
   3   -413.5717659  0.271534E-03  0.296E-02    1.27       1.0  T
   4   -413.5720675 -0.301612E-03  0.350E-03    1.27       1.8  T
   5   -413.5720693 -0.177705E-05  0.195E-03    1.27       3.2  T
   6   -413.5720696 -0.290440E-06  0.103E-03    1.27       6.0  T
   7   -413.5720697 -0.105179E-06  0.373E-04    1.27      16.6  T
   8   -413.5720697 -0.339461E-07  0.124E-04    1.27      50.0  T
     SCC iter.                  ...        1 min, 10.020 sec
     gradient                   ...        0 min, 16.918 sec
 * total energy  :  -406.5072922 Eh     change       -0.1733221E-02 Eh
   gradient norm :     0.0216045 Eh/α   predicted    -0.2237510E-02 (  29.10%)
   displ. norm   :     0.7494772 α      lambda       -0.2798826E-02
   maximum displ.:     0.3475555 α      in ANC's #12, #19, #20, ...

........................................................................
.............................. CYCLE   34 ..............................
........................................................................
   1   -413.5633382 -0.413563E+03  0.839E-02    1.27       0.0  T
   2   -413.5633496 -0.113983E-04  0.499E-02    1.26       1.0  T
   3   -413.5631516  0.197954E-03  0.251E-02    1.27       1.0  T
   4   -413.5633715 -0.219874E-03  0.299E-03    1.26       2.1  T
   5   -413.5633726 -0.111268E-05  0.175E-03    1.26       3.6  T
   6   -413.5633729 -0.238724E-06  0.924E-04    1.26       6.7  T
   7   -413.5633730 -0.920768E-07  0.332E-04    1.26      18.7  T
     SCC iter.                  ...        1 min,  8.586 sec
     gradient                   ...        0 min, 15.137 sec
 * total energy  :  -406.5093893 Eh     change       -0.2097096E-02 Eh
   gradient norm :     0.0150504 Eh/α   predicted    -0.2185486E-02 (   4.21%)
   displ. norm   :     0.7231545 α      lambda       -0.2411098E-02
   maximum displ.:     0.3478344 α      in ANC's #12, #19, #20, ...

........................................................................
.............................. CYCLE   35 ..............................
........................................................................
   1   -413.5773549 -0.413577E+03  0.774E-02    1.26       0.0  T
   2   -413.5773652 -0.102708E-04  0.463E-02    1.26       1.0  T
   3   -413.5771654  0.199840E-03  0.264E-02    1.26       1.0  T
   4   -413.5773906 -0.225212E-03  0.294E-03    1.26       2.1  T
   5   -413.5773921 -0.148206E-05  0.161E-03    1.26       3.9  T
   6   -413.5773923 -0.260706E-06  0.791E-04    1.26       7.8  T
   7   -413.5773924 -0.569549E-07  0.302E-04    1.26      20.5  T
     SCC iter.                  ...        1 min,  0.773 sec
     gradient                   ...        0 min, 14.790 sec
 * total energy  :  -406.5109170 Eh     change       -0.1527697E-02 Eh
   gradient norm :     0.0206361 Eh/α   predicted    -0.1836009E-02 (  20.18%)
   displ. norm   :     0.7683406 α      lambda       -0.2516753E-02
   maximum displ.:     0.3646493 α      in ANC's #12, #19, #20, ...

........................................................................
.............................. CYCLE   36 ..............................
........................................................................
   1   -413.5704314 -0.413570E+03  0.826E-02    1.26       0.0  T
   2   -413.5704392 -0.778662E-05  0.492E-02    1.25       1.0  T
   3   -413.5702541  0.185055E-03  0.239E-02    1.26       1.0  T
   4   -413.5704585 -0.204405E-03  0.275E-03    1.25       2.3  T
   5   -413.5704594 -0.902153E-06  0.164E-03    1.25       3.8  T
   6   -413.5704596 -0.177865E-06  0.796E-04    1.25       7.8  T
   7   -413.5704597 -0.676652E-07  0.302E-04    1.25      20.5  T
     SCC iter.                  ...        1 min,  0.495 sec
     gradient                   ...        0 min, 15.879 sec
 * total energy  :  -406.5130530 Eh     change       -0.2136031E-02 Eh
   gradient norm :     0.0145528 Eh/α   predicted    -0.2001263E-02 (  -6.31%)
   displ. norm   :     0.8205486 α      lambda       -0.2262291E-02
   maximum displ.:     0.3944786 α      in ANC's #12, #19, #20, ...

........................................................................
.............................. CYCLE   37 ..............................
........................................................................
   1   -413.5681182 -0.413568E+03  0.830E-02    1.25       0.0  T
   2   -413.5681275 -0.935044E-05  0.496E-02    1.25       1.0  T
   3   -413.5679358  0.191725E-03  0.244E-02    1.25       1.0  T
   4   -413.5681481 -0.212303E-03  0.281E-03    1.25       2.2  T
   5   -413.5681490 -0.928681E-06  0.169E-03    1.25       3.7  T
   6   -413.5681493 -0.283157E-06  0.816E-04    1.25       7.6  T
   7   -413.5681494 -0.524030E-07  0.326E-04    1.25      19.1  T
     SCC iter.                  ...        1 min,  4.155 sec
     gradient                   ...        0 min, 16.105 sec
 * total energy  :  -406.5149668 Eh     change       -0.1913777E-02 Eh
   gradient norm :     0.0132764 Eh/α   predicted    -0.1892750E-02 (  -1.10%)
   displ. norm   :     0.8436604 α      lambda       -0.2185712E-02
   maximum displ.:     0.4067169 α      in ANC's #12, #20, #19, ...

........................................................................
.............................. CYCLE   38 ..............................
........................................................................
   1   -413.5692969 -0.413569E+03  0.828E-02    1.25       0.0  T
   2   -413.5693051 -0.822094E-05  0.495E-02    1.24       1.0  T
   3   -413.5690894  0.215716E-03  0.260E-02    1.25       1.0  T
   4   -413.5693287 -0.239324E-03  0.273E-03    1.24       2.3  T
   5   -413.5693296 -0.906252E-06  0.163E-03    1.24       3.8  T
   6   -413.5693299 -0.261539E-06  0.804E-04    1.24       7.7  T
   7   -413.5693299 -0.503766E-07  0.312E-04    1.24      19.9  T
     SCC iter.                  ...        0 min, 58.329 sec
     gradient                   ...        0 min, 16.138 sec
 * total energy  :  -406.5169624 Eh     change       -0.1995631E-02 Eh
   gradient norm :     0.0142859 Eh/α   predicted    -0.1870712E-02 (  -6.26%)
   displ. norm   :     0.8038233 α      lambda       -0.2788091E-02
   maximum displ.:     0.4657453 α      in ANC's #20, #12, #19, ...

........................................................................
.............................. CYCLE   39 ..............................
........................................................................
   1   -413.5973235 -0.413597E+03  0.797E-02    1.24       0.0  T
   2   -413.5973412 -0.177636E-04  0.480E-02    1.23       1.0  T
   3   -413.5971508  0.190387E-03  0.251E-02    1.24       1.0  T
   4   -413.5973653 -0.214463E-03  0.330E-03    1.23       1.9  T
   5   -413.5973668 -0.153101E-05  0.190E-03    1.23       3.3  T
   6   -413.5973674 -0.535048E-06  0.919E-04    1.23       6.7  T
   7   -413.5973674 -0.514746E-07  0.387E-04    1.23      16.0  T
     SCC iter.                  ...        0 min, 55.041 sec
     gradient                   ...        0 min, 13.026 sec
 * total energy  :  -406.5186757 Eh     change       -0.1713304E-02 Eh
   gradient norm :     0.0191002 Eh/α   predicted    -0.2294783E-02 (  33.94%)
   displ. norm   :     0.7885812 α      lambda       -0.2802226E-02
   maximum displ.:     0.3795260 α      in ANC's #12, #19, #20, ...

........................................................................
.............................. CYCLE   40 ..............................
........................................................................
   1   -413.5775330 -0.413578E+03  0.837E-02    1.23       0.0  T
   2   -413.5775426 -0.962470E-05  0.501E-02    1.23       1.0  T
   3   -413.5773479  0.194784E-03  0.247E-02    1.24       1.0  T
   4   -413.5775644 -0.216551E-03  0.305E-03    1.23       2.0  T
   5   -413.5775654 -0.971757E-06  0.187E-03    1.23       3.3  T
   6   -413.5775656 -0.191376E-06  0.895E-04    1.23       6.9  T
   7   -413.5775657 -0.107598E-06  0.343E-04    1.23      18.1  T
     SCC iter.                  ...        0 min, 57.614 sec
     gradient                   ...        0 min, 14.730 sec
 * total energy  :  -406.5207481 Eh     change       -0.2072331E-02 Eh
   gradient norm :     0.0146289 Eh/α   predicted    -0.2272408E-02 (   9.65%)
   displ. norm   :     0.8336999 α      lambda       -0.2192497E-02
   maximum displ.:     0.4210867 α      in ANC's #20, #12, #19, ...

........................................................................
.............................. CYCLE   41 ..............................
........................................................................
   1   -413.5695634 -0.413570E+03  0.802E-02    1.23       0.0  T
   2   -413.5695786 -0.152874E-04  0.480E-02    1.23       1.0  T
   3   -413.5694405  0.138170E-03  0.221E-02    1.23       1.0  T
   4   -413.5695954 -0.154935E-03  0.328E-03    1.23       1.9  T
   5   -413.5695972 -0.180662E-05  0.187E-03    1.23       3.3  T
   6   -413.5695976 -0.408160E-06  0.849E-04    1.23       7.3  T
   7   -413.5695976 -0.212270E-07  0.419E-04    1.23      14.8  T
     SCC iter.                  ...        0 min, 58.693 sec
     gradient                   ...        0 min, 16.507 sec
 * total energy  :  -406.5225388 Eh     change       -0.1790726E-02 Eh
   gradient norm :     0.0150086 Eh/α   predicted    -0.1858207E-02 (   3.77%)
   displ. norm   :     0.7794556 α      lambda       -0.2075976E-02
   maximum displ.:     0.3983417 α      in ANC's #20, #12, #19, ...

........................................................................
.............................. CYCLE   42 ..............................
........................................................................
   1   -413.5719625 -0.413572E+03  0.720E-02    1.23       0.0  T
   2   -413.5719753 -0.127886E-04  0.430E-02    1.23       1.0  T
   3   -413.5718491  0.126265E-03  0.207E-02    1.24       1.0  T
   4   -413.5719905 -0.141454E-03  0.300E-03    1.24       2.1  T
   5   -413.5719920 -0.149868E-05  0.164E-03    1.23       3.8  T
   6   -413.5719923 -0.268135E-06  0.813E-04    1.23       7.6  T
   7   -413.5719923 -0.281046E-07  0.336E-04    1.23      18.5  T
     SCC iter.                  ...        1 min,  0.590 sec
     gradient                   ...        0 min, 16.537 sec
 * total energy  :  -406.5242586 Eh     change       -0.1719821E-02 Eh
   gradient norm :     0.0165804 Eh/α   predicted    -0.1668623E-02 (  -2.98%)
   displ. norm   :     0.7220981 α      lambda       -0.2593702E-02
   maximum displ.:     0.3339956 α      in ANC's #20, #12, #19, ...
 * RMSD in coord.:     0.9361380 α      energy gain  -0.7269296E-01 Eh

generating ANC from model Hessian ...
Using Lindh-Hessian (1995)
 Shifting diagonal of input Hessian by   9.985361134847692E-003
 Lowest  eigenvalues of input Hessian
    0.000000    0.000000    0.000000    0.000000    0.000000    0.000000
    0.010000    0.010015    0.010067    0.010097    0.010117    0.010145
    0.010151    0.010175    0.010195    0.010264    0.010275    0.010316
 Highest eigenvalues
    2.205496    2.205737    2.206488    2.206590    2.213404    2.213558
 

........................................................................
.............................. CYCLE   43 ..............................
........................................................................
   1   -413.5859812 -0.413586E+03  0.706E-02    1.24       0.0  T
   2   -413.5860028 -0.215114E-04  0.427E-02    1.24       1.0  T
   3   -413.5858631  0.139642E-03  0.234E-02    1.24       1.0  T
   4   -413.5860238 -0.160740E-03  0.379E-03    1.24       1.6  T
   5   -413.5860268 -0.291268E-05  0.196E-03    1.24       3.2  T
   6   -413.5860273 -0.538839E-06  0.881E-04    1.24       7.0  T
   7   -413.5860273 -0.240703E-07  0.403E-04    1.24      15.4  T
     SCC iter.                  ...        0 min, 50.275 sec
     gradient                   ...        0 min, 15.053 sec
 * total energy  :  -406.5255651 Eh     change       -0.1306459E-02 Eh
   gradient norm :     0.0224867 Eh/α   predicted     0.0000000E+00 (-100.00%)
   displ. norm   :     0.1847401 α      lambda       -0.1449431E-02
   maximum displ.:     0.1108658 α      in ANC's #14, #55, #9, ...

........................................................................
.............................. CYCLE   44 ..............................
........................................................................
   1   -413.5870119 -0.413587E+03  0.270E-02    1.24       0.0  T
   2   -413.5870154 -0.353433E-05  0.162E-02    1.24       1.0  T
   3   -413.5869946  0.208298E-04  0.891E-03    1.24       1.0  T
   4   -413.5870190 -0.243784E-04  0.154E-03    1.24       4.0  T
   5   -413.5870194 -0.372642E-06  0.829E-04    1.24       7.5  T
   6   -413.5870194 -0.705108E-07  0.395E-04    1.24      15.7  T
     SCC iter.                  ...        0 min, 45.931 sec
     gradient                   ...        0 min, 14.074 sec
 * total energy  :  -406.5266119 Eh     change       -0.1046847E-02 Eh
   gradient norm :     0.0077129 Eh/α   predicted    -0.7494627E-03 ( -28.41%)
   displ. norm   :     0.3349208 α      lambda       -0.1006045E-02
   maximum displ.:     0.2126025 α      in ANC's #14, #55, #9, ...

........................................................................
.............................. CYCLE   45 ..............................
........................................................................
   1   -413.5870189 -0.413587E+03  0.350E-02    1.24       0.0  T
   2   -413.5870249 -0.603898E-05  0.211E-02    1.24       1.0  T
   3   -413.5869901  0.348542E-04  0.121E-02    1.24       1.0  T
   4   -413.5870313 -0.412415E-04  0.196E-03    1.24       3.2  T
   5   -413.5870320 -0.670116E-06  0.103E-03    1.24       6.0  T
   6   -413.5870321 -0.145122E-06  0.458E-04    1.24      13.5  T
   7   -413.5870321 -0.904328E-08  0.247E-04    1.24      25.1  T
     SCC iter.                  ...        0 min, 56.675 sec
     gradient                   ...        0 min, 13.932 sec
 * total energy  :  -406.5273899 Eh     change       -0.7779450E-03 Eh
   gradient norm :     0.0082258 Eh/α   predicted    -0.5596373E-03 ( -28.06%)
   displ. norm   :     0.4820943 α      lambda       -0.1031976E-02
   maximum displ.:     0.2985755 α      in ANC's #14, #55, #9, ...

........................................................................
.............................. CYCLE   46 ..............................
........................................................................
   1   -413.5857778 -0.413586E+03  0.461E-02    1.24       0.0  T
   2   -413.5857874 -0.961363E-05  0.278E-02    1.24       1.0  T
   3   -413.5857258  0.615830E-04  0.160E-02    1.24       1.0  T
   4   -413.5857986 -0.727322E-04  0.247E-03    1.24       2.5  T
   5   -413.5857996 -0.106255E-05  0.131E-03    1.24       4.7  T
   6   -413.5857998 -0.223495E-06  0.573E-04    1.24      10.8  T
   7   -413.5857999 -0.171778E-07  0.304E-04    1.24      20.4  T
     SCC iter.                  ...        0 min, 52.547 sec
     gradient                   ...        0 min, 16.120 sec
 * total energy  :  -406.5282927 Eh     change       -0.9028262E-03 Eh
   gradient norm :     0.0148135 Eh/α   predicted    -0.6359404E-03 ( -29.56%)
   displ. norm   :     0.6455058 α      lambda       -0.1413828E-02
   maximum displ.:     0.3955098 α      in ANC's #14, #9, #55, ...

........................................................................
.............................. CYCLE   47 ..............................
........................................................................
   1   -413.5837940 -0.413584E+03  0.601E-02    1.23       0.0  T
   2   -413.5838092 -0.151845E-04  0.362E-02    1.24       1.0  T
   3   -413.5837068  0.102398E-03  0.205E-02    1.24       1.0  T
   4   -413.5838270 -0.120195E-03  0.320E-03    1.24       1.9  T
   5   -413.5838288 -0.180604E-05  0.168E-03    1.24       3.7  T
   6   -413.5838291 -0.320992E-06  0.737E-04    1.24       8.4  T
   7   -413.5838291 -0.317802E-07  0.373E-04    1.24      16.6  T
     SCC iter.                  ...        0 min, 52.656 sec
     gradient                   ...        0 min, 15.091 sec
 * total energy  :  -406.5295760 Eh     change       -0.1283291E-02 Eh
   gradient norm :     0.0172119 Eh/α   predicted    -0.1001473E-02 ( -21.96%)
   displ. norm   :     0.7145856 α      lambda       -0.1742431E-02
   maximum displ.:     0.4538611 α      in ANC's #14, #9, #10, ...

........................................................................
.............................. CYCLE   48 ..............................
........................................................................
   1   -413.5839344 -0.413584E+03  0.650E-02    1.23       0.0  T
   2   -413.5839513 -0.169079E-04  0.391E-02    1.24       1.0  T
   3   -413.5838412  0.110092E-03  0.211E-02    1.23       1.0  T
   4   -413.5839696 -0.128339E-03  0.341E-03    1.24       1.8  T
   5   -413.5839717 -0.211230E-05  0.179E-03    1.24       3.5  T
   6   -413.5839720 -0.330558E-06  0.777E-04    1.24       8.0  T
   7   -413.5839721 -0.361207E-07  0.374E-04    1.24      16.6  T
     SCC iter.                  ...        0 min, 52.598 sec
     gradient                   ...        0 min, 14.622 sec
 * total energy  :  -406.5311124 Eh     change       -0.1536447E-02 Eh
   gradient norm :     0.0137496 Eh/α   predicted    -0.1316090E-02 ( -14.34%)
   displ. norm   :     0.7216463 α      lambda       -0.1681618E-02
   maximum displ.:     0.4831062 α      in ANC's #14, #9, #10, ...

........................................................................
.............................. CYCLE   49 ..............................
........................................................................
   1   -413.5877018 -0.413588E+03  0.641E-02    1.23       0.0  T
   2   -413.5877170 -0.152268E-04  0.384E-02    1.23       1.0  T
   3   -413.5876212  0.958152E-04  0.195E-02    1.23       1.0  T
   4   -413.5877319 -0.110712E-03  0.319E-03    1.23       1.9  T
   5   -413.5877338 -0.186671E-05  0.169E-03    1.23       3.7  T
   6   -413.5877341 -0.306622E-06  0.725E-04    1.23       8.6  T
   7   -413.5877341 -0.295587E-07  0.338E-04    1.23      18.3  T
     SCC iter.                  ...        0 min, 46.032 sec
     gradient                   ...        0 min, 13.454 sec
 * total energy  :  -406.5325402 Eh     change       -0.1427788E-02 Eh
   gradient norm :     0.0087871 Eh/α   predicted    -0.1278694E-02 ( -10.44%)
   displ. norm   :     0.7656483 α      lambda       -0.1390494E-02
   maximum displ.:     0.5155019 α      in ANC's #14, #9, #10, ...

........................................................................
.............................. CYCLE   50 ..............................
........................................................................
   1   -413.5884679 -0.413588E+03  0.683E-02    1.23       0.0  T
   2   -413.5884819 -0.140402E-04  0.409E-02    1.23       1.0  T
   3   -413.5883828  0.990801E-04  0.193E-02    1.23       1.0  T
   4   -413.5884957 -0.112840E-03  0.313E-03    1.23       2.0  T
   5   -413.5884974 -0.175909E-05  0.167E-03    1.23       3.7  T
   6   -413.5884977 -0.277889E-06  0.712E-04    1.23       8.7  T
   7   -413.5884977 -0.303746E-07  0.331E-04    1.23      18.8  T
     SCC iter.                  ...        0 min, 51.768 sec
     gradient                   ...        0 min, 15.741 sec
 * total energy  :  -406.5337975 Eh     change       -0.1257244E-02 Eh
   gradient norm :     0.0085087 Eh/α   predicted    -0.1102815E-02 ( -12.28%)
   displ. norm   :     0.7476896 α      lambda       -0.1362153E-02
   maximum displ.:     0.5153616 α      in ANC's #14, #9, #10, ...

........................................................................
.............................. CYCLE   51 ..............................
........................................................................
   1   -413.5937995 -0.413594E+03  0.656E-02    1.22       0.0  T
   2   -413.5938126 -0.131150E-04  0.392E-02    1.23       1.0  T
   3   -413.5937284  0.841923E-04  0.180E-02    1.23       1.0  T
   4   -413.5938243 -0.959513E-04  0.274E-03    1.23       2.3  T
   5   -413.5938257 -0.133952E-05  0.153E-03    1.23       4.1  T
   6   -413.5938260 -0.328226E-06  0.652E-04    1.23       9.5  T
   7   -413.5938260 -0.182127E-07  0.315E-04    1.23      19.7  T
     SCC iter.                  ...        0 min, 47.544 sec
     gradient                   ...        0 min, 16.246 sec
 * total energy  :  -406.5350093 Eh     change       -0.1211811E-02 Eh
   gradient norm :     0.0071685 Eh/α   predicted    -0.1061845E-02 ( -12.38%)
   displ. norm   :     0.8181374 α      lambda       -0.1299035E-02
   maximum displ.:     0.5502425 α      in ANC's #14, #9, #10, ...

........................................................................
.............................. CYCLE   52 ..............................
........................................................................
   1   -413.5912930 -0.413591E+03  0.738E-02    1.22       0.0  T
   2   -413.5913066 -0.135888E-04  0.440E-02    1.22       1.0  T
   3   -413.5912125  0.940216E-04  0.188E-02    1.22       1.0  T
   4   -413.5913191 -0.106575E-03  0.295E-03    1.22       2.1  T
   5   -413.5913205 -0.142912E-05  0.167E-03    1.22       3.7  T
   6   -413.5913208 -0.312479E-06  0.724E-04    1.22       8.6  T
   7   -413.5913209 -0.277716E-07  0.352E-04    1.22      17.6  T
     SCC iter.                  ...        0 min, 52.537 sec
     gradient                   ...        0 min, 14.977 sec
 * total energy  :  -406.5361756 Eh     change       -0.1166319E-02 Eh
   gradient norm :     0.0066057 Eh/α   predicted    -0.1084273E-02 (  -7.03%)
   displ. norm   :     0.7668599 α      lambda       -0.1217415E-02
   maximum displ.:     0.5276766 α      in ANC's #14, #9, #10, ...

........................................................................
.............................. CYCLE   53 ..............................
........................................................................
   1   -413.5958620 -0.413596E+03  0.655E-02    1.22       0.0  T
   2   -413.5958734 -0.113867E-04  0.390E-02    1.22       1.0  T
   3   -413.5957985  0.748881E-04  0.170E-02    1.22       1.0  T
   4   -413.5958834 -0.848641E-04  0.242E-03    1.22       2.6  T
   5   -413.5958844 -0.104725E-05  0.138E-03    1.22       4.5  T
   6   -413.5958847 -0.324446E-06  0.598E-04    1.22      10.4  T
   7   -413.5958847 -0.146647E-07  0.304E-04    1.22      20.4  T
     SCC iter.                  ...        0 min, 49.586 sec
     gradient                   ...        0 min, 11.033 sec
 * total energy  :  -406.5372818 Eh     change       -0.1106201E-02 Eh
   gradient norm :     0.0058275 Eh/α   predicted    -0.9666747E-03 ( -12.61%)
   displ. norm   :     0.7912278 α      lambda       -0.1117835E-02
   maximum displ.:     0.5404159 α      in ANC's #14, #9, #13, ...

........................................................................
.............................. CYCLE   54 ..............................
........................................................................
   1   -413.5965717 -0.413597E+03  0.661E-02    1.21       0.0  T
   2   -413.5965798 -0.808317E-05  0.392E-02    1.21       1.0  T
   3   -413.5965273  0.524710E-04  0.140E-02    1.21       1.0  T
   4   -413.5965862 -0.589229E-04  0.219E-03    1.21       2.8  T
   5   -413.5965870 -0.731938E-06  0.130E-03    1.21       4.8  T
   6   -413.5965872 -0.232410E-06  0.571E-04    1.21      10.9  T
   7   -413.5965872 -0.182634E-07  0.265E-04    1.21      23.4  T
     SCC iter.                  ...        0 min, 50.517 sec
     gradient                   ...        0 min, 12.369 sec
 * total energy  :  -406.5383385 Eh     change       -0.1056695E-02 Eh
   gradient norm :     0.0050518 Eh/α   predicted    -0.9088242E-03 ( -13.99%)
   displ. norm   :     0.7731378 α      lambda       -0.1069144E-02
   maximum displ.:     0.5290334 α      in ANC's #14, #9, #13, ...

........................................................................
.............................. CYCLE   55 ..............................
........................................................................
   1   -413.5984468 -0.413598E+03  0.635E-02    1.20       0.0  T
   2   -413.5984528 -0.601257E-05  0.376E-02    1.21       1.0  T
   3   -413.5984089  0.439566E-04  0.126E-02    1.21       1.0  T
   4   -413.5984578 -0.489458E-04  0.196E-03    1.21       3.2  T
   5   -413.5984584 -0.602093E-06  0.115E-03    1.21       5.4  T
   6   -413.5984586 -0.190158E-06  0.497E-04    1.21      12.5  T
   7   -413.5984586 -0.132809E-07  0.225E-04    1.21      27.5  T
     SCC iter.                  ...        0 min, 48.609 sec
     gradient                   ...        0 min, 13.713 sec
 * total energy  :  -406.5393460 Eh     change       -0.1007491E-02 Eh
   gradient norm :     0.0051695 Eh/α   predicted    -0.8541085E-03 ( -15.22%)
   displ. norm   :     0.7763431 α      lambda       -0.1028654E-02
   maximum displ.:     0.5294641 α      in ANC's #14, #9, #13, ...

........................................................................
.............................. CYCLE   56 ..............................
........................................................................
   1   -413.5983582 -0.413598E+03  0.642E-02    1.20       0.0  T
   2   -413.5983633 -0.513673E-05  0.380E-02    1.20       1.0  T
   3   -413.5983225  0.407630E-04  0.119E-02    1.20       1.0  T
   4   -413.5983678 -0.452446E-04  0.191E-03    1.20       3.2  T
   5   -413.5983684 -0.577239E-06  0.111E-03    1.20       5.6  T
   6   -413.5983685 -0.149273E-06  0.471E-04    1.20      13.2  T
   7   -413.5983685 -0.131283E-07  0.207E-04    1.20      30.0  T
     SCC iter.                  ...        0 min, 49.707 sec
     gradient                   ...        0 min, 13.607 sec
 * total energy  :  -406.5403098 Eh     change       -0.9637933E-03 Eh
   gradient norm :     0.0052859 Eh/α   predicted    -0.8243177E-03 ( -14.47%)
   displ. norm   :     0.7612477 α      lambda       -0.9981978E-03
   maximum displ.:     0.5213582 α      in ANC's #14, #9, #13, ...

........................................................................
.............................. CYCLE   57 ..............................
........................................................................
   1   -413.5987933 -0.413599E+03  0.632E-02    1.19       0.0  T
   2   -413.5987974 -0.411197E-05  0.373E-02    1.19       1.0  T
   3   -413.5987604  0.370013E-04  0.111E-02    1.19       1.0  T
   4   -413.5988013 -0.408812E-04  0.177E-03    1.19       3.5  T
   5   -413.5988018 -0.493919E-06  0.101E-03    1.19       6.1  T
   6   -413.5988019 -0.107780E-06  0.419E-04    1.19      14.8  T
   7   -413.5988019 -0.118416E-07  0.175E-04    1.19      35.4  T
     SCC iter.                  ...        0 min, 51.382 sec
     gradient                   ...        0 min, 12.646 sec
 * total energy  :  -406.5412430 Eh     change       -0.9331918E-03 Eh
   gradient norm :     0.0052674 Eh/α   predicted    -0.7883282E-03 ( -15.52%)
   displ. norm   :     0.7484761 α      lambda       -0.9477303E-03
   maximum displ.:     0.5176324 α      in ANC's #14, #9, #13, ...

........................................................................
.............................. CYCLE   58 ..............................
........................................................................
[...]
     5   7 N       19   6 C                                       1.3430155
    19   6 C       20   6 C                                       1.3966399
    20   6 C       21   1 H                                       1.0789342
    20   6 C       22   6 C                                       1.3780050
    22   6 C       23   1 H                                       1.0792886
    22   6 C       24   6 C                                       1.4015732
     5   7 N       25   6 C                                       1.3204470
    24   6 C       25   6 C                                       1.4017309
    25   6 C       26   1 H                                       1.0794546
    27   6 C       28   6 C                                       1.3769933
    28   6 C       29   1 H                                       1.0796628
    28   6 C       30   6 C                                       1.4031801
    30   6 C       31   6 C                                       1.4117058
    31   6 C       32   1 H                                       1.0793714
    31   6 C       33   6 C                                       1.3664842
    33   6 C       34   1 H                                       1.0781715
    33   6 C       35   6 C                                       1.4028321
    35   6 C       36   1 H                                       1.0789295
    35   6 C       37   6 C                                       1.3694768
    37   6 C       38   1 H                                       1.0795957
    30   6 C       39   6 C                                       1.4184273
    37   6 C       39   6 C                                       1.4103250
    39   6 C       40   6 C                                       1.4281085
     2   8 O       41   6 C                                       1.3772564
    27   6 C       41   6 C                                       1.4299911
    40   6 C       41   6 C                                       1.3810338
    42   8 O       43   6 C                                       1.4107793
    44   7 N       46   6 C                                       1.3940321
    46   6 C       47   6 C                                       1.3962008
    47   6 C       48   1 H                                       1.0788546
    47   6 C       49   6 C                                       1.3810519
    49   6 C       50   1 H                                       1.0787383
    49   6 C       51   6 C                                       1.3874157
    51   6 C       52   1 H                                       1.0781093
    51   6 C       53   6 C                                       1.3866184
    53   6 C       54   1 H                                       1.0785536
    46   6 C       55   6 C                                       1.3979660
    53   6 C       55   6 C                                       1.3813550
    55   6 C       56   1 H                                       1.0796025
    44   7 N       57   6 C                                       1.2790890
    57   6 C       58   1 H                                       1.0899510
    45   7 N       59   6 C                                       1.3418595
    59   6 C       60   6 C                                       1.3958873
    60   6 C       61   1 H                                       1.0788482
    60   6 C       62   6 C                                       1.3767347
    62   6 C       63   1 H                                       1.0782940
    62   6 C       64   6 C                                       1.4059745
    45   7 N       65   6 C                                       1.3204799
    64   6 C       65   6 C                                       1.4038342
    65   6 C       66   1 H                                       1.0776876
    67   6 C       68   6 C                                       1.3796777
    68   6 C       69   1 H                                       1.0787529
    68   6 C       70   6 C                                       1.4012506
    70   6 C       71   6 C                                       1.4121691
    71   6 C       72   1 H                                       1.0793356
    71   6 C       73   6 C                                       1.3660861
    73   6 C       74   1 H                                       1.0782387
    73   6 C       75   6 C                                       1.4026872
    75   6 C       76   1 H                                       1.0791445
    75   6 C       77   6 C                                       1.3696137
    77   6 C       78   1 H                                       1.0795677
    70   6 C       79   6 C                                       1.4171735
    77   6 C       79   6 C                                       1.4100496
    79   6 C       80   6 C                                       1.4299425
    42   8 O       81   6 C                                       1.3753631
    80   6 C       81   6 C                                       1.3814598
    82   8 O       83   6 C                                       1.4078092
    84   7 N       86   6 C                                       1.3966522
    86   6 C       87   6 C                                       1.3948258
    87   6 C       88   1 H                                       1.0794449
    87   6 C       89   6 C                                       1.3814538
    89   6 C       90   1 H                                       1.0792843
    89   6 C       91   6 C                                       1.3867518
    91   6 C       92   1 H                                       1.0781355
    91   6 C       93   6 C                                       1.3862853
    93   6 C       94   1 H                                       1.0785860
    86   6 C       95   6 C                                       1.3970656
    93   6 C       95   6 C                                       1.3814605
    95   6 C       96   1 H                                       1.0800671
    84   7 N       97   6 C                                       1.2789071
    97   6 C       98   1 H                                       1.0896159
    85   7 N       99   6 C                                       1.3407660
    99   6 C      100   6 C                                       1.3969752
   100   6 C      101   1 H                                       1.0787218
   100   6 C      102   6 C                                       1.3782042
   102   6 C      103   1 H                                       1.0786880
   102   6 C      104   6 C                                       1.4043810
    85   7 N      105   6 C                                       1.3187712
   104   6 C      105   6 C                                       1.4026301
   105   6 C      106   1 H                                       1.0766758 (min)
   107   6 C      108   6 C                                       1.3775524
   108   6 C      109   1 H                                       1.0790048
   108   6 C      110   6 C                                       1.4015935
   110   6 C      111   6 C                                       1.4118521
   111   6 C      112   1 H                                       1.0793516
   111   6 C      113   6 C                                       1.3660506
   113   6 C      114   1 H                                       1.0781256
   113   6 C      115   6 C                                       1.4024144
   115   6 C      116   1 H                                       1.0789814
   115   6 C      117   6 C                                       1.3696894
   117   6 C      118   1 H                                       1.0797609
   110   6 C      119   6 C                                       1.4171912
   117   6 C      119   6 C                                       1.4103751
   119   6 C      120   6 C                                       1.4313638 (max)
    82   8 O      121   6 C                                       1.3679044
   120   6 C      121   6 C                                       1.3817565
   122   8 O      123   6 C                                       1.4108861
   124   7 N      126   6 C                                       1.3923491
   126   6 C      127   6 C                                       1.3957871
   127   6 C      128   1 H                                       1.0790053
   127   6 C      129   6 C                                       1.3814212
   129   6 C      130   1 H                                       1.0786537
   129   6 C      131   6 C                                       1.3872761
   131   6 C      132   1 H                                       1.0782858
   131   6 C      133   6 C                                       1.3873198
   133   6 C      134   1 H                                       1.0787978
   126   6 C      135   6 C                                       1.3978400
   133   6 C      135   6 C                                       1.3811833
   135   6 C      136   1 H                                       1.0808962
   124   7 N      137   6 C                                       1.2789705
   137   6 C      138   1 H                                       1.0897769
   125   7 N      139   6 C                                       1.3430127
   139   6 C      140   6 C                                       1.3966472
   140   6 C      141   1 H                                       1.0789317
   140   6 C      142   6 C                                       1.3779490
   142   6 C      143   1 H                                       1.0792909
   142   6 C      144   6 C                                       1.4016296
   125   7 N      145   6 C                                       1.3204892
   144   6 C      145   6 C                                       1.4017196
   145   6 C      146   1 H                                       1.0794571
   147   6 C      148   6 C                                       1.3770972
   148   6 C      149   1 H                                       1.0796730
   148   6 C      150   6 C                                       1.4031062
   150   6 C      151   6 C                                       1.4117492
   151   6 C      152   1 H                                       1.0793711
   151   6 C      153   6 C                                       1.3664603
   153   6 C      154   1 H                                       1.0781767
   153   6 C      155   6 C                                       1.4028670
   155   6 C      156   1 H                                       1.0789312
   155   6 C      157   6 C                                       1.3694551
   157   6 C      158   1 H                                       1.0795954
   150   6 C      159   6 C                                       1.4184251
   157   6 C      159   6 C                                       1.4103694
   159   6 C      160   6 C                                       1.4280375
   122   8 O      161   6 C                                       1.3773455
   147   6 C      161   6 C                                       1.4299255
   160   6 C      161   6 C                                       1.3811378
   163   8 O      164   6 C                                       1.4104864
   165   7 N      167   6 C                                       1.3941270
   167   6 C      168   6 C                                       1.3961699
   168   6 C      169   1 H                                       1.0788744
   168   6 C      170   6 C                                       1.3810498
   170   6 C      171   1 H                                       1.0787399
   170   6 C      172   6 C                                       1.3873986
   172   6 C      173   1 H                                       1.0781122
   172   6 C      174   6 C                                       1.3866097
   174   6 C      175   1 H                                       1.0785510
   167   6 C      176   6 C                                       1.3979015
   174   6 C      176   6 C                                       1.3813840
   176   6 C      177   1 H                                       1.0796103
   165   7 N      178   6 C                                       1.2790211
   178   6 C      179   1 H                                       1.0899469
   166   7 N      180   6 C                                       1.3418380
   180   6 C      181   6 C                                       1.3959165
   181   6 C      182   1 H                                       1.0788562
   181   6 C      183   6 C                                       1.3767611
   183   6 C      184   1 H                                       1.0783184
   183   6 C      185   6 C                                       1.4059923
   166   7 N      186   6 C                                       1.3204501
   185   6 C      186   6 C                                       1.4038142
   186   6 C      187   1 H                                       1.0776829
   188   6 C      189   6 C                                       1.3796471
   189   6 C      190   1 H                                       1.0787560
   189   6 C      191   6 C                                       1.4011993
   191   6 C      192   6 C                                       1.4121866
   192   6 C      193   1 H                                       1.0793453
   192   6 C      194   6 C                                       1.3660500
   194   6 C      195   1 H                                       1.0782241
   194   6 C      196   6 C                                       1.4027071
   196   6 C      197   1 H                                       1.0791280
   196   6 C      198   6 C                                       1.3696202
   198   6 C      199   1 H                                       1.0795661
   191   6 C      200   6 C                                       1.4171629
   198   6 C      200   6 C                                       1.4100511
   200   6 C      201   6 C                                       1.4300419
   163   8 O      202   6 C                                       1.3752020
   201   6 C      202   6 C                                       1.3814115
   203   8 O      204   6 C                                       1.4078272
   205   7 N      207   6 C                                       1.3965969
   207   6 C      208   6 C                                       1.3948593
   208   6 C      209   1 H                                       1.0794339
   208   6 C      210   6 C                                       1.3814288
   210   6 C      211   1 H                                       1.0792810
   210   6 C      212   6 C                                       1.3867533
   212   6 C      213   1 H                                       1.0781378
   212   6 C      214   6 C                                       1.3862957
   214   6 C      215   1 H                                       1.0785880
   207   6 C      216   6 C                                       1.3970889
   214   6 C      216   6 C                                       1.3814571
   216   6 C      217   1 H                                       1.0800657
   205   7 N      218   6 C                                       1.2789047
   218   6 C      219   1 H                                       1.0896181
   206   7 N      220   6 C                                       1.3407671
   220   6 C      221   6 C                                       1.3969838
   221   6 C      222   1 H                                       1.0787126
   221   6 C      223   6 C                                       1.3781101
   223   6 C      224   1 H                                       1.0786796
   223   6 C      225   6 C                                       1.4045262
   206   7 N      226   6 C                                       1.3188816
   225   6 C      226   6 C                                       1.4026238
   226   6 C      227   1 H                                       1.0766998
   228   6 C      229   6 C                                       1.3776067
   229   6 C      230   1 H                                       1.0789934
   229   6 C      231   6 C                                       1.4015362
   231   6 C      232   6 C                                       1.4118651
   232   6 C      233   1 H                                       1.0793510
   232   6 C      234   6 C                                       1.3660219
   234   6 C      235   1 H                                       1.0781301
   234   6 C      236   6 C                                       1.4024421
   236   6 C      237   1 H                                       1.0789802
   236   6 C      238   6 C                                       1.3696799
   238   6 C      239   1 H                                       1.0797528
   231   6 C      240   6 C                                       1.4171178
   238   6 C      240   6 C                                       1.4104031
   240   6 C      241   6 C                                       1.4313391
   203   8 O      242   6 C                                       1.3678226
   241   6 C      242   6 C                                       1.3818244
   204   6 C      243   1 H                                       1.0938197
   204   6 C      244   1 H                                       1.0903760
   204   6 C      245   1 H                                       1.0903759
     3   6 C      246   1 H                                       1.0885766
     3   6 C      247   1 H                                       1.0907386
     3   6 C      248   1 H                                       1.0926913
   164   6 C      249   1 H                                       1.0895067
   164   6 C      250   1 H                                       1.0920738
   164   6 C      251   1 H                                       1.0923720
    83   6 C      252   1 H                                       1.0938533
    83   6 C      253   1 H                                       1.0904410
    83   6 C      254   1 H                                       1.0904098
   123   6 C      255   1 H                                       1.0886201
   123   6 C      256   1 H                                       1.0907676
   123   6 C      257   1 H                                       1.0928599
    43   6 C      258   1 H                                       1.0895038
    43   6 C      259   1 H                                       1.0921713
    43   6 C      260   1 H                                       1.0922995

 * 4 distinct bonds (by element types)

   Z      Z             #   av. dist./Å        max./Å        min./Å
   1 H    6 C         102     1.0817197     1.0938533     1.0766758
   6 C    6 C         122     1.3945966     1.4313638     1.3660219
   6 C    7 N          24     1.3337816     1.3966522     1.2789047
   6 C    8 O          12     1.3916034     1.4108861     1.3678226


optimized geometry written to: xtbopt.xyz


           -------------------------------------------------
          | TOTAL ENERGY             -406.556236324478 Eh   |
          | GRADIENT NORM               0.000962955116 Eh/α |
          | HOMO-LUMO GAP               1.222786954476 eV   |
           -------------------------------------------------

------------------------------------------------------------------------
 * finished run on 2021/03/23 at 17:31:26.088     
------------------------------------------------------------------------
 total:
 * wall-time:     0 d,  1 h, 36 min, 19.973 sec
 *  cpu-time:     0 d,  0 h, 41 min, 20.274 sec
 * ratio c/w:     0.429 speedup
 SCF:
 * wall-time:     0 d,  0 h,  0 min, 29.944 sec
 *  cpu-time:     0 d,  0 h,  0 min, 28.958 sec
 * ratio c/w:     0.967 speedup
 ANC optimizer:
 * wall-time:     0 d,  1 h, 35 min, 48.149 sec
 *  cpu-time:     0 d,  0 h, 40 min, 48.787 sec
 * ratio c/w:     0.426 speedup

