 Entering Gaussian System, Link 0=g16
 Initial command:
 /apps/gaussian/g16-c01-avx/g16/l1.exe "/rds/general/ephemeral/user/atarzia/ephemeral/unsymm/single_point_dft/s_5a1_d/Gau-645723.inp" -scrdir="/rds/general/ephemeral/user/atarzia/ephemeral/unsymm/single_point_dft/s_5a1_d/"
 Entering Link 1 = /apps/gaussian/g16-c01-avx/g16/l1.exe PID=    645726.
  
 Copyright (c) 1988-2019, Gaussian, Inc.  All Rights Reserved.
  
 This is part of the Gaussian(R) 16 program.  It is based on
 the Gaussian(R) 09 system (copyright 2009, Gaussian, Inc.),
 the Gaussian(R) 03 system (copyright 2003, Gaussian, Inc.),
 the Gaussian(R) 98 system (copyright 1998, Gaussian, Inc.),
 the Gaussian(R) 94 system (copyright 1995, Gaussian, Inc.),
 the Gaussian 92(TM) system (copyright 1992, Gaussian, Inc.),
 the Gaussian 90(TM) system (copyright 1990, Gaussian, Inc.),
 the Gaussian 88(TM) system (copyright 1988, Gaussian, Inc.),
 the Gaussian 86(TM) system (copyright 1986, Carnegie Mellon
 University), and the Gaussian 82(TM) system (copyright 1983,
 Carnegie Mellon University). Gaussian is a federally registered
 trademark of Gaussian, Inc.
  
 This software contains proprietary and confidential information,
 including trade secrets, belonging to Gaussian, Inc.
  
 This software is provided under written license and may be
 used, copied, transmitted, or stored only in accord with that
 written license.
  
 The following legend is applicable only to US Government
 contracts under FAR:
  
                    RESTRICTED RIGHTS LEGEND
  
 Use, reproduction and disclosure by the US Government is
 subject to restrictions as set forth in subparagraphs (a)
 and (c) of the Commercial Computer Software - Restricted
 Rights clause in FAR 52.227-19.
  
 Gaussian, Inc.
 340 Quinnipiac St., Bldg. 40, Wallingford CT 06492
  
  
 ---------------------------------------------------------------
 Warning -- This program may not be used in any manner that
 competes with the business of Gaussian, Inc. or will provide
 assistance to any competitor of Gaussian, Inc.  The licensee
 of this program is prohibited from giving any competitor of
 Gaussian, Inc. access to this program.  By using this program,
 the user acknowledges that Gaussian, Inc. is engaged in the
 business of creating and licensing software in the field of
 computational chemistry and represents and warrants to the
 licensee that it is not a competitor of Gaussian, Inc. and that
 it will not use this program in any manner prohibited above.
 ---------------------------------------------------------------
  

 Cite this work as:
 Gaussian 16, Revision C.01,
 M. J. Frisch, G. W. Trucks, H. B. Schlegel, G. E. Scuseria, 
 M. A. Robb, J. R. Cheeseman, G. Scalmani, V. Barone, 
 G. A. Petersson, H. Nakatsuji, X. Li, M. Caricato, A. V. Marenich, 
 J. Bloino, B. G. Janesko, R. Gomperts, B. Mennucci, H. P. Hratchian, 
 J. V. Ortiz, A. F. Izmaylov, J. L. Sonnenberg, D. Williams-Young, 
 F. Ding, F. Lipparini, F. Egidi, J. Goings, B. Peng, A. Petrone, 
 T. Henderson, D. Ranasinghe, V. G. Zakrzewski, J. Gao, N. Rega, 
 G. Zheng, W. Liang, M. Hada, M. Ehara, K. Toyota, R. Fukuda, 
 J. Hasegawa, M. Ishida, T. Nakajima, Y. Honda, O. Kitao, H. Nakai, 
 T. Vreven, K. Throssell, J. A. Montgomery, Jr., J. E. Peralta, 
 F. Ogliaro, M. J. Bearpark, J. J. Heyd, E. N. Brothers, K. N. Kudin, 
 V. N. Staroverov, T. A. Keith, R. Kobayashi, J. Normand, 
 K. Raghavachari, A. P. Rendell, J. C. Burant, S. S. Iyengar, 
 J. Tomasi, M. Cossi, J. M. Millam, M. Klene, C. Adamo, R. Cammi, 
 J. W. Ochterski, R. L. Martin, K. Morokuma, O. Farkas, 
 J. B. Foresman, and D. J. Fox, Gaussian, Inc., Wallingford CT, 2019.
 
 ******************************************
 Gaussian 16:  ES64L-G16RevC.01  3-Jul-2019
                26-Feb-2021 
 ******************************************
 %chk=_s_5a1_d.chk
 %mem=60000mb
 %nprocshared=32
 Will use up to   32 processors via shared memory.
 ----------------------------------------------------------------------
 #P PBE1PBE/Def2SVP SP SCF=(YQC,MaxCycle=900) int=(Grid=Superfinegrid) 
 EmpiricalDispersion=GD3BJ SCRF=(PCM,Solvent=DiMethylSulfoxide)
 ----------------------------------------------------------------------
 1/38=1,172=1/1;
 2/12=2,17=6,18=5,40=1/2;
 3/5=43,7=101,11=2,25=1,30=1,70=2201,72=21,74=-13,75=-7,124=41/1,2,3;
 4//1;
 5/5=2,7=900,8=4,13=1,38=1,53=21/8,2,8;
 6/7=2,8=2,9=2,10=2,28=1/1;
 99/5=1,9=1/99;
 Leave Link    1 at Fri Feb 26 11:39:16 2021, MaxMem=  7864320000 cpu:               3.9 elap:               0.1
 (Enter /apps/gaussian/g16-c01-avx/g16/l101.exe)
 --------
 _s_5a1_d
 --------
 Symbolic Z-matrix:
 Charge =  4 Multiplicity = 1
 Pd                    0.1041    5.1622   -0.2606 
 Pd                   -0.1562   -6.1506    0.3422 
 C                     6.5327   -2.4485    0.3122 
 C                     6.2805   -3.6059    0.5564 
 C                     5.8838   -4.9346    0.8054 
 C                     6.7939   -5.9223    1.1353 
 C                     6.374    -7.2377    1.3681 
 C                     5.0513   -7.5877    1.272 
 C                     4.0917   -6.6104    0.9331 
 C                     2.7184   -6.9047    0.8106 
 N                     1.8255   -5.9958    0.4909 
 C                     2.2109   -4.71      0.2659 
 C                     3.5157   -4.3223    0.3584 
 C                     4.5041   -5.2689    0.6983 
 H                     7.8416   -5.6748    1.2157 
 H                     7.112    -7.982     1.6254 
 H                     4.7368   -8.6036    1.451 
 H                     2.3617   -7.9142    0.9855 
 H                     1.416    -4.0069    0.0006 
 H                     3.8112   -3.3023    0.1718 
 C                     6.7996   -1.1065   -0.0305 
 C                     8.0331   -0.7705   -0.639 
 C                     8.2703    0.5106   -1.0436 
 C                     7.3006    1.5209   -0.8619 
 C                     7.5033    2.844    -1.3044 
 C                     6.5488    3.8013   -1.1165 
 C                     5.3323    3.494    -0.462 
 C                     5.1099    2.2068   -0.0265 
 C                     6.0742    1.1963   -0.221 
 C                     5.8466   -0.1323    0.1854 
 H                     8.7738   -1.5423   -0.7861 
 H                     9.2067    0.7686   -1.5168 
 H                     8.4297    3.0883   -1.8031 
 H                     6.7149    4.7985   -1.4934 
 H                     4.206     1.9524    0.5051 
 H                     4.9155   -0.3852    0.6692 
 C                     4.3411    4.5602   -0.2633 
 C                     4.7394    5.8768   -0.0104 
 C                     3.7869    6.8734    0.1209 
 C                     2.448     6.5394    0.0161 
 N                     2.0651    5.2759   -0.1904 
 C                     2.9692    4.3118   -0.334 
 H                     5.7863    6.1147    0.0935 
 H                     4.0815    7.8941    0.3042 
 H                     1.664     7.2956    0.1024 
 H                     2.5836    3.318    -0.5336 
 C                     0.19      1.6898    6.5132 
 C                     0.0585    2.8575    6.2273 
 C                    -0.0724    4.1934    5.8002 
 C                    -0.2151    5.2363    6.6975 
 C                    -0.3346    6.5578    6.2509 
 C                    -0.3091    6.8588    4.9129 
 C                    -0.1602    5.8239    3.9658 
 C                    -0.1149    6.0651    2.578 
 N                     0.0299    5.1008    1.6993 
 C                     0.1366    3.8092    2.1055 
 C                     0.106     3.4697    3.4277 
 C                    -0.043     4.4753    4.4052 
 H                    -0.2359    5.0273    7.7564 
 H                    -0.4466    7.3459    6.9797 
 H                    -0.3995    7.8794    4.5768 
 H                    -0.2026    7.0772    2.1976 
 H                     0.2537    3.0558    1.32 
 H                     0.1984    2.4435    3.7456 
 C                     0.3906    0.3278    6.8184 
 C                     0.9876   -0.0352    8.05 
 C                     1.2438   -1.3463    8.3263 
 C                     0.9179   -2.361     7.3999 
 C                     1.1989   -3.7205    7.646 
 C                     0.8697   -4.6815    6.7345 
 C                     0.2306   -4.3394    5.5192 
 C                    -0.0463   -3.0174    5.2533 
 C                     0.2921   -2.0046    6.1745 
 C                     0.0402   -0.646     5.9058 
 H                     1.243     0.7388    8.7583 
 H                     1.7063   -1.6264    9.2618 
 H                     1.6854   -3.9907    8.5717 
 H                     1.1214   -5.7118    6.9329 
 H                    -0.5621   -2.733     4.3492 
 H                    -0.4333   -0.3701    4.9761 
 C                    -0.1242   -5.4089    4.5762 
 C                    -0.5496   -6.6596    5.0349 
 C                    -0.8286   -7.6673    4.1273 
 C                    -0.6912   -7.4087    2.7753 
 N                    -0.3147   -6.2038    2.331 
 C                    -0.0345   -5.2308    3.1947 
 H                    -0.6712   -6.8355    6.0921 
 H                    -1.1486   -8.6396    4.4654 
 H                    -0.8882   -8.1755    2.0243 
 H                     0.2933   -4.2885    2.7689 
 C                    -6.6681   -2.1625   -0.0345 
 C                    -6.47     -3.3498   -0.1527 
 C                    -6.1356   -4.7143   -0.2576 
 C                    -7.0913   -5.6888   -0.4806 
 C                    -6.7332   -7.0394   -0.5707 
 C                    -5.4275   -7.4376   -0.4364 
 C                    -4.4228   -6.4749   -0.2032 
 C                    -3.064    -6.8172   -0.0484 
 N                    -2.1292   -5.9214    0.1733 
 C                    -2.4542   -4.6025    0.2587 
 C                    -3.7402   -4.1674    0.1237 
 C                    -4.7723   -5.0983   -0.1139 
 H                    -8.1269   -5.4033   -0.588 
 H                    -7.5056   -7.7722   -0.7474 
 H                    -5.1607   -8.4802   -0.5052 
 H                    -2.7547   -7.855    -0.1137 
 H                    -1.6268   -3.9124    0.4481 
 H                    -3.9879   -3.1207    0.1996 
 C                    -6.8725   -0.7808    0.162 
 C                    -8.0881   -0.3255    0.7277 
 C                    -8.2654    1.001     0.9924 
 C                    -7.2507    1.9406    0.7067 
 C                    -7.3916    3.3113    1.0049 
 C                    -6.3946    4.1983    0.7186 
 C                    -5.1948    3.7675    0.104 
 C                    -5.0327    2.4323   -0.191 
 C                    -6.0419    1.4936    0.1075 
 C                    -5.8763    0.1201   -0.154 
 H                    -8.863    -1.0424    0.9543 
 H                    -9.188     1.3508    1.4326 
 H                    -8.3048    3.6497    1.472 
 H                    -6.514     5.2366    0.9864 
 H                    -4.1425    2.0814   -0.6898 
 H                    -4.9588   -0.2254   -0.6053 
 C                    -4.1561    4.7597   -0.2046 
 C                    -4.494     6.0588   -0.5972 
 C                    -3.4969    6.9909   -0.8315 
 C                    -2.1746    6.6087   -0.6882 
 N                    -1.8497    5.3581   -0.3474 
 C                    -2.7969    4.4574   -0.1043 
 H                    -5.5291    6.3322   -0.7287 
 H                    -3.7447    7.9987   -1.1233 
 H                    -1.3568    7.3146   -0.8525 
 H                    -2.457     3.4738    0.2009 
 C                    -0.1517    0.9962   -6.6272 
 C                     0.0335    2.1805   -6.4664 
 C                     0.226     3.5468   -6.1834 
 C                     0.4153    4.4807   -7.186 
 C                     0.5957    5.8353   -6.8821 
 C                     0.5856    6.2779   -5.5839 
 C                     0.3906    5.3576   -4.5326 
 C                     0.3584    5.7471   -3.1785 
 N                     0.1708    4.8894   -2.2027 
 C                     0.0043    3.5681   -2.4695 
 C                     0.0175    3.0888   -3.748 
 C                     0.2112    3.9767   -4.8263 
 H                     0.4254    4.1593   -8.2165 
 H                     0.7428    6.5354   -7.6903 
 H                     0.7231    7.3234   -5.358 
 H                     0.4929    6.7888   -2.9076 
 H                    -0.1464    2.9089   -1.6087 
 H                    -0.1224    2.0399   -3.9551 
 C                    -0.415    -0.3799   -6.7869 
 C                    -1.0297   -0.8438   -7.9751 
 C                    -1.3466   -2.1636   -8.1117 
 C                    -1.0666   -3.0881   -7.0816 
 C                    -1.4105   -4.4516   -7.183 
 C                    -1.1249   -5.3246   -6.1735 
 C                    -0.4688   -4.8852   -4.9992 
 C                    -0.1307   -3.5566   -4.8742 
 C                    -0.4233   -2.6328   -5.8988 
 C                    -0.1086   -1.2664   -5.7749 
 H                    -1.2501   -0.1384   -8.7624 
 H                    -1.8228   -2.5198   -9.0138 
 H                    -1.9104   -4.7958   -8.0765 
 H                    -1.4243   -6.3573   -6.2623 
 H                     0.3991   -3.2019   -4.0037 
 H                     0.3784   -0.9154   -4.878 
 C                    -0.1625   -5.8636   -3.9467 
 C                     0.2038   -7.1744   -4.2684 
 C                     0.4373   -8.0916   -3.2578 
 C                     0.3145   -7.6845   -1.9415 
 N                    -0.0051   -6.4231   -1.6291 
 C                    -0.2415   -5.5357   -2.5923 
 H                     0.3153   -7.4672   -5.3005 
 H                     0.7114   -9.1081   -3.4895 
 H                     0.4772   -8.3753   -1.1125 
 H                    -0.5248   -4.5392   -2.2702 
 
 ITRead=  0  0  0  0  0  0  0  0  0  0  0  0  0  0  0  0  0  0  0  0
 ITRead=  0  0  0  0  0  0  0  0  0  0  0  0  0  0  0  0  0  0  0  0
 ITRead=  0  0  0  0  0  0  0  0  0  0  0  0  0  0  0  0  0  0  0  0
 ITRead=  0  0  0  0  0  0  0  0  0  0  0  0  0  0  0  0  0  0  0  0
 ITRead=  0  0  0  0  0  0  0  0  0  0  0  0  0  0  0  0  0  0  0  0
 ITRead=  0  0  0  0  0  0  0  0  0  0  0  0  0  0  0  0  0  0  0  0
 ITRead=  0  0  0  0  0  0  0  0  0  0  0  0  0  0  0  0  0  0  0  0
 ITRead=  0  0  0  0  0  0  0  0  0  0  0  0  0  0  0  0  0  0  0  0
 ITRead=  0  0  0  0  0  0  0  0  0  0  0  0  0  0  0  0  0  0
 MicOpt= -1 -1 -1 -1 -1 -1 -1 -1 -1 -1 -1 -1 -1 -1 -1 -1 -1 -1 -1 -1
 MicOpt= -1 -1 -1 -1 -1 -1 -1 -1 -1 -1 -1 -1 -1 -1 -1 -1 -1 -1 -1 -1
 MicOpt= -1 -1 -1 -1 -1 -1 -1 -1 -1 -1 -1 -1 -1 -1 -1 -1 -1 -1 -1 -1
 MicOpt= -1 -1 -1 -1 -1 -1 -1 -1 -1 -1 -1 -1 -1 -1 -1 -1 -1 -1 -1 -1
 MicOpt= -1 -1 -1 -1 -1 -1 -1 -1 -1 -1 -1 -1 -1 -1 -1 -1 -1 -1 -1 -1
 MicOpt= -1 -1 -1 -1 -1 -1 -1 -1 -1 -1 -1 -1 -1 -1 -1 -1 -1 -1 -1 -1
 MicOpt= -1 -1 -1 -1 -1 -1 -1 -1 -1 -1 -1 -1 -1 -1 -1 -1 -1 -1 -1 -1
 MicOpt= -1 -1 -1 -1 -1 -1 -1 -1 -1 -1 -1 -1 -1 -1 -1 -1 -1 -1 -1 -1
 MicOpt= -1 -1 -1 -1 -1 -1 -1 -1 -1 -1 -1 -1 -1 -1 -1 -1 -1 -1
 NAtoms=    178 NQM=      178 NQMF=       0 NMMI=      0 NMMIF=      0
                NMic=       0 NMicF=      0.
                    Isotopes and Nuclear Properties:
 (Nuclear quadrupole moments (NQMom) in fm**2, nuclear magnetic moments (NMagM)
  in nuclear magnetons)

  Atom         1           2           3           4           5           6           7           8           9          10
 IAtWgt=         106         106          12          12          12          12          12          12          12          12
 AtmWgt= 105.9032000 105.9032000  12.0000000  12.0000000  12.0000000  12.0000000  12.0000000  12.0000000  12.0000000  12.0000000
 NucSpn=           0           0           0           0           0           0           0           0           0           0
 AtZEff=  -0.0000000  -0.0000000  -0.0000000  -0.0000000  -0.0000000  -0.0000000  -0.0000000  -0.0000000  -0.0000000  -0.0000000
 NQMom=    0.0000000   0.0000000   0.0000000   0.0000000   0.0000000   0.0000000   0.0000000   0.0000000   0.0000000   0.0000000
 NMagM=    0.0000000   0.0000000   0.0000000   0.0000000   0.0000000   0.0000000   0.0000000   0.0000000   0.0000000   0.0000000
 AtZNuc=  46.0000000  46.0000000   6.0000000   6.0000000   6.0000000   6.0000000   6.0000000   6.0000000   6.0000000   6.0000000

  Atom        11          12          13          14          15          16          17          18          19          20
 IAtWgt=          14          12          12          12           1           1           1           1           1           1
 AtmWgt=  14.0030740  12.0000000  12.0000000  12.0000000   1.0078250   1.0078250   1.0078250   1.0078250   1.0078250   1.0078250
 NucSpn=           2           0           0           0           1           1           1           1           1           1
 AtZEff=  -0.0000000  -0.0000000  -0.0000000  -0.0000000  -0.0000000  -0.0000000  -0.0000000  -0.0000000  -0.0000000  -0.0000000
 NQMom=    2.0440000   0.0000000   0.0000000   0.0000000   0.0000000   0.0000000   0.0000000   0.0000000   0.0000000   0.0000000
 NMagM=    0.4037610   0.0000000   0.0000000   0.0000000   2.7928460   2.7928460   2.7928460   2.7928460   2.7928460   2.7928460
 AtZNuc=   7.0000000   6.0000000   6.0000000   6.0000000   1.0000000   1.0000000   1.0000000   1.0000000   1.0000000   1.0000000

  Atom        21          22          23          24          25          26          27          28          29          30
 IAtWgt=          12          12          12          12          12          12          12          12          12          12
 AtmWgt=  12.0000000  12.0000000  12.0000000  12.0000000  12.0000000  12.0000000  12.0000000  12.0000000  12.0000000  12.0000000
 NucSpn=           0           0           0           0           0           0           0           0           0           0
 AtZEff=  -0.0000000  -0.0000000  -0.0000000  -0.0000000  -0.0000000  -0.0000000  -0.0000000  -0.0000000  -0.0000000  -0.0000000
 NQMom=    0.0000000   0.0000000   0.0000000   0.0000000   0.0000000   0.0000000   0.0000000   0.0000000   0.0000000   0.0000000
 NMagM=    0.0000000   0.0000000   0.0000000   0.0000000   0.0000000   0.0000000   0.0000000   0.0000000   0.0000000   0.0000000
 AtZNuc=   6.0000000   6.0000000   6.0000000   6.0000000   6.0000000   6.0000000   6.0000000   6.0000000   6.0000000   6.0000000

  Atom        31          32          33          34          35          36          37          38          39          40
 IAtWgt=           1           1           1           1           1           1          12          12          12          12
 AtmWgt=   1.0078250   1.0078250   1.0078250   1.0078250   1.0078250   1.0078250  12.0000000  12.0000000  12.0000000  12.0000000
 NucSpn=           1           1           1           1           1           1           0           0           0           0
 AtZEff=  -0.0000000  -0.0000000  -0.0000000  -0.0000000  -0.0000000  -0.0000000  -0.0000000  -0.0000000  -0.0000000  -0.0000000
 NQMom=    0.0000000   0.0000000   0.0000000   0.0000000   0.0000000   0.0000000   0.0000000   0.0000000   0.0000000   0.0000000
 NMagM=    2.7928460   2.7928460   2.7928460   2.7928460   2.7928460   2.7928460   0.0000000   0.0000000   0.0000000   0.0000000
 AtZNuc=   1.0000000   1.0000000   1.0000000   1.0000000   1.0000000   1.0000000   6.0000000   6.0000000   6.0000000   6.0000000

  Atom        41          42          43          44          45          46          47          48          49          50
 IAtWgt=          14          12           1           1           1           1          12          12          12          12
 AtmWgt=  14.0030740  12.0000000   1.0078250   1.0078250   1.0078250   1.0078250  12.0000000  12.0000000  12.0000000  12.0000000
 NucSpn=           2           0           1           1           1           1           0           0           0           0
 AtZEff=  -0.0000000  -0.0000000  -0.0000000  -0.0000000  -0.0000000  -0.0000000  -0.0000000  -0.0000000  -0.0000000  -0.0000000
 NQMom=    2.0440000   0.0000000   0.0000000   0.0000000   0.0000000   0.0000000   0.0000000   0.0000000   0.0000000   0.0000000
 NMagM=    0.4037610   0.0000000   2.7928460   2.7928460   2.7928460   2.7928460   0.0000000   0.0000000   0.0000000   0.0000000
 AtZNuc=   7.0000000   6.0000000   1.0000000   1.0000000   1.0000000   1.0000000   6.0000000   6.0000000   6.0000000   6.0000000

  Atom        51          52          53          54          55          56          57          58          59          60
 IAtWgt=          12          12          12          12          14          12          12          12           1           1
 AtmWgt=  12.0000000  12.0000000  12.0000000  12.0000000  14.0030740  12.0000000  12.0000000  12.0000000   1.0078250   1.0078250
 NucSpn=           0           0           0           0           2           0           0           0           1           1
 AtZEff=  -0.0000000  -0.0000000  -0.0000000  -0.0000000  -0.0000000  -0.0000000  -0.0000000  -0.0000000  -0.0000000  -0.0000000
 NQMom=    0.0000000   0.0000000   0.0000000   0.0000000   2.0440000   0.0000000   0.0000000   0.0000000   0.0000000   0.0000000
 NMagM=    0.0000000   0.0000000   0.0000000   0.0000000   0.4037610   0.0000000   0.0000000   0.0000000   2.7928460   2.7928460
 AtZNuc=   6.0000000   6.0000000   6.0000000   6.0000000   7.0000000   6.0000000   6.0000000   6.0000000   1.0000000   1.0000000

  Atom        61          62          63          64          65          66          67          68          69          70
 IAtWgt=           1           1           1           1          12          12          12          12          12          12
 AtmWgt=   1.0078250   1.0078250   1.0078250   1.0078250  12.0000000  12.0000000  12.0000000  12.0000000  12.0000000  12.0000000
 NucSpn=           1           1           1           1           0           0           0           0           0           0
 AtZEff=  -0.0000000  -0.0000000  -0.0000000  -0.0000000  -0.0000000  -0.0000000  -0.0000000  -0.0000000  -0.0000000  -0.0000000
 NQMom=    0.0000000   0.0000000   0.0000000   0.0000000   0.0000000   0.0000000   0.0000000   0.0000000   0.0000000   0.0000000
 NMagM=    2.7928460   2.7928460   2.7928460   2.7928460   0.0000000   0.0000000   0.0000000   0.0000000   0.0000000   0.0000000
 AtZNuc=   1.0000000   1.0000000   1.0000000   1.0000000   6.0000000   6.0000000   6.0000000   6.0000000   6.0000000   6.0000000

  Atom        71          72          73          74          75          76          77          78          79          80
 IAtWgt=          12          12          12          12           1           1           1           1           1           1
 AtmWgt=  12.0000000  12.0000000  12.0000000  12.0000000   1.0078250   1.0078250   1.0078250   1.0078250   1.0078250   1.0078250
 NucSpn=           0           0           0           0           1           1           1           1           1           1
 AtZEff=  -0.0000000  -0.0000000  -0.0000000  -0.0000000  -0.0000000  -0.0000000  -0.0000000  -0.0000000  -0.0000000  -0.0000000
 NQMom=    0.0000000   0.0000000   0.0000000   0.0000000   0.0000000   0.0000000   0.0000000   0.0000000   0.0000000   0.0000000
 NMagM=    0.0000000   0.0000000   0.0000000   0.0000000   2.7928460   2.7928460   2.7928460   2.7928460   2.7928460   2.7928460
 AtZNuc=   6.0000000   6.0000000   6.0000000   6.0000000   1.0000000   1.0000000   1.0000000   1.0000000   1.0000000   1.0000000

  Atom        81          82          83          84          85          86          87          88          89          90
 IAtWgt=          12          12          12          12          14          12           1           1           1           1
 AtmWgt=  12.0000000  12.0000000  12.0000000  12.0000000  14.0030740  12.0000000   1.0078250   1.0078250   1.0078250   1.0078250
 NucSpn=           0           0           0           0           2           0           1           1           1           1
 AtZEff=  -0.0000000  -0.0000000  -0.0000000  -0.0000000  -0.0000000  -0.0000000  -0.0000000  -0.0000000  -0.0000000  -0.0000000
 NQMom=    0.0000000   0.0000000   0.0000000   0.0000000   2.0440000   0.0000000   0.0000000   0.0000000   0.0000000   0.0000000
 NMagM=    0.0000000   0.0000000   0.0000000   0.0000000   0.4037610   0.0000000   2.7928460   2.7928460   2.7928460   2.7928460
 AtZNuc=   6.0000000   6.0000000   6.0000000   6.0000000   7.0000000   6.0000000   1.0000000   1.0000000   1.0000000   1.0000000

  Atom        91          92          93          94          95          96          97          98          99         100
 IAtWgt=          12          12          12          12          12          12          12          12          14          12
 AtmWgt=  12.0000000  12.0000000  12.0000000  12.0000000  12.0000000  12.0000000  12.0000000  12.0000000  14.0030740  12.0000000
 NucSpn=           0           0           0           0           0           0           0           0           2           0
 AtZEff=  -0.0000000  -0.0000000  -0.0000000  -0.0000000  -0.0000000  -0.0000000  -0.0000000  -0.0000000  -0.0000000  -0.0000000
 NQMom=    0.0000000   0.0000000   0.0000000   0.0000000   0.0000000   0.0000000   0.0000000   0.0000000   2.0440000   0.0000000
 NMagM=    0.0000000   0.0000000   0.0000000   0.0000000   0.0000000   0.0000000   0.0000000   0.0000000   0.4037610   0.0000000
 AtZNuc=   6.0000000   6.0000000   6.0000000   6.0000000   6.0000000   6.0000000   6.0000000   6.0000000   7.0000000   6.0000000

  Atom       101         102         103         104         105         106         107         108         109         110
 IAtWgt=          12          12           1           1           1           1           1           1          12          12
 AtmWgt=  12.0000000  12.0000000   1.0078250   1.0078250   1.0078250   1.0078250   1.0078250   1.0078250  12.0000000  12.0000000
 NucSpn=           0           0           1           1           1           1           1           1           0           0
 AtZEff=  -0.0000000  -0.0000000  -0.0000000  -0.0000000  -0.0000000  -0.0000000  -0.0000000  -0.0000000  -0.0000000  -0.0000000
 NQMom=    0.0000000   0.0000000   0.0000000   0.0000000   0.0000000   0.0000000   0.0000000   0.0000000   0.0000000   0.0000000
 NMagM=    0.0000000   0.0000000   2.7928460   2.7928460   2.7928460   2.7928460   2.7928460   2.7928460   0.0000000   0.0000000
 AtZNuc=   6.0000000   6.0000000   1.0000000   1.0000000   1.0000000   1.0000000   1.0000000   1.0000000   6.0000000   6.0000000

  Atom       111         112         113         114         115         116         117         118         119         120
 IAtWgt=          12          12          12          12          12          12          12          12           1           1
 AtmWgt=  12.0000000  12.0000000  12.0000000  12.0000000  12.0000000  12.0000000  12.0000000  12.0000000   1.0078250   1.0078250
 NucSpn=           0           0           0           0           0           0           0           0           1           1
 AtZEff=  -0.0000000  -0.0000000  -0.0000000  -0.0000000  -0.0000000  -0.0000000  -0.0000000  -0.0000000  -0.0000000  -0.0000000
 NQMom=    0.0000000   0.0000000   0.0000000   0.0000000   0.0000000   0.0000000   0.0000000   0.0000000   0.0000000   0.0000000
 NMagM=    0.0000000   0.0000000   0.0000000   0.0000000   0.0000000   0.0000000   0.0000000   0.0000000   2.7928460   2.7928460
 AtZNuc=   6.0000000   6.0000000   6.0000000   6.0000000   6.0000000   6.0000000   6.0000000   6.0000000   1.0000000   1.0000000

  Atom       121         122         123         124         125         126         127         128         129         130
 IAtWgt=           1           1           1           1          12          12          12          12          14          12
 AtmWgt=   1.0078250   1.0078250   1.0078250   1.0078250  12.0000000  12.0000000  12.0000000  12.0000000  14.0030740  12.0000000
 NucSpn=           1           1           1           1           0           0           0           0           2           0
 AtZEff=  -0.0000000  -0.0000000  -0.0000000  -0.0000000  -0.0000000  -0.0000000  -0.0000000  -0.0000000  -0.0000000  -0.0000000
 NQMom=    0.0000000   0.0000000   0.0000000   0.0000000   0.0000000   0.0000000   0.0000000   0.0000000   2.0440000   0.0000000
 NMagM=    2.7928460   2.7928460   2.7928460   2.7928460   0.0000000   0.0000000   0.0000000   0.0000000   0.4037610   0.0000000
 AtZNuc=   1.0000000   1.0000000   1.0000000   1.0000000   6.0000000   6.0000000   6.0000000   6.0000000   7.0000000   6.0000000

  Atom       131         132         133         134         135         136         137         138         139         140
 IAtWgt=           1           1           1           1          12          12          12          12          12          12
 AtmWgt=   1.0078250   1.0078250   1.0078250   1.0078250  12.0000000  12.0000000  12.0000000  12.0000000  12.0000000  12.0000000
 NucSpn=           1           1           1           1           0           0           0           0           0           0
 AtZEff=  -0.0000000  -0.0000000  -0.0000000  -0.0000000  -0.0000000  -0.0000000  -0.0000000  -0.0000000  -0.0000000  -0.0000000
 NQMom=    0.0000000   0.0000000   0.0000000   0.0000000   0.0000000   0.0000000   0.0000000   0.0000000   0.0000000   0.0000000
 NMagM=    2.7928460   2.7928460   2.7928460   2.7928460   0.0000000   0.0000000   0.0000000   0.0000000   0.0000000   0.0000000
 AtZNuc=   1.0000000   1.0000000   1.0000000   1.0000000   6.0000000   6.0000000   6.0000000   6.0000000   6.0000000   6.0000000

  Atom       141         142         143         144         145         146         147         148         149         150
 IAtWgt=          12          12          14          12          12          12           1           1           1           1
 AtmWgt=  12.0000000  12.0000000  14.0030740  12.0000000  12.0000000  12.0000000   1.0078250   1.0078250   1.0078250   1.0078250
 NucSpn=           0           0           2           0           0           0           1           1           1           1
 AtZEff=  -0.0000000  -0.0000000  -0.0000000  -0.0000000  -0.0000000  -0.0000000  -0.0000000  -0.0000000  -0.0000000  -0.0000000
 NQMom=    0.0000000   0.0000000   2.0440000   0.0000000   0.0000000   0.0000000   0.0000000   0.0000000   0.0000000   0.0000000
 NMagM=    0.0000000   0.0000000   0.4037610   0.0000000   0.0000000   0.0000000   2.7928460   2.7928460   2.7928460   2.7928460
 AtZNuc=   6.0000000   6.0000000   7.0000000   6.0000000   6.0000000   6.0000000   1.0000000   1.0000000   1.0000000   1.0000000

  Atom       151         152         153         154         155         156         157         158         159         160
 IAtWgt=           1           1          12          12          12          12          12          12          12          12
 AtmWgt=   1.0078250   1.0078250  12.0000000  12.0000000  12.0000000  12.0000000  12.0000000  12.0000000  12.0000000  12.0000000
 NucSpn=           1           1           0           0           0           0           0           0           0           0
 AtZEff=  -0.0000000  -0.0000000  -0.0000000  -0.0000000  -0.0000000  -0.0000000  -0.0000000  -0.0000000  -0.0000000  -0.0000000
 NQMom=    0.0000000   0.0000000   0.0000000   0.0000000   0.0000000   0.0000000   0.0000000   0.0000000   0.0000000   0.0000000
 NMagM=    2.7928460   2.7928460   0.0000000   0.0000000   0.0000000   0.0000000   0.0000000   0.0000000   0.0000000   0.0000000
 AtZNuc=   1.0000000   1.0000000   6.0000000   6.0000000   6.0000000   6.0000000   6.0000000   6.0000000   6.0000000   6.0000000

  Atom       161         162         163         164         165         166         167         168         169         170
 IAtWgt=          12          12           1           1           1           1           1           1          12          12
 AtmWgt=  12.0000000  12.0000000   1.0078250   1.0078250   1.0078250   1.0078250   1.0078250   1.0078250  12.0000000  12.0000000
 NucSpn=           0           0           1           1           1           1           1           1           0           0
 AtZEff=  -0.0000000  -0.0000000  -0.0000000  -0.0000000  -0.0000000  -0.0000000  -0.0000000  -0.0000000  -0.0000000  -0.0000000
 NQMom=    0.0000000   0.0000000   0.0000000   0.0000000   0.0000000   0.0000000   0.0000000   0.0000000   0.0000000   0.0000000
 NMagM=    0.0000000   0.0000000   2.7928460   2.7928460   2.7928460   2.7928460   2.7928460   2.7928460   0.0000000   0.0000000
 AtZNuc=   6.0000000   6.0000000   1.0000000   1.0000000   1.0000000   1.0000000   1.0000000   1.0000000   6.0000000   6.0000000

  Atom       171         172         173         174         175         176         177         178
 IAtWgt=          12          12          14          12           1           1           1           1
 AtmWgt=  12.0000000  12.0000000  14.0030740  12.0000000   1.0078250   1.0078250   1.0078250   1.0078250
 NucSpn=           0           0           2           0           1           1           1           1
 AtZEff=  -0.0000000  -0.0000000  -0.0000000  -0.0000000  -0.0000000  -0.0000000  -0.0000000  -0.0000000
 NQMom=    0.0000000   0.0000000   2.0440000   0.0000000   0.0000000   0.0000000   0.0000000   0.0000000
 NMagM=    0.0000000   0.0000000   0.4037610   0.0000000   2.7928460   2.7928460   2.7928460   2.7928460
 AtZNuc=   6.0000000   6.0000000   7.0000000   6.0000000   1.0000000   1.0000000   1.0000000   1.0000000
 Leave Link  101 at Fri Feb 26 11:39:17 2021, MaxMem=  7864320000 cpu:               9.7 elap:               0.3
 (Enter /apps/gaussian/g16-c01-avx/g16/l202.exe)
 Stoichiometry    C104H64N8Pd2(4+)
 Framework group  C1[X(C104H64N8Pd2)]
 Deg. of freedom   528
 Full point group                 C1      NOp   1
 Largest Abelian subgroup         C1      NOp   1
 Largest concise Abelian subgroup C1      NOp   1
                         Standard orientation:                         
 ---------------------------------------------------------------------
 Center     Atomic      Atomic             Coordinates (Angstroms)
 Number     Number       Type             X           Y           Z
 ---------------------------------------------------------------------
      1         46           0        5.657707   -0.000510   -0.000378
      2         46           0       -5.674132   -0.001013   -0.000133
      3          6           0       -1.823127    4.873878    4.455542
      4          6           0       -2.997371    4.837772    4.168032
      5          6           0       -4.346199    4.697370    3.786239
      6          6           0       -5.328911    5.561699    4.233315
      7          6           0       -6.664131    5.393623    3.846370
      8          6           0       -7.038787    4.366715    3.017899
      9          6           0       -6.067114    3.460265    2.543557
     10          6           0       -6.385919    2.379733    1.695980
     11          7           0       -5.482022    1.533260    1.257767
     12          6           0       -4.177559    1.681277    1.616804
     13          6           0       -3.765486    2.693560    2.433413
     14          6           0       -4.705903    3.622083    2.925326
     15          1           0       -5.062060    6.377465    4.888076
     16          1           0       -7.403939    6.088582    4.213175
     17          1           0       -8.069727    4.243414    2.726414
     18          1           0       -7.411220    2.223311    1.377854
     19          1           0       -3.479763    0.938930    1.218558
     20          1           0       -2.730484    2.797985    2.716973
     21          6           0       -0.459013    4.856078    4.814035
     22          6           0       -0.062867    5.330115    6.088024
     23          6           0        1.243064    5.246773    6.473744
     24          6           0        2.219732    4.694506    5.616330
     25          6           0        3.568819    4.560893    6.003112
     26          6           0        4.492595    4.022795    5.154650
     27          6           0        4.123042    3.593473    3.857812
     28          6           0        2.809716    3.708771    3.460462
     29          6           0        1.833406    4.248271    4.323348
     30          6           0        0.480179    4.338811    3.945564
     31          1           0       -0.808535    5.746201    6.748934
     32          1           0        1.547318    5.598888    7.448819
     33          1           0        3.860524    4.887850    6.990334
     34          1           0        5.511997    3.901624    5.486595
     35          1           0        2.506693    3.420622    2.465726
     36          1           0        0.180574    3.997965    2.966264
     37          6           0        5.154118    3.038634    2.970243
     38          6           0        6.464181    3.527772    2.992963
     39          6           0        7.430251    2.952692    2.184446
     40          6           0        7.071659    1.908407    1.350136
     41          7           0        5.812490    1.463606    1.301846
     42          6           0        4.878410    1.995946    2.083904
     43          1           0        6.720179    4.359051    3.630797
     44          1           0        8.446237    3.312833    2.201407
     45          1           0        7.803997    1.418664    0.703780
     46          1           0        3.888058    1.559480    2.014144
     47          6           0        1.832472    4.684997   -4.622381
     48          6           0        3.010411    4.415909   -4.571333
     49          6           0        4.363799    4.052829   -4.427484
     50          6           0        5.353896    4.593113   -5.228080
     51          6           0        6.694207    4.224440   -5.061530
     52          6           0        7.066523    3.321687   -4.098247
     53          6           0        6.087207    2.751521   -3.257986
     54          6           0        6.402930    1.827304   -2.241935
     55          7           0        5.490359    1.303027   -1.457522
     56          6           0        4.181754    1.635087   -1.605519
     57          6           0        3.771727    2.522431   -2.558887
     58          6           0        4.720172    3.112994   -3.419483
     59          1           0        5.088392    5.307706   -5.992441
     60          1           0        7.439608    4.664876   -5.705880
     61          1           0        8.101226    3.044427   -3.974645
     62          1           0        7.431567    1.521117   -2.084151
     63          1           0        3.474131    1.159739   -0.918754
     64          1           0        2.732449    2.788404   -2.667715
     65          6           0        0.461119    5.013293   -4.628876
     66          6           0        0.046860    6.289633   -5.080940
     67          6           0       -1.270864    6.639006   -5.030892
     68          6           0       -2.242015    5.741445   -4.535620
     69          6           0       -3.605881    6.086773   -4.444048
     70          6           0       -4.524291    5.198255   -3.964689
     71          6           0       -4.132731    3.902446   -3.552383
     72          6           0       -2.805154    3.545587   -3.624843
     73          6           0       -1.835337    4.448513   -4.107612
     74          6           0       -0.470498    4.108475   -4.162722
     75          1           0        0.787710    6.980333   -5.455199
     76          1           0       -1.589684    7.614908   -5.367776
     77          1           0       -3.913745    7.073380   -4.757793
     78          1           0       -5.557643    5.496124   -3.876995
     79          1           0       -2.484936    2.553124   -3.347701
     80          1           0       -0.156432    3.128579   -3.837402
     81          6           0       -5.158370    2.971438   -3.062228
     82          6           0       -6.441152    2.957271   -3.618905
     83          6           0       -7.405239    2.106679   -3.105030
     84          6           0       -7.071937    1.273997   -2.051841
     85          7           0       -5.836767    1.261971   -1.536915
     86          6           0       -4.904957    2.082296   -2.016514
     87          1           0       -6.675834    3.598722   -4.453689
     88          1           0       -8.401249    2.090565   -3.517076
     89          1           0       -7.801985    0.595936   -1.606805
     90          1           0       -3.934048    2.042641   -1.534383
     91          6           0       -1.822156   -4.873394   -4.458144
     92          6           0       -2.996619   -4.836764   -4.171452
     93          6           0       -4.345562   -4.696309   -3.790256
     94          6           0       -5.328487   -5.559426   -4.239288
     95          6           0       -6.663798   -5.391352   -3.853064
     96          6           0       -7.038508   -4.365478   -3.023229
     97          6           0       -6.066782   -3.460222   -2.546936
     98          6           0       -6.385559   -2.380735   -1.698077
     99          7           0       -5.481612   -1.535185   -1.258322
    100          6           0       -4.176938   -1.683310   -1.616510
    101          6           0       -3.764900   -2.694721   -2.434194
    102          6           0       -4.705275   -3.622123   -2.928036
    103          1           0       -5.061520   -6.374315   -4.895182
    104          1           0       -7.403687   -6.085363   -4.221485
    105          1           0       -8.069567   -4.242155   -2.732301
    106          1           0       -7.411037   -2.224262   -1.380476
    107          1           0       -3.479091   -0.941734   -1.216791
    108          1           0       -2.729688   -2.799276   -2.717213
    109          6           0       -0.457934   -4.856337   -4.816046
    110          6           0       -0.061421   -5.331001   -6.089808
    111          6           0        1.244685   -5.248275   -6.474967
    112          6           0        2.221206   -4.695895   -5.617430
    113          6           0        3.570490   -4.562821   -6.003850
    114          6           0        4.494126   -4.024683   -5.155292
    115          6           0        4.124312   -3.594794   -3.858652
    116          6           0        2.810785   -3.709649   -3.461769
    117          6           0        1.834607   -4.249178   -4.324746
    118          6           0        0.481141   -4.339075   -3.947444
    119          1           0       -0.806966   -5.746993   -6.750774
    120          1           0        1.549282   -5.600922   -7.449743
    121          1           0        3.862490   -4.890284   -6.990833
    122          1           0        5.513680   -3.903962   -5.486916
    123          1           0        2.507466   -3.420984   -2.467255
    124          1           0        0.181310   -3.997708   -2.968456
    125          6           0        5.155115   -3.039916   -2.970875
    126          6           0        6.465177   -3.529007   -2.993271
    127          6           0        7.431070   -2.953840   -2.184477
    128          6           0        7.072235   -1.909440   -1.350478
    129          7           0        5.813052   -1.464627   -1.302480
    130          6           0        4.879182   -1.997096   -2.084728
    131          1           0        6.721359   -4.360484   -3.630836
    132          1           0        8.447023   -3.314086   -2.201098
    133          1           0        7.804467   -1.419583   -0.703977
    134          1           0        3.888790   -1.560701   -2.015234
    135          6           0        1.831811   -4.682005    4.625712
    136          6           0        3.009809   -4.412958    4.574161
    137          6           0        4.363162   -4.050251    4.429936
    138          6           0        5.353216   -4.589620    5.231238
    139          6           0        6.693498   -4.221388    5.064237
    140          6           0        7.066003   -3.319956    4.099882
    141          6           0        6.086803   -2.750667    3.258880
    142          6           0        6.402814   -1.827504    2.241903
    143          7           0        5.490297   -1.303930    1.456911
    144          6           0        4.181603   -1.635755    1.605064
    145          6           0        3.771482   -2.522049    2.559396
    146          6           0        4.719745   -3.111647    3.420667
    147          1           0        5.087454   -5.303058    5.996554
    148          1           0        7.438826   -4.661210    5.709223
    149          1           0        8.100873   -3.042997    3.976008
    150          1           0        7.431426   -1.521599    2.083804
    151          1           0        3.474223   -1.161240    0.917547
    152          1           0        2.732161   -2.787778    2.668275
    153          6           0        0.460485   -5.010482    4.632763
    154          6           0        0.046517   -6.286362    5.086238
    155          6           0       -1.271064   -6.636307    5.036484
    156          6           0       -2.242426   -5.739499    4.540100
    157          6           0       -3.606127   -6.085398    4.448701
    158          6           0       -4.524850   -5.197780    3.968212
    159          6           0       -4.133651   -3.902199    3.554747
    160          6           0       -2.806181   -3.544836    3.627055
    161          6           0       -1.836100   -4.446927    4.110791
    162          6           0       -0.471371   -4.106418    4.165623
    163          1           0        0.787589   -6.976422    5.461253
    164          1           0       -1.589566   -7.611910    5.374397
    165          1           0       -3.913651   -7.071875    4.763357
    166          1           0       -5.557958   -5.496134    3.880636
    167          1           0       -2.486263   -2.552538    3.349084
    168          1           0       -0.157536   -3.126742    3.839214
    169          6           0       -5.159411   -2.972014    3.063409
    170          6           0       -6.442471   -2.957723    3.619662
    171          6           0       -7.406574   -2.107789    3.104680
    172          6           0       -7.073059   -1.275752    2.051143
    173          7           0       -5.837750   -1.263842    1.536618
    174          6           0       -4.905987   -2.083624    2.017130
    175          1           0       -6.677268   -3.598615    4.454841
    176          1           0       -8.402736   -2.091567    3.516366
    177          1           0       -7.803100   -0.598075    1.605373
    178          1           0       -3.934815   -2.044235    1.535162
 ---------------------------------------------------------------------
 Rotational constants (GHZ):           0.0118355           0.0085188           0.0083019
 Leave Link  202 at Fri Feb 26 11:39:17 2021, MaxMem=  7864320000 cpu:               1.4 elap:               0.1
 (Enter /apps/gaussian/g16-c01-avx/g16/l301.exe)
 Standard basis: def2SVP (5D, 7F)
 Ernie: Thresh=  0.10000D-02 Tol=  0.10000D-05 Strict=F.
 There are  2072 symmetry adapted cartesian basis functions of A   symmetry.
 There are  1950 symmetry adapted basis functions of A   symmetry.
  1950 basis functions,  3378 primitive gaussians,  2072 cartesian basis functions
   388 alpha electrons      388 beta electrons
       nuclear repulsion energy     21809.4023146672 Hartrees.
 IExCor= 1009 DFT=T Ex+Corr=PBE1PBE ExCW=0 ScaHFX=  0.250000
 ScaDFX=  0.750000  0.750000  1.000000  1.000000 ScalE2=  1.000000  1.000000
 IRadAn=      7 IRanWt=     -1 IRanGd=            0 ICorTp=0 IEmpDi=141
 NAtoms=  178 NActive=  178 NUniq=  178 SFac= 1.00D+00 NAtFMM=   60 NAOKFM=T Big=T
 Integral buffers will be    131072 words long.
 Raffenetti 2 integral format.
 Two-electron integral symmetry is turned on.
 R6Disp:  Grimme-D3(BJ) Dispersion energy=       -0.2851186816 Hartrees.
 Nuclear repulsion after empirical dispersion term =    21809.1171959856 Hartrees.
 ------------------------------------------------------------------------------
 Polarizable Continuum Model (PCM)
 =================================
 Model                : PCM.
 Atomic radii         : UFF (Universal Force Field).
 Polarization charges : Total charges.
 Charge compensation  : None.
 Solution method      : On-the-fly selection.
 Cavity type          : Scaled VdW (van der Waals Surface) (Alpha=1.100).
 Cavity algorithm     : GePol (No added spheres)
                        Default sphere list used, NSphG=  178.
                        Lebedev-Laikov grids with approx.  5.0 points / Ang**2.
                        Smoothing algorithm: York/Karplus (Gamma=1.0000).
                        Polarization charges: spherical gaussians, with
                                              point-specific exponents (IZeta= 3).
                        Self-potential: point-specific (ISelfS= 7).
                        Self-field    : sphere-specific E.n sum rule (ISelfD= 2).
 Solvent              : DiMethylSulfoxide, Eps=  46.826000 Eps(inf)=   2.007889
 ------------------------------------------------------------------------------
 GePol: Number of generator spheres                  =     178
 GePol: Total number of spheres                      =     178
 GePol: Number of exposed spheres                    =     178 (100.00%)
 GePol: Number of points                             =   12451
 GePol: Average weight of points                     =       0.13
 GePol: Minimum weight of points                     =   0.71D-11
 GePol: Maximum weight of points                     =    0.20577
 GePol: Number of points with low weight             =     879
 GePol: Fraction of low-weight points (<1% of avg)   =       7.06%
 GePol: Cavity surface area                          =   1592.197 Ang**2
 GePol: Cavity volume                                =   1933.623 Ang**3
 Leave Link  301 at Fri Feb 26 11:39:18 2021, MaxMem=  7864320000 cpu:               6.2 elap:               0.2
 (Enter /apps/gaussian/g16-c01-avx/g16/l302.exe)
 NPDir=0 NMtPBC=     1 NCelOv=     1 NCel=       1 NClECP=     1 NCelD=      1
         NCelK=      1 NCelE2=     1 NClLst=     1 CellRange=     0.0.
 One-electron integrals computed using PRISM.
 One-electron integral symmetry used in STVInt
   1 Symmetry operations used in ECPInt.
 ECPInt:  NShTT=  392941 NPrTT= 1450931 LenC2=  203159 LenP2D=  414551.
 LDataN:  DoStor=T MaxTD1= 7 Len=  274
 NBasis=  1950 RedAO= T EigKep=  2.37D-04  NBF=  1950
 NBsUse=  1950 1.00D-06 EigRej= -1.00D+00 NBFU=  1950
 Precomputing XC quadrature grid using
 IXCGrd= 4 IRadAn=           7 IRanWt=          -1 IRanGd=           0 AccXCQ= 0.00D+00.
 Generated NRdTot=       0 NPtTot=           0 NUsed=           0 NTot=          32
 NSgBfM=  1633  1605  1609  1616  1633 MxSgAt=   178 MxSgA2=   178.
 Leave Link  302 at Fri Feb 26 11:39:41 2021, MaxMem=  7864320000 cpu:             712.8 elap:              22.7
 (Enter /apps/gaussian/g16-c01-avx/g16/l303.exe)
 DipDrv:  MaxL=1.
 Leave Link  303 at Fri Feb 26 11:39:42 2021, MaxMem=  7864320000 cpu:              32.2 elap:               1.3
 (Enter /apps/gaussian/g16-c01-avx/g16/l401.exe)
 ExpMin= 3.70D-02 ExpMax= 1.71D+03 ExpMxC= 2.58D+02 IAcc=3 IRadAn=         7 AccDes= 0.00D+00
 Harris functional with IExCor= 1009 and IRadAn=       7 diagonalized for initial guess.
 HarFok:  IExCor= 1009 AccDes= 0.00D+00 IRadAn=         7 IDoV= 1 UseB2=F ITyADJ=14
 ICtDFT=  3500011 ScaDFX=  1.000000  1.000000  1.000000  1.000000
 FoFCou: FMM=F IPFlag=           0 FMFlag=      100000 FMFlg1=        2001
         NFxFlg=           0 DoJE=T BraDBF=F KetDBF=T FulRan=T
         wScrn=  0.000000 ICntrl=       500 IOpCl=  0 I1Cent=   200000004 NGrid=           0
         NMat0=    1 NMatS0=      1 NMatT0=    0 NMatD0=    1 NMtDS0=    0 NMtDT0=    0
 Petite list used in FoFCou.
 Harris En= -4688.78525742031    
 JPrj=0 DoOrth=F DoCkMO=F.
 Leave Link  401 at Fri Feb 26 11:40:27 2021, MaxMem=  7864320000 cpu:            1371.6 elap:              43.8
 (Enter /apps/gaussian/g16-c01-avx/g16/l508.exe)
 Integral symmetry usage will be decided dynamically.
 Tight linear equation convergence will be used.
 RPBE1PBE wavefunction.
 Linear searches until partial convergence.
 Full line searches.
 Fock matrices will be formed incrementally for  20 cycles.
 Inv3:  Mode=1 IEnd=   465082203.
 Iteration    1 A*A^-1 deviation from unit magnitude is 1.64D-14 for  12447.
 Iteration    1 A*A^-1 deviation from orthogonality  is 8.19D-15 for  12447   9506.
 Iteration    1 A^-1*A deviation from unit magnitude is 1.64D-14 for  12447.
 Iteration    1 A^-1*A deviation from orthogonality  is 7.51D-12 for   6882   6855.
 FoFJK:  IHMeth= 1 ICntrl=       0 DoSepK=F KAlg= 0 I1Cent=           0 FoldK=F
 IRaf= 470000000 NMat=       1 IRICut=       1 DoRegI=T DoRafI=F ISym2E= 1 IDoP0=0 IntGTp=1.
 Iteration   1 EE= -4658.37397238166                                    Grad=5.760D+00 Max rot=   43.9343 deg.
 Gradient too large for Newton-Raphson -- use scaled steepest descent instead.
 Alpha Gap=     0.001 HL deriv= 5.36D-04
     ILin= 1 X=0.000D+00 Y=-4.658373972382D+03 DE= 0.00D+00 F= -1.03D+02
 RMSU=  1.11D-03    CP:  9.86D-01
     ILin= 2 X=1.000D-01 Y=-4.667017374087D+03 DE=-8.64D+00 F= -6.36D+01 OKLS=F
 RMSU=  9.87D-04    CP:  9.71D-01  1.81D+00
     ILin= 3 X=2.000D-01 Y=-4.670919329336D+03 DE=-1.25D+01 F= -1.78D+01
     Note:  rotation exceeds Pi/2.
 RMSU=  1.85D-04    CP:  9.66D-01  1.87D+00  1.36D+00
     ILin= 4 X=2.366D-01 Y=-4.671366013534D+03 DE=-1.30D+01 F= -7.30D+00
     Note:  rotation exceeds Pi/2.
 RMSU=  6.43D-04    CP:  9.53D-01  1.54D+00  1.66D+00  3.00D+00
     ILin= 5 X=3.346D-01 Y=-4.671412767393D+03 DE=-1.30D+01 F=  2.19D+00
     Accept linear search using points  4 and  5.
     An  expanding polynomial of degree  5 produced  0.2723
 RMSU=  2.19D-05    CP:  9.61D-01  1.82D+00  1.60D+00  2.59D+00  9.23D-03
 Iteration   2 EE= -4671.50112501365     Delta-E=      -13.127152631991 Grad=4.372D+00 Max rot=   30.6971 deg.
 Gradient too large for Newton-Raphson -- use scaled steepest descent instead.
 Alpha Gap=     0.184 HL deriv= 4.84D-04
     ILin= 1 X=0.000D+00 Y=-4.671501125014D+03 DE= 0.00D+00 F= -6.52D+01
 RMSU=  1.60D-03    CP:  9.42D-01  1.58D+00  1.14D+00  3.00D+00  7.63D-01
                    CP:  3.00D+00
     ILin= 2 X=3.000D-01 Y=-4.679102869236D+03 DE=-7.60D+00 F=  5.93D+00 OKLS=F
 RMSU=  4.70D-04    CP:  9.35D-01  1.46D+00  1.06D+00  3.00D+00  1.09D+00
                    CP:  3.00D+00  1.21D+00
     ILin= 3 X=4.000D-01 Y=-4.678040106237D+03 DE=-6.54D+00 F=  1.40D+01
     An  expanding polynomial of degree  3 produced  0.2909
     Minimum is close to point  2 DX= -9.10D-03 DF= -7.44D-03 DXR=  3.13D-02 DFR=  9.79D-04 which will be used.
 Iteration   3 EE= -4679.10286923568     Delta-E=       -7.601744222025 Grad=2.024D+00 Max rot=   14.0927 deg.
 Gradient too large for Newton-Raphson -- use scaled steepest descent instead.
 Alpha Gap=     0.249 HL deriv= 2.22D-04
     ILin= 1 X=0.000D+00 Y=-4.679102869236D+03 DE= 0.00D+00 F= -2.24D+01
 RMSU=  1.15D-03    CP:  9.30D-01  1.47D+00  9.19D-01  3.00D+00  9.25D-01
                    CP:  5.45D-01  8.90D-01  1.48D-01
     ILin= 2 X=3.000D-01 Y=-4.681865841910D+03 DE=-2.76D+00 F=  1.26D+00 OKLS=F
 RMSU=  2.24D-04    CP:  9.25D-01  1.42D+00  8.59D-01  3.00D+00  9.77D-01
                    CP: -1.53D-01  8.22D-01  4.31D-01  1.25D+00
     ILin= 3 X=4.000D-01 Y=-4.681562294808D+03 DE=-2.46D+00 F=  4.47D+00
     An  expanding polynomial of degree  3 produced  0.3004
     Minimum is close to point  2 DX=  4.23D-04 DF= -5.47D-06 DXR=  1.41D-03 DFR=  1.98D-06 which will be used.
 Iteration   4 EE= -4681.86584190976     Delta-E=       -2.762972674082 Grad=1.255D+00 Max rot=    7.0261 deg.
 Gradient too large for Newton-Raphson -- use scaled steepest descent instead.
 Alpha Gap=     0.153 HL deriv= 5.74D-04
     ILin= 1 X=0.000D+00 Y=-4.681865841910D+03 DE= 0.00D+00 F= -6.04D+00
 RMSU=  6.26D-04    CP:  9.25D-01  1.27D+00  7.73D-01  3.00D+00  5.78D-01
                    CP: -2.47D+00  7.83D-01  5.88D-02  9.79D-01  3.75D-01
     ILin= 2 X=3.000D-01 Y=-4.683314348964D+03 DE=-1.45D+00 F= -3.40D+00 OKLS=F
 RMSU=  6.00D-05    CP:  9.23D-01  1.20D+00  7.26D-01  3.00D+00  4.69D-01
                    CP: -2.81D+00  7.43D-01  3.56D-02  9.60D-01  5.96D-01
                    CP:  1.30D+00
     ILin= 3 X=4.000D-01 Y=-4.683598206417D+03 DE=-1.73D+00 F= -2.26D+00
 RMSU=  8.77D-05    CP:  9.20D-01  1.07D+00  6.36D-01  3.00D+00  2.65D-01
                    CP: -2.48D+00  6.61D-01 -3.10D-03  9.05D-01  1.11D+00
                    CP:  1.81D+00  3.00D+00
     ILin= 4 X=6.000D-01 Y=-4.683798565117D+03 DE=-1.93D+00 F=  3.01D-01
 RMSU=  1.25D-04    CP:  9.17D-01  9.40D-01  5.56D-01  3.00D+00  8.29D-02
                    CP: -7.89D-01  5.78D-01 -3.19D-02  8.38D-01  1.62D+00
                    CP:  2.19D+00  3.00D+00  3.00D+00
     ILin= 5 X=8.000D-01 Y=-4.683468183237D+03 DE=-1.60D+00 F=  3.00D+00
     An  expanding polynomial of degree  5 produced  0.5776
     Minimum is close to point  4 DX= -2.24D-02 DF= -3.32D-03 DXR=  3.87D-02 DFR=  1.72D-03 which will be used.
 Iteration   5 EE= -4683.79856511652     Delta-E=       -1.932723206759 Grad=8.945D-01 Max rot=    8.2627 deg.
 Gradient too large for Newton-Raphson -- use scaled steepest descent instead.
 Alpha Gap=     0.394 HL deriv= 2.21D-04
     ILin= 1 X=0.000D+00 Y=-4.683798565117D+03 DE= 0.00D+00 F= -5.49D+00
 RMSU=  8.08D-04    CP:  9.13D-01  9.31D-01  4.77D-01  3.00D+00  3.43D-01
                    CP: -1.72D+00  6.55D-01  3.06D-02  9.60D-01  1.50D+00
                    CP:  1.60D+00  3.00D+00  1.13D+00  5.91D-02
     ILin= 2 X=4.000D-01 Y=-4.684632041641D+03 DE=-8.33D-01 F=  6.02D-01 OKLS=T
     Accept linear search using points  1 and  2.
     An  expanding polynomial of degree  2 produced  0.2026
 RMSU=  9.86D-05    CP:  9.17D-01  9.98D-01  5.54D-01  3.00D+00  3.09D-01
                    CP: -2.18D+00  6.64D-01  1.50D-02  9.44D-01  1.24D+00
                    CP:  1.75D+00  3.00D+00  1.01D+00  1.75D-02  5.15D-01
 Iteration   6 EE= -4684.54142233548     Delta-E=       -0.742857218960 Grad=6.021D-01 Max rot=    4.6030 deg.
 Gradient too large for Newton-Raphson -- use scaled steepest descent instead.
 Alpha Gap=     0.252 HL deriv= 1.07D-04
     ILin= 1 X=0.000D+00 Y=-4.684541422335D+03 DE= 0.00D+00 F= -2.10D+00
 RMSU=  5.48D-04    CP:  9.10D-01  8.31D-01  4.38D-01  2.98D+00  4.83D-03
                    CP:  2.64D-01  5.45D-01 -1.68D-02  8.81D-01  1.43D+00
                    CP:  1.81D+00  3.00D+00  2.39D+00  7.82D-02  9.94D-01
                    CP: -1.09D+00
     ILin= 2 X=6.000D-01 Y=-4.685539318325D+03 DE=-9.98D-01 F= -1.06D+00 OKLS=F
 RMSU=  1.29D-04    CP:  9.08D-01  7.80D-01  4.01D-01  2.65D+00  6.63D-03
                    CP:  5.72D-01  5.04D-01 -2.96D-02  8.50D-01  1.49D+00
                    CP:  1.79D+00  3.00D+00  2.81D+00  1.09D-01  1.07D+00
                    CP: -2.41D+00  1.27D+00
     ILin= 3 X=8.000D-01 Y=-4.685704629133D+03 DE=-1.16D+00 F= -5.81D-01
 RMSU=  2.52D-04    CP:  9.05D-01  6.95D-01  3.33D-01  2.14D+00  1.17D-02
                    CP:  1.35D+00  4.25D-01 -5.75D-02  7.89D-01  1.53D+00
                    CP:  1.74D+00  3.00D+00  3.00D+00  5.03D-01  1.04D+00
                    CP: -3.00D+00  1.54D+00  3.00D+00
     ILin= 4 X=1.200D+00 Y=-4.685697672543D+03 DE=-1.16D+00 F=  7.22D-01
     An  expanding polynomial of degree  4 produced  0.9982
 RMSU=  3.82D-05    CP:  9.07D-01  7.35D-01  3.67D-01  2.38D+00  8.99D-03
                    CP:  9.41D-01  4.64D-01 -4.33D-02  8.19D-01  1.53D+00
                    CP:  1.76D+00  3.00D+00  3.00D+00  2.56D-01  1.08D+00
                    CP: -3.00D+00  1.46D+00  2.35D+00  2.81D-01
 Iteration   7 EE= -4685.76583182123     Delta-E=       -1.224409485752 Grad=4.726D-01 Max rot=    4.2497 deg.
 Gradient too large for Newton-Raphson -- use scaled steepest descent instead.
 Alpha Gap=     0.271 HL deriv= 1.83D-04
     ILin= 1 X=0.000D+00 Y=-4.685765831821D+03 DE= 0.00D+00 F= -9.44D-01
 Restarting incremental Fock formation.
     ILin= 2 X=4.000D-01 Y=-4.686013092417D+03 DE=-2.47D-01 F= -2.85D-01 OKLS=F
 RMSU=  1.62D-04    CP:  9.99D-01
     ILin= 3 X=6.000D-01 Y=-4.686036258257D+03 DE=-2.70D-01 F=  5.39D-02
     Accept linear search using points  2 and  3.
     An  expanding polynomial of degree  3 produced  0.4832
 RMSU=  3.21D-06    CP:  1.00D+00  4.16D-01
 Iteration   8 EE= -4686.03097270411     Delta-E=       -0.265140882882 Grad=3.130D-01 Max rot=    5.7888 deg.
 Gradient too large for Newton-Raphson -- use scaled steepest descent instead.
 Alpha Gap=     0.258 HL deriv= 2.35D-04
     ILin= 1 X=0.000D+00 Y=-4.686030972704D+03 DE= 0.00D+00 F= -4.15D-01
 RMSU=  3.90D-04    CP:  9.96D-01  1.48D+00 -3.00D+00
     ILin= 2 X=7.000D-01 Y=-4.686176524822D+03 DE=-1.46D-01 F=  1.36D-02 OKLS=T
     Accept linear search using points  1 and  2.
     An  expanding polynomial of degree  2 produced  0.6405
     Minimum is close to point  2 DX= -5.95D-02 DF= -5.98D-04 DXR=  9.29D-02 DFR=  4.11D-03 which will be used.
 Iteration   9 EE= -4686.17652482169     Delta-E=       -0.145552117574 Grad=3.413D-01 Max rot=    3.6032 deg.
 Gradient too large for Newton-Raphson -- use scaled steepest descent instead.
 Alpha Gap=     0.300 HL deriv= 3.93D-05
     ILin= 1 X=0.000D+00 Y=-4.686176524822D+03 DE= 0.00D+00 F= -4.48D-01
 RMSU=  2.83D-04    CP:  9.94D-01  2.57D+00 -3.00D+00  8.09D-01
     ILin= 2 X=6.000D-01 Y=-4.686255392058D+03 DE=-7.89D-02 F=  1.78D-01 OKLS=T
     Accept linear search using points  1 and  2.
     An  expanding polynomial of degree  2 produced  0.3523
 RMSU=  1.46D-05    CP:  9.95D-01  2.16D+00 -3.00D+00  8.98D-01  5.82D-01
 Iteration  10 EE= -4686.26844681136     Delta-E=       -0.091921989671 Grad=1.952D-01 Max rot=    5.4016 deg.
 Gradient too large for Newton-Raphson -- use scaled steepest descent instead.
 Alpha Gap=     0.254 HL deriv= 4.54D-05
     ILin= 1 X=0.000D+00 Y=-4.686268446811D+03 DE= 0.00D+00 F= -1.51D-01
 RMSU=  1.12D-04    CP:  9.93D-01  2.51D+00 -3.00D+00  1.19D+00  8.63D-01
                    CP: -1.24D+00
     ILin= 2 X=5.000D-01 Y=-4.686324211876D+03 DE=-5.58D-02 F= -6.81D-02 OKLS=F
 RMSU=  1.02D-05    CP:  9.92D-01  2.61D+00 -3.00D+00  1.29D+00  9.84D-01
                    CP: -2.51D+00  1.44D+00
     ILin= 3 X=7.000D-01 Y=-4.686333967536D+03 DE=-6.55D-02 F= -2.91D-02
 RMSU=  2.65D-05    CP:  9.90D-01  2.72D+00 -3.00D+00  1.42D+00  1.17D+00
                    CP: -3.00D+00  2.11D+00  3.00D+00
     ILin= 4 X=1.000D+00 Y=-4.686333466958D+03 DE=-6.50D-02 F=  3.29D-02
     An  expanding polynomial of degree  4 produced  0.8432
 RMSU=  1.66D-06    CP:  9.91D-01  2.67D+00 -3.00D+00  1.35D+00  1.07D+00
                    CP: -3.00D+00  1.76D+00  2.06D+00  2.91D-01
 Iteration  11 EE= -4686.33604830790     Delta-E=       -0.067601496539 Grad=2.629D-01 Max rot=    3.3269 deg.
 Gradient too large for Newton-Raphson -- use scaled steepest descent instead.
 Alpha Gap=     0.322 HL deriv= 2.49D-05
     ILin= 1 X=0.000D+00 Y=-4.686336048308D+03 DE= 0.00D+00 F= -2.99D-01
 RMSU=  1.68D-04    CP:  9.90D-01  2.75D+00 -3.00D+00  1.20D+00  1.50D+00
                    CP: -3.00D+00  1.19D+00  5.05D-01  1.07D+00  3.00D+00
     ILin= 2 X=5.000D-01 Y=-4.686432170801D+03 DE=-9.61D-02 F= -9.32D-02 OKLS=F
 RMSU=  3.70D-05    CP:  9.89D-01  2.74D+00 -3.00D+00  1.10D+00  1.72D+00
                    CP: -3.00D+00  8.26D-01 -5.54D-01  2.11D+00  3.00D+00
                    CP:  1.58D+00
     ILin= 3 X=8.000D-01 Y=-4.686444250231D+03 DE=-1.08D-01 F=  1.08D-02
     Accept linear search using points  2 and  3.
     An  expanding polynomial of degree  3 produced  0.6394
 RMSU=  5.05D-07    CP:  9.90D-01  2.75D+00 -3.00D+00  1.15D+00  1.60D+00
                    CP: -3.00D+00  1.02D+00  1.60D-02  1.51D+00  3.00D+00
                    CP:  1.28D+00  3.74D-01
 Iteration  12 EE= -4686.44166637239     Delta-E=       -0.105618064488 Grad=3.104D-01 Max rot=    6.4358 deg.
 Gradient too large for Newton-Raphson -- use scaled steepest descent instead.
 Alpha Gap=     0.228 HL deriv= 3.40D-05
     ILin= 1 X=0.000D+00 Y=-4.686441666372D+03 DE= 0.00D+00 F= -5.49D-01
 RMSU=  3.34D-04    CP:  9.86D-01  2.53D+00 -3.00D+00  1.50D+00  1.19D+00
                    CP: -3.00D+00  2.28D+00  2.53D-01  3.00D+00  3.00D+00
                    CP:  2.09D+00  3.00D+00  3.00D+00
     ILin= 2 X=7.000D-01 Y=-4.686495601372D+03 DE=-5.39D-02 F=  4.37D-01 OKLS=T
     Accept linear search using points  1 and  2.
     An  expanding polynomial of degree  2 produced  0.3877
 RMSU=  7.07D-05    CP:  9.87D-01  2.69D+00 -3.00D+00  1.37D+00  1.40D+00
                    CP: -3.00D+00  1.81D+00 -9.28D-01  3.00D+00  3.00D+00
                    CP:  1.98D+00  2.94D+00  3.00D+00  4.65D-01
 Iteration  13 EE= -4686.56103626179     Delta-E=       -0.119369889402 Grad=2.639D-01 Max rot=    5.1234 deg.
 Gradient too large for Newton-Raphson -- use scaled steepest descent instead.
 Alpha Gap=     0.331 HL deriv= 8.73D-05
     ILin= 1 X=0.000D+00 Y=-4.686561036262D+03 DE= 0.00D+00 F= -5.50D-01
 RMSU=  3.02D-04    CP:  9.85D-01  2.84D+00 -3.00D+00  1.20D+00  1.85D+00
                    CP: -3.00D+00  1.92D+00  3.00D+00  3.00D+00 -3.00D+00
                    CP:  2.41D+00  3.00D+00  3.00D+00  5.34D-01 -1.01D+00
     ILin= 2 X=5.000D-01 Y=-4.686754313722D+03 DE=-1.93D-01 F= -1.73D-01 OKLS=F
 RMSU=  7.55D-05    CP:  9.84D-01  2.83D+00 -3.00D+00  1.10D+00  1.98D+00
                    CP: -3.00D+00  1.92D+00  3.00D+00  3.00D+00 -3.00D+00
                    CP:  2.27D+00  3.00D+00 -3.00D+00  5.19D-01 -1.92D+00
                    CP:  1.32D+00
     ILin= 3 X=7.000D-01 Y=-4.686767770385D+03 DE=-2.07D-01 F=  4.16D-02
     Accept linear search using points  2 and  3.
     An  expanding polynomial of degree  3 produced  0.5864
 RMSU=  1.96D-06    CP:  9.84D-01  2.84D+00 -3.00D+00  1.16D+00  1.91D+00
                    CP: -3.00D+00  1.92D+00  3.00D+00  3.00D+00 -3.00D+00
                    CP:  2.37D+00  3.00D+00  3.00D+00  5.30D-01 -1.41D+00
                    CP:  1.15D+00  3.88D-01
 Iteration  14 EE= -4686.76539831213     Delta-E=       -0.204362050343 Grad=1.487D-01 Max rot=    1.1183 deg.
 Gradient too large for Newton-Raphson -- use scaled steepest descent instead.
 Alpha Gap=     0.276 HL deriv= 1.72D-05
     ILin= 1 X=0.000D+00 Y=-4.686765398312D+03 DE= 0.00D+00 F= -8.54D-02
 RMSU=  7.49D-05    CP:  9.84D-01  2.82D+00 -3.00D+00  1.17D+00  1.87D+00
                    CP: -3.00D+00  2.12D+00  3.00D+00  3.00D+00 -3.00D+00
                    CP:  2.20D+00  3.00D+00  3.00D+00  6.43D-01 -1.55D+00
                    CP:  1.22D+00  5.96D-01 -1.98D-01
     ILin= 2 X=5.000D-01 Y=-4.686790472812D+03 DE=-2.51D-02 F= -1.47D-02 OKLS=F
 RMSU=  4.05D-06    CP:  9.84D-01  2.79D+00 -3.00D+00  1.18D+00  1.84D+00
                    CP: -3.00D+00  2.24D+00  3.00D+00  3.00D+00 -3.00D+00
                    CP:  2.08D+00  3.00D+00  3.00D+00  7.05D-01 -1.64D+00
                    CP:  1.25D+00  7.30D-01 -4.16D-01  1.59D+00
     ILin= 3 X=8.000D-01 Y=-4.686788450059D+03 DE=-2.31D-02 F=  2.82D-02
     An  expanding polynomial of degree  3 produced  0.6026
 Restarting incremental Fock formation.
 Iteration  15 EE= -4686.79122675377     Delta-E=       -0.025828441641 Grad=1.048D-01 Max rot=    0.7578 deg.
 Gradient too large for Newton-Raphson -- use scaled steepest descent instead.
 Alpha Gap=     0.311 HL deriv= 1.13D-05
     ILin= 1 X=0.000D+00 Y=-4.686791226754D+03 DE= 0.00D+00 F= -3.83D-02
 RMSU=  8.07D-05    CP:  1.00D+00
     ILin= 2 X=6.000D-01 Y=-4.686799447866D+03 DE=-8.22D-03 F=  1.09D-02 OKLS=T
     Accept linear search using points  1 and  2.
     An  expanding polynomial of degree  2 produced  0.3759
 RMSU=  8.96D-07    CP:  1.00D+00  6.26D-01
 Iteration  16 EE= -4686.79983410356     Delta-E=       -0.008607349791 Grad=4.101D-02 Max rot=    0.4701 deg.
 Gradient too large for Newton-Raphson -- use scaled steepest descent instead.
 Alpha Gap=     0.292 HL deriv= 2.01D-05
     ILin= 1 X=0.000D+00 Y=-4.686799834104D+03 DE= 0.00D+00 F= -8.57D-03
 RMSU=  2.87D-05    CP:  1.00D+00  7.58D-01  1.33D+00
     ILin= 2 X=5.000D-01 Y=-4.686803178621D+03 DE=-3.34D-03 F= -4.80D-03 OKLS=F
 RMSU=  8.57D-07    CP:  1.00D+00  8.62D-01  2.55D-01  1.80D+00
     ILin= 3 X=9.000D-01 Y=-4.686804490433D+03 DE=-4.66D-03 F= -1.76D-03
 RMSU=  1.14D-05    CP:  1.00D+00  1.07D+00 -3.00D+00  3.00D+00  3.00D+00
     ILin= 4 X=1.700D+00 Y=-4.686803446597D+03 DE=-3.61D-03 F=  4.37D-03
     An  expanding polynomial of degree  4 produced  1.1301
 RMSU=  1.50D-08    CP:  1.00D+00  9.22D-01 -8.98D-01  2.26D+00  1.98D+00
                    CP:  1.73D-05
 Iteration  17 EE= -4686.80469233163     Delta-E=       -0.004858228061 Grad=3.669D-02 Max rot=    0.2121 deg.
 Gradient too large for Newton-Raphson -- use scaled steepest descent instead.
 Alpha Gap=     0.300 HL deriv= 5.04D-06
     ILin= 1 X=0.000D+00 Y=-4.686804692332D+03 DE= 0.00D+00 F= -4.15D-03
 RMSU=  1.02D-05    CP:  1.00D+00  1.27D+00 -3.00D+00  1.89D+00  2.56D+00
                    CP:  5.23D-03  3.00D+00
     ILin= 2 X=7.000D-01 Y=-4.686804722434D+03 DE=-3.01D-05 F=  4.05D-03 OKLS=T
     Accept linear search using points  1 and  2.
     An  expanding polynomial of degree  2 produced  0.3518
 RMSU=  1.15D-07    CP:  1.00D+00  1.09D+00 -1.96D+00  2.07D+00  2.33D+00
                    CP:  9.28D-04  3.00D+00  5.03D-01
 Iteration  18 EE= -4686.80542529949     Delta-E=       -0.000732967863 Grad=8.411D-03 Max rot=    0.0728 deg.
 SCF Done:  E(RPBE1PBE) =  -4686.80542530     a.u. after   18 cycles
            Convg  =    0.8411D-02                    49 Fock formations.
              S**2 =  0.0000                  -V/T =  2.0453
 Leave Link  508 at Fri Feb 26 13:12:18 2021, MaxMem=  7864320000 cpu:          172185.7 elap:            5510.4
 (Enter /apps/gaussian/g16-c01-avx/g16/l502.exe)
 Integral symmetry usage will be decided dynamically.
 Closed shell SCF:
 Using DIIS extrapolation, IDIIS=  1040.
 NGot=  7864320000 LenX=  7855642282 LenY=  7851347026
 Requested convergence on RMS density matrix=1.00D-08 within 128 cycles.
 Requested convergence on MAX density matrix=1.00D-06.
 Requested convergence on             energy=1.00D-06.
 No special actions if energy rises.
 Fock matrices will be formed incrementally for  20 cycles.

 Cycle   1  Pass 1  IDiag  1:
 FoFJK:  IHMeth= 1 ICntrl=       0 DoSepK=F KAlg= 0 I1Cent=           0 FoldK=F
 IRaf= 470000000 NMat=       1 IRICut=       1 DoRegI=T DoRafI=F ISym2E= 0 IDoP0=0 IntGTp=1.
 FoFCou: FMM=T IPFlag=           0 FMFlag=      100000 FMFlg1=        2001
         NFxFlg=           0 DoJE=F BraDBF=F KetDBF=F FulRan=T
         wScrn=  0.000000 ICntrl=         0 IOpCl=  0 I1Cent=           0 NGrid=           0
         NMat0=    1 NMatS0=      1 NMatT0=    0 NMatD0=    1 NMtDS0=    0 NMtDT0=    0
 Symmetry not used in FoFCou.
 FMM levels:  10  Number of levels for PrismC:   9
 E= -4686.80542529957    
 DIIS: error= 2.78D-04 at cycle   1 NSaved=   1.
 NSaved= 1 IEnMin= 1 EnMin= -4686.80542529957     IErMin= 1 ErrMin= 2.78D-04
 ErrMax= 2.78D-04  0.00D+00 EMaxC= 1.00D-01 BMatC= 3.54D-05 BMatP= 3.54D-05
 IDIUse=3 WtCom= 9.97D-01 WtEn= 2.78D-03
 Coeff-Com:  0.100D+01
 Coeff-En:   0.100D+01
 Coeff:      0.100D+01
 Gap=     0.293 Goal=   None    Shift=    0.000
 RMSDP=1.68D-05 MaxDP=5.52D-03              OVMax= 1.04D-02

 Cycle   2  Pass 1  IDiag  1:
 RMSU=  1.68D-05    CP:  1.00D+00
 E= -4686.80563172770     Delta-E=       -0.000206428133 Rises=F Damp=F
 DIIS: error= 1.88D-04 at cycle   2 NSaved=   2.
 NSaved= 2 IEnMin= 2 EnMin= -4686.80563172770     IErMin= 2 ErrMin= 1.88D-04
 ErrMax= 1.88D-04  0.00D+00 EMaxC= 1.00D-01 BMatC= 2.22D-05 BMatP= 3.54D-05
 IDIUse=3 WtCom= 9.98D-01 WtEn= 1.88D-03
 Coeff-Com:  0.403D+00 0.597D+00
 Coeff-En:   0.000D+00 0.100D+01
 Coeff:      0.402D+00 0.598D+00
 Gap=     0.142 Goal=   None    Shift=    0.000
 RMSDP=5.13D-06 MaxDP=1.81D-03 DE=-2.06D-04 OVMax= 2.15D-03

 Cycle   3  Pass 1  IDiag  1:
 RMSU=  5.06D-06    CP:  1.00D+00  1.05D+00
 E= -4686.80564380292     Delta-E=       -0.000012075216 Rises=F Damp=F
 DIIS: error= 1.59D-04 at cycle   3 NSaved=   3.
 NSaved= 3 IEnMin= 3 EnMin= -4686.80564380292     IErMin= 3 ErrMin= 1.59D-04
 ErrMax= 1.59D-04  0.00D+00 EMaxC= 1.00D-01 BMatC= 1.67D-05 BMatP= 2.22D-05
 IDIUse=3 WtCom= 9.98D-01 WtEn= 1.59D-03
 Coeff-Com: -0.156D+00 0.493D+00 0.663D+00
 Coeff-En:   0.000D+00 0.365D+00 0.635D+00
 Coeff:     -0.156D+00 0.493D+00 0.663D+00
 Gap=     0.142 Goal=   None    Shift=    0.000
 RMSDP=3.43D-06 MaxDP=1.24D-03 DE=-1.21D-05 OVMax= 2.10D-03

 Cycle   4  Pass 1  IDiag  1:
 RMSU=  1.94D-06    CP:  1.00D+00  1.20D+00  7.27D-01
 E= -4686.80566215680     Delta-E=       -0.000018353887 Rises=F Damp=F
 DIIS: error= 1.53D-05 at cycle   4 NSaved=   4.
 NSaved= 4 IEnMin= 4 EnMin= -4686.80566215680     IErMin= 4 ErrMin= 1.53D-05
 ErrMax= 1.53D-05  0.00D+00 EMaxC= 1.00D-01 BMatC= 3.51D-07 BMatP= 1.67D-05
 IDIUse=1 WtCom= 1.00D+00 WtEn= 0.00D+00
 Coeff-Com: -0.615D-01 0.127D+00 0.220D+00 0.715D+00
 Coeff:     -0.615D-01 0.127D+00 0.220D+00 0.715D+00
 Gap=     0.142 Goal=   None    Shift=    0.000
 RMSDP=6.91D-07 MaxDP=2.42D-04 DE=-1.84D-05 OVMax= 3.96D-04

 Cycle   5  Pass 1  IDiag  1:
 RMSU=  5.96D-07    CP:  1.00D+00  1.21D+00  7.73D-01  1.08D+00
 E= -4686.80566235917     Delta-E=       -0.000000202370 Rises=F Damp=F
 DIIS: error= 1.34D-05 at cycle   5 NSaved=   5.
 NSaved= 5 IEnMin= 5 EnMin= -4686.80566235917     IErMin= 5 ErrMin= 1.34D-05
 ErrMax= 1.34D-05  0.00D+00 EMaxC= 1.00D-01 BMatC= 3.12D-07 BMatP= 3.51D-07
 IDIUse=1 WtCom= 1.00D+00 WtEn= 0.00D+00
 Coeff-Com:  0.241D-02-0.513D-01-0.300D-01 0.527D+00 0.552D+00
 Coeff:      0.241D-02-0.513D-01-0.300D-01 0.527D+00 0.552D+00
 Gap=     0.142 Goal=   None    Shift=    0.000
 RMSDP=3.76D-07 MaxDP=1.22D-04 DE=-2.02D-07 OVMax= 2.07D-04

 Cycle   6  Pass 1  IDiag  1:
 RMSU=  1.81D-07    CP:  1.00D+00  1.22D+00  7.88D-01  1.18D+00  6.35D-01
 E= -4686.80566267894     Delta-E=       -0.000000319771 Rises=F Damp=F
 DIIS: error= 3.24D-06 at cycle   6 NSaved=   6.
 NSaved= 6 IEnMin= 6 EnMin= -4686.80566267894     IErMin= 6 ErrMin= 3.24D-06
 ErrMax= 3.24D-06  0.00D+00 EMaxC= 1.00D-01 BMatC= 1.44D-08 BMatP= 3.12D-07
 IDIUse=1 WtCom= 1.00D+00 WtEn= 0.00D+00
 Coeff-Com:  0.503D-02-0.395D-01-0.334D-01 0.239D+00 0.301D+00 0.527D+00
 Coeff:      0.503D-02-0.395D-01-0.334D-01 0.239D+00 0.301D+00 0.527D+00
 Gap=     0.142 Goal=   None    Shift=    0.000
 RMSDP=9.90D-08 MaxDP=2.83D-05 DE=-3.20D-07 OVMax= 5.45D-05

 Cycle   7  Pass 1  IDiag  1:
 RMSU=  7.08D-08    CP:  1.00D+00  1.22D+00  7.89D-01  1.21D+00  6.70D-01
                    CP:  7.73D-01
 E= -4686.80566269319     Delta-E=       -0.000000014250 Rises=F Damp=F
 DIIS: error= 1.06D-06 at cycle   7 NSaved=   7.
 NSaved= 7 IEnMin= 7 EnMin= -4686.80566269319     IErMin= 7 ErrMin= 1.06D-06
 ErrMax= 1.06D-06  0.00D+00 EMaxC= 1.00D-01 BMatC= 1.60D-09 BMatP= 1.44D-08
 IDIUse=1 WtCom= 1.00D+00 WtEn= 0.00D+00
 Coeff-Com:  0.310D-02-0.174D-01-0.170D-01 0.658D-01 0.101D+00 0.295D+00
 Coeff-Com:  0.569D+00
 Coeff:      0.310D-02-0.174D-01-0.170D-01 0.658D-01 0.101D+00 0.295D+00
 Coeff:      0.569D+00
 Gap=     0.142 Goal=   None    Shift=    0.000
 RMSDP=3.54D-08 MaxDP=1.02D-05 DE=-1.42D-08 OVMax= 1.94D-05

 Cycle   8  Pass 1  IDiag  1:
 RMSU=  2.57D-08    CP:  1.00D+00  1.22D+00  7.91D-01  1.21D+00  6.78D-01
                    CP:  8.41D-01  8.90D-01
 E= -4686.80566269515     Delta-E=       -0.000000001954 Rises=F Damp=F
 DIIS: error= 4.19D-07 at cycle   8 NSaved=   8.
 NSaved= 8 IEnMin= 8 EnMin= -4686.80566269515     IErMin= 8 ErrMin= 4.19D-07
 ErrMax= 4.19D-07  0.00D+00 EMaxC= 1.00D-01 BMatC= 2.34D-10 BMatP= 1.60D-09
 IDIUse=1 WtCom= 1.00D+00 WtEn= 0.00D+00
 Coeff-Com:  0.813D-03-0.325D-02-0.405D-02-0.701D-02 0.363D-02 0.762D-01
 Coeff-Com:  0.316D+00 0.618D+00
 Coeff:      0.813D-03-0.325D-02-0.405D-02-0.701D-02 0.363D-02 0.762D-01
 Coeff:      0.316D+00 0.618D+00
 Gap=     0.142 Goal=   None    Shift=    0.000
 RMSDP=1.52D-08 MaxDP=4.79D-06 DE=-1.95D-09 OVMax= 8.45D-06

 Cycle   9  Pass 1  IDiag  1:
 RMSU=  8.58D-09    CP:  1.00D+00  1.22D+00  7.92D-01  1.22D+00  6.85D-01
                    CP:  8.70D-01  9.69D-01  7.88D-01
 E= -4686.80566269514     Delta-E=        0.000000000011 Rises=F Damp=F
 DIIS: error= 1.37D-07 at cycle   9 NSaved=   9.
 NSaved= 9 IEnMin= 8 EnMin= -4686.80566269515     IErMin= 9 ErrMin= 1.37D-07
 ErrMax= 1.37D-07  0.00D+00 EMaxC= 1.00D-01 BMatC= 3.27D-11 BMatP= 2.34D-10
 IDIUse=1 WtCom= 1.00D+00 WtEn= 0.00D+00
 Coeff-Com:  0.224D-06 0.735D-03 0.332D-03-0.118D-01-0.107D-01-0.408D-03
 Coeff-Com:  0.701D-01 0.319D+00 0.632D+00
 Coeff:      0.224D-06 0.735D-03 0.332D-03-0.118D-01-0.107D-01-0.408D-03
 Coeff:      0.701D-01 0.319D+00 0.632D+00
 Gap=     0.142 Goal=   None    Shift=    0.000
 RMSDP=4.73D-09 MaxDP=1.01D-06 DE= 1.09D-11 OVMax= 1.35D-06

 Cycle  10  Pass 1  IDiag  1:
 RMSU=  3.64D-09    CP:  1.00D+00  1.22D+00  7.92D-01  1.22D+00  6.85D-01
                    CP:  8.78D-01  9.84D-01  8.54D-01  8.29D-01
 E= -4686.80566269541     Delta-E=       -0.000000000273 Rises=F Damp=F
 DIIS: error= 3.55D-08 at cycle  10 NSaved=  10.
 NSaved=10 IEnMin=10 EnMin= -4686.80566269541     IErMin=10 ErrMin= 3.55D-08
 ErrMax= 3.55D-08  0.00D+00 EMaxC= 1.00D-01 BMatC= 5.90D-12 BMatP= 3.27D-11
 IDIUse=1 WtCom= 1.00D+00 WtEn= 0.00D+00
 Coeff-Com: -0.102D-03 0.824D-03 0.775D-03-0.445D-02-0.515D-02-0.970D-02
 Coeff-Com: -0.104D-01 0.842D-01 0.358D+00 0.586D+00
 Coeff:     -0.102D-03 0.824D-03 0.775D-03-0.445D-02-0.515D-02-0.970D-02
 Coeff:     -0.104D-01 0.842D-01 0.358D+00 0.586D+00
 Gap=     0.142 Goal=   None    Shift=    0.000
 RMSDP=1.90D-09 MaxDP=2.74D-07 DE=-2.73D-10 OVMax= 4.36D-07

 Error on total polarization charges =  0.02888
 SCF Done:  E(RPBE1PBE) =  -4686.80566270     A.U. after   10 cycles
            NFock= 10  Conv=0.19D-08     -V/T= 2.0453
 KE= 4.483828509039D+03 PE=-5.420860113133D+04 EE= 2.322884976361D+04
 Leave Link  502 at Fri Feb 26 13:29:35 2021, MaxMem=  7864320000 cpu:           32580.5 elap:            1036.2
 (Enter /apps/gaussian/g16-c01-avx/g16/l508.exe)
 QCSCF skips out because SCF is already converged.
 Leave Link  508 at Fri Feb 26 13:29:36 2021, MaxMem=  7864320000 cpu:               0.5 elap:               0.5
 (Enter /apps/gaussian/g16-c01-avx/g16/l601.exe)
 Copying SCF densities to generalized density rwf, IOpCl= 0 IROHF=0.
 Hyperfine terms turned off by default for NAtoms > 100.

 **********************************************************************

            Population analysis using the SCF Density.

 **********************************************************************

 Orbital symmetries:
       Occupied  (A) (A) (A) (A) (A) (A) (A) (A) (A) (A) (A) (A)
                 (A) (A) (A) (A) (A) (A) (A) (A) (A) (A) (A) (A)
                 (A) (A) (A) (A) (A) (A) (A) (A) (A) (A) (A) (A)
                 (A) (A) (A) (A) (A) (A) (A) (A) (A) (A) (A) (A)
                 (A) (A) (A) (A) (A) (A) (A) (A) (A) (A) (A) (A)
                 (A) (A) (A) (A) (A) (A) (A) (A) (A) (A) (A) (A)
                 (A) (A) (A) (A) (A) (A) (A) (A) (A) (A) (A) (A)
                 (A) (A) (A) (A) (A) (A) (A) (A) (A) (A) (A) (A)
                 (A) (A) (A) (A) (A) (A) (A) (A) (A) (A) (A) (A)
                 (A) (A) (A) (A) (A) (A) (A) (A) (A) (A) (A) (A)
                 (A) (A) (A) (A) (A) (A) (A) (A) (A) (A) (A) (A)
                 (A) (A) (A) (A) (A) (A) (A) (A) (A) (A) (A) (A)
                 (A) (A) (A) (A) (A) (A) (A) (A) (A) (A) (A) (A)
                 (A) (A) (A) (A) (A) (A) (A) (A) (A) (A) (A) (A)
                 (A) (A) (A) (A) (A) (A) (A) (A) (A) (A) (A) (A)
[...]
 Alpha virt. eigenvalues --    2.19612   2.19661   2.19674   2.20249   2.20338
 Alpha virt. eigenvalues --    2.20583   2.20922   2.21171   2.21593   2.21606
 Alpha virt. eigenvalues --    2.21632   2.22569   2.22851   2.22894   2.22919
 Alpha virt. eigenvalues --    2.23026   2.23231   2.23290   2.23380   2.23408
 Alpha virt. eigenvalues --    2.23587   2.23874   2.23920   2.23948   2.24424
 Alpha virt. eigenvalues --    2.24800   2.24885   2.25514   2.25683   2.25711
 Alpha virt. eigenvalues --    2.25769   2.26063   2.26176   2.26357   2.26409
 Alpha virt. eigenvalues --    2.26742   2.26897   2.26991   2.27018   2.27558
 Alpha virt. eigenvalues --    2.27857   2.28061   2.28118   2.28143   2.28470
 Alpha virt. eigenvalues --    2.29154   2.29187   2.29493   2.29662   2.29804
 Alpha virt. eigenvalues --    2.29960   2.29994   2.30024   2.31423   2.31579
 Alpha virt. eigenvalues --    2.32059   2.32078   2.32106   2.32447   2.32891
 Alpha virt. eigenvalues --    2.33281   2.33355   2.33374   2.33419   2.33833
 Alpha virt. eigenvalues --    2.34339   2.34414   2.34746   2.34826   2.34933
 Alpha virt. eigenvalues --    2.34966   2.35239   2.35598   2.36146   2.36243
 Alpha virt. eigenvalues --    2.36750   2.36852   2.36895   2.36921   2.37056
 Alpha virt. eigenvalues --    2.37139   2.37157   2.37364   2.37395   2.37477
 Alpha virt. eigenvalues --    2.38095   2.38262   2.38297   2.38549   2.38584
 Alpha virt. eigenvalues --    2.38621   2.38734   2.38819   2.39153   2.39225
 Alpha virt. eigenvalues --    2.39524   2.39704   2.39763   2.39858   2.40020
 Alpha virt. eigenvalues --    2.40288   2.40422   2.40672   2.40700   2.40721
 Alpha virt. eigenvalues --    2.40978   2.41576   2.43063   2.43340   2.44064
 Alpha virt. eigenvalues --    2.44100   2.44278   2.44295   2.44656   2.44939
 Alpha virt. eigenvalues --    2.45701   2.45818   2.45933   2.46234   2.46816
 Alpha virt. eigenvalues --    2.47267   2.47352   2.47821   2.47957   2.48068
 Alpha virt. eigenvalues --    2.48319   2.48539   2.49323   2.49442   2.49584
 Alpha virt. eigenvalues --    2.49621   2.50315   2.51103   2.52960   2.53076
 Alpha virt. eigenvalues --    2.53442   2.53819   2.54144   2.54328   2.54380
 Alpha virt. eigenvalues --    2.54928   2.55296   2.55425   2.55799   2.55839
 Alpha virt. eigenvalues --    2.56513   2.56534   2.56597   2.57156   2.57204
 Alpha virt. eigenvalues --    2.57211   2.58012   2.58443   2.58512   2.58544
 Alpha virt. eigenvalues --    2.59891   2.60355   2.60489   2.60523   2.60897
 Alpha virt. eigenvalues --    2.61105   2.61734   2.61986   2.62042   2.62093
 Alpha virt. eigenvalues --    2.62120   2.62268   2.62373   2.62402   2.64074
 Alpha virt. eigenvalues --    2.64205   2.64250   2.64546   2.64789   2.64832
 Alpha virt. eigenvalues --    2.64933   2.64973   2.65013   2.65283   2.65462
 Alpha virt. eigenvalues --    2.65595   2.66084   2.66280   2.66303   2.66381
 Alpha virt. eigenvalues --    2.66770   2.67120   2.67130   2.67522   2.67811
 Alpha virt. eigenvalues --    2.67825   2.67925   2.67929   2.68076   2.68193
 Alpha virt. eigenvalues --    2.68261   2.68488   2.69034   2.69707   2.70631
 Alpha virt. eigenvalues --    2.71130   2.72339   2.72424   2.72762   2.73435
 Alpha virt. eigenvalues --    2.73454   2.73489   2.73593   2.74146   2.74251
 Alpha virt. eigenvalues --    2.74421   2.74505   2.74592   2.74645   2.74980
 Alpha virt. eigenvalues --    2.75016   2.75314   2.76010   2.76588   2.76763
 Alpha virt. eigenvalues --    2.76821   2.76875   2.77051   2.77070   2.77157
 Alpha virt. eigenvalues --    2.77186   2.77241   2.77324   2.77430   2.77893
 Alpha virt. eigenvalues --    2.77960   2.77963   2.78047   2.78277   2.78874
 Alpha virt. eigenvalues --    2.79128   2.79582   2.79756   2.80115   2.81054
 Alpha virt. eigenvalues --    2.81282   2.81449   2.81521   2.81554   2.81884
 Alpha virt. eigenvalues --    2.81928   2.82085   2.83275   2.83362   2.83398
 Alpha virt. eigenvalues --    2.83463   2.86941   2.87869   2.88027   2.88308
 Alpha virt. eigenvalues --    2.89869   2.90385   2.90622   2.90635   2.90830
 Alpha virt. eigenvalues --    2.90923   2.91580   2.91624   2.91660   2.91844
 Alpha virt. eigenvalues --    2.91878   2.92088   2.94028   2.94107   2.94117
 Alpha virt. eigenvalues --    2.94123   2.94648   2.95001   2.95281   2.95345
 Alpha virt. eigenvalues --    2.95825   2.96076   2.96353   2.96373   2.97677
 Alpha virt. eigenvalues --    2.97681   2.97989   2.98155   2.99920   3.00195
 Alpha virt. eigenvalues --    3.00575   3.00789   3.01264   3.01387   3.01720
 Alpha virt. eigenvalues --    3.01887   3.02933   3.03225   3.03322   3.03623
 Alpha virt. eigenvalues --    3.06448   3.06675   3.06739   3.06841   3.07312
 Alpha virt. eigenvalues --    3.08335   3.08924   3.08948   3.10128   3.11603
 Alpha virt. eigenvalues --    3.12162   3.12427   3.12522   3.12529   3.12865
 Alpha virt. eigenvalues --    3.12947   3.13352   3.13601   3.14051   3.14081
 Alpha virt. eigenvalues --    3.14456   3.14462   3.14674   3.15087   3.15535
 Alpha virt. eigenvalues --    3.16246   3.16580   3.16615   3.16661   3.16683
 Alpha virt. eigenvalues --    3.21835   3.22573   3.22701   3.23236   3.26466
 Alpha virt. eigenvalues --    3.27075   3.27161   3.27271   3.33530   3.33555
 Alpha virt. eigenvalues --    3.33668   3.33686   3.35593   3.35629   3.35859
 Alpha virt. eigenvalues --    3.35900   3.47618   3.47623   3.47711   3.47723
 Alpha virt. eigenvalues --    3.54599   3.54679   3.54730   3.54820   3.59026
 Alpha virt. eigenvalues --    3.59106   3.59115   3.59248   3.64583   3.64629
 Alpha virt. eigenvalues --    3.64828   3.64899   3.68774   3.68841   3.68921
 Alpha virt. eigenvalues --    3.69003   3.79833   3.79845   3.79961   3.79976
 Alpha virt. eigenvalues --   51.67062  51.70330
          Condensed to atoms (all electrons):
 Mulliken charges:
               1
     1  Pd   0.482450
     2  Pd   0.499124
     3  C    0.002564
     4  C   -0.055575
     5  C   -0.021087
     6  C    0.021331
     7  C   -0.001996
     8  C    0.020771
     9  C   -0.069081
    10  C    0.179952
    11  N   -0.325827
    12  C    0.144047
    13  C   -0.007492
    14  C    0.065754
    15  H    0.043612
    16  H    0.054620
    17  H    0.044117
    18  H    0.085111
    19  H    0.110215
    20  H    0.047598
    21  C   -0.066677
    22  C    0.025282
    23  C   -0.011013
    24  C    0.006222
    25  C   -0.013935
    26  C   -0.017318
    27  C    0.040941
    28  C   -0.043057
    29  C    0.032478
    30  C   -0.021626
    31  H    0.032430
    32  H    0.029483
    33  H    0.027928
    34  H    0.035127
    35  H    0.024543
    36  H    0.024597
    37  C   -0.034220
    38  C    0.056202
    39  C   -0.026363
    40  C    0.145835
    41  N   -0.319971
    42  C    0.157026
    43  H    0.063746
    44  H    0.066669
    45  H    0.120080
    46  H    0.081403
    47  C    0.004068
    48  C   -0.057453
    49  C   -0.020784
    50  C    0.020840
    51  C   -0.001619
    52  C    0.020720
    53  C   -0.068098
    54  C    0.180853
    55  N   -0.326521
    56  C    0.148242
    57  C   -0.007768
    58  C    0.065353
    59  H    0.043523
    60  H    0.054623
    61  H    0.043989
    62  H    0.083711
    63  H    0.111133
    64  H    0.047875
    65  C   -0.066126
    66  C    0.025031
    67  C   -0.010903
    68  C    0.006140
    69  C   -0.014068
    70  C   -0.016449
    71  C    0.038500
    72  C   -0.041900
    73  C    0.032765
    74  C   -0.022646
    75  H    0.032334
    76  H    0.029432
    77  H    0.027883
    78  H    0.035172
    79  H    0.024362
    80  H    0.024708
    81  C   -0.037220
    82  C    0.059009
    83  C   -0.028814
    84  C    0.146898
    85  N   -0.317436
    86  C    0.156383
    87  H    0.063792
    88  H    0.066718
    89  H    0.115368
    90  H    0.083158
    91  C    0.002570
    92  C   -0.055580
    93  C   -0.021053
    94  C    0.021300
    95  C   -0.001970
    96  C    0.020731
    97  C   -0.069023
    98  C    0.179905
    99  N   -0.325769
   100  C    0.144041
   101  C   -0.007623
   102  C    0.065771
   103  H    0.043632
   104  H    0.054619
   105  H    0.044096
   106  H    0.085078
   107  H    0.110268
   108  H    0.047639
   109  C   -0.066722
   110  C    0.025365
   111  C   -0.010981
   112  C    0.006174
   113  C   -0.013920
   114  C   -0.017310
   115  C    0.040945
   116  C   -0.043123
   117  C    0.032497
   118  C   -0.021593
   119  H    0.032382
   120  H    0.029481
   121  H    0.027941
   122  H    0.035118
   123  H    0.024545
   124  H    0.024573
   125  C   -0.034169
   126  C    0.056110
   127  C   -0.026357
   128  C    0.145811
   129  N   -0.319965
   130  C    0.157048
   131  H    0.063777
   132  H    0.066670
   133  H    0.120101
   134  H    0.081397
   135  C    0.004100
   136  C   -0.057466
   137  C   -0.020828
   138  C    0.020879
   139  C   -0.001639
   140  C    0.020669
   141  C   -0.068121
   142  C    0.180917
   143  N   -0.326561
   144  C    0.148259
   145  C   -0.007825
   146  C    0.065452
   147  H    0.043495
   148  H    0.054656
   149  H    0.044057
   150  H    0.083687
   151  H    0.111115
   152  H    0.047874
   153  C   -0.066118
   154  C    0.025002
   155  C   -0.010856
   156  C    0.006119
   157  C   -0.014113
   158  C   -0.016377
   159  C    0.038511
   160  C   -0.041918
   161  C    0.032794
   162  C   -0.022660
   163  H    0.032330
   164  H    0.029418
   165  H    0.027911
   166  H    0.035112
   167  H    0.024344
   168  H    0.024740
   169  C   -0.037236
   170  C    0.059042
   171  C   -0.028832
   172  C    0.146888
   173  N   -0.317388
   174  C    0.156239
   175  H    0.063791
   176  H    0.066715
   177  H    0.115403
   178  H    0.083201
 Sum of Mulliken charges =   4.00000
 Mulliken charges with hydrogens summed into heavy atoms:
               1
     1  Pd   0.482450
     2  Pd   0.499124
     3  C    0.002564
     4  C   -0.055575
     5  C   -0.021087
     6  C    0.064943
     7  C    0.052624
     8  C    0.064888
     9  C   -0.069081
    10  C    0.265063
    11  N   -0.325827
    12  C    0.254263
    13  C    0.040106
    14  C    0.065754
    21  C   -0.066677
    22  C    0.057712
    23  C    0.018470
    24  C    0.006222
    25  C    0.013993
    26  C    0.017810
    27  C    0.040941
    28  C   -0.018514
    29  C    0.032478
    30  C    0.002971
    37  C   -0.034220
    38  C    0.119949
    39  C    0.040306
    40  C    0.265915
    41  N   -0.319971
    42  C    0.238428
    47  C    0.004068
    48  C   -0.057453
    49  C   -0.020784
    50  C    0.064362
    51  C    0.053003
    52  C    0.064709
    53  C   -0.068098
    54  C    0.264564
    55  N   -0.326521
    56  C    0.259375
    57  C    0.040108
    58  C    0.065353
    65  C   -0.066126
    66  C    0.057365
    67  C    0.018528
    68  C    0.006140
    69  C    0.013815
    70  C    0.018723
    71  C    0.038500
    72  C   -0.017538
    73  C    0.032765
    74  C    0.002062
    81  C   -0.037220
    82  C    0.122801
    83  C    0.037904
    84  C    0.262266
    85  N   -0.317436
    86  C    0.239541
    91  C    0.002570
    92  C   -0.055580
    93  C   -0.021053
    94  C    0.064931
    95  C    0.052648
    96  C    0.064827
    97  C   -0.069023
    98  C    0.264983
    99  N   -0.325769
   100  C    0.254309
   101  C    0.040016
   102  C    0.065771
   109  C   -0.066722
   110  C    0.057747
   111  C    0.018499
   112  C    0.006174
   113  C    0.014020
   114  C    0.017808
   115  C    0.040945
   116  C   -0.018578
   117  C    0.032497
   118  C    0.002980
   125  C   -0.034169
   126  C    0.119887
   127  C    0.040313
   128  C    0.265912
   129  N   -0.319965
   130  C    0.238445
   135  C    0.004100
   136  C   -0.057466
   137  C   -0.020828
   138  C    0.064374
   139  C    0.053017
   140  C    0.064726
   141  C   -0.068121
   142  C    0.264604
   143  N   -0.326561
   144  C    0.259373
   145  C    0.040049
   146  C    0.065452
   153  C   -0.066118
   154  C    0.057332
   155  C    0.018562
   156  C    0.006119
   157  C    0.013798
   158  C    0.018735
   159  C    0.038511
   160  C   -0.017575
   161  C    0.032794
   162  C    0.002080
   169  C   -0.037236
   170  C    0.122833
   171  C    0.037882
   172  C    0.262291
   173  N   -0.317388
   174  C    0.239440
 Electronic spatial extent (au):  <R**2>=         145215.1606
 Charge=              4.0000 electrons
 Dipole moment (field-independent basis, Debye):
    X=             -0.0162    Y=             -0.0040    Z=             -0.0037  Tot=              0.0171
 Quadrupole moment (field-independent basis, Debye-Ang):
   XX=            133.6332   YY=           -443.4245   ZZ=           -457.8477
   XY=             -0.0044   XZ=              0.0386   YZ=             -0.6509
 Traceless Quadrupole moment (field-independent basis, Debye-Ang):
   XX=            389.5129   YY=           -187.5448   ZZ=           -201.9681
   XY=             -0.0044   XZ=              0.0386   YZ=             -0.6509
 Octapole moment (field-independent basis, Debye-Ang**2):
  XXX=             21.4207  YYY=              0.5243  ZZZ=              0.1665  XYY=           -225.2117
  XXY=             -0.2171  XXZ=             -0.4418  XZZ=            198.1189  YZZ=             -0.8709
  YYZ=             -0.2640  XYZ=            -49.2300
 Hexadecapole moment (field-independent basis, Debye-Ang**3):
 XXXX=         -47660.1394 YYYY=         -52924.7585 ZZZZ=         -49834.7568 XXXY=              0.3373
 XXXZ=              1.8685 YYYX=             -1.7112 YYYZ=          -1186.2612 ZZZX=              2.9918
 ZZZY=           1220.0036 XXYY=         -16753.8118 XXZZ=         -16608.0690 YYZZ=         -12371.3956
 XXYZ=           -120.5612 YYXZ=             -1.8527 ZZXY=              2.1502
 N-N= 2.180911719599D+04 E-N=-5.420860110291D+04  KE= 4.483828509039D+03
 Leave Link  601 at Fri Feb 26 13:29:39 2021, MaxMem=  7864320000 cpu:              63.2 elap:               2.3
 (Enter /apps/gaussian/g16-c01-avx/g16/l9999.exe)
 Unable to Open any file for archive entry.
 1\1\GINC-CX3-4-5\SP\RPBE1PBE\def2SVP\C104H64N8Pd2(4+)\ATARZIA\26-Feb-2
 021\0\\#P PBE1PBE/Def2SVP SP SCF=(YQC,MaxCycle=900) int=(Grid=Superfin
 egrid) EmpiricalDispersion=GD3BJ SCRF=(PCM,Solvent=DiMethylSulfoxide)\
 \_s_5a1_d\\4,1\Pd,0,0.1041,5.1622,-0.2606\Pd,0,-0.1562,-6.1506,0.3422\
 C,0,6.5327,-2.4485,0.3122\C,0,6.2805,-3.6059,0.5564\C,0,5.8838,-4.9346
 ,0.8054\C,0,6.7939,-5.9223,1.1353\C,0,6.374,-7.2377,1.3681\C,0,5.0513,
 -7.5877,1.272\C,0,4.0917,-6.6104,0.9331\C,0,2.7184,-6.9047,0.8106\N,0,
 1.8255,-5.9958,0.4909\C,0,2.2109,-4.71,0.2659\C,0,3.5157,-4.3223,0.358
 4\C,0,4.5041,-5.2689,0.6983\H,0,7.8416,-5.6748,1.2157\H,0,7.112,-7.982
 ,1.6254\H,0,4.7368,-8.6036,1.451\H,0,2.3617,-7.9142,0.9855\H,0,1.416,-
 4.0069,0.0006\H,0,3.8112,-3.3023,0.1718\C,0,6.7996,-1.1065,-0.0305\C,0
 ,8.0331,-0.7705,-0.639\C,0,8.2703,0.5106,-1.0436\C,0,7.3006,1.5209,-0.
 8619\C,0,7.5033,2.844,-1.3044\C,0,6.5488,3.8013,-1.1165\C,0,5.3323,3.4
 94,-0.462\C,0,5.1099,2.2068,-0.0265\C,0,6.0742,1.1963,-0.221\C,0,5.846
 6,-0.1323,0.1854\H,0,8.7738,-1.5423,-0.7861\H,0,9.2067,0.7686,-1.5168\
 H,0,8.4297,3.0883,-1.8031\H,0,6.7149,4.7985,-1.4934\H,0,4.206,1.9524,0
 .5051\H,0,4.9155,-0.3852,0.6692\C,0,4.3411,4.5602,-0.2633\C,0,4.7394,5
 .8768,-0.0104\C,0,3.7869,6.8734,0.1209\C,0,2.448,6.5394,0.0161\N,0,2.0
 651,5.2759,-0.1904\C,0,2.9692,4.3118,-0.334\H,0,5.7863,6.1147,0.0935\H
 ,0,4.0815,7.8941,0.3042\H,0,1.664,7.2956,0.1024\H,0,2.5836,3.318,-0.53
 36\C,0,0.19,1.6898,6.5132\C,0,0.0585,2.8575,6.2273\C,0,-0.0724,4.1934,
 5.8002\C,0,-0.2151,5.2363,6.6975\C,0,-0.3346,6.5578,6.2509\C,0,-0.3091
 ,6.8588,4.9129\C,0,-0.1602,5.8239,3.9658\C,0,-0.1149,6.0651,2.578\N,0,
 0.0299,5.1008,1.6993\C,0,0.1366,3.8092,2.1055\C,0,0.106,3.4697,3.4277\
 C,0,-0.043,4.4753,4.4052\H,0,-0.2359,5.0273,7.7564\H,0,-0.4466,7.3459,
 6.9797\H,0,-0.3995,7.8794,4.5768\H,0,-0.2026,7.0772,2.1976\H,0,0.2537,
 3.0558,1.32\H,0,0.1984,2.4435,3.7456\C,0,0.3906,0.3278,6.8184\C,0,0.98
 76,-0.0352,8.05\C,0,1.2438,-1.3463,8.3263\C,0,0.9179,-2.361,7.3999\C,0
 ,1.1989,-3.7205,7.646\C,0,0.8697,-4.6815,6.7345\C,0,0.2306,-4.3394,5.5
 192\C,0,-0.0463,-3.0174,5.2533\C,0,0.2921,-2.0046,6.1745\C,0,0.0402,-0
 .646,5.9058\H,0,1.243,0.7388,8.7583\H,0,1.7063,-1.6264,9.2618\H,0,1.68
 54,-3.9907,8.5717\H,0,1.1214,-5.7118,6.9329\H,0,-0.5621,-2.733,4.3492\
 H,0,-0.4333,-0.3701,4.9761\C,0,-0.1242,-5.4089,4.5762\C,0,-0.5496,-6.6
 596,5.0349\C,0,-0.8286,-7.6673,4.1273\C,0,-0.6912,-7.4087,2.7753\N,0,-
 0.3147,-6.2038,2.331\C,0,-0.0345,-5.2308,3.1947\H,0,-0.6712,-6.8355,6.
 0921\H,0,-1.1486,-8.6396,4.4654\H,0,-0.8882,-8.1755,2.0243\H,0,0.2933,
 -4.2885,2.7689\C,0,-6.6681,-2.1625,-0.0345\C,0,-6.47,-3.3498,-0.1527\C
 ,0,-6.1356,-4.7143,-0.2576\C,0,-7.0913,-5.6888,-0.4806\C,0,-6.7332,-7.
 0394,-0.5707\C,0,-5.4275,-7.4376,-0.4364\C,0,-4.4228,-6.4749,-0.2032\C
 ,0,-3.064,-6.8172,-0.0484\N,0,-2.1292,-5.9214,0.1733\C,0,-2.4542,-4.60
 25,0.2587\C,0,-3.7402,-4.1674,0.1237\C,0,-4.7723,-5.0983,-0.1139\H,0,-
 8.1269,-5.4033,-0.588\H,0,-7.5056,-7.7722,-0.7474\H,0,-5.1607,-8.4802,
 -0.5052\H,0,-2.7547,-7.855,-0.1137\H,0,-1.6268,-3.9124,0.4481\H,0,-3.9
 879,-3.1207,0.1996\C,0,-6.8725,-0.7808,0.162\C,0,-8.0881,-0.3255,0.727
 7\C,0,-8.2654,1.001,0.9924\C,0,-7.2507,1.9406,0.7067\C,0,-7.3916,3.311
 3,1.0049\C,0,-6.3946,4.1983,0.7186\C,0,-5.1948,3.7675,0.104\C,0,-5.032
 7,2.4323,-0.191\C,0,-6.0419,1.4936,0.1075\C,0,-5.8763,0.1201,-0.154\H,
 0,-8.863,-1.0424,0.9543\H,0,-9.188,1.3508,1.4326\H,0,-8.3048,3.6497,1.
 472\H,0,-6.514,5.2366,0.9864\H,0,-4.1425,2.0814,-0.6898\H,0,-4.9588,-0
 .2254,-0.6053\C,0,-4.1561,4.7597,-0.2046\C,0,-4.494,6.0588,-0.5972\C,0
 ,-3.4969,6.9909,-0.8315\C,0,-2.1746,6.6087,-0.6882\N,0,-1.8497,5.3581,
 -0.3474\C,0,-2.7969,4.4574,-0.1043\H,0,-5.5291,6.3322,-0.7287\H,0,-3.7
 447,7.9987,-1.1233\H,0,-1.3568,7.3146,-0.8525\H,0,-2.457,3.4738,0.2009
 \C,0,-0.1517,0.9962,-6.6272\C,0,0.0335,2.1805,-6.4664\C,0,0.226,3.5468
 ,-6.1834\C,0,0.4153,4.4807,-7.186\C,0,0.5957,5.8353,-6.8821\C,0,0.5856
 ,6.2779,-5.5839\C,0,0.3906,5.3576,-4.5326\C,0,0.3584,5.7471,-3.1785\N,
 0,0.1708,4.8894,-2.2027\C,0,0.0043,3.5681,-2.4695\C,0,0.0175,3.0888,-3
 .748\C,0,0.2112,3.9767,-4.8263\H,0,0.4254,4.1593,-8.2165\H,0,0.7428,6.
 5354,-7.6903\H,0,0.7231,7.3234,-5.358\H,0,0.4929,6.7888,-2.9076\H,0,-0
 .1464,2.9089,-1.6087\H,0,-0.1224,2.0399,-3.9551\C,0,-0.415,-0.3799,-6.
 7869\C,0,-1.0297,-0.8438,-7.9751\C,0,-1.3466,-2.1636,-8.1117\C,0,-1.06
 66,-3.0881,-7.0816\C,0,-1.4105,-4.4516,-7.183\C,0,-1.1249,-5.3246,-6.1
 735\C,0,-0.4688,-4.8852,-4.9992\C,0,-0.1307,-3.5566,-4.8742\C,0,-0.423
 3,-2.6328,-5.8988\C,0,-0.1086,-1.2664,-5.7749\H,0,-1.2501,-0.1384,-8.7
 624\H,0,-1.8228,-2.5198,-9.0138\H,0,-1.9104,-4.7958,-8.0765\H,0,-1.424
 3,-6.3573,-6.2623\H,0,0.3991,-3.2019,-4.0037\H,0,0.3784,-0.9154,-4.878
 \C,0,-0.1625,-5.8636,-3.9467\C,0,0.2038,-7.1744,-4.2684\C,0,0.4373,-8.
 0916,-3.2578\C,0,0.3145,-7.6845,-1.9415\N,0,-0.0051,-6.4231,-1.6291\C,
 0,-0.2415,-5.5357,-2.5923\H,0,0.3153,-7.4672,-5.3005\H,0,0.7114,-9.108
 1,-3.4895\H,0,0.4772,-8.3753,-1.1125\H,0,-0.5248,-4.5392,-2.2702\\Vers
 ion=ES64L-G16RevC.01\State=1-A\HF=-4686.8056627\RMSD=1.898e-09\Dipole=
 -0.0023057,-0.0063288,0.0002852\Quadrupole=-144.8404502,288.1173205,-1
 43.2768703,10.2640809,4.8347984,-23.219622\PG=C01 [X(C104H64N8Pd2)]\\@
 The archive entry for this job was punched.


 POCKETA-POCKETA
 BARON VON RICHTOFEN
 SLAUGHTERED THE ALLIES WITH
 HARDLY A CARE.
 KILLED EIGHTY-ONE WITH HIS
 BLOOD-COLORED TRIPLANE, THEN
 UN-AEROBATICALLY
 PLUNGED FROM THE AIR.
   -- TONY HOFFMAN
 Job cpu time:       2 days  9 hours 29 minutes 48.1 seconds.
 Elapsed time:       0 days  1 hours 50 minutes 18.7 seconds.
 File lengths (MBytes):  RWF=   4749 Int=      0 D2E=      0 Chk=    225 Scr=      2
 Normal termination of Gaussian 16 at Fri Feb 26 13:29:40 2021.
