 Entering Gaussian System, Link 0=g16
 Input=m2_lc_FINAL.com
 Output=m2_lc_FINAL.log
 Initial command:
 /apps/gaussian/g16-c01-avx/g16/l1.exe "/rds/general/user/vposligu/home/work/Pd2L4_cages/New_Cages/opt/PBE0-def2svp-solvent/SP_FINAL/m2_lc/Gau-3419660.inp" -scrdir="/rds/general/user/vposligu/home/work/Pd2L4_cages/New_Cages/opt/PBE0-def2svp-solvent/SP_FINAL/m2_lc/"
 Entering Link 1 = /apps/gaussian/g16-c01-avx/g16/l1.exe PID=   3419661.
  
 Copyright (c) 1988-2019, Gaussian, Inc.  All Rights Reserved.
  
 This is part of the Gaussian(R) 16 program.  It is based on
 the Gaussian(R) 09 system (copyright 2009, Gaussian, Inc.),
 the Gaussian(R) 03 system (copyright 2003, Gaussian, Inc.),
 the Gaussian(R) 98 system (copyright 1998, Gaussian, Inc.),
 the Gaussian(R) 94 system (copyright 1995, Gaussian, Inc.),
 the Gaussian 92(TM) system (copyright 1992, Gaussian, Inc.),
 the Gaussian 90(TM) system (copyright 1990, Gaussian, Inc.),
 the Gaussian 88(TM) system (copyright 1988, Gaussian, Inc.),
 the Gaussian 86(TM) system (copyright 1986, Carnegie Mellon
 University), and the Gaussian 82(TM) system (copyright 1983,
 Carnegie Mellon University). Gaussian is a federally registered
 trademark of Gaussian, Inc.
  
 This software contains proprietary and confidential information,
 including trade secrets, belonging to Gaussian, Inc.
  
 This software is provided under written license and may be
 used, copied, transmitted, or stored only in accord with that
 written license.
  
 The following legend is applicable only to US Government
 contracts under FAR:
  
                    RESTRICTED RIGHTS LEGEND
  
 Use, reproduction and disclosure by the US Government is
 subject to restrictions as set forth in subparagraphs (a)
 and (c) of the Commercial Computer Software - Restricted
 Rights clause in FAR 52.227-19.
  
 Gaussian, Inc.
 340 Quinnipiac St., Bldg. 40, Wallingford CT 06492
  
  
 ---------------------------------------------------------------
 Warning -- This program may not be used in any manner that
 competes with the business of Gaussian, Inc. or will provide
 assistance to any competitor of Gaussian, Inc.  The licensee
 of this program is prohibited from giving any competitor of
 Gaussian, Inc. access to this program.  By using this program,
 the user acknowledges that Gaussian, Inc. is engaged in the
 business of creating and licensing software in the field of
 computational chemistry and represents and warrants to the
 licensee that it is not a competitor of Gaussian, Inc. and that
 it will not use this program in any manner prohibited above.
 ---------------------------------------------------------------
  

 Cite this work as:
 Gaussian 16, Revision C.01,
 M. J. Frisch, G. W. Trucks, H. B. Schlegel, G. E. Scuseria, 
 M. A. Robb, J. R. Cheeseman, G. Scalmani, V. Barone, 
 G. A. Petersson, H. Nakatsuji, X. Li, M. Caricato, A. V. Marenich, 
 J. Bloino, B. G. Janesko, R. Gomperts, B. Mennucci, H. P. Hratchian, 
 J. V. Ortiz, A. F. Izmaylov, J. L. Sonnenberg, D. Williams-Young, 
 F. Ding, F. Lipparini, F. Egidi, J. Goings, B. Peng, A. Petrone, 
 T. Henderson, D. Ranasinghe, V. G. Zakrzewski, J. Gao, N. Rega, 
 G. Zheng, W. Liang, M. Hada, M. Ehara, K. Toyota, R. Fukuda, 
 J. Hasegawa, M. Ishida, T. Nakajima, Y. Honda, O. Kitao, H. Nakai, 
 T. Vreven, K. Throssell, J. A. Montgomery, Jr., J. E. Peralta, 
 F. Ogliaro, M. J. Bearpark, J. J. Heyd, E. N. Brothers, K. N. Kudin, 
 V. N. Staroverov, T. A. Keith, R. Kobayashi, J. Normand, 
 K. Raghavachari, A. P. Rendell, J. C. Burant, S. S. Iyengar, 
 J. Tomasi, M. Cossi, J. M. Millam, M. Klene, C. Adamo, R. Cammi, 
 J. W. Ochterski, R. L. Martin, K. Morokuma, O. Farkas, 
 J. B. Foresman, and D. J. Fox, Gaussian, Inc., Wallingford CT, 2019.
 
 ******************************************
 Gaussian 16:  ES64L-G16RevC.01  3-Jul-2019
                 2-Jun-2023 
 ******************************************
 %chk=m2_lc_FINAL.chk
 %nprocshared=48
 Will use up to   48 processors via shared memory.
 %mem=120GB
 ------------------------------------------------------------------
 # SP PBE1PBE/def2svp empiricaldispersion=GD3BJ scrf=(solvent=dmso)
 ------------------------------------------------------------------
 1/38=1,172=1/1;
 2/12=2,17=6,18=5,40=1/2;
 3/5=43,7=101,11=2,25=1,30=1,70=2201,72=21,74=-13,124=41/1,2,3;
 4//1;
 5/5=2,38=5,53=21/2;
 6/7=2,8=2,9=2,10=2,28=1/1;
 99/5=1,9=1/99;
 -----
 m2_lc
 -----
 Symbolic Z-matrix:
 Charge =  4 Multiplicity = 1
 Pd                    10.6096   0.136     0.2227 
 Pd                   -10.6019   0.125     0.2379 
 C                    -11.3278  -2.2948    3.6466 
 C                    -10.2443  -3.2049    3.6952 
 C                    -9.198    -3.0495    2.7335 
 C                    -8.0789   -3.9398    2.7384 
 C                    -8.074    -4.9741    3.6545 
 C                    -9.1143   -5.133     4.5974 
 C                    -10.1753  -4.2589    4.6353 
 C                    -6.9346   -3.7739    1.8113 
 C                    -6.1371   -2.6198    1.8508 
 C                    -4.9969   -2.5202    1.0631 
 C                    -4.6302   -3.5664    0.1977 
 C                    -3.4473   -3.4661   -0.5937 
 C                    -2.4331   -3.3686   -1.2611 
 C                    -1.2145   -3.2522   -1.9971 
 C                    -1.2082   -2.9528   -3.3705 
 C                     0.0027   -2.8166   -4.0455 
 C                     1.2147   -2.9526   -3.3726 
 C                     1.2234   -3.2522   -1.9992 
 C                     2.4438   -3.3702   -1.2666 
 C                     3.4598   -3.4695   -0.6024 
 C                     4.6462   -3.5735    0.1832 
 C                     5.4674   -4.7112    0.1029 
 C                     6.6023   -4.8166    0.8979 
 C                     6.9604   -3.7886    1.7817 
 C                     8.111    -3.9596    2.6999 
 C                     9.2265   -3.0649    2.6972 
 C                     10.2794  -3.2263    3.6506 
 C                     11.3589  -2.3113    3.6047 
 C                     11.3957  -1.3379    2.643 
 N                     10.4134  -1.2314    1.7042 
 C                     9.3724   -2.0482    1.7327 
 C                     10.2206  -4.2903    4.58 
 C                     9.1629   -5.1685    4.5394 
 C                     8.116    -5.0037    3.6048 
 C                     6.1574   -2.6389    1.8392 
 C                     5.0123   -2.5358    1.059 
 C                     0.0051   -3.4182   -1.3272 
 C                    -5.4462   -4.7091    0.1352 
 C                    -6.5763   -4.8106    0.9376 
 C                    -9.3538   -2.043     1.7599 
 N                    -10.3978  -1.23      1.73 
 C                    -11.3743  -1.3313    2.6754 
 H                    -12.1371  -2.3651    4.3746 
 H                    -7.2311   -5.6683    3.6679 
 H                    -9.0608   -5.9566    5.3123 
 H                    -10.9727  -4.371     5.3722 
 H                    -6.3805   -1.8094    2.5435 
 H                    -4.3611   -1.637     1.1404 
 H                    -2.1545   -2.8188   -3.8972 
 H                     0.0019   -2.5823   -5.112 
 H                     2.16     -2.819    -3.901 
 H                     5.2021   -5.5193   -0.5807 
 H                     7.2233   -5.7131    0.8357 
 H                     12.1731  -2.3858    4.3269 
 H                     12.2162  -0.6221    2.5786 
 H                     8.6203   -1.9287    0.9495 
 H                     11.023   -4.4069    5.3107 
 H                     9.1172   -5.9998    5.2457 
 H                     7.2756   -5.701     3.6166 
 H                     6.401    -1.8353    2.5397 
 H                     4.3727   -1.6567    1.1499 
 H                     0.0061   -3.6629   -0.2649 
 H                    -5.1807   -5.5238   -0.5404 
 H                    -7.1933   -5.7105    0.89 
 H                    -8.6069   -1.9283    0.9712 
 H                    -12.1979  -0.6193    2.6095 
 C                    -11.5076   3.5937    2.5357 
 C                    -10.3431   3.8231    3.3091 
 C                    -9.2508    2.916     3.1518 
 C                    -8.0457    3.0987    3.8985 
 C                    -7.9923    4.1407    4.8038 
 C                    -9.077     5.032     4.9664 
 C                    -10.2293   4.892     4.2279 
 C                    -6.8847    2.1983    3.7139 
 C                    -6.2538    2.0768    2.4656 
 C                    -5.1357    1.2666    2.3115 
 C                    -4.621     0.5498    3.4071 
 C                    -3.4479   -0.2495    3.2641 
 C                    -2.4381   -0.9187    3.1405 
 C                    -1.222    -1.6477    2.9772 
 C                    -1.2217   -2.9942    2.5734 
 C                    -0.0138   -3.6602    2.3789 
 C                     1.1999   -3.003     2.5668 
 C                     1.2121   -1.6567    2.9709 
 C                     2.4336   -0.9357    3.1301 
 C                     3.446    -0.2702    3.2525 
 C                     4.6211    0.5256    3.3989 
 C                     5.2598    0.6297    4.6467 
 C                     6.3723    1.447     4.8007 
 C                     6.8853    2.172     3.7167 
 C                     8.0454    3.072     3.9085 
 C                     9.2507    2.8985    3.1598 
 C                     10.3417   3.8058    3.3259 
 C                     11.5072   3.585     2.5516 
 C                     11.5715   2.5213    1.6919 
 N                     10.5362   1.6432    1.5721 
 C                     9.4305    1.817     2.2762 
 C                     10.2262   4.8656    4.2548 
 C                     9.0736    4.9968    4.9947 
 C                     7.9906    4.1051    4.8239 
 C                     6.2569    2.0551    2.4665 
 C                     5.1386    1.2461    2.3071 
 C                    -0.002    -0.9903    3.1829 
 C                    -5.2622    0.6588    4.6532 
 C                    -6.3749    1.4769    4.8016 
 C                    -9.4282    1.8264    2.2778 
 N                    -10.5328   1.6445    1.574 
 C                    -11.5696   2.5225    1.6851 
 H                    -12.3621   4.2671    2.6164 
 H                    -7.082     4.2938    5.3873 
 H                    -8.9868    5.8508    5.6832 
 H                    -11.0616   5.5885    4.3445 
 H                    -6.6144    2.6581    1.6123 
 H                    -4.6301    1.2135    1.3456 
 H                    -2.17     -3.5085    2.408 
 H                    -0.0187   -4.7087    2.0726 
 H                     2.1437   -3.5239    2.396 
 H                     4.8698    0.0711    5.4992 
 H                     6.8574    1.5221    5.7762 
 H                     12.3609   4.2585    2.6393 
 H                     12.4536   2.3283    1.0796 
 H                     8.6422    1.0707    2.1594 
 H                     11.0574   5.5622    4.3783 
 H                     8.9823    5.8085    5.7193 
 H                     7.0804    4.2505    5.4096 
 H                     6.6192    2.6396    1.6162 
 H                     4.6346    1.1975    1.3402 
 H                     0.0026    0.0589    3.4805 
 H                    -4.8746    0.1028    5.5084 
 H                    -6.8631    1.5546    5.7754 
 H                    -8.6382    1.0807    2.1679 
 H                    -12.4502   2.325     1.072 
 C                    -12.1497   2.8379   -2.6437 
 C                    -11.1191   3.8001   -2.7914 
 C                    -9.8618    3.5254   -2.1733 
 C                    -8.7677    4.438    -2.3084 
 C                    -8.993     5.6265   -2.975 
 C                    -10.247    5.9125   -3.5617 
 C                    -11.2874   5.0133   -3.4986 
 C                    -7.4301    4.0816   -1.7882 
 C                    -6.8348    2.8746   -2.1909 
 C                    -5.5739    2.5218   -1.7397 
 C                    -4.8598    3.3681   -0.8706 
 C                    -3.5595    2.9507   -0.4635 
 C                    -2.468     2.4612   -0.2305 
 C                    -1.2224    1.7899   -0.0634 
 C                    -1.2131    0.3864    0.0309 
 C                    -0.0075   -0.2997    0.0929 
 C                     1.1984    0.3865    0.0364 
 C                     1.2081    1.7899   -0.0577 
 C                     2.4541    2.4621   -0.2187 
 C                     3.5455    2.9541   -0.4463 
 C                     4.8463    3.375    -0.8485 
 C                     5.4367    4.5806   -0.4322 
 C                     6.7044    4.935    -0.8857 
 C                     7.4164    4.0994   -1.7581 
 C                     8.7522    4.4651   -2.2765 
 C                     9.8505    3.5557   -2.1539 
 C                     11.1065   3.8449   -2.7683 
 C                     12.1437   2.8887   -2.629 
 C                     11.951    1.766    -1.8674 
 N                     10.7751   1.5516   -1.2131 
 C                     9.768     2.3954   -1.3621 
 C                     11.2684   5.067    -3.4616 
 C                     10.2234   5.9616   -3.5136 
 C                     8.9717    5.6628   -2.9287 
 C                     6.8226    2.8954   -2.172 
 C                     5.5618    2.5373   -1.7248 
 C                    -0.0071    2.4885   -0.0877 
 C                    -5.4512    4.5773   -0.4662 
 C                    -6.719     4.9263   -0.9237 
 C                    -9.7726    2.3754   -1.3671 
 N                    -10.7736   1.5259   -1.2112 
 C                    -11.9485   1.724    -1.8718 
 H                    -13.1148   2.9876   -3.13 
 H                    -8.1746    6.341    -3.0861 
 H                    -10.3784   6.8569   -4.0938 
 H                    -12.2452   5.2266   -3.9768 
 H                    -7.3548    2.2219   -2.897 
 H                    -5.1095    1.597    -2.0787 
 H                    -2.1571   -0.1599    0.0382 
 H                    -0.0077   -1.3856    0.1704 
 H                     2.1425   -0.1597    0.0483 
 H                     4.8978    5.2398    0.2505 
 H                     7.1547    5.8717   -0.5492 
 H                     13.1081   3.0514   -3.1122 
 H                     12.7327   1.017    -1.732 
 H                     8.8559    2.1856   -0.8001 
 H                     12.2251   5.2908   -3.9371 
 H                     10.3496   6.9128   -4.035 
 H                     8.1502    6.3754   -3.0285 
 H                     7.343     2.2497   -2.8844 
 H                     5.0983    1.6152   -2.0723 
 H                    -0.0071    3.5748   -0.1814 
 H                    -4.9134    5.2433    0.2109 
 H                    -7.1705    5.8653   -0.5953 
 H                    -8.8603    2.1789   -0.8006 
 H                    -12.7233   0.9686   -1.7332 
 C                    -11.6902  -3.3609   -1.9102 
 C                    -10.5933  -3.6277   -2.7654 
 C                    -9.4772   -2.7346   -2.723 
 C                    -8.3322   -2.9769   -3.5476 
 C                    -8.3733   -4.0532   -4.4151 
 C                    -9.486    -4.9205   -4.4712 
 C                    -10.5744  -4.7281   -3.6527 
 C                    -7.1176   -2.1341   -3.4834 
 C                    -6.4533   -1.9014   -2.2688 
 C                    -5.2715   -1.1734   -2.2338 
 C                    -4.7118   -0.658    -3.4154 
 C                    -3.4888    0.0761   -3.3806 
 C                    -2.451     0.7134   -3.3578 
 C                    -1.2241    1.4437   -3.3687 
 C                    -1.2199    2.8469   -3.4509 
 C                    -0.012     3.5379   -3.4809 
 C                     1.1989    2.8525   -3.4415 
 C                     1.2089    1.4492   -3.3604 
 C                     2.4386    0.7236   -3.3443 
 C                     3.4773    0.0879   -3.3651 
 C                     4.7002   -0.6463   -3.4025 
 C                     5.3613   -0.8774   -4.6217 
 C                     6.5425   -1.6067   -4.6547 
 C                     7.1047   -2.1241   -3.4783 
 C                     8.318    -2.9684   -3.5464 
 C                     9.4701   -2.7223   -2.7328 
 C                     10.5853  -3.6162   -2.78 
 C                     11.6899  -3.3451   -1.9364 
 C                     11.6779  -2.2483   -1.1184 
 N                     10.6277  -1.3801   -1.1147 
 C                     9.579    -1.5952   -1.8923 
 C                     10.558   -4.7219   -3.6606 
 C                     9.4624   -4.9185   -4.4683 
 C                     8.3509   -4.0499   -4.4078 
 C                     6.4492   -1.8834   -2.2605 
 C                     5.2679   -1.1548   -2.2217 
 C                    -0.0062    0.7536   -3.3119 
 C                    -5.3816   -0.8812   -4.6313 
 C                    -6.5633   -1.6098   -4.6606 
 C                    -9.5787   -1.611    -1.877 
 N                    -10.6208  -1.3993   -1.0896 
 C                    -11.6704  -2.2683   -1.0869 
 H                    -12.5543  -4.0266   -1.9021 
 H                    -7.5087   -4.2558   -5.0505 
 H                    -9.4663   -5.7646   -5.1636 
 H                    -11.4273  -5.4088   -3.6784 
 H                    -6.8352   -2.3398   -1.3431 
 H                    -4.7538   -1.018    -1.2872 
 H                    -2.1682    3.3859   -3.4852 
 H                    -0.0139    4.6284   -3.5388 
 H                     2.1447    3.3962   -3.4676 
 H                     4.9378   -0.4821   -5.5465 
 H                     7.0444   -1.7748   -5.6099 
 H                     12.5538  -4.011    -1.9327 
 H                     12.5064  -2.021    -0.4459 
 H                     8.7817   -0.8492   -1.8704 
 H                     11.4104  -5.403    -3.6899 
 H                     9.436    -5.7667   -5.1554 
 H                     7.4808   -4.2556   -5.0346 
 H                     6.8375   -2.3166   -1.3351 
 H                     4.7568   -0.9937   -1.2723 
 H                    -0.0039   -0.3333   -3.2397 
 H                    -4.9646   -0.4799   -5.5565 
 H                    -7.0721   -1.7719   -5.6132 
 H                    -8.7822   -0.8642   -1.8602 
 H                    -12.4927  -2.0448   -0.4055 
 
 Stoichiometry    C160H96N8Pd2(4+)
 Framework group  C1[X(C160H96N8Pd2)]
 Deg. of freedom   792
 Full point group                 C1      NOp   1
 Largest Abelian subgroup         C1      NOp   1
 Largest concise Abelian subgroup C1      NOp   1
                         Standard orientation:                         
 ---------------------------------------------------------------------
 Center     Atomic      Atomic             Coordinates (Angstroms)
 Number     Number       Type             X           Y           Z
 ---------------------------------------------------------------------
      1         46           0       10.609601    0.136000    0.222702
      2         46           0      -10.601899    0.124999    0.237902
      3          6           0      -11.327799   -2.294801    3.646602
      4          6           0      -10.244299   -3.204901    3.695202
      5          6           0       -9.197999   -3.049501    2.733502
      6          6           0       -8.078899   -3.939801    2.738402
      7          6           0       -8.073999   -4.974101    3.654502
      8          6           0       -9.114299   -5.133001    4.597402
      9          6           0      -10.175299   -4.258901    4.635302
     10          6           0       -6.934599   -3.773901    1.811302
     11          6           0       -6.137099   -2.619800    1.850802
     12          6           0       -4.996899   -2.520200    1.063102
     13          6           0       -4.630199   -3.566400    0.197702
     14          6           0       -3.447299   -3.466100   -0.593698
     15          6           0       -2.433099   -3.368600   -1.261098
     16          6           0       -1.214499   -3.252200   -1.997098
     17          6           0       -1.208199   -2.952800   -3.370498
     18          6           0        0.002701   -2.816600   -4.045498
     19          6           0        1.214701   -2.952600   -3.372598
     20          6           0        1.223401   -3.252200   -1.999198
     21          6           0        2.443801   -3.370200   -1.266598
     22          6           0        3.459801   -3.469500   -0.602398
     23          6           0        4.646201   -3.573500    0.183202
     24          6           0        5.467401   -4.711200    0.102902
     25          6           0        6.602301   -4.816600    0.897902
     26          6           0        6.960401   -3.788600    1.781702
     27          6           0        8.111001   -3.959600    2.699902
     28          6           0        9.226501   -3.064900    2.697202
     29          6           0       10.279401   -3.226300    3.650602
     30          6           0       11.358901   -2.311300    3.604702
     31          6           0       11.395701   -1.337900    2.643002
     32          7           0       10.413401   -1.231400    1.704202
     33          6           0        9.372401   -2.048200    1.732702
     34          6           0       10.220601   -4.290300    4.580002
     35          6           0        9.162901   -5.168500    4.539402
     36          6           0        8.116001   -5.003700    3.604802
     37          6           0        6.157401   -2.638900    1.839202
     38          6           0        5.012301   -2.535800    1.059002
     39          6           0        0.005101   -3.418200   -1.327198
     40          6           0       -5.446199   -4.709100    0.135202
     41          6           0       -6.576299   -4.810601    0.937602
     42          6           0       -9.353799   -2.043001    1.759902
     43          7           0      -10.397799   -1.230001    1.730002
     44          6           0      -11.374299   -1.331301    2.675402
     45          1           0      -12.137099   -2.365101    4.374602
     46          1           0       -7.231099   -5.668301    3.667902
     47          1           0       -9.060799   -5.956601    5.312302
     48          1           0      -10.972699   -4.371001    5.372202
     49          1           0       -6.380499   -1.809401    2.543502
     50          1           0       -4.361099   -1.637000    1.140402
     51          1           0       -2.154499   -2.818800   -3.897198
     52          1           0        0.001901   -2.582300   -5.111998
     53          1           0        2.160001   -2.819000   -3.900998
     54          1           0        5.202101   -5.519300   -0.580698
     55          1           0        7.223301   -5.713100    0.835702
     56          1           0       12.173101   -2.385800    4.326902
     57          1           0       12.216201   -0.622100    2.578602
     58          1           0        8.620301   -1.928700    0.949502
     59          1           0       11.023001   -4.406900    5.310702
     60          1           0        9.117201   -5.999800    5.245702
     61          1           0        7.275601   -5.701000    3.616602
     62          1           0        6.401001   -1.835300    2.539702
     63          1           0        4.372701   -1.656700    1.149902
     64          1           0        0.006101   -3.662900   -0.264898
     65          1           0       -5.180699   -5.523800   -0.540398
     66          1           0       -7.193299   -5.710501    0.890002
     67          1           0       -8.606899   -1.928301    0.971202
     68          1           0      -12.197899   -0.619301    2.609502
     69          6           0      -11.507599    3.593699    2.535702
     70          6           0      -10.343099    3.823099    3.309102
     71          6           0       -9.250799    2.915999    3.151802
     72          6           0       -8.045699    3.098699    3.898502
     73          6           0       -7.992299    4.140699    4.803802
     74          6           0       -9.076999    5.031999    4.966402
     75          6           0      -10.229299    4.891999    4.227902
     76          6           0       -6.884699    2.198299    3.713902
     77          6           0       -6.253799    2.076799    2.465602
     78          6           0       -5.135699    1.266600    2.311502
     79          6           0       -4.620999    0.549800    3.407102
     80          6           0       -3.447899   -0.249500    3.264102
     81          6           0       -2.438099   -0.918700    3.140502
     82          6           0       -1.221999   -1.647700    2.977202
     83          6           0       -1.221699   -2.994200    2.573402
     84          6           0       -0.013799   -3.660200    2.378902
     85          6           0        1.199901   -3.003000    2.566802
     86          6           0        1.212101   -1.656700    2.970902
     87          6           0        2.433601   -0.935700    3.130102
     88          6           0        3.446001   -0.270200    3.252502
     89          6           0        4.621101    0.525600    3.398902
     90          6           0        5.259801    0.629700    4.646702
     91          6           0        6.372301    1.447000    4.800702
     92          6           0        6.885301    2.172000    3.716702
     93          6           0        8.045401    3.072000    3.908502
     94          6           0        9.250701    2.898500    3.159802
     95          6           0       10.341701    3.805800    3.325902
     96          6           0       11.507201    3.585000    2.551602
     97          6           0       11.571501    2.521300    1.691902
     98          7           0       10.536201    1.643200    1.572102
     99          6           0        9.430501    1.817000    2.276202
    100          6           0       10.226201    4.865600    4.254802
    101          6           0        9.073601    4.996800    4.994702
    102          6           0        7.990601    4.105100    4.823902
    103          6           0        6.256901    2.055100    2.466502
    104          6           0        5.138601    1.246100    2.307102
    105          6           0       -0.001999   -0.990300    3.182902
    106          6           0       -5.262199    0.658800    4.653202
    107          6           0       -6.374899    1.476899    4.801602
    108          6           0       -9.428199    1.826399    2.277802
    109          7           0      -10.532799    1.644499    1.574002
    110          6           0      -11.569599    2.522499    1.685102
    111          1           0      -12.362099    4.267099    2.616402
    112          1           0       -7.081999    4.293799    5.387302
    113          1           0       -8.986799    5.850799    5.683202
    114          1           0      -11.061599    5.588499    4.344502
    115          1           0       -6.614399    2.658099    1.612302
    116          1           0       -4.630099    1.213500    1.345602
    117          1           0       -2.169999   -3.508500    2.408002
    118          1           0       -0.018699   -4.708700    2.072602
    119          1           0        2.143701   -3.523900    2.396002
    120          1           0        4.869801    0.071100    5.499202
    121          1           0        6.857401    1.522100    5.776202
    122          1           0       12.360901    4.258500    2.639302
    123          1           0       12.453601    2.328300    1.079602
    124          1           0        8.642201    1.070700    2.159402
    125          1           0       11.057401    5.562200    4.378302
    126          1           0        8.982301    5.808500    5.719302
    127          1           0        7.080401    4.250500    5.409602
    128          1           0        6.619201    2.639600    1.616202
    129          1           0        4.634601    1.197500    1.340202
    130          1           0        0.002601    0.058900    3.480502
    131          1           0       -4.874599    0.102800    5.508402
    132          1           0       -6.863099    1.554599    5.775402
    133          1           0       -8.638199    1.080699    2.167902
    134          1           0      -12.450199    2.324999    1.072002
    135          6           0      -12.149699    2.837899   -2.643698
    136          6           0      -11.119099    3.800099   -2.791398
    137          6           0       -9.861799    3.525399   -2.173298
    138          6           0       -8.767699    4.437999   -2.308398
    139          6           0       -8.992999    5.626499   -2.974998
    140          6           0      -10.246999    5.912499   -3.561698
    141          6           0      -11.287399    5.013299   -3.498598
    142          6           0       -7.430099    4.081599   -1.788198
    143          6           0       -6.834799    2.874599   -2.190898
    144          6           0       -5.573899    2.521800   -1.739698
    145          6           0       -4.859799    3.368100   -0.870598
    146          6           0       -3.559499    2.950700   -0.463498
    147          6           0       -2.467999    2.461200   -0.230498
    148          6           0       -1.222399    1.789900   -0.063398
    149          6           0       -1.213099    0.386400    0.030902
    150          6           0       -0.007499   -0.299700    0.092902
    151          6           0        1.198401    0.386500    0.036402
    152          6           0        1.208101    1.789900   -0.057698
    153          6           0        2.454101    2.462100   -0.218698
    154          6           0        3.545501    2.954100   -0.446298
    155          6           0        4.846301    3.375000   -0.848498
    156          6           0        5.436701    4.580600   -0.432198
    157          6           0        6.704401    4.935000   -0.885698
    158          6           0        7.416401    4.099400   -1.758098
    159          6           0        8.752201    4.465100   -2.276498
    160          6           0        9.850501    3.555700   -2.153898
    161          6           0       11.106501    3.844900   -2.768298
    162          6           0       12.143701    2.888700   -2.628998
    163          6           0       11.951001    1.766000   -1.867398
    164          7           0       10.775101    1.551600   -1.213098
    165          6           0        9.768001    2.395400   -1.362098
    166          6           0       11.268401    5.067000   -3.461598
    167          6           0       10.223401    5.961600   -3.513598
    168          6           0        8.971701    5.662800   -2.928698
    169          6           0        6.822601    2.895400   -2.171998
    170          6           0        5.561801    2.537300   -1.724798
    171          6           0       -0.007099    2.488500   -0.087698
    172          6           0       -5.451199    4.577300   -0.466198
    173          6           0       -6.718999    4.926299   -0.923698
    174          6           0       -9.772599    2.375399   -1.367098
    175          7           0      -10.773599    1.525899   -1.211198
    176          6           0      -11.948499    1.723999   -1.871798
    177          1           0      -13.114799    2.987599   -3.129998
    178          1           0       -8.174600    6.340999   -3.086098
    179          1           0      -10.378400    6.856899   -4.093798
    180          1           0      -12.245199    5.226599   -3.976798
    181          1           0       -7.354799    2.221899   -2.896998
    182          1           0       -5.109499    1.597000   -2.078698
    183          1           0       -2.157099   -0.159900    0.038202
    184          1           0       -0.007699   -1.385600    0.170402
    185          1           0        2.142501   -0.159700    0.048302
    186          1           0        4.897801    5.239800    0.250502
    187          1           0        7.154701    5.871700   -0.549198
    188          1           0       13.108101    3.051400   -3.112198
    189          1           0       12.732701    1.017000   -1.731998
    190          1           0        8.855901    2.185600   -0.800098
    191          1           0       12.225101    5.290800   -3.937098
    192          1           0       10.349600    6.912800   -4.034998
    193          1           0        8.150200    6.375400   -3.028498
    194          1           0        7.343001    2.249700   -2.884398
    195          1           0        5.098301    1.615200   -2.072298
    196          1           0       -0.007099    3.574800   -0.181398
    197          1           0       -4.913399    5.243300    0.210902
    198          1           0       -7.170499    5.865299   -0.595298
    199          1           0       -8.860299    2.178899   -0.800598
    200          1           0      -12.723299    0.968599   -1.733198
    201          6           0      -11.690199   -3.360901   -1.910198
    202          6           0      -10.593299   -3.627701   -2.765398
    203          6           0       -9.477199   -2.734601   -2.722998
    204          6           0       -8.332199   -2.976901   -3.547598
    205          6           0       -8.373299   -4.053201   -4.415098
    206          6           0       -9.485999   -4.920501   -4.471198
    207          6           0      -10.574399   -4.728101   -3.652698
    208          6           0       -7.117599   -2.134101   -3.483398
    209          6           0       -6.453299   -1.901401   -2.268798
    210          6           0       -5.271499   -1.173400   -2.233798
    211          6           0       -4.711799   -0.658000   -3.415398
    212          6           0       -3.488799    0.076100   -3.380598
    213          6           0       -2.450999    0.713400   -3.357798
    214          6           0       -1.224099    1.443700   -3.368698
    215          6           0       -1.219899    2.846900   -3.450898
    216          6           0       -0.011999    3.537900   -3.480898
    217          6           0        1.198901    2.852500   -3.441498
    218          6           0        1.208901    1.449200   -3.360398
    219          6           0        2.438601    0.723600   -3.344298
    220          6           0        3.477301    0.087900   -3.365098
    221          6           0        4.700201   -0.646300   -3.402498
    222          6           0        5.361301   -0.877400   -4.621698
    223          6           0        6.542501   -1.606700   -4.654698
    224          6           0        7.104701   -2.124100   -3.478298
    225          6           0        8.318001   -2.968400   -3.546398
    226          6           0        9.470101   -2.722300   -2.732798
    227          6           0       10.585301   -3.616200   -2.779998
    228          6           0       11.689901   -3.345100   -1.936398
    229          6           0       11.677901   -2.248300   -1.118398
    230          7           0       10.627701   -1.380100   -1.114698
    231          6           0        9.579001   -1.595200   -1.892298
    232          6           0       10.558001   -4.721900   -3.660598
    233          6           0        9.462401   -4.918500   -4.468298
    234          6           0        8.350901   -4.049900   -4.407798
    235          6           0        6.449201   -1.883400   -2.260498
    236          6           0        5.267901   -1.154800   -2.221698
    237          6           0       -0.006199    0.753600   -3.311898
    238          6           0       -5.381599   -0.881200   -4.631298
    239          6           0       -6.563299   -1.609801   -4.660598
    240          6           0       -9.578699   -1.611001   -1.876998
    241          7           0      -10.620799   -1.399301   -1.089598
    242          6           0      -11.670399   -2.268301   -1.086898
    243          1           0      -12.554299   -4.026601   -1.902098
    244          1           0       -7.508699   -4.255801   -5.050498
    245          1           0       -9.466299   -5.764601   -5.163598
    246          1           0      -11.427299   -5.408801   -3.678398
    247          1           0       -6.835199   -2.339801   -1.343098
    248          1           0       -4.753799   -1.018000   -1.287198
    249          1           0       -2.168199    3.385900   -3.485198
    250          1           0       -0.013899    4.628400   -3.538798
    251          1           0        2.144701    3.396200   -3.467598
    252          1           0        4.937801   -0.482100   -5.546498
    253          1           0        7.044401   -1.774800   -5.609898
    254          1           0       12.553801   -4.011000   -1.932698
    255          1           0       12.506401   -2.021000   -0.445898
    256          1           0        8.781701   -0.849200   -1.870398
    257          1           0       11.410401   -5.403000   -3.689898
    258          1           0        9.436001   -5.766700   -5.155398
    259          1           0        7.480801   -4.255600   -5.034598
    260          1           0        6.837501   -2.316600   -1.335098
    261          1           0        4.756801   -0.993700   -1.272298
    262          1           0       -0.003899   -0.333300   -3.239698
    263          1           0       -4.964599   -0.479900   -5.556498
    264          1           0       -7.072099   -1.771901   -5.613198
    265          1           0       -8.782199   -0.864201   -1.860198
    266          1           0      -12.492699   -2.044801   -0.405498
 ---------------------------------------------------------------------
 Rotational constants (GHZ):           0.0129907           0.0029715           0.0029124
 Standard basis: def2SVP (5D, 7F)
 There are  3072 symmetry adapted cartesian basis functions of A   symmetry.
 There are  2894 symmetry adapted basis functions of A   symmetry.
  2894 basis functions,  5002 primitive gaussians,  3072 cartesian basis functions
   572 alpha electrons      572 beta electrons
       nuclear repulsion energy     42437.0609291232 Hartrees.
 NAtoms=  266 NActive=  266 NUniq=  266 SFac= 1.00D+00 NAtFMM=   60 NAOKFM=T Big=T
 Integral buffers will be    131072 words long.
 Raffenetti 2 integral format.
 Two-electron integral symmetry is turned on.
 Nuclear repulsion after empirical dispersion term =    42436.5585867685 Hartrees.
 ------------------------------------------------------------------------------
 Polarizable Continuum Model (PCM)
 =================================
 Model                : PCM.
 Atomic radii         : UFF (Universal Force Field).
 Polarization charges : Total charges.
 Charge compensation  : None.
 Solution method      : On-the-fly selection.
 Cavity type          : Scaled VdW (van der Waals Surface) (Alpha=1.100).
 Cavity algorithm     : GePol (No added spheres)
                        Default sphere list used, NSphG=  266.
                        Lebedev-Laikov grids with approx.  5.0 points / Ang**2.
                        Smoothing algorithm: York/Karplus (Gamma=1.0000).
                        Polarization charges: spherical gaussians, with
                                              point-specific exponents (IZeta= 3).
                        Self-potential: point-specific (ISelfS= 7).
                        Self-field    : sphere-specific E.n sum rule (ISelfD= 2).
 Solvent              : DiMethylSulfoxide, Eps=  46.826000 Eps(inf)=   2.007889
 ------------------------------------------------------------------------------
 One-electron integrals computed using PRISM.
   1 Symmetry operations used in ECPInt.
 ECPInt:  NShTT=  869221 NPrTT= 3214347 LenC2=  391738 LenP2D=  811278.
 LDataN:  DoStor=T MaxTD1= 7 Len=  274
 Number of processors reduced to  37 by ecpmxn.
 NBasis=  2894 RedAO= T EigKep=  2.05D-04  NBF=  2894
 NBsUse=  2894 1.00D-06 EigRej= -1.00D+00 NBFU=  2894
 Defaulting to unpruned grid for atomic number  46.
 ExpMin= 3.70D-02 ExpMax= 1.71D+03 ExpMxC= 2.58D+02 IAcc=3 IRadAn=         5 AccDes= 0.00D+00
 Harris functional with IExCor= 1009 and IRadAn=       5 diagonalized for initial guess.
 HarFok:  IExCor= 1009 AccDes= 0.00D+00 IRadAn=         5 IDoV= 1 UseB2=F ITyADJ=14
 ICtDFT=  3500011 ScaDFX=  1.000000  1.000000  1.000000  1.000000
 Defaulting to unpruned grid for atomic number  46.
 FoFCou: FMM=F IPFlag=           0 FMFlag=      100000 FMFlg1=        2001
         NFxFlg=           0 DoJE=T BraDBF=F KetDBF=T FulRan=T
         wScrn=  0.000000 ICntrl=       500 IOpCl=  0 I1Cent=   200000004 NGrid=           0
         NMat0=    1 NMatS0=      1 NMatT0=    0 NMatD0=    1 NMtDS0=    0 NMtDT0=    0
 Petite list used in FoFCou.
 Requested convergence on RMS density matrix=1.00D-08 within 128 cycles.
 Requested convergence on MAX density matrix=1.00D-06.
 Requested convergence on             energy=1.00D-06.
 No special actions if energy rises.
 Defaulting to unpruned grid for atomic number  46.
 Defaulting to unpruned grid for atomic number  46.
 Defaulting to unpruned grid for atomic number  46.
 Defaulting to unpruned grid for atomic number  46.
 Defaulting to unpruned grid for atomic number  46.
 Defaulting to unpruned grid for atomic number  46.
 Defaulting to unpruned grid for atomic number  46.
 Defaulting to unpruned grid for atomic number  46.
 Defaulting to unpruned grid for atomic number  46.
 Defaulting to unpruned grid for atomic number  46.
 Defaulting to unpruned grid for atomic number  46.
 Defaulting to unpruned grid for atomic number  46.
 Defaulting to unpruned grid for atomic number  46.
 Defaulting to unpruned grid for atomic number  46.
 Defaulting to unpruned grid for atomic number  46.
 Defaulting to unpruned grid for atomic number  46.
 Defaulting to unpruned grid for atomic number  46.
 Defaulting to unpruned grid for atomic number  46.
 Defaulting to unpruned grid for atomic number  46.
 Defaulting to unpruned grid for atomic number  46.
 Defaulting to unpruned grid for atomic number  46.
 Defaulting to unpruned grid for atomic number  46.
 Defaulting to unpruned grid for atomic number  46.
 Defaulting to unpruned grid for atomic number  46.
 Defaulting to unpruned grid for atomic number  46.
 Defaulting to unpruned grid for atomic number  46.
 Defaulting to unpruned grid for atomic number  46.
 Defaulting to unpruned grid for atomic number  46.
 Defaulting to unpruned grid for atomic number  46.
 Defaulting to unpruned grid for atomic number  46.
 Defaulting to unpruned grid for atomic number  46.
 Defaulting to unpruned grid for atomic number  46.
 Defaulting to unpruned grid for atomic number  46.
 Defaulting to unpruned grid for atomic number  46.
 Defaulting to unpruned grid for atomic number  46.
 Defaulting to unpruned grid for atomic number  46.
 Defaulting to unpruned grid for atomic number  46.
 Defaulting to unpruned grid for atomic number  46.
 Defaulting to unpruned grid for atomic number  46.
 Defaulting to unpruned grid for atomic number  46.
 Defaulting to unpruned grid for atomic number  46.
 Defaulting to unpruned grid for atomic number  46.
 Defaulting to unpruned grid for atomic number  46.
 Defaulting to unpruned grid for atomic number  46.
 Defaulting to unpruned grid for atomic number  46.
 Defaulting to unpruned grid for atomic number  46.
 Defaulting to unpruned grid for atomic number  46.
 Defaulting to unpruned grid for atomic number  46.
 Inv3:  Mode=1 IEnd=   849443787.
 Iteration    1 A*A^-1 deviation from unit magnitude is 2.12D-13 for   2679.
 Iteration    1 A*A^-1 deviation from orthogonality  is 2.25D-13 for   4292   2679.
 Iteration    1 A^-1*A deviation from unit magnitude is 1.60D-14 for   4292.
 Iteration    1 A^-1*A deviation from orthogonality  is 1.02D-11 for  14376  14259.
 EnCoef did   100 forward-backward iterations
 Error on total polarization charges =  0.03143
 SCF Done:  E(RPBE1PBE) =  -6836.06026468     A.U. after   19 cycles
            NFock= 19  Conv=0.28D-08     -V/T= 2.0347
 Hyperfine terms turned off by default for NAtoms > 100.

 **********************************************************************

            Population analysis using the SCF Density.

 **********************************************************************

 Orbital symmetries:
       Occupied  (A) (A) (A) (A) (A) (A) (A) (A) (A) (A) (A) (A)
                 (A) (A) (A) (A) (A) (A) (A) (A) (A) (A) (A) (A)
                 (A) (A) (A) (A) (A) (A) (A) (A) (A) (A) (A) (A)
                 (A) (A) (A) (A) (A) (A) (A) (A) (A) (A) (A) (A)
                 (A) (A) (A) (A) (A) (A) (A) (A) (A) (A) (A) (A)
                 (A) (A) (A) (A) (A) (A) (A) (A) (A) (A) (A) (A)
                 (A) (A) (A) (A) (A) (A) (A) (A) (A) (A) (A) (A)
                 (A) (A) (A) (A) (A) (A) (A) (A) (A) (A) (A) (A)
                 (A) (A) (A) (A) (A) (A) (A) (A) (A) (A) (A) (A)
                 (A) (A) (A) (A) (A) (A) (A) (A) (A) (A) (A) (A)
                 (A) (A) (A) (A) (A) (A) (A) (A) (A) (A) (A) (A)
                 (A) (A) (A) (A) (A) (A) (A) (A) (A) (A) (A) (A)
                 (A) (A) (A) (A) (A) (A) (A) (A) (A) (A) (A) (A)
                 (A) (A) (A) (A) (A) (A) (A) (A) (A) (A) (A) (A)
                 (A) (A) (A) (A) (A) (A) (A) (A) (A) (A) (A) (A)
                 (A) (A) (A) (A) (A) (A) (A) (A) (A) (A) (A) (A)
                 (A) (A) (A) (A) (A) (A) (A) (A) (A) (A) (A) (A)
                 (A) (A) (A) (A) (A) (A) (A) (A) (A) (A) (A) (A)
                 (A) (A) (A) (A) (A) (A) (A) (A) (A) (A) (A) (A)
                 (A) (A) (A) (A) (A) (A) (A) (A) (A) (A) (A) (A)
                 (A) (A) (A) (A) (A) (A) (A) (A) (A) (A) (A) (A)
                 (A) (A) (A) (A) (A) (A) (A) (A) (A) (A) (A) (A)
                 (A) (A) (A) (A) (A) (A) (A) (A) (A) (A) (A) (A)
                 (A) (A) (A) (A) (A) (A) (A) (A) (A) (A) (A) (A)
                 (A) (A) (A) (A) (A) (A) (A) (A) (A) (A) (A) (A)
                 (A) (A) (A) (A) (A) (A) (A) (A) (A) (A) (A) (A)
                 (A) (A) (A) (A) (A) (A) (A) (A) (A) (A) (A) (A)
                 (A) (A) (A) (A) (A) (A) (A) (A) (A) (A) (A) (A)
                 (A) (A) (A) (A) (A) (A) (A) (A) (A) (A) (A) (A)
                 (A) (A) (A) (A) (A) (A) (A) (A) (A) (A) (A) (A)
                 (A) (A) (A) (A) (A) (A) (A) (A) (A) (A) (A) (A)
                 (A) (A) (A) (A) (A) (A) (A) (A) (A) (A) (A) (A)
                 (A) (A) (A) (A) (A) (A) (A) (A) (A) (A) (A) (A)
                 (A) (A) (A) (A) (A) (A) (A) (A) (A) (A) (A) (A)
                 (A) (A) (A) (A) (A) (A) (A) (A) (A) (A) (A) (A)
                 (A) (A) (A) (A) (A) (A) (A) (A) (A) (A) (A) (A)
                 (A) (A) (A) (A) (A) (A) (A) (A) (A) (A) (A) (A)
                 (A) (A) (A) (A) (A) (A) (A) (A) (A) (A) (A) (A)
                 (A) (A) (A) (A) (A) (A) (A) (A) (A) (A) (A) (A)
                 (A) (A) (A) (A) (A) (A) (A) (A) (A) (A) (A) (A)
                 (A) (A) (A) (A) (A) (A) (A) (A) (A) (A) (A) (A)
                 (A) (A) (A) (A) (A) (A) (A) (A) (A) (A) (A) (A)
                 (A) (A) (A) (A) (A) (A) (A) (A) (A) (A) (A) (A)
                 (A) (A) (A) (A) (A) (A) (A) (A) (A) (A) (A) (A)
                 (A) (A) (A) (A) (A) (A) (A) (A) (A) (A) (A) (A)
                 (A) (A) (A) (A) (A) (A) (A) (A) (A) (A) (A) (A)
                 (A) (A) (A) (A) (A) (A) (A) (A) (A) (A) (A) (A)
                 (A) (A) (A) (A) (A) (A) (A) (A)
       Virtual   (A) (A) (A) (A) (A) (A) (A) (A) (A) (A) (A) (A)
                 (A) (A) (A) (A) (A) (A) (A) (A) (A) (A) (A) (A)
                 (A) (A) (A) (A) (A) (A) (A) (A) (A) (A) (A) (A)
                 (A) (A) (A) (A) (A) (A) (A) (A) (A) (A) (A) (A)
                 (A) (A) (A) (A) (A) (A) (A) (A) (A) (A) (A) (A)
                 (A) (A) (A) (A) (A) (A) (A) (A) (A) (A) (A) (A)
                 (A) (A) (A) (A) (A) (A) (A) (A) (A) (A) (A) (A)
                 (A) (A) (A) (A) (A) (A) (A) (A) (A) (A) (A) (A)
                 (A) (A) (A) (A) (A) (A) (A) (A) (A) (A) (A) (A)
                 (A) (A) (A) (A) (A) (A) (A) (A) (A) (A) (A) (A)
                 (A) (A) (A) (A) (A) (A) (A) (A) (A) (A) (A) (A)
                 (A) (A) (A) (A) (A) (A) (A) (A) (A) (A) (A) (A)
                 (A) (A) (A) (A) (A) (A) (A) (A) (A) (A) (A) (A)
                 (A) (A) (A) (A) (A) (A) (A) (A) (A) (A) (A) (A)
                 (A) (A) (A) (A) (A) (A) (A) (A) (A) (A) (A) (A)
                 (A) (A) (A) (A) (A) (A) (A) (A) (A) (A) (A) (A)
                 (A) (A) (A) (A) (A) (A) (A) (A) (A) (A) (A) (A)
                 (A) (A) (A) (A) (A) (A) (A) (A) (A) (A) (A) (A)
                 (A) (A) (A) (A) (A) (A) (A) (A) (A) (A) (A) (A)
                 (A) (A) (A) (A) (A) (A) (A) (A) (A) (A) (A) (A)
                 (A) (A) (A) (A) (A) (A) (A) (A) (A) (A) (A) (A)
                 (A) (A) (A) (A) (A) (A) (A) (A) (A) (A) (A) (A)
                 (A) (A) (A) (A) (A) (A) (A) (A) (A) (A) (A) (A)
                 (A) (A) (A) (A) (A) (A) (A) (A) (A) (A) (A) (A)
                 (A) (A) (A) (A) (A) (A) (A) (A) (A) (A) (A) (A)
                 (A) (A) (A) (A) (A) (A) (A) (A) (A) (A) (A) (A)
                 (A) (A) (A) (A) (A) (A) (A) (A) (A) (A) (A) (A)
                 (A) (A) (A) (A) (A) (A) (A) (A) (A) (A) (A) (A)
                 (A) (A) (A) (A) (A) (A) (A) (A) (A) (A) (A) (A)
                 (A) (A) (A) (A) (A) (A) (A) (A) (A) (A) (A) (A)
                 (A) (A) (A) (A) (A) (A) (A) (A) (A) (A) (A) (A)
                 (A) (A) (A) (A) (A) (A) (A) (A) (A) (A) (A) (A)
                 (A) (A) (A) (A) (A) (A) (A) (A) (A) (A) (A) (A)
                 (A) (A) (A) (A) (A) (A) (A) (A) (A) (A) (A) (A)
                 (A) (A) (A) (A) (A) (A) (A) (A) (A) (A) (A) (A)
                 (A) (A) (A) (A) (A) (A) (A) (A) (A) (A) (A) (A)
                 (A) (A) (A) (A) (A) (A) (A) (A) (A) (A) (A) (A)
                 (A) (A) (A) (A) (A) (A) (A) (A) (A) (A) (A) (A)
                 (A) (A) (A) (A) (A) (A) (A) (A) (A) (A) (A) (A)
                 (A) (A) (A) (A) (A) (A) (A) (A) (A) (A) (A) (A)
                 (A) (A) (A) (A) (A) (A) (A) (A) (A) (A) (A) (A)
                 (A) (A) (A) (A) (A) (A) (A) (A) (A) (A) (A) (A)
                 (A) (A) (A) (A) (A) (A) (A) (A) (A) (A) (A) (A)
                 (A) (A) (A) (A) (A) (A) (A) (A) (A) (A) (A) (A)
                 (A) (A) (A) (A) (A) (A) (A) (A) (A) (A) (A) (A)
                 (A) (A) (A) (A) (A) (A) (A) (A) (A) (A) (A) (A)
                 (A) (A) (A) (A) (A) (A) (A) (A) (A) (A) (A) (A)
                 (A) (A) (A) (A) (A) (A) (A) (A) (A) (A) (A) (A)
                 (A) (A) (A) (A) (A) (A) (A) (A) (A) (A) (A) (A)
                 (A) (A) (A) (A) (A) (A) (A) (A) (A) (A) (A) (A)
                 (A) (A) (A) (A) (A) (A) (A) (A) (A) (A) (A) (A)
                 (A) (A) (A) (A) (A) (A) (A) (A) (A) (A) (A) (A)
                 (A) (A) (A) (A) (A) (A) (A) (A) (A) (A) (A) (A)
                 (A) (A) (A) (A) (A) (A) (A) (A) (A) (A) (A) (A)
                 (A) (A) (A) (A) (A) (A) (A) (A) (A) (A) (A) (A)
                 (A) (A) (A) (A) (A) (A) (A) (A) (A) (A) (A) (A)
                 (A) (A) (A) (A) (A) (A) (A) (A) (A) (A) (A) (A)
                 (A) (A) (A) (A) (A) (A) (A) (A) (A) (A) (A) (A)
                 (A) (A) (A) (A) (A) (A) (A) (A) (A) (A) (A) (A)
                 (A) (A) (A) (A) (A) (A) (A) (A) (A) (A) (A) (A)
                 (A) (A) (A) (A) (A) (A) (A) (A) (A) (A) (A) (A)
                 (A) (A) (A) (A) (A) (A) (A) (A) (A) (A) (A) (A)
                 (A) (A) (A) (A) (A) (A) (A) (A) (A) (A) (A) (A)
                 (A) (A) (A) (A) (A) (A) (A) (A) (A) (A) (A) (A)
                 (A) (A) (A) (A) (A) (A) (A) (A) (A) (A) (A) (A)
                 (A) (A) (A) (A) (A) (A) (A) (A) (A) (A) (A) (A)
                 (A) (A) (A) (A) (A) (A) (A) (A) (A) (A) (A) (A)
                 (A) (A) (A) (A) (A) (A) (A) (A) (A) (A) (A) (A)
                 (A) (A) (A) (A) (A) (A) (A) (A) (A) (A) (A) (A)
                 (A) (A) (A) (A) (A) (A) (A) (A) (A) (A) (A) (A)
                 (A) (A) (A) (A) (A) (A) (A) (A) (A) (A) (A) (A)
                 (A) (A) (A) (A) (A) (A) (A) (A) (A) (A) (A) (A)
                 (A) (A) (A) (A) (A) (A) (A) (A) (A) (A) (A) (A)
                 (A) (A) (A) (A) (A) (A) (A) (A) (A) (A) (A) (A)
                 (A) (A) (A) (A) (A) (A) (A) (A) (A) (A) (A) (A)
                 (A) (A) (A) (A) (A) (A) (A) (A) (A) (A) (A) (A)
                 (A) (A) (A) (A) (A) (A) (A) (A) (A) (A) (A) (A)
                 (A) (A) (A) (A) (A) (A) (A) (A) (A) (A) (A) (A)
                 (A) (A) (A) (A) (A) (A) (A) (A) (A) (A) (A) (A)
                 (A) (A) (A) (A) (A) (A) (A) (A) (A) (A) (A) (A)
                 (A) (A) (A) (A) (A) (A) (A) (A) (A) (A) (A) (A)
                 (A) (A) (A) (A) (A) (A) (A) (A) (A) (A) (A) (A)
                 (A) (A) (A) (A) (A) (A) (A) (A) (A) (A) (A) (A)
                 (A) (A) (A) (A) (A) (A) (A) (A) (A) (A) (A) (A)
                 (A) (A) (A) (A) (A) (A) (A) (A) (A) (A) (A) (A)
                 (A) (A) (A) (A) (A) (A) (A) (A) (A) (A) (A) (A)
                 (A) (A) (A) (A) (A) (A) (A) (A) (A) (A) (A) (A)
                 (A) (A) (A) (A) (A) (A) (A) (A) (A) (A) (A) (A)
                 (A) (A) (A) (A) (A) (A) (A) (A) (A) (A) (A) (A)
                 (A) (A) (A) (A) (A) (A) (A) (A) (A) (A) (A) (A)
                 (A) (A) (A) (A) (A) (A) (A) (A) (A) (A) (A) (A)
                 (A) (A) (A) (A) (A) (A) (A) (A) (A) (A) (A) (A)
                 (A) (A) (A) (A) (A) (A) (A) (A) (A) (A) (A) (A)
                 (A) (A) (A) (A) (A) (A) (A) (A) (A) (A) (A) (A)
                 (A) (A) (A) (A) (A) (A) (A) (A) (A) (A) (A) (A)
                 (A) (A) (A) (A) (A) (A) (A) (A) (A) (A) (A) (A)
                 (A) (A) (A) (A) (A) (A) (A) (A) (A) (A) (A) (A)
                 (A) (A) (A) (A) (A) (A) (A) (A) (A) (A) (A) (A)
                 (A) (A) (A) (A) (A) (A) (A) (A) (A) (A) (A) (A)
                 (A) (A) (A) (A) (A) (A) (A) (A) (A) (A) (A) (A)
                 (A) (A) (A) (A) (A) (A) (A) (A) (A) (A) (A) (A)
                 (A) (A) (A) (A) (A) (A) (A) (A) (A) (A) (A) (A)
                 (A) (A) (A) (A) (A) (A) (A) (A) (A) (A) (A) (A)
                 (A) (A) (A) (A) (A) (A) (A) (A) (A) (A) (A) (A)
                 (A) (A) (A) (A) (A) (A) (A) (A) (A) (A) (A) (A)
                 (A) (A) (A) (A) (A) (A) (A) (A) (A) (A) (A) (A)
                 (A) (A) (A) (A) (A) (A) (A) (A) (A) (A) (A) (A)
                 (A) (A) (A) (A) (A) (A) (A) (A) (A) (A) (A) (A)
                 (A) (A) (A) (A) (A) (A) (A) (A) (A) (A) (A) (A)
                 (A) (A) (A) (A) (A) (A) (A) (A) (A) (A) (A) (A)
                 (A) (A) (A) (A) (A) (A) (A) (A) (A) (A) (A) (A)
                 (A) (A) (A) (A) (A) (A) (A) (A) (A) (A) (A) (A)
                 (A) (A) (A) (A) (A) (A) (A) (A) (A) (A) (A) (A)
                 (A) (A) (A) (A) (A) (A) (A) (A) (A) (A) (A) (A)
                 (A) (A) (A) (A) (A) (A) (A) (A) (A) (A) (A) (A)
                 (A) (A) (A) (A) (A) (A) (A) (A) (A) (A) (A) (A)
                 (A) (A) (A) (A) (A) (A) (A) (A) (A) (A) (A) (A)
                 (A) (A) (A) (A) (A) (A) (A) (A) (A) (A) (A) (A)
                 (A) (A) (A) (A) (A) (A) (A) (A) (A) (A) (A) (A)
                 (A) (A) (A) (A) (A) (A) (A) (A) (A) (A) (A) (A)
                 (A) (A) (A) (A) (A) (A) (A) (A) (A) (A) (A) (A)
                 (A) (A) (A) (A) (A) (A) (A) (A) (A) (A) (A) (A)
                 (A) (A) (A) (A) (A) (A) (A) (A) (A) (A) (A) (A)
                 (A) (A) (A) (A) (A) (A) (A) (A) (A) (A) (A) (A)
                 (A) (A) (A) (A) (A) (A) (A) (A) (A) (A) (A) (A)
                 (A) (A) (A) (A) (A) (A) (A) (A) (A) (A) (A) (A)
                 (A) (A) (A) (A) (A) (A) (A) (A) (A) (A) (A) (A)
                 (A) (A) (A) (A) (A) (A) (A) (A) (A) (A) (A) (A)
                 (A) (A) (A) (A) (A) (A) (A) (A) (A) (A) (A) (A)
                 (A) (A) (A) (A) (A) (A) (A) (A) (A) (A) (A) (A)
                 (A) (A) (A) (A) (A) (A) (A) (A) (A) (A) (A) (A)
                 (A) (A) (A) (A) (A) (A) (A) (A) (A) (A) (A) (A)
                 (A) (A) (A) (A) (A) (A) (A) (A) (A) (A) (A) (A)
                 (A) (A) (A) (A) (A) (A) (A) (A) (A) (A) (A) (A)
                 (A) (A) (A) (A) (A) (A) (A) (A) (A) (A) (A) (A)
                 (A) (A) (A) (A) (A) (A) (A) (A) (A) (A) (A) (A)
                 (A) (A) (A) (A) (A) (A) (A) (A) (A) (A) (A) (A)
                 (A) (A) (A) (A) (A) (A) (A) (A) (A) (A) (A) (A)
                 (A) (A) (A) (A) (A) (A) (A) (A) (A) (A) (A) (A)
                 (A) (A) (A) (A) (A) (A) (A) (A) (A) (A) (A) (A)
                 (A) (A) (A) (A) (A) (A) (A) (A) (A) (A) (A) (A)
                 (A) (A) (A) (A) (A) (A) (A) (A) (A) (A) (A) (A)
                 (A) (A) (A) (A) (A) (A) (A) (A) (A) (A) (A) (A)
                 (A) (A) (A) (A) (A) (A) (A) (A) (A) (A) (A) (A)
                 (A) (A) (A) (A) (A) (A) (A) (A) (A) (A) (A) (A)
                 (A) (A) (A) (A) (A) (A) (A) (A) (A) (A) (A) (A)
                 (A) (A) (A) (A) (A) (A) (A) (A) (A) (A) (A) (A)
                 (A) (A) (A) (A) (A) (A) (A) (A) (A) (A) (A) (A)
                 (A) (A) (A) (A) (A) (A) (A) (A) (A) (A) (A) (A)
                 (A) (A) (A) (A) (A) (A) (A) (A) (A) (A) (A) (A)
                 (A) (A) (A) (A) (A) (A) (A) (A) (A) (A) (A) (A)
                 (A) (A) (A) (A) (A) (A) (A) (A) (A) (A) (A) (A)
                 (A) (A) (A) (A) (A) (A) (A) (A) (A) (A) (A) (A)
                 (A) (A) (A) (A) (A) (A) (A) (A) (A) (A) (A) (A)
                 (A) (A) (A) (A) (A) (A) (A) (A) (A) (A) (A) (A)
                 (A) (A) (A) (A) (A) (A) (A) (A) (A) (A) (A) (A)
                 (A) (A) (A) (A) (A) (A) (A) (A) (A) (A) (A) (A)
                 (A) (A) (A) (A) (A) (A) (A) (A) (A) (A) (A) (A)
                 (A) (A) (A) (A) (A) (A) (A) (A) (A) (A) (A) (A)
                 (A) (A) (A) (A) (A) (A) (A) (A) (A) (A) (A) (A)
                 (A) (A) (A) (A) (A) (A) (A) (A) (A) (A) (A) (A)
                 (A) (A) (A) (A) (A) (A) (A) (A) (A) (A) (A) (A)
                 (A) (A) (A) (A) (A) (A) (A) (A) (A) (A) (A) (A)
                 (A) (A) (A) (A) (A) (A) (A) (A) (A) (A) (A) (A)
                 (A) (A) (A) (A) (A) (A) (A) (A) (A) (A) (A) (A)
                 (A) (A) (A) (A) (A) (A) (A) (A) (A) (A) (A) (A)
                 (A) (A) (A) (A) (A) (A) (A) (A) (A) (A) (A) (A)
                 (A) (A) (A) (A) (A) (A) (A) (A) (A) (A) (A) (A)
                 (A) (A) (A) (A) (A) (A) (A) (A) (A) (A) (A) (A)
                 (A) (A) (A) (A) (A) (A) (A) (A) (A) (A) (A) (A)
                 (A) (A) (A) (A) (A) (A) (A) (A) (A) (A) (A) (A)
                 (A) (A) (A) (A) (A) (A) (A) (A) (A) (A) (A) (A)
                 (A) (A) (A) (A) (A) (A) (A) (A) (A) (A) (A) (A)
                 (A) (A) (A) (A) (A) (A) (A) (A) (A) (A) (A) (A)
                 (A) (A) (A) (A) (A) (A) (A) (A) (A) (A) (A) (A)
                 (A) (A) (A) (A) (A) (A) (A) (A) (A) (A) (A) (A)
                 (A) (A) (A) (A) (A) (A) (A) (A) (A) (A) (A) (A)
                 (A) (A) (A) (A) (A) (A) (A) (A) (A) (A) (A) (A)
                 (A) (A) (A) (A) (A) (A) (A) (A) (A) (A) (A) (A)
                 (A) (A) (A) (A) (A) (A) (A) (A) (A) (A) (A) (A)
                 (A) (A) (A) (A) (A) (A) (A) (A) (A) (A) (A) (A)
                 (A) (A) (A) (A) (A) (A) (A) (A) (A) (A) (A) (A)
                 (A) (A) (A) (A) (A) (A) (A) (A) (A) (A) (A) (A)
                 (A) (A) (A) (A) (A) (A) (A) (A) (A) (A) (A) (A)
                 (A) (A) (A) (A) (A) (A) (A) (A) (A) (A) (A) (A)
                 (A) (A) (A) (A) (A) (A) (A) (A) (A) (A) (A) (A)
                 (A) (A) (A) (A) (A) (A) (A) (A) (A) (A) (A) (A)
                 (A) (A) (A) (A) (A) (A) (A) (A) (A) (A) (A) (A)
                 (A) (A) (A) (A) (A) (A) (A) (A) (A) (A) (A) (A)
                 (A) (A) (A) (A) (A) (A) (A) (A) (A) (A) (A) (A)
                 (A) (A) (A) (A) (A) (A) (A) (A) (A) (A) (A) (A)
                 (A) (A) (A) (A) (A) (A) (A) (A) (A) (A) (A) (A)
                 (A) (A) (A) (A) (A) (A) (A) (A) (A) (A) (A) (A)
                 (A) (A) (A) (A) (A) (A)
 The electronic state is 1-A.
 Alpha  occ. eigenvalues --  -14.48306 -14.48304 -14.48267 -14.48267 -14.48264
 Alpha  occ. eigenvalues --  -14.48256 -14.48165 -14.48163 -10.32368 -10.32362
 Alpha  occ. eigenvalues --  -10.32294 -10.32290 -10.32257 -10.32254 -10.32173
 Alpha  occ. eigenvalues --  -10.32171 -10.30919 -10.30917 -10.30893 -10.30890
 Alpha  occ. eigenvalues --  -10.30890 -10.30885 -10.30846 -10.30842 -10.29034
 Alpha  occ. eigenvalues --  -10.29033 -10.29032 -10.29029 -10.29009 -10.29008
 Alpha  occ. eigenvalues --  -10.29006 -10.29003 -10.28906 -10.28905 -10.28895
 Alpha  occ. eigenvalues --  -10.28893 -10.28822 -10.28815 -10.28765 -10.28762
 Alpha  occ. eigenvalues --  -10.28529 -10.28523 -10.28522 -10.28517 -10.28516
 Alpha  occ. eigenvalues --  -10.28515 -10.28499 -10.28495 -10.28476 -10.28472
 Alpha  occ. eigenvalues --  -10.28471 -10.28471 -10.28467 -10.28467 -10.28432
 Alpha  occ. eigenvalues --  -10.28428 -10.28412 -10.28409 -10.28407 -10.28405
 Alpha  occ. eigenvalues --  -10.27946 -10.27944 -10.27916 -10.27915 -10.27822
 Alpha  occ. eigenvalues --  -10.27820 -10.27799 -10.27797 -10.27794 -10.27791
 Alpha  occ. eigenvalues --  -10.27761 -10.27758 -10.27635 -10.27632 -10.27545
 Alpha  occ. eigenvalues --  -10.27537 -10.27536 -10.27530 -10.27503 -10.27502
 Alpha  occ. eigenvalues --  -10.27137 -10.27135 -10.27128 -10.27128 -10.27126
 Alpha  occ. eigenvalues --  -10.27124 -10.27086 -10.27083 -10.26897 -10.26896
 Alpha  occ. eigenvalues --  -10.26894 -10.26892 -10.26890 -10.26889 -10.26854
 Alpha  occ. eigenvalues --  -10.26852 -10.26757 -10.26756 -10.26756 -10.26754
 Alpha  occ. eigenvalues --  -10.26741 -10.26735 -10.26734 -10.26719 -10.26717
 Alpha  occ. eigenvalues --  -10.26688 -10.26510 -10.26503 -10.26497 -10.26491
 Alpha  occ. eigenvalues --  -10.26470 -10.26461 -10.26450 -10.26448 -10.26440
 Alpha  occ. eigenvalues --  -10.26440 -10.26439 -10.26434 -10.26427 -10.26421
 Alpha  occ. eigenvalues --  -10.26417 -10.26417 -10.26415 -10.26412 -10.26377
 Alpha  occ. eigenvalues --  -10.26369 -10.26354 -10.26350 -10.26349 -10.26345
 Alpha  occ. eigenvalues --  -10.26318 -10.26302 -10.26299 -10.26288 -10.26285
 Alpha  occ. eigenvalues --  -10.26282 -10.26279 -10.26211 -10.26208 -10.26154
 Alpha  occ. eigenvalues --  -10.26147 -10.26122 -10.26121 -10.26113 -10.26112
 Alpha  occ. eigenvalues --  -10.26026 -10.26013 -10.26011 -10.26005 -10.26001
 Alpha  occ. eigenvalues --  -10.25943 -10.25939 -10.25824 -10.25820 -10.25818
 Alpha  occ. eigenvalues --  -10.25813 -10.25789 -10.25789 -10.25782 -10.25778
 Alpha  occ. eigenvalues --  -10.25772 -10.25767 -10.25535 -10.25526 -10.25523
 Alpha  occ. eigenvalues --  -10.25517 -10.25472 -10.25224  -3.56847  -3.56845
 Alpha  occ. eigenvalues --   -2.24767  -2.24766  -2.24601  -2.24595  -2.20525
 Alpha  occ. eigenvalues --   -2.20525  -1.03196  -1.03196  -1.02584  -1.02582
 Alpha  occ. eigenvalues --   -1.02407  -1.02401  -1.02348  -1.02346  -0.92556
 Alpha  occ. eigenvalues --   -0.92554  -0.92480  -0.92479  -0.92453  -0.92451
 Alpha  occ. eigenvalues --   -0.92427  -0.92424  -0.91196  -0.91083  -0.90843
 Alpha  occ. eigenvalues --   -0.90497  -0.90458  -0.90406  -0.90383  -0.90340
 Alpha  occ. eigenvalues --   -0.90332  -0.90283  -0.90277  -0.90129  -0.85572
 Alpha  occ. eigenvalues --   -0.85496  -0.85489  -0.85473  -0.85426  -0.85407
 Alpha  occ. eigenvalues --   -0.85396  -0.85355  -0.83680  -0.83605  -0.83547
 Alpha  occ. eigenvalues --   -0.83192  -0.82774  -0.82698  -0.82649  -0.82608
 Alpha  occ. eigenvalues --   -0.82508  -0.82375  -0.82340  -0.82300  -0.82158
 Alpha  occ. eigenvalues --   -0.82101  -0.82061  -0.81991  -0.81634  -0.81589
 Alpha  occ. eigenvalues --   -0.81531  -0.81358  -0.80521  -0.80433  -0.80124
 Alpha  occ. eigenvalues --   -0.79950  -0.78816  -0.78811  -0.78752  -0.78748
 Alpha  occ. eigenvalues --   -0.78718  -0.78715  -0.78652  -0.78649  -0.78371
 Alpha  occ. eigenvalues --   -0.78351  -0.78311  -0.78298  -0.78226  -0.78220
 Alpha  occ. eigenvalues --   -0.78175  -0.78162  -0.75211  -0.75165  -0.75075
 Alpha  occ. eigenvalues --   -0.74961  -0.74682  -0.74615  -0.74395  -0.74283
 Alpha  occ. eigenvalues --   -0.70635  -0.70625  -0.70481  -0.70475  -0.70439
 Alpha  occ. eigenvalues --   -0.70433  -0.70409  -0.70398  -0.68944  -0.68942
 Alpha  occ. eigenvalues --   -0.68881  -0.68862  -0.68824  -0.68811  -0.68764
 Alpha  occ. eigenvalues --   -0.68752  -0.67948  -0.67887  -0.67815  -0.67808
 Alpha  occ. eigenvalues --   -0.67800  -0.67760  -0.67742  -0.67689  -0.65686
 Alpha  occ. eigenvalues --   -0.65642  -0.65401  -0.65346  -0.65341  -0.65210
 Alpha  occ. eigenvalues --   -0.65021  -0.64894  -0.64656  -0.64628  -0.64512
 Alpha  occ. eigenvalues --   -0.64507  -0.64462  -0.64450  -0.64316  -0.64313
 Alpha  occ. eigenvalues --   -0.63096  -0.62944  -0.62909  -0.62859  -0.62783
 Alpha  occ. eigenvalues --   -0.62739  -0.62705  -0.62639  -0.59498  -0.59323
 Alpha  occ. eigenvalues --   -0.59060  -0.58961  -0.58414  -0.58409  -0.58055
 Alpha  occ. eigenvalues --   -0.58036  -0.58014  -0.58013  -0.57958  -0.57947
 Alpha  occ. eigenvalues --   -0.57680  -0.57601  -0.57284  -0.57266  -0.57243
 Alpha  occ. eigenvalues --   -0.57233  -0.57179  -0.57174  -0.56942  -0.56772
 Alpha  occ. eigenvalues --   -0.56647  -0.56620  -0.56573  -0.56349  -0.56092
 Alpha  occ. eigenvalues --   -0.56051  -0.55989  -0.55931  -0.55774  -0.55725
 Alpha  occ. eigenvalues --   -0.55320  -0.55306  -0.55304  -0.55284  -0.51911
 Alpha  occ. eigenvalues --   -0.51900  -0.51797  -0.51713  -0.51651  -0.51592
 Alpha  occ. eigenvalues --   -0.51522  -0.51491  -0.51264  -0.51196  -0.50966
 Alpha  occ. eigenvalues --   -0.50956  -0.50856  -0.50709  -0.50698  -0.50671
 Alpha  occ. eigenvalues --   -0.50664  -0.50635  -0.50595  -0.50578  -0.50530
 Alpha  occ. eigenvalues --   -0.50530  -0.50503  -0.50405  -0.50119  -0.50089
 Alpha  occ. eigenvalues --   -0.50048  -0.50018  -0.49961  -0.49952  -0.49949
 Alpha  occ. eigenvalues --   -0.49925  -0.49737  -0.49695  -0.49418  -0.49358
 Alpha  occ. eigenvalues --   -0.49181  -0.49087  -0.49078  -0.49046  -0.49045
 Alpha  occ. eigenvalues --   -0.48928  -0.48785  -0.48759  -0.48400  -0.48342
 Alpha  occ. eigenvalues --   -0.47916  -0.47903  -0.47783  -0.47778  -0.47594
 Alpha  occ. eigenvalues --   -0.47589  -0.47562  -0.47557  -0.47337  -0.47328
 Alpha  occ. eigenvalues --   -0.47112  -0.47090  -0.46843  -0.46787  -0.46677
 Alpha  occ. eigenvalues --   -0.46600  -0.46590  -0.46532  -0.46515  -0.46485
 Alpha  occ. eigenvalues --   -0.46477  -0.46383  -0.46352  -0.45963  -0.45766
 Alpha  occ. eigenvalues --   -0.45743  -0.45683  -0.45659  -0.45656  -0.45597
 Alpha  occ. eigenvalues --   -0.45583  -0.45548  -0.45541  -0.45397  -0.45248
 Alpha  occ. eigenvalues --   -0.45243  -0.45063  -0.45060  -0.44125  -0.44037
 Alpha  occ. eigenvalues --   -0.44036  -0.44022  -0.44021  -0.43344  -0.43341
 Alpha  occ. eigenvalues --   -0.43261  -0.43258  -0.42841  -0.42596  -0.42515
 Alpha  occ. eigenvalues --   -0.42463  -0.42399  -0.42373  -0.42352  -0.42346
 Alpha  occ. eigenvalues --   -0.42167  -0.42144  -0.41934  -0.41927  -0.41829
 Alpha  occ. eigenvalues --   -0.41801  -0.41770  -0.41750  -0.41524  -0.41519
 Alpha  occ. eigenvalues --   -0.41304  -0.41240  -0.41177  -0.41134  -0.40959
 Alpha  occ. eigenvalues --   -0.40937  -0.40678  -0.40660  -0.40632  -0.40621
 Alpha  occ. eigenvalues --   -0.40387  -0.40369  -0.40193  -0.39741  -0.39717
 Alpha  occ. eigenvalues --   -0.39475  -0.39469  -0.39339  -0.39307  -0.39298
 Alpha  occ. eigenvalues --   -0.39199  -0.39027  -0.38793  -0.38509  -0.38453
 Alpha  occ. eigenvalues --   -0.38380  -0.38324  -0.38288  -0.38241  -0.38166
 Alpha  occ. eigenvalues --   -0.38120  -0.38092  -0.37966  -0.37843  -0.37781
 Alpha  occ. eigenvalues --   -0.37769  -0.37744  -0.37629  -0.37620  -0.37543
 Alpha  occ. eigenvalues --   -0.37539  -0.37221  -0.36241  -0.36098  -0.36066
 Alpha  occ. eigenvalues --   -0.36036  -0.35995  -0.35986  -0.35911  -0.35686
 Alpha  occ. eigenvalues --   -0.34979  -0.34949  -0.34929  -0.34885  -0.34865
 Alpha  occ. eigenvalues --   -0.34821  -0.34708  -0.34645  -0.34140  -0.33902
 Alpha  occ. eigenvalues --   -0.33859  -0.33744  -0.33737  -0.33661  -0.33433
 Alpha  occ. eigenvalues --   -0.33352  -0.33318  -0.33264  -0.33208  -0.33122
 Alpha  occ. eigenvalues --   -0.32647  -0.32288  -0.32200  -0.32174  -0.31217
 Alpha  occ. eigenvalues --   -0.31060  -0.31055  -0.30971  -0.30963  -0.30878
 Alpha  occ. eigenvalues --   -0.30875  -0.30391  -0.30388  -0.29504  -0.29502
 Alpha  occ. eigenvalues --   -0.29341  -0.29321  -0.29174  -0.29168  -0.28973
 Alpha  occ. eigenvalues --   -0.28955  -0.28893  -0.28711  -0.28690  -0.28645
 Alpha  occ. eigenvalues --   -0.28162  -0.27994  -0.27954  -0.27881  -0.27847
 Alpha  occ. eigenvalues --   -0.27687  -0.27444  -0.27286  -0.26882  -0.26734
 Alpha  occ. eigenvalues --   -0.26728  -0.26390  -0.26019  -0.25786  -0.25779
 Alpha  occ. eigenvalues --   -0.25682  -0.25538  -0.25366  -0.25348  -0.24869
 Alpha  occ. eigenvalues --   -0.24861  -0.24052
 Alpha virt. eigenvalues --   -0.09501  -0.09495  -0.09343  -0.09334  -0.09333
 Alpha virt. eigenvalues --   -0.09313  -0.09240  -0.09233  -0.07558  -0.07550
 Alpha virt. eigenvalues --   -0.07114  -0.06383  -0.06364  -0.06291  -0.06235
 Alpha virt. eigenvalues --   -0.06196  -0.06040  -0.06026  -0.05924  -0.05836
 Alpha virt. eigenvalues --   -0.05784  -0.05757  -0.05754  -0.05586  -0.05568
 Alpha virt. eigenvalues --   -0.05400  -0.05381  -0.05007  -0.04704  -0.04490
 Alpha virt. eigenvalues --   -0.04156  -0.03791  -0.03161  -0.03144  -0.03107
 Alpha virt. eigenvalues --   -0.02897  -0.02874  -0.02824  -0.02791  -0.02461
 Alpha virt. eigenvalues --   -0.02424  -0.02410  -0.00563  -0.00488  -0.00455
 Alpha virt. eigenvalues --   -0.00373  -0.00344  -0.00246  -0.00124   0.00102
 Alpha virt. eigenvalues --    0.01510   0.01584   0.02365   0.02411   0.03451
 Alpha virt. eigenvalues --    0.03741   0.04300   0.04452   0.04620   0.04660
 Alpha virt. eigenvalues --    0.04750   0.04765   0.04838   0.04909   0.05110
 Alpha virt. eigenvalues --    0.05141   0.05277   0.05417   0.05478   0.05865
 Alpha virt. eigenvalues --    0.05948   0.06091   0.06192   0.06217   0.06434
 Alpha virt. eigenvalues --    0.06550   0.06742   0.06765   0.06829   0.06895
 Alpha virt. eigenvalues --    0.06978   0.07095   0.07329   0.07390   0.07555
 Alpha virt. eigenvalues --    0.07569   0.07677   0.07719   0.07829   0.07882
 Alpha virt. eigenvalues --    0.07899   0.07940   0.08023   0.08311   0.08372
 Alpha virt. eigenvalues --    0.08504   0.08542   0.08724   0.08960   0.09203
 Alpha virt. eigenvalues --    0.09258   0.09314   0.09335   0.09410   0.09510
 Alpha virt. eigenvalues --    0.09936   0.09959   0.10103   0.10227   0.10229
 Alpha virt. eigenvalues --    0.10406   0.10481   0.10524   0.10572   0.10638
 Alpha virt. eigenvalues --    0.10784   0.10794   0.10883   0.10962   0.11191
 Alpha virt. eigenvalues --    0.11278   0.11500   0.11737   0.12069   0.12130
 Alpha virt. eigenvalues --    0.12330   0.12583   0.12710   0.12875   0.12912
 Alpha virt. eigenvalues --    0.12958   0.13138   0.13199   0.13349   0.13646
 Alpha virt. eigenvalues --    0.13675   0.13750   0.13996   0.14228   0.14241
 Alpha virt. eigenvalues --    0.14346   0.14400   0.14445   0.14458   0.14601
 Alpha virt. eigenvalues --    0.14733   0.14760   0.14799   0.14840   0.14931
 Alpha virt. eigenvalues --    0.14940   0.15010   0.15105   0.15144   0.15267
 Alpha virt. eigenvalues --    0.15285   0.15352   0.15424   0.15522   0.15682
 Alpha virt. eigenvalues --    0.15685   0.15836   0.15911   0.15985   0.16059
 Alpha virt. eigenvalues --    0.16172   0.16284   0.16316   0.16427   0.16433
 Alpha virt. eigenvalues --    0.16584   0.16604   0.16653   0.16721   0.16737
 Alpha virt. eigenvalues --    0.16794   0.16872   0.16939   0.16972   0.17146
 Alpha virt. eigenvalues --    0.17158   0.17187   0.17335   0.17360   0.17460
 Alpha virt. eigenvalues --    0.17467   0.17531   0.17597   0.18054   0.18118
 Alpha virt. eigenvalues --    0.18451   0.18632   0.18930   0.19098   0.19337
 Alpha virt. eigenvalues --    0.19346   0.19451   0.19462   0.19580   0.19586
 Alpha virt. eigenvalues --    0.19697   0.19746   0.19917   0.19976   0.20311
 Alpha virt. eigenvalues --    0.20403   0.20572   0.20589   0.20693   0.21110
 Alpha virt. eigenvalues --    0.21226   0.21301   0.21555   0.21741   0.21890
 Alpha virt. eigenvalues --    0.21943   0.21972   0.22314   0.22974   0.23085
 Alpha virt. eigenvalues --    0.23107   0.23718   0.23730   0.23815   0.23874
 Alpha virt. eigenvalues --    0.23911   0.23992   0.24024   0.24034   0.24143
 Alpha virt. eigenvalues --    0.24213   0.24226   0.24242   0.24342   0.24353
 Alpha virt. eigenvalues --    0.24438   0.24620   0.24684   0.24764   0.24898
 Alpha virt. eigenvalues --    0.24941   0.25054   0.25223   0.25312   0.25338
 Alpha virt. eigenvalues --    0.25439   0.25450   0.25695   0.25724   0.25778
 Alpha virt. eigenvalues --    0.25796   0.25950   0.26171   0.26295   0.26303
 Alpha virt. eigenvalues --    0.26356   0.26549   0.26659   0.26773   0.26820
 Alpha virt. eigenvalues --    0.26933   0.26960   0.27130   0.27220   0.27239
 Alpha virt. eigenvalues --    0.27303   0.27371   0.27432   0.27578   0.27580
 Alpha virt. eigenvalues --    0.27723   0.27750   0.27904   0.28072   0.28134
 Alpha virt. eigenvalues --    0.28326   0.28363   0.28447   0.28550   0.28737
 Alpha virt. eigenvalues --    0.28794   0.28845   0.29003   0.29091   0.29228
 Alpha virt. eigenvalues --    0.29251   0.29265   0.29363   0.29423   0.29476
 Alpha virt. eigenvalues --    0.29490   0.29776   0.29829   0.29848   0.30101
 Alpha virt. eigenvalues --    0.30192   0.30261   0.30346   0.30352   0.30438
 Alpha virt. eigenvalues --    0.30478   0.30561   0.30704   0.30841   0.30997
 Alpha virt. eigenvalues --    0.31121   0.31224   0.31317   0.31323   0.31510
 Alpha virt. eigenvalues --    0.31609   0.31817   0.31890   0.31954   0.32137
 Alpha virt. eigenvalues --    0.32351   0.32384   0.32513   0.32537   0.32815
 Alpha virt. eigenvalues --    0.32966   0.32971   0.33127   0.33216   0.33240
 Alpha virt. eigenvalues --    0.33338   0.33483   0.33494   0.33580   0.33777
 Alpha virt. eigenvalues --    0.33901   0.33948   0.33982   0.34129   0.34201
 Alpha virt. eigenvalues --    0.34276   0.34329   0.34414   0.34573   0.34697
 Alpha virt. eigenvalues --    0.34784   0.34918   0.34951   0.35017   0.35140
 Alpha virt. eigenvalues --    0.35178   0.35247   0.35290   0.35676   0.35688
 Alpha virt. eigenvalues --    0.35868   0.35930   0.36054   0.36094   0.36142
 Alpha virt. eigenvalues --    0.36257   0.36350   0.36485   0.36585   0.36723
 Alpha virt. eigenvalues --    0.36791   0.36838   0.36898   0.37034   0.37106
 Alpha virt. eigenvalues --    0.37335   0.37430   0.37535   0.37620   0.37683
 Alpha virt. eigenvalues --    0.37789   0.37846   0.37969   0.38158   0.38306
 Alpha virt. eigenvalues --    0.38356   0.38373   0.38498   0.38541   0.38587
 Alpha virt. eigenvalues --    0.38792   0.38881   0.38997   0.39013   0.39107
 Alpha virt. eigenvalues --    0.39174   0.39256   0.39337   0.39382   0.39600
 Alpha virt. eigenvalues --    0.39648   0.39840   0.39916   0.40154   0.40196
 Alpha virt. eigenvalues --    0.40274   0.40390   0.40534   0.40558   0.40579
 Alpha virt. eigenvalues --    0.40692   0.40854   0.41127   0.41137   0.41222
 Alpha virt. eigenvalues --    0.41474   0.41568   0.41899   0.41925   0.41982
 Alpha virt. eigenvalues --    0.42123   0.42274   0.42455   0.42457   0.42629
 Alpha virt. eigenvalues --    0.42644   0.42850   0.42928   0.42946   0.42991
 Alpha virt. eigenvalues --    0.43093   0.43117   0.43138   0.43276   0.43432
 Alpha virt. eigenvalues --    0.43456   0.43602   0.43720   0.43797   0.43865
 Alpha virt. eigenvalues --    0.44029   0.44053   0.44176   0.44211   0.44380
 Alpha virt. eigenvalues --    0.44401   0.44543   0.44708   0.44776   0.44804
 Alpha virt. eigenvalues --    0.44842   0.44954   0.45114   0.45226   0.45245
 Alpha virt. eigenvalues --    0.45300   0.45404   0.45497   0.45560   0.45607
 Alpha virt. eigenvalues --    0.45626   0.45707   0.45802   0.45931   0.45939
 Alpha virt. eigenvalues --    0.46146   0.46272   0.46291   0.46403   0.46430
 Alpha virt. eigenvalues --    0.46506   0.46577   0.46610   0.46699   0.46721
 Alpha virt. eigenvalues --    0.46783   0.46860   0.46887   0.46918   0.47097
 Alpha virt. eigenvalues --    0.47128   0.47146   0.47365   0.47378   0.47449
 Alpha virt. eigenvalues --    0.47486   0.47627   0.47651   0.47802   0.47832
 Alpha virt. eigenvalues --    0.47968   0.47977   0.48124   0.48192   0.48228
 Alpha virt. eigenvalues --    0.48360   0.48399   0.48449   0.48677   0.48768
 Alpha virt. eigenvalues --    0.48906   0.48914   0.48963   0.49044   0.49097
 Alpha virt. eigenvalues --    0.49245   0.49330   0.49411   0.49462   0.49584
 Alpha virt. eigenvalues --    0.49626   0.49697   0.49831   0.49881   0.49995
 Alpha virt. eigenvalues --    0.50434   0.50502   0.50507   0.50527   0.50623
 Alpha virt. eigenvalues --    0.50689   0.50733   0.51070   0.51104   0.51190
 Alpha virt. eigenvalues --    0.51285   0.51394   0.51589   0.51825   0.51867
 Alpha virt. eigenvalues --    0.51963   0.51973   0.52062   0.52126   0.52393
 Alpha virt. eigenvalues --    0.52620   0.52625   0.52731   0.52813   0.53028
 Alpha virt. eigenvalues --    0.53144   0.53363   0.53447   0.53622   0.53640
 Alpha virt. eigenvalues --    0.53755   0.53906   0.53997   0.54259   0.54367
 Alpha virt. eigenvalues --    0.54385   0.54558   0.54596   0.54761   0.54931
 Alpha virt. eigenvalues --    0.55112   0.55122   0.55150   0.55264   0.55278
 Alpha virt. eigenvalues --    0.55439   0.55545   0.55576   0.55646   0.55794
 Alpha virt. eigenvalues --    0.55856   0.56012   0.56069   0.56135   0.56157
 Alpha virt. eigenvalues --    0.56416   0.56464   0.56538   0.56836   0.56891
 Alpha virt. eigenvalues --    0.57095   0.57197   0.57236   0.57278   0.57413
 Alpha virt. eigenvalues --    0.57439   0.57650   0.57729   0.57947   0.58060
 Alpha virt. eigenvalues --    0.58073   0.58114   0.58297   0.58421   0.58557
 Alpha virt. eigenvalues --    0.58594   0.58607   0.58717   0.58801   0.58961
 Alpha virt. eigenvalues --    0.59131   0.59182   0.59188   0.59323   0.59677
 Alpha virt. eigenvalues --    0.59778   0.59964   0.60127   0.60172   0.60247
 Alpha virt. eigenvalues --    0.60419   0.60489   0.60533   0.60673   0.60768
 Alpha virt. eigenvalues --    0.61125   0.61265   0.61405   0.61538   0.61580
 Alpha virt. eigenvalues --    0.61666   0.61725   0.61780   0.61879   0.61909
 Alpha virt. eigenvalues --    0.61954   0.62094   0.62104   0.62183   0.62321
 Alpha virt. eigenvalues --    0.62377   0.62662   0.62677   0.62891   0.63021
 Alpha virt. eigenvalues --    0.63121   0.63221   0.63316   0.63545   0.63550
 Alpha virt. eigenvalues --    0.63579   0.63698   0.63775   0.63940   0.64084
 Alpha virt. eigenvalues --    0.64099   0.64245   0.64293   0.64322   0.64426
 Alpha virt. eigenvalues --    0.64524   0.64581   0.64701   0.64718   0.64786
 Alpha virt. eigenvalues --    0.64806   0.64878   0.64936   0.65007   0.65075
 Alpha virt. eigenvalues --    0.65099   0.65161   0.65261   0.65299   0.65307
 Alpha virt. eigenvalues --    0.65334   0.65414   0.65436   0.65451   0.65512
 Alpha virt. eigenvalues --    0.65626   0.65651   0.65718   0.65747   0.65850
 Alpha virt. eigenvalues --    0.65997   0.66009   0.66107   0.66113   0.66224
 Alpha virt. eigenvalues --    0.66309   0.66371   0.66397   0.66461   0.66517
 Alpha virt. eigenvalues --    0.66613   0.66687   0.66742   0.66791   0.66850
 Alpha virt. eigenvalues --    0.66918   0.66974   0.67033   0.67081   0.67186
 Alpha virt. eigenvalues --    0.67233   0.67275   0.67415   0.67456   0.67514
 Alpha virt. eigenvalues --    0.67572   0.67601   0.67641   0.67717   0.67790
 Alpha virt. eigenvalues --    0.67907   0.67930   0.68078   0.68276   0.68359
[...]
 Alpha virt. eigenvalues --    3.49023   3.49300   3.52334   3.52366   3.52386
 Alpha virt. eigenvalues --    3.52490   3.54303   3.54341   3.54549   3.54738
 Alpha virt. eigenvalues --    3.60242   3.60412   3.60551   3.61069   3.63217
 Alpha virt. eigenvalues --    3.63290   3.63577   3.63646   3.64924   3.65064
 Alpha virt. eigenvalues --    3.65310   3.65478   3.74144   3.74415   3.74709
 Alpha virt. eigenvalues --    3.74786   3.80663   3.81006   3.81247   3.82017
 Alpha virt. eigenvalues --   51.70266  51.70314
          Condensed to atoms (all electrons):
 Mulliken charges:
               1
     1  Pd   0.462856
     2  Pd   0.462350
     3  C   -0.031643
     4  C    0.027132
     5  C   -0.013261
     6  C    0.032265
     7  C   -0.016435
     8  C    0.004065
     9  C   -0.003663
    10  C   -0.065132
    11  C   -0.014880
    12  C   -0.009904
    13  C   -0.098729
    14  C   -0.026170
    15  C    0.032927
    16  C   -0.087540
    17  C    0.022213
    18  C   -0.048165
    19  C    0.022429
    20  C   -0.086988
    21  C    0.032612
    22  C   -0.026203
    23  C   -0.098014
    24  C    0.008254
    25  C   -0.002987
    26  C   -0.065774
    27  C    0.032232
    28  C   -0.012872
    29  C    0.026999
    30  C   -0.031525
    31  C    0.138218
    32  N   -0.332230
    33  C    0.153245
    34  C   -0.003631
    35  C    0.004088
    36  C   -0.016408
    37  C   -0.014673
    38  C   -0.009957
    39  C    0.016131
    40  C    0.008677
    41  C   -0.002945
    42  C    0.153405
    43  N   -0.332378
    44  C    0.138342
    45  H    0.060390
    46  H    0.047271
    47  H    0.060432
    48  H    0.047273
    49  H    0.049707
    50  H    0.042974
    51  H    0.040578
    52  H    0.052024
    53  H    0.040427
    54  H    0.040136
    55  H    0.042481
    56  H    0.060437
    57  H    0.106393
    58  H    0.102643
    59  H    0.047268
    60  H    0.060396
    61  H    0.047288
    62  H    0.049402
    63  H    0.043115
    64  H    0.024914
    65  H    0.040201
    66  H    0.042415
    67  H    0.102884
    68  H    0.106295
    69  C   -0.030145
    70  C    0.031879
    71  C   -0.015179
    72  C    0.035507
    73  C   -0.019115
    74  C    0.004015
    75  C   -0.004751
    76  C   -0.059935
    77  C   -0.030688
    78  C    0.001282
    79  C   -0.092165
    80  C   -0.014581
    81  C    0.005844
    82  C   -0.099598
    83  C    0.015002
    84  C   -0.035700
    85  C    0.014844
    86  C   -0.100019
    87  C    0.006488
    88  C   -0.015211
    89  C   -0.091560
    90  C    0.010179
    91  C   -0.002623
    92  C   -0.058678
    93  C    0.036044
    94  C   -0.015081
    95  C    0.031848
    96  C   -0.029893
    97  C    0.133955
    98  N   -0.332455
    99  C    0.147822
   100  C   -0.004861
   101  C    0.004120
   102  C   -0.019562
   103  C   -0.031213
   104  C    0.001179
   105  C    0.047475
   106  C    0.010389
   107  C   -0.001869
   108  C    0.148203
   109  N   -0.332760
   110  C    0.134227
   111  H    0.060136
   112  H    0.046438
   113  H    0.060441
   114  H    0.047058
   115  H    0.053048
   116  H    0.041796
   117  H    0.041574
   118  H    0.058898
   119  H    0.041410
   120  H    0.041166
   121  H    0.042119
   122  H    0.060143
   123  H    0.106920
   124  H    0.112134
   125  H    0.047067
   126  H    0.060412
   127  H    0.046558
   128  H    0.053137
   129  H    0.042035
   130  H    0.034345
   131  H    0.041104
   132  H    0.042068
   133  H    0.112433
   134  H    0.106869
   135  C   -0.030569
   136  C    0.030034
   137  C   -0.024980
   138  C    0.052988
   139  C   -0.021160
   140  C    0.002968
   141  C   -0.005286
   142  C   -0.059134
   143  C   -0.028760
   144  C    0.010800
   145  C   -0.079415
   146  C   -0.035722
   147  C    0.019467
   148  C   -0.061521
   149  C    0.010244
   150  C    0.000940
   151  C    0.010097
   152  C   -0.061838
   153  C    0.020036
   154  C   -0.036136
   155  C   -0.079333
   156  C   -0.002531
   157  C   -0.003409
   158  C   -0.058425
   159  C    0.052810
   160  C   -0.024155
   161  C    0.029728
   162  C   -0.030732
   163  C    0.132184
   164  N   -0.328560
   165  C    0.142041
   166  C   -0.005157
   167  C    0.002985
   168  C   -0.021398
   169  C   -0.028488
   170  C    0.010592
   171  C    0.023495
   172  C   -0.002493
   173  C   -0.002969
   174  C    0.142201
   175  N   -0.328624
   176  C    0.131958
   177  H    0.060488
   178  H    0.046255
   179  H    0.060332
   180  H    0.046955
   181  H    0.048526
   182  H    0.025000
   183  H    0.029851
   184  H    0.034667
   185  H    0.030383
   186  H    0.040035
   187  H    0.041243
   188  H    0.060355
   189  H    0.100938
   190  H    0.119108
   191  H    0.046945
   192  H    0.060388
   193  H    0.046296
   194  H    0.048528
   195  H    0.024748
   196  H    0.028331
   197  H    0.040103
   198  H    0.041219
   199  H    0.119744
   200  H    0.100992
   201  C   -0.031358
   202  C    0.029374
   203  C   -0.018170
   204  C    0.043875
   205  C   -0.026821
   206  C    0.005939
   207  C   -0.005855
   208  C   -0.030194
   209  C   -0.037154
   210  C    0.013733
   211  C   -0.102329
   212  C   -0.039343
   213  C    0.033702
   214  C   -0.079803
   215  C    0.017915
   216  C   -0.032910
   217  C    0.017517
   218  C   -0.079582
   219  C    0.033496
   220  C   -0.039006
   221  C   -0.102156
   222  C    0.014342
   223  C   -0.017431
   224  C   -0.029704
   225  C    0.043702
   226  C   -0.017854
   227  C    0.029441
   228  C   -0.031374
   229  C    0.138721
   230  N   -0.327926
   231  C    0.140433
   232  C   -0.005809
   233  C    0.005993
   234  C   -0.026968
   235  C   -0.036534
   236  C    0.013352
   237  C    0.036847
   238  C    0.014466
   239  C   -0.016988
   240  C    0.141025
   241  N   -0.328483
   242  C    0.138646
   243  H    0.060214
   244  H    0.047971
   245  H    0.059867
   246  H    0.047136
   247  H    0.051798
   248  H    0.028725
   249  H    0.034801
   250  H    0.046281
   251  H    0.034736
   252  H    0.039030
   253  H    0.041787
   254  H    0.060133
   255  H    0.106832
   256  H    0.104557
   257  H    0.047084
   258  H    0.059827
   259  H    0.047964
   260  H    0.051506
   261  H    0.029209
   262  H    0.027096
   263  H    0.039095
   264  H    0.041852
   265  H    0.104960
   266  H    0.106930
 Sum of Mulliken charges =   4.00000
 Mulliken charges with hydrogens summed into heavy atoms:
               1
     1  Pd   0.462856
     2  Pd   0.462350
     3  C    0.028747
     4  C    0.027132
     5  C   -0.013261
     6  C    0.032265
     7  C    0.030835
     8  C    0.064497
     9  C    0.043609
    10  C   -0.065132
    11  C    0.034827
    12  C    0.033070
    13  C   -0.098729
    14  C   -0.026170
    15  C    0.032927
    16  C   -0.087540
    17  C    0.062791
    18  C    0.003859
    19  C    0.062855
    20  C   -0.086988
    21  C    0.032612
    22  C   -0.026203
    23  C   -0.098014
    24  C    0.048390
    25  C    0.039494
    26  C   -0.065774
    27  C    0.032232
    28  C   -0.012872
    29  C    0.026999
    30  C    0.028912
    31  C    0.244611
    32  N   -0.332230
    33  C    0.255888
    34  C    0.043637
    35  C    0.064484
    36  C    0.030880
    37  C    0.034729
    38  C    0.033158
    39  C    0.041045
    40  C    0.048878
    41  C    0.039470
    42  C    0.256289
    43  N   -0.332378
    44  C    0.244636
    69  C    0.029990
    70  C    0.031879
    71  C   -0.015179
    72  C    0.035507
    73  C    0.027323
    74  C    0.064456
    75  C    0.042307
    76  C   -0.059935
    77  C    0.022360
    78  C    0.043078
    79  C   -0.092165
    80  C   -0.014581
    81  C    0.005844
    82  C   -0.099598
    83  C    0.056576
    84  C    0.023198
    85  C    0.056254
    86  C   -0.100019
    87  C    0.006488
    88  C   -0.015211
    89  C   -0.091560
    90  C    0.051345
    91  C    0.039497
    92  C   -0.058678
    93  C    0.036044
    94  C   -0.015081
    95  C    0.031848
    96  C    0.030249
    97  C    0.240875
    98  N   -0.332455
    99  C    0.259955
   100  C    0.042206
   101  C    0.064532
   102  C    0.026997
   103  C    0.021924
   104  C    0.043214
   105  C    0.081821
   106  C    0.051494
   107  C    0.040199
   108  C    0.260636
   109  N   -0.332760
   110  C    0.241096
   135  C    0.029919
   136  C    0.030034
   137  C   -0.024980
   138  C    0.052988
   139  C    0.025095
   140  C    0.063300
   141  C    0.041669
   142  C   -0.059134
   143  C    0.019766
   144  C    0.035800
   145  C   -0.079415
   146  C   -0.035722
   147  C    0.019467
   148  C   -0.061521
   149  C    0.040095
   150  C    0.035607
   151  C    0.040480
   152  C   -0.061838
   153  C    0.020036
   154  C   -0.036136
   155  C   -0.079333
   156  C    0.037504
   157  C    0.037834
   158  C   -0.058425
   159  C    0.052810
   160  C   -0.024155
   161  C    0.029728
   162  C    0.029623
   163  C    0.233123
   164  N   -0.328560
   165  C    0.261149
   166  C    0.041788
   167  C    0.063373
   168  C    0.024898
   169  C    0.020039
   170  C    0.035341
   171  C    0.051826
   172  C    0.037610
   173  C    0.038250
   174  C    0.261945
   175  N   -0.328624
   176  C    0.232950
   201  C    0.028857
   202  C    0.029374
   203  C   -0.018170
   204  C    0.043875
   205  C    0.021150
   206  C    0.065805
   207  C    0.041282
   208  C   -0.030194
   209  C    0.014644
   210  C    0.042458
   211  C   -0.102329
   212  C   -0.039343
   213  C    0.033702
   214  C   -0.079803
   215  C    0.052716
   216  C    0.013371
   217  C    0.052252
   218  C   -0.079582
   219  C    0.033496
   220  C   -0.039006
   221  C   -0.102156
   222  C    0.053372
   223  C    0.024356
   224  C   -0.029704
   225  C    0.043702
   226  C   -0.017854
   227  C    0.029441
   228  C    0.028759
   229  C    0.245553
   230  N   -0.327926
   231  C    0.244990
   232  C    0.041275
   233  C    0.065820
   234  C    0.020997
   235  C    0.014971
   236  C    0.042561
   237  C    0.063943
   238  C    0.053560
   239  C    0.024863
   240  C    0.245985
   241  N   -0.328483
   242  C    0.245576
 Electronic spatial extent (au):  <R**2>=         329399.3250
 Charge=              4.0000 electrons
 Dipole moment (field-independent basis, Debye):
    X=              0.0322    Y=              2.2056    Z=              4.8994  Tot=              5.3730
 Quadrupole moment (field-independent basis, Debye-Ang):
   XX=           1161.3935   YY=           -666.4897   ZZ=           -753.5125
   XY=              0.4105   XZ=              0.1216   YZ=              8.6282
 Traceless Quadrupole moment (field-independent basis, Debye-Ang):
   XX=           1247.5964   YY=           -580.2868   ZZ=           -667.3096
   XY=              0.4105   XZ=              0.1216   YZ=              8.6282
 Octapole moment (field-independent basis, Debye-Ang**2):
  XXX=             18.9219  YYY=            251.3178  ZZZ=            243.8368  XYY=              6.8546
  XXY=            589.9990  XXZ=            488.2528  XZZ=             -9.0206  YZZ=            -46.1053
  YYZ=             46.0545  XYZ=              1.9551
 Hexadecapole moment (field-independent basis, Debye-Ang**3):
 XXXX=         -90370.2964 YYYY=         -47872.3468 ZZZZ=         -42925.7534 XXXY=             56.5668
 XXXZ=             84.4764 YYYX=              8.3672 YYYZ=           -464.4685 ZZZX=             -0.9164
 ZZZY=           1098.2859 XXYY=         -40348.7210 XXZZ=         -47473.1265 YYZZ=         -12358.1240
 XXYZ=           -470.0271 YYXZ=             -7.0163 ZZXY=             13.0681
 N-N= 4.243655858677D+04 E-N=-1.003919997987D+05  KE= 6.606581146129D+03
 Unable to Open any file for archive entry.
 1\1\GINC-CX3-14-14\SP\RPBE1PBE\def2SVP\C160H96N8Pd2(4+)\VPOSLIGU\02-Ju
 n-2023\0\\# SP PBE1PBE/def2svp empiricaldispersion=GD3BJ scrf=(solvent
 =dmso)\\m2_lc\\4,1\Pd,0,10.6096,0.136,0.2227\Pd,0,-10.6019,0.125,0.237
 9\C,0,-11.3278,-2.2948,3.6466\C,0,-10.2443,-3.2049,3.6952\C,0,-9.198,-
 3.0495,2.7335\C,0,-8.0789,-3.9398,2.7384\C,0,-8.074,-4.9741,3.6545\C,0
 ,-9.1143,-5.133,4.5974\C,0,-10.1753,-4.2589,4.6353\C,0,-6.9346,-3.7739
 ,1.8113\C,0,-6.1371,-2.6198,1.8508\C,0,-4.9969,-2.5202,1.0631\C,0,-4.6
 302,-3.5664,0.1977\C,0,-3.4473,-3.4661,-0.5937\C,0,-2.4331,-3.3686,-1.
 2611\C,0,-1.2145,-3.2522,-1.9971\C,0,-1.2082,-2.9528,-3.3705\C,0,0.002
 7,-2.8166,-4.0455\C,0,1.2147,-2.9526,-3.3726\C,0,1.2234,-3.2522,-1.999
 2\C,0,2.4438,-3.3702,-1.2666\C,0,3.4598,-3.4695,-0.6024\C,0,4.6462,-3.
 5735,0.1832\C,0,5.4674,-4.7112,0.1029\C,0,6.6023,-4.8166,0.8979\C,0,6.
 9604,-3.7886,1.7817\C,0,8.111,-3.9596,2.6999\C,0,9.2265,-3.0649,2.6972
 \C,0,10.2794,-3.2263,3.6506\C,0,11.3589,-2.3113,3.6047\C,0,11.3957,-1.
 3379,2.643\N,0,10.4134,-1.2314,1.7042\C,0,9.3724,-2.0482,1.7327\C,0,10
 .2206,-4.2903,4.58\C,0,9.1629,-5.1685,4.5394\C,0,8.116,-5.0037,3.6048\
 C,0,6.1574,-2.6389,1.8392\C,0,5.0123,-2.5358,1.059\C,0,0.0051,-3.4182,
 -1.3272\C,0,-5.4462,-4.7091,0.1352\C,0,-6.5763,-4.8106,0.9376\C,0,-9.3
 538,-2.043,1.7599\N,0,-10.3978,-1.23,1.73\C,0,-11.3743,-1.3313,2.6754\
 H,0,-12.1371,-2.3651,4.3746\H,0,-7.2311,-5.6683,3.6679\H,0,-9.0608,-5.
 9566,5.3123\H,0,-10.9727,-4.371,5.3722\H,0,-6.3805,-1.8094,2.5435\H,0,
 -4.3611,-1.637,1.1404\H,0,-2.1545,-2.8188,-3.8972\H,0,0.0019,-2.5823,-
 5.112\H,0,2.16,-2.819,-3.901\H,0,5.2021,-5.5193,-0.5807\H,0,7.2233,-5.
 7131,0.8357\H,0,12.1731,-2.3858,4.3269\H,0,12.2162,-0.6221,2.5786\H,0,
 8.6203,-1.9287,0.9495\H,0,11.023,-4.4069,5.3107\H,0,9.1172,-5.9998,5.2
 457\H,0,7.2756,-5.701,3.6166\H,0,6.401,-1.8353,2.5397\H,0,4.3727,-1.65
 67,1.1499\H,0,0.0061,-3.6629,-0.2649\H,0,-5.1807,-5.5238,-0.5404\H,0,-
 7.1933,-5.7105,0.89\H,0,-8.6069,-1.9283,0.9712\H,0,-12.1979,-0.6193,2.
 6095\C,0,-11.5076,3.5937,2.5357\C,0,-10.3431,3.8231,3.3091\C,0,-9.2508
 ,2.916,3.1518\C,0,-8.0457,3.0987,3.8985\C,0,-7.9923,4.1407,4.8038\C,0,
 -9.077,5.032,4.9664\C,0,-10.2293,4.892,4.2279\C,0,-6.8847,2.1983,3.713
 9\C,0,-6.2538,2.0768,2.4656\C,0,-5.1357,1.2666,2.3115\C,0,-4.621,0.549
 8,3.4071\C,0,-3.4479,-0.2495,3.2641\C,0,-2.4381,-0.9187,3.1405\C,0,-1.
 222,-1.6477,2.9772\C,0,-1.2217,-2.9942,2.5734\C,0,-0.0138,-3.6602,2.37
 89\C,0,1.1999,-3.003,2.5668\C,0,1.2121,-1.6567,2.9709\C,0,2.4336,-0.93
 57,3.1301\C,0,3.446,-0.2702,3.2525\C,0,4.6211,0.5256,3.3989\C,0,5.2598
 ,0.6297,4.6467\C,0,6.3723,1.447,4.8007\C,0,6.8853,2.172,3.7167\C,0,8.0
 454,3.072,3.9085\C,0,9.2507,2.8985,3.1598\C,0,10.3417,3.8058,3.3259\C,
 0,11.5072,3.585,2.5516\C,0,11.5715,2.5213,1.6919\N,0,10.5362,1.6432,1.
 5721\C,0,9.4305,1.817,2.2762\C,0,10.2262,4.8656,4.2548\C,0,9.0736,4.99
 68,4.9947\C,0,7.9906,4.1051,4.8239\C,0,6.2569,2.0551,2.4665\C,0,5.1386
 ,1.2461,2.3071\C,0,-0.002,-0.9903,3.1829\C,0,-5.2622,0.6588,4.6532\C,0
 ,-6.3749,1.4769,4.8016\C,0,-9.4282,1.8264,2.2778\N,0,-10.5328,1.6445,1
 .574\C,0,-11.5696,2.5225,1.6851\H,0,-12.3621,4.2671,2.6164\H,0,-7.082,
 4.2938,5.3873\H,0,-8.9868,5.8508,5.6832\H,0,-11.0616,5.5885,4.3445\H,0
 ,-6.6144,2.6581,1.6123\H,0,-4.6301,1.2135,1.3456\H,0,-2.17,-3.5085,2.4
 08\H,0,-0.0187,-4.7087,2.0726\H,0,2.1437,-3.5239,2.396\H,0,4.8698,0.07
 11,5.4992\H,0,6.8574,1.5221,5.7762\H,0,12.3609,4.2585,2.6393\H,0,12.45
 36,2.3283,1.0796\H,0,8.6422,1.0707,2.1594\H,0,11.0574,5.5622,4.3783\H,
 0,8.9823,5.8085,5.7193\H,0,7.0804,4.2505,5.4096\H,0,6.6192,2.6396,1.61
 62\H,0,4.6346,1.1975,1.3402\H,0,0.0026,0.0589,3.4805\H,0,-4.8746,0.102
 8,5.5084\H,0,-6.8631,1.5546,5.7754\H,0,-8.6382,1.0807,2.1679\H,0,-12.4
 502,2.325,1.072\C,0,-12.1497,2.8379,-2.6437\C,0,-11.1191,3.8001,-2.791
 4\C,0,-9.8618,3.5254,-2.1733\C,0,-8.7677,4.438,-2.3084\C,0,-8.993,5.62
 65,-2.975\C,0,-10.247,5.9125,-3.5617\C,0,-11.2874,5.0133,-3.4986\C,0,-
 7.4301,4.0816,-1.7882\C,0,-6.8348,2.8746,-2.1909\C,0,-5.5739,2.5218,-1
 .7397\C,0,-4.8598,3.3681,-0.8706\C,0,-3.5595,2.9507,-0.4635\C,0,-2.468
 ,2.4612,-0.2305\C,0,-1.2224,1.7899,-0.0634\C,0,-1.2131,0.3864,0.0309\C
 ,0,-0.0075,-0.2997,0.0929\C,0,1.1984,0.3865,0.0364\C,0,1.2081,1.7899,-
 0.0577\C,0,2.4541,2.4621,-0.2187\C,0,3.5455,2.9541,-0.4463\C,0,4.8463,
 3.375,-0.8485\C,0,5.4367,4.5806,-0.4322\C,0,6.7044,4.935,-0.8857\C,0,7
 .4164,4.0994,-1.7581\C,0,8.7522,4.4651,-2.2765\C,0,9.8505,3.5557,-2.15
 39\C,0,11.1065,3.8449,-2.7683\C,0,12.1437,2.8887,-2.629\C,0,11.951,1.7
 66,-1.8674\N,0,10.7751,1.5516,-1.2131\C,0,9.768,2.3954,-1.3621\C,0,11.
 2684,5.067,-3.4616\C,0,10.2234,5.9616,-3.5136\C,0,8.9717,5.6628,-2.928
 7\C,0,6.8226,2.8954,-2.172\C,0,5.5618,2.5373,-1.7248\C,0,-0.0071,2.488
 5,-0.0877\C,0,-5.4512,4.5773,-0.4662\C,0,-6.719,4.9263,-0.9237\C,0,-9.
 7726,2.3754,-1.3671\N,0,-10.7736,1.5259,-1.2112\C,0,-11.9485,1.724,-1.
 8718\H,0,-13.1148,2.9876,-3.13\H,0,-8.1746,6.341,-3.0861\H,0,-10.3784,
 6.8569,-4.0938\H,0,-12.2452,5.2266,-3.9768\H,0,-7.3548,2.2219,-2.897\H
 ,0,-5.1095,1.597,-2.0787\H,0,-2.1571,-0.1599,0.0382\H,0,-0.0077,-1.385
 6,0.1704\H,0,2.1425,-0.1597,0.0483\H,0,4.8978,5.2398,0.2505\H,0,7.1547
 ,5.8717,-0.5492\H,0,13.1081,3.0514,-3.1122\H,0,12.7327,1.017,-1.732\H,
 0,8.8559,2.1856,-0.8001\H,0,12.2251,5.2908,-3.9371\H,0,10.3496,6.9128,
 -4.035\H,0,8.1502,6.3754,-3.0285\H,0,7.343,2.2497,-2.8844\H,0,5.0983,1
 .6152,-2.0723\H,0,-0.0071,3.5748,-0.1814\H,0,-4.9134,5.2433,0.2109\H,0
 ,-7.1705,5.8653,-0.5953\H,0,-8.8603,2.1789,-0.8006\H,0,-12.7233,0.9686
 ,-1.7332\C,0,-11.6902,-3.3609,-1.9102\C,0,-10.5933,-3.6277,-2.7654\C,0
 ,-9.4772,-2.7346,-2.723\C,0,-8.3322,-2.9769,-3.5476\C,0,-8.3733,-4.053
 2,-4.4151\C,0,-9.486,-4.9205,-4.4712\C,0,-10.5744,-4.7281,-3.6527\C,0,
 -7.1176,-2.1341,-3.4834\C,0,-6.4533,-1.9014,-2.2688\C,0,-5.2715,-1.173
 4,-2.2338\C,0,-4.7118,-0.658,-3.4154\C,0,-3.4888,0.0761,-3.3806\C,0,-2
 .451,0.7134,-3.3578\C,0,-1.2241,1.4437,-3.3687\C,0,-1.2199,2.8469,-3.4
 509\C,0,-0.012,3.5379,-3.4809\C,0,1.1989,2.8525,-3.4415\C,0,1.2089,1.4
 492,-3.3604\C,0,2.4386,0.7236,-3.3443\C,0,3.4773,0.0879,-3.3651\C,0,4.
 7002,-0.6463,-3.4025\C,0,5.3613,-0.8774,-4.6217\C,0,6.5425,-1.6067,-4.
 6547\C,0,7.1047,-2.1241,-3.4783\C,0,8.318,-2.9684,-3.5464\C,0,9.4701,-
 2.7223,-2.7328\C,0,10.5853,-3.6162,-2.78\C,0,11.6899,-3.3451,-1.9364\C
 ,0,11.6779,-2.2483,-1.1184\N,0,10.6277,-1.3801,-1.1147\C,0,9.579,-1.59
 52,-1.8923\C,0,10.558,-4.7219,-3.6606\C,0,9.4624,-4.9185,-4.4683\C,0,8
 .3509,-4.0499,-4.4078\C,0,6.4492,-1.8834,-2.2605\C,0,5.2679,-1.1548,-2
 .2217\C,0,-0.0062,0.7536,-3.3119\C,0,-5.3816,-0.8812,-4.6313\C,0,-6.56
 33,-1.6098,-4.6606\C,0,-9.5787,-1.611,-1.877\N,0,-10.6208,-1.3993,-1.0
 896\C,0,-11.6704,-2.2683,-1.0869\H,0,-12.5543,-4.0266,-1.9021\H,0,-7.5
 087,-4.2558,-5.0505\H,0,-9.4663,-5.7646,-5.1636\H,0,-11.4273,-5.4088,-
 3.6784\H,0,-6.8352,-2.3398,-1.3431\H,0,-4.7538,-1.018,-1.2872\H,0,-2.1
 682,3.3859,-3.4852\H,0,-0.0139,4.6284,-3.5388\H,0,2.1447,3.3962,-3.467
 6\H,0,4.9378,-0.4821,-5.5465\H,0,7.0444,-1.7748,-5.6099\H,0,12.5538,-4
 .011,-1.9327\H,0,12.5064,-2.021,-0.4459\H,0,8.7817,-0.8492,-1.8704\H,0
 ,11.4104,-5.403,-3.6899\H,0,9.436,-5.7667,-5.1554\H,0,7.4808,-4.2556,-
 5.0346\H,0,6.8375,-2.3166,-1.3351\H,0,4.7568,-0.9937,-1.2723\H,0,-0.00
 39,-0.3333,-3.2397\H,0,-4.9646,-0.4799,-5.5565\H,0,-7.0721,-1.7719,-5.
 6132\H,0,-8.7822,-0.8642,-1.8602\H,0,-12.4927,-2.0448,-0.4055\\Version
 =ES64L-G16RevC.01\State=1-A\HF=-6836.0602647\RMSD=2.829e-09\Dipole=0.0
 126546,0.8677478,1.9275547\Quadrupole=927.5573228,-431.4290057,-496.12
 83171,0.3051534,0.0904139,6.4148804\PG=C01 [X(C160H96N8Pd2)]\\@
 The archive entry for this job was punched.


 SCIENCE IS LONG AND LIFE IS SHORT.

                     DON MOSER IN THE FEBRUARY 1979 SMITHSONIAN
 Job cpu time:       2 days 19 hours 29 minutes 44.7 seconds.
 Elapsed time:       0 days  1 hours 27 minutes 55.1 seconds.
 File lengths (MBytes):  RWF=   9168 Int=      0 D2E=      0 Chk=    496 Scr=     16
 Normal termination of Gaussian 16 at Fri Jun  2 08:35:52 2023.
