 Entering Gaussian System, Link 0=g16
 Input=cis_l2_lb_FINAL.com
 Output=cis_l2_lb_FINAL.log
 Initial command:
 /apps/gaussian/g16-c01-avx/g16/l1.exe "/rds/general/user/vposligu/home/work/Pd2L4_cages/New_Cages/opt/PBE0-def2svp-solvent/SP_FINAL/cis_l2_lb/Gau-3728480.inp" -scrdir="/rds/general/user/vposligu/home/work/Pd2L4_cages/New_Cages/opt/PBE0-def2svp-solvent/SP_FINAL/cis_l2_lb/"
 Entering Link 1 = /apps/gaussian/g16-c01-avx/g16/l1.exe PID=   3728481.
  
 Copyright (c) 1988-2019, Gaussian, Inc.  All Rights Reserved.
  
 This is part of the Gaussian(R) 16 program.  It is based on
 the Gaussian(R) 09 system (copyright 2009, Gaussian, Inc.),
 the Gaussian(R) 03 system (copyright 2003, Gaussian, Inc.),
 the Gaussian(R) 98 system (copyright 1998, Gaussian, Inc.),
 the Gaussian(R) 94 system (copyright 1995, Gaussian, Inc.),
 the Gaussian 92(TM) system (copyright 1992, Gaussian, Inc.),
 the Gaussian 90(TM) system (copyright 1990, Gaussian, Inc.),
 the Gaussian 88(TM) system (copyright 1988, Gaussian, Inc.),
 the Gaussian 86(TM) system (copyright 1986, Carnegie Mellon
 University), and the Gaussian 82(TM) system (copyright 1983,
 Carnegie Mellon University). Gaussian is a federally registered
 trademark of Gaussian, Inc.
  
 This software contains proprietary and confidential information,
 including trade secrets, belonging to Gaussian, Inc.
  
 This software is provided under written license and may be
 used, copied, transmitted, or stored only in accord with that
 written license.
  
 The following legend is applicable only to US Government
 contracts under FAR:
  
                    RESTRICTED RIGHTS LEGEND
  
 Use, reproduction and disclosure by the US Government is
 subject to restrictions as set forth in subparagraphs (a)
 and (c) of the Commercial Computer Software - Restricted
 Rights clause in FAR 52.227-19.
  
 Gaussian, Inc.
 340 Quinnipiac St., Bldg. 40, Wallingford CT 06492
  
  
 ---------------------------------------------------------------
 Warning -- This program may not be used in any manner that
 competes with the business of Gaussian, Inc. or will provide
 assistance to any competitor of Gaussian, Inc.  The licensee
 of this program is prohibited from giving any competitor of
 Gaussian, Inc. access to this program.  By using this program,
 the user acknowledges that Gaussian, Inc. is engaged in the
 business of creating and licensing software in the field of
 computational chemistry and represents and warrants to the
 licensee that it is not a competitor of Gaussian, Inc. and that
 it will not use this program in any manner prohibited above.
 ---------------------------------------------------------------
  

 Cite this work as:
 Gaussian 16, Revision C.01,
 M. J. Frisch, G. W. Trucks, H. B. Schlegel, G. E. Scuseria, 
 M. A. Robb, J. R. Cheeseman, G. Scalmani, V. Barone, 
 G. A. Petersson, H. Nakatsuji, X. Li, M. Caricato, A. V. Marenich, 
 J. Bloino, B. G. Janesko, R. Gomperts, B. Mennucci, H. P. Hratchian, 
 J. V. Ortiz, A. F. Izmaylov, J. L. Sonnenberg, D. Williams-Young, 
 F. Ding, F. Lipparini, F. Egidi, J. Goings, B. Peng, A. Petrone, 
 T. Henderson, D. Ranasinghe, V. G. Zakrzewski, J. Gao, N. Rega, 
 G. Zheng, W. Liang, M. Hada, M. Ehara, K. Toyota, R. Fukuda, 
 J. Hasegawa, M. Ishida, T. Nakajima, Y. Honda, O. Kitao, H. Nakai, 
 T. Vreven, K. Throssell, J. A. Montgomery, Jr., J. E. Peralta, 
 F. Ogliaro, M. J. Bearpark, J. J. Heyd, E. N. Brothers, K. N. Kudin, 
 V. N. Staroverov, T. A. Keith, R. Kobayashi, J. Normand, 
 K. Raghavachari, A. P. Rendell, J. C. Burant, S. S. Iyengar, 
 J. Tomasi, M. Cossi, J. M. Millam, M. Klene, C. Adamo, R. Cammi, 
 J. W. Ochterski, R. L. Martin, K. Morokuma, O. Farkas, 
 J. B. Foresman, and D. J. Fox, Gaussian, Inc., Wallingford CT, 2019.
 
 ******************************************
 Gaussian 16:  ES64L-G16RevC.01  3-Jul-2019
                 2-Jun-2023 
 ******************************************
 %chk=cis_l2_lb_FINAL.chk
 %nprocshared=48
 Will use up to   48 processors via shared memory.
 %mem=120GB
 ------------------------------------------------------------------
 # SP PBE1PBE/def2svp empiricaldispersion=GD3BJ scrf=(solvent=dmso)
 ------------------------------------------------------------------
 1/38=1,172=1/1;
 2/12=2,17=6,18=5,40=1/2;
 3/5=43,7=101,11=2,25=1,30=1,70=2201,72=21,74=-13,124=41/1,2,3;
 4//1;
 5/5=2,38=5,53=21/2;
 6/7=2,8=2,9=2,10=2,28=1/1;
 99/5=1,9=1/99;
 ---------
 cis_l2_lb
 ---------
 Symbolic Z-matrix:
 Charge =  4 Multiplicity = 1
 Pd                   -6.101    -2.3355    0.2751 
 Pd                    6.0752   -2.4507    0.168 
 C                     0.0001   -4.9075    5.6304 
 C                     1.2109   -4.5499    5.0418 
 C                     1.2233   -3.7407    3.8978 
 C                     0.007    -3.3049    3.3615 
 C                    -1.2142   -3.6872    3.9272 
 C                    -1.2076   -4.4933    5.0739 
 C                    -2.4675   -3.2881    3.2574 
 C                    -2.5876   -2.0407    2.6281 
 C                    -3.7168   -1.7541    1.8817 
 N                    -4.7168   -2.6366    1.7394 
 C                    -4.6569   -3.8064    2.3916 
 C                    -3.5595   -4.1613    3.1605 
 C                     2.4761   -3.3847    3.203 
 C                     2.6446   -2.1187    2.625 
 C                     3.7681   -1.8577    1.8613 
 N                     4.7145   -2.7847    1.6493 
 C                     4.6077   -3.9796    2.2473 
 C                     3.5147   -4.31      3.0341 
 H                    -0.0024   -5.5212    6.5334 
 H                     2.151    -4.8875    5.4834 
 H                     0.0097   -2.7179    2.4407 
 H                    -2.1494   -4.7869    5.5424 
 H                    -1.8005   -1.2898    2.7045 
 H                    -3.8196   -0.7992    1.3613 
 H                    -5.5016   -4.4861    2.2605 
 H                    -3.5404   -5.1452    3.6307 
 H                     1.9005   -1.3325    2.7572 
 H                     3.9095   -0.8853    1.3841 
 H                     5.4085   -4.6977    2.0596 
 H                     3.4547   -5.3111    3.463 
 C                    -0.083    -6.6535   -3.9532 
 C                     1.1342   -6.0945   -3.571 
 C                     1.1591   -4.9395   -2.7772 
 C                    -0.0532   -4.3631   -2.3837 
 C                    -1.2795   -4.9336   -2.7407 
 C                    -1.2855   -6.0899   -3.5324 
 C                    -2.522    -4.3297   -2.2211 
 C                    -2.6477   -2.939    -2.0981 
 C                    -3.7621   -2.4025   -1.4792 
 N                    -4.7419   -3.1747   -0.9865 
 C                    -4.6769   -4.5033   -1.1537 
 C                    -3.5938   -5.1117   -1.77 
 C                     2.4203   -4.3486   -2.2883 
 C                     2.5563   -2.9615   -2.1349 
 C                     3.6906   -2.4439   -1.5356 
 N                     4.6817   -3.232    -1.0933 
 C                     4.6077   -4.5553   -1.296 
 C                     3.5037   -5.1446   -1.8926 
 H                    -0.0947   -7.5432   -4.5859 
 H                     2.0689   -6.5504   -3.9045 
 H                    -0.042    -3.4924   -1.7252 
 H                    -2.2328   -6.5416   -3.8349 
 H                    -1.8766   -2.2655   -2.4734 
 H                    -3.8656   -1.3232   -1.3514 
 H                    -5.5034   -5.0925   -0.7511 
 H                    -3.5688   -6.1998   -1.8411 
 H                     1.7771   -2.2757   -2.4689 
 H                     3.8008   -1.3683   -1.3818 
 H                     5.4454   -5.157    -0.9376 
 H                     3.4734   -6.2304   -1.99 
 C                    -9.4194   -2.4966   -2.3993 
 C                    -8.4801   -2.7999   -1.4497 
 N                    -7.4188   -1.98     -1.2181 
 C                    -7.279    -0.8609   -1.9037 
 C                    -8.2065   -0.44     -2.8777 
 C                    -8.0417    0.7842   -3.599 
 C                    -6.9032    1.684    -3.3035 
 C                    -6.7007    2.2062   -2.016 
 C                    -5.5972    3.0018   -1.7362 
 C                    -4.6607    3.295    -2.7427 
 C                    -3.4963    4.0717   -2.4649 
 C                    -2.4789    4.7105   -2.2672 
 C                    -1.277     5.4721   -2.0808 
 N                    -0.1194    4.8101   -2.1831 
 C                     1.0203    5.4986   -2.0456 
 C                     2.2411    4.7644   -2.1855 
 C                     3.2771    4.1431   -2.3406 
 C                     4.4536    3.3754   -2.5716 
 C                     5.7363    3.9091   -2.3531 
 C                     6.8693    3.1482   -2.6164 
 C                     6.7571    1.8362   -3.0981 
 C                     7.956     1.0229   -3.4007 
 C                     8.9414    1.4851   -4.2521 
 C                     10.0418   0.6739   -4.6109 
 C                     10.1677  -0.6108   -4.1329 
 C                     9.2032   -1.1174   -3.2302 
 C                     9.2721   -2.4172   -2.667 
 C                     8.337    -2.8232   -1.7515 
 N                     7.343    -1.9891   -1.3405 
 C                     7.2318   -0.7812   -1.8606 
 C                     8.1091   -0.2866   -2.8452 
 C                     5.4742    1.3058   -3.3152 
 C                     4.3393    2.0592   -3.0567 
 C                     1.0493    6.8824   -1.8006 
 C                    -0.1585    7.5606   -1.6979 
 C                    -1.347     6.8528   -1.8344 
 C                    -4.8777    2.7971   -4.0396 
 C                    -5.9867    2.0072   -4.3131 
 C                    -8.9545    1.0827   -4.5919 
 C                    -10.0442   0.2268   -4.8703 
 C                    -10.2333  -0.9387   -4.1636 
 C                    -9.3112   -1.3007   -3.1532 
 H                    -10.251   -3.181    -2.574 
 H                    -8.5339   -3.7091   -0.8489 
 H                    -6.395    -0.2581   -1.6883 
 H                    -7.4206    1.9938   -1.2216 
 H                    -5.4528    3.3989   -0.7303 
 H                     5.8374    4.927    -1.9731 
 H                     7.859     3.5717   -2.4315 
 H                     8.8487    2.4829   -4.6862 
 H                     10.79     1.0731   -5.299 
 H                     11.0053  -1.2432   -4.4335 
 H                     10.0769  -3.096    -2.9534 
 H                     8.3578   -3.8158   -1.3 
 H                     6.4354   -0.1444   -1.4739 
 H                     5.3646    0.295    -3.7154 
 H                     3.3493    1.6385   -3.2416 
 H                     2.0039    7.3995   -1.6973 
 H                    -0.1742    8.6356   -1.5098 
 H                    -2.3165    7.3462   -1.7561 
 H                    -4.1601    3.0248   -4.8298 
 H                    -6.132     1.6081   -5.3194 
 H                    -8.8437    2.0099   -5.1582 
 H                    -10.7501   0.5073   -5.655 
 H                    -11.0815  -1.5928   -4.3745 
 C                    -9.3817   -1.4531    2.832 
 C                    -8.43     -2.0922    2.0847 
 N                    -7.3877   -1.4111    1.5352 
 C                    -7.2462   -0.1163    1.7532 
 C                    -8.139     0.6262    2.5547 
 C                    -7.9621    2.0246    2.8094 
 C                    -6.7385    2.7556    2.4124 
 C                    -5.462     2.2445    2.703 
 C                    -4.3185    2.9798    2.4253 
 C                    -4.4155    4.264     1.8583 
 C                    -3.2393    5.0411    1.6573 
 C                    -2.213     5.6898    1.561 
 C                    -0.9959    6.4436    1.5277 
 N                     0.1426    5.7419    1.4939 
 C                     1.3016    6.4105    1.5056 
 C                     2.4967    5.6218    1.5195 
 C                     3.5053    4.9441    1.5994 
 C                     4.6618    4.133     1.7814 
 C                     4.5472    2.8946    2.4399 
 C                     5.6752    2.1311    2.7034 
 C                     6.9507    2.5713    2.3117 
 C                     8.1614    1.8046    2.6799 
 C                     9.213     2.4349    3.3204 
 C                     10.3451   1.7176    3.7648 
 C                     10.4386   0.3569    3.5847 
 C                     9.4049   -0.3299    2.906 
 C                     9.4454   -1.7244    2.6555 
 C                     8.4455   -2.3237    1.9379 
 N                     7.4088   -1.6019    1.431 
 C                     7.3207   -0.3055    1.666 
 C                     8.2728    0.3996    2.4307 
 C                     7.0581    3.7931    1.6303 
 C                     5.9341    4.5657    1.3678 
 C                     1.3722    7.8138    1.5444 
 C                     0.184     8.5339    1.5783 
 C                    -1.0249    7.8485    1.5694 
 C                    -5.6902    4.7721    1.5485 
 C                    -6.8292    4.025     1.8197 
 C                    -8.962     2.6883    3.4987 
 C                    -10.1044   2.0147    3.9815 
 C                    -10.2582   0.6604    3.797 
 C                    -9.2783   -0.0608    3.0757 
 H                    -10.2238  -2.0186    3.2339 
 H                    -8.4735   -3.1628    1.8805 
 H                    -6.4078    0.3794    1.2608 
 H                    -5.3603    1.2752    3.1962 
 H                    -3.3362    2.5762    2.677 
 H                     3.5657    2.5511    2.7714 
 H                     5.5666    1.1978    3.2608 
 H                     9.1489    3.5063    3.5216 
 H                     11.1445   2.2555    4.2788 
 H                     11.3022  -0.2015    3.9509 
 H                     10.2799  -2.3236    3.0231 
 H                     8.4449   -3.3931    1.7234 
 H                     6.481     0.2258    1.2134 
 H                     8.0397    4.1418    1.3021 
 H                     6.0355    5.5194    0.8469 
 H                     2.3421    8.3125    1.5531 
 H                     0.1999    9.6252    1.611 
 H                    -1.9795    8.3751    1.5965 
 H                    -5.78      5.7614    1.0964 
 H                    -7.8104    4.4326    1.5673 
 H                    -8.8455    3.753     3.7113 
 H                    -10.8603   2.5802    4.5306 
 H                    -11.127    0.1324    4.1943 
 
 Stoichiometry    C110H70N10Pd2(4+)
 Framework group  C1[X(C110H70N10Pd2)]
 Deg. of freedom   570
 Full point group                 C1      NOp   1
 Largest Abelian subgroup         C1      NOp   1
 Largest concise Abelian subgroup C1      NOp   1
                         Standard orientation:                         
 ---------------------------------------------------------------------
 Center     Atomic      Atomic             Coordinates (Angstroms)
 Number     Number       Type             X           Y           Z
 ---------------------------------------------------------------------
      1         46           0        6.101005   -2.335490   -0.275104
      2         46           0       -6.075195   -2.450716   -0.168004
      3          6           0       -0.000090   -4.907503   -5.630404
      4          6           0       -1.210890   -4.549905   -5.041804
      5          6           0       -1.223292   -3.740705   -3.897804
      6          6           0       -0.006993   -3.304903   -3.361504
      7          6           0        1.214208   -3.687200   -3.927204
      8          6           0        1.207610   -4.493300   -5.073904
      9          6           0        2.467507   -3.288097   -3.257404
     10          6           0        2.587604   -2.040697   -2.628104
     11          6           0        3.716804   -1.754095   -1.881704
     12          7           0        4.716806   -2.636593   -1.739404
     13          6           0        4.656908   -3.806393   -2.391604
     14          6           0        3.559509   -4.161295   -3.160504
     15          6           0       -2.476093   -3.384708   -3.203004
     16          6           0       -2.644596   -2.118709   -2.625004
     17          6           0       -3.768096   -1.857711   -1.861304
     18          7           0       -4.714494   -2.784713   -1.649304
     19          6           0       -4.607692   -3.979613   -2.247304
     20          6           0       -3.514691   -4.310010   -3.034104
     21          1           0        0.002412   -5.521203   -6.533404
     22          1           0       -2.150990   -4.887507   -5.483404
     23          1           0       -0.009694   -2.717903   -2.440704
     24          1           0        2.149410   -4.786898   -5.542404
     25          1           0        1.800503   -1.289799   -2.704504
     26          1           0        3.819602   -0.799195   -1.361304
     27          1           0        5.501610   -4.486091   -2.260504
     28          1           0        3.540411   -5.145195   -3.630704
     29          1           0       -1.900497   -1.332507   -2.757204
     30          1           0       -3.909498   -0.885311   -1.384104
     31          1           0       -5.408490   -4.697715   -2.059604
     32          1           0       -3.454689   -5.311110   -3.463004
     33          6           0        0.083014   -6.653503    3.953196
     34          6           0       -1.134187   -6.094505    3.570996
     35          6           0       -1.159089   -4.939505    2.777196
     36          6           0        0.053209   -4.363103    2.383696
     37          6           0        1.279510   -4.933600    2.740696
     38          6           0        1.285513   -6.089900    3.532396
     39          6           0        2.522009   -4.329697    2.221096
     40          6           0        2.647706   -2.938997    2.098096
     41          6           0        3.762105   -2.402495    1.479196
     42          7           0        4.741907   -3.174693    0.986496
     43          6           0        4.676910   -4.503293    1.153696
     44          6           0        3.593811   -5.111695    1.769996
     45          6           0       -2.420291   -4.348608    2.288296
     46          6           0       -2.556294   -2.961508    2.134896
     47          6           0       -3.690595   -2.443911    1.535596
     48          7           0       -4.681693   -3.232013    1.093296
     49          6           0       -4.607690   -4.555313    1.295996
     50          6           0       -3.503689   -5.144610    1.892596
     51          1           0        0.094716   -7.543203    4.585896
     52          1           0       -2.068886   -6.550407    3.904496
     53          1           0        0.042007   -3.492403    1.725196
     54          1           0        2.232814   -6.541598    3.834896
     55          1           0        1.876605   -2.265499    2.473396
     56          1           0        3.865603   -1.323194    1.351396
     57          1           0        5.503411   -5.092491    0.751096
     58          1           0        3.568813   -6.199795    1.841096
     59          1           0       -1.777095   -2.275707    2.468896
     60          1           0       -3.800797   -1.368311    1.381796
     61          1           0       -5.445389   -5.157015    0.937596
     62          1           0       -3.473387   -6.230410    1.989996
     63          6           0        9.419405   -2.496582    2.399296
     64          6           0        8.480106   -2.799884    1.449696
     65          7           0        7.418804   -1.979987    1.218096
     66          6           0        7.279002   -0.860887    1.903696
     67          6           0        8.206501   -0.439985    2.877696
     68          6           0        8.041698    0.784215    3.598996
     69          6           0        6.903196    1.684012    3.303496
     70          6           0        6.700695    2.206212    2.015996
     71          6           0        5.597193    3.001809    1.736196
     72          6           0        4.660693    3.295007    2.742696
     73          6           0        3.496291    4.071705    2.464896
     74          6           0        2.478890    4.710503    2.267196
     75          6           0        1.276988    5.472100    2.080796
     76          7           0        0.119389    4.810097    2.183096
     77          6           0       -1.020312    5.498595    2.045596
     78          6           0       -2.241111    4.764392    2.185496
     79          6           0       -3.277109    4.143090    2.340596
     80          6           0       -4.453608    3.375388    2.571596
     81          6           0       -5.736309    3.909085    2.353096
     82          6           0       -6.869307    3.148182    2.616396
     83          6           0       -6.757104    1.836183    3.098096
     84          6           0       -7.956002    1.022880    3.400696
     85          6           0       -8.941403    1.485078    4.252096
     86          6           0      -10.041802    0.673875    4.610896
     87          6           0      -10.167699   -0.610825    4.132896
     88          6           0       -9.203198   -1.117423    3.230196
     89          6           0       -9.272095   -2.417223    2.666996
     90          6           0       -8.336994   -2.823221    1.751496
     91          7           0       -7.342996   -1.989119    1.340496
     92          6           0       -7.231799   -0.781219    1.860596
     93          6           0       -8.109100   -0.286620    2.845196
     94          6           0       -5.474203    1.305785    3.315196
     95          6           0       -4.339305    2.059188    3.056696
     96          6           0       -1.049315    6.882395    1.800596
     97          6           0        0.158483    7.560598    1.697896
     98          6           0        1.346985    6.852800    1.834396
     99          6           0        4.877694    2.797108    4.039596
    100          6           0        5.986695    2.007210    4.313096
    101          6           0        8.954497    1.082717    4.591896
    102          6           0       10.044199    0.226819    4.870296
    103          6           0       10.233302   -0.938681    4.163596
    104          6           0        9.311203   -1.300683    3.153196
    105          1           0       10.251007   -3.180981    2.573996
    106          1           0        8.533908   -3.709084    0.848896
    107          1           0        6.395000   -0.258089    1.688296
    108          1           0        7.420595    1.993813    1.221596
    109          1           0        5.452792    3.398909    0.730296
    110          1           0       -5.837411    4.926985    1.973096
    111          1           0       -7.859008    3.571680    2.431496
    112          1           0       -8.848706    2.482878    4.686196
    113          1           0      -10.790003    1.073074    5.298996
    114          1           0      -11.005298   -1.243227    4.433496
    115          1           0      -10.076893   -3.096025    2.953396
    116          1           0       -8.357792   -3.815821    1.299996
    117          1           0       -6.435400   -0.144417    1.473896
    118          1           0       -5.364601    0.294986    3.715396
    119          1           0       -3.349304    1.638490    3.241596
    120          1           0       -2.003916    7.399493    1.697296
    121          1           0        0.174181    8.635598    1.509796
    122          1           0        2.316484    7.346202    1.756096
    123          1           0        4.160093    3.024806    4.829796
    124          1           0        6.131996    1.608111    5.319396
    125          1           0        8.843695    2.009916    5.158196
    126          1           0       10.750099    0.507321    5.654996
    127          1           0       11.081503   -1.592779    4.374496
    128          6           0        9.381703   -1.453082   -2.832004
    129          6           0        8.430004   -2.092184   -2.084704
    130          7           0        7.387703   -1.411087   -1.535204
    131          6           0        7.246200   -0.116287   -1.753204
    132          6           0        8.138998    0.626215   -2.554704
    133          6           0        7.962095    2.024614   -2.809404
    134          6           0        6.738494    2.755612   -2.412404
    135          6           0        5.461995    2.244509   -2.703004
    136          6           0        4.318493    2.979807   -2.425304
    137          6           0        4.415491    4.264007   -1.858304
    138          6           0        3.239289    5.041104   -1.657304
    139          6           0        2.212987    5.689802   -1.561004
    140          6           0        0.995886    6.443599   -1.527704
    141          7           0       -0.142613    5.741897   -1.493904
    142          6           0       -1.301614    6.410494   -1.505604
    143          6           0       -2.496712    5.621792   -1.519504
    144          6           0       -3.505311    4.944090   -1.599404
    145          6           0       -4.661809    4.132987   -1.781404
    146          6           0       -4.547207    2.894587   -2.439904
    147          6           0       -5.675205    2.131085   -2.703404
    148          6           0       -6.950706    2.571282   -2.311704
    149          6           0       -8.161404    1.804579   -2.679904
    150          6           0       -9.213006    2.434877   -3.320404
    151          6           0      -10.345104    1.717575   -3.764804
    152          6           0      -10.438601    0.356875   -3.584704
    153          6           0       -9.404900   -0.329923   -2.906004
    154          6           0       -9.445396   -1.724423   -2.655504
    155          6           0       -8.445495   -2.323721   -1.937904
    156          7           0       -7.408797   -1.601919   -1.431004
    157          6           0       -7.320700   -0.305519   -1.666004
    158          6           0       -8.272801    0.399579   -2.430704
    159          6           0       -7.058108    3.793082   -1.630304
    160          6           0       -5.934110    4.565684   -1.367804
    161          6           0       -1.372217    7.813794   -1.544404
    162          6           0       -0.184019    8.533897   -1.578304
    163          6           0        1.024883    7.848499   -1.569404
    164          6           0        5.690189    4.772110   -1.548504
    165          6           0        6.829191    4.025012   -1.819704
    166          6           0        8.961994    2.688317   -3.498704
    167          6           0       10.104395    2.014719   -3.981504
    168          6           0       10.258198    0.660419   -3.797004
    169          6           0        9.278300   -0.060783   -3.075704
    170          1           0       10.223804   -2.018581   -3.233904
    171          1           0        8.473507   -3.162784   -1.880504
    172          1           0        6.407799    0.379411   -1.260804
    173          1           0        5.360297    1.275209   -3.196204
    174          1           0        3.336194    2.576204   -2.677004
    175          1           0       -3.565706    2.551089   -2.771404
    176          1           0       -5.566603    1.197785   -3.260804
    177          1           0       -9.148908    3.506277   -3.521604
    178          1           0      -11.144505    2.255473   -4.278804
    179          1           0      -11.302200   -0.201527   -3.950904
    180          1           0      -10.279895   -2.323625   -3.023104
    181          1           0       -8.444893   -3.393121   -1.723404
    182          1           0       -6.481001    0.225783   -1.213404
    183          1           0       -8.039709    4.141780   -1.302104
    184          1           0       -6.035512    5.519384   -0.846904
    185          1           0       -2.342118    8.312492   -1.553104
    186          1           0       -0.199921    9.625197   -1.611004
    187          1           0        1.979482    8.375101   -1.596504
    188          1           0        5.779987    5.761410   -1.096404
    189          1           0        7.810390    4.432614   -1.567304
    190          1           0        8.845492    3.753016   -3.711304
    191          1           0       10.860294    2.580221   -4.530604
    192          1           0       11.126999    0.132421   -4.194304
 ---------------------------------------------------------------------
 Rotational constants (GHZ):           0.0148251           0.0067518           0.0058859
 Standard basis: def2SVP (5D, 7F)
 There are  2222 symmetry adapted cartesian basis functions of A   symmetry.
 There are  2092 symmetry adapted basis functions of A   symmetry.
  2092 basis functions,  3620 primitive gaussians,  2222 cartesian basis functions
   416 alpha electrons      416 beta electrons
       nuclear repulsion energy     24804.0790331108 Hartrees.
 NAtoms=  192 NActive=  192 NUniq=  192 SFac= 1.00D+00 NAtFMM=   60 NAOKFM=T Big=T
 Integral buffers will be    131072 words long.
 Raffenetti 2 integral format.
 Two-electron integral symmetry is turned on.
 Nuclear repulsion after empirical dispersion term =    24803.7555426373 Hartrees.
 ------------------------------------------------------------------------------
 Polarizable Continuum Model (PCM)
 =================================
 Model                : PCM.
 Atomic radii         : UFF (Universal Force Field).
 Polarization charges : Total charges.
 Charge compensation  : None.
 Solution method      : On-the-fly selection.
 Cavity type          : Scaled VdW (van der Waals Surface) (Alpha=1.100).
 Cavity algorithm     : GePol (No added spheres)
                        Default sphere list used, NSphG=  192.
                        Lebedev-Laikov grids with approx.  5.0 points / Ang**2.
                        Smoothing algorithm: York/Karplus (Gamma=1.0000).
                        Polarization charges: spherical gaussians, with
                                              point-specific exponents (IZeta= 3).
                        Self-potential: point-specific (ISelfS= 7).
                        Self-field    : sphere-specific E.n sum rule (ISelfD= 2).
 Solvent              : DiMethylSulfoxide, Eps=  46.826000 Eps(inf)=   2.007889
 ------------------------------------------------------------------------------
 One-electron integrals computed using PRISM.
   1 Symmetry operations used in ECPInt.
 ECPInt:  NShTT=  453628 NPrTT= 1673506 LenC2=  228023 LenP2D=  471568.
 LDataN:  DoStor=T MaxTD1= 7 Len=  274
 NBasis=  2092 RedAO= T EigKep=  2.32D-04  NBF=  2092
 NBsUse=  2092 1.00D-06 EigRej= -1.00D+00 NBFU=  2092
 Defaulting to unpruned grid for atomic number  46.
 ExpMin= 3.70D-02 ExpMax= 1.71D+03 ExpMxC= 2.58D+02 IAcc=3 IRadAn=         5 AccDes= 0.00D+00
 Harris functional with IExCor= 1009 and IRadAn=       5 diagonalized for initial guess.
 HarFok:  IExCor= 1009 AccDes= 0.00D+00 IRadAn=         5 IDoV= 1 UseB2=F ITyADJ=14
 ICtDFT=  3500011 ScaDFX=  1.000000  1.000000  1.000000  1.000000
 Defaulting to unpruned grid for atomic number  46.
 FoFCou: FMM=F IPFlag=           0 FMFlag=      100000 FMFlg1=        2001
         NFxFlg=           0 DoJE=T BraDBF=F KetDBF=T FulRan=T
         wScrn=  0.000000 ICntrl=       500 IOpCl=  0 I1Cent=   200000004 NGrid=           0
         NMat0=    1 NMatS0=      1 NMatT0=    0 NMatD0=    1 NMtDS0=    0 NMtDT0=    0
 Petite list used in FoFCou.
 Requested convergence on RMS density matrix=1.00D-08 within 128 cycles.
 Requested convergence on MAX density matrix=1.00D-06.
 Requested convergence on             energy=1.00D-06.
 No special actions if energy rises.
 Defaulting to unpruned grid for atomic number  46.
 Defaulting to unpruned grid for atomic number  46.
 Defaulting to unpruned grid for atomic number  46.
 Defaulting to unpruned grid for atomic number  46.
 Defaulting to unpruned grid for atomic number  46.
 Defaulting to unpruned grid for atomic number  46.
 Defaulting to unpruned grid for atomic number  46.
 Defaulting to unpruned grid for atomic number  46.
 Defaulting to unpruned grid for atomic number  46.
 Defaulting to unpruned grid for atomic number  46.
 Defaulting to unpruned grid for atomic number  46.
 Defaulting to unpruned grid for atomic number  46.
 Defaulting to unpruned grid for atomic number  46.
 Defaulting to unpruned grid for atomic number  46.
 Defaulting to unpruned grid for atomic number  46.
 Defaulting to unpruned grid for atomic number  46.
 Defaulting to unpruned grid for atomic number  46.
 Defaulting to unpruned grid for atomic number  46.
 Defaulting to unpruned grid for atomic number  46.
 Defaulting to unpruned grid for atomic number  46.
 Defaulting to unpruned grid for atomic number  46.
 Defaulting to unpruned grid for atomic number  46.
 Defaulting to unpruned grid for atomic number  46.
 Defaulting to unpruned grid for atomic number  46.
 Defaulting to unpruned grid for atomic number  46.
 Defaulting to unpruned grid for atomic number  46.
 Defaulting to unpruned grid for atomic number  46.
 Defaulting to unpruned grid for atomic number  46.
 Defaulting to unpruned grid for atomic number  46.
 Defaulting to unpruned grid for atomic number  46.
 Defaulting to unpruned grid for atomic number  46.
 Defaulting to unpruned grid for atomic number  46.
 Defaulting to unpruned grid for atomic number  46.
 Defaulting to unpruned grid for atomic number  46.
 Defaulting to unpruned grid for atomic number  46.
 Defaulting to unpruned grid for atomic number  46.
 Defaulting to unpruned grid for atomic number  46.
 Defaulting to unpruned grid for atomic number  46.
 Defaulting to unpruned grid for atomic number  46.
 Defaulting to unpruned grid for atomic number  46.
 Defaulting to unpruned grid for atomic number  46.
 Defaulting to unpruned grid for atomic number  46.
 Defaulting to unpruned grid for atomic number  46.
 Defaulting to unpruned grid for atomic number  46.
 Defaulting to unpruned grid for atomic number  46.
 Defaulting to unpruned grid for atomic number  46.
 Defaulting to unpruned grid for atomic number  46.
 Defaulting to unpruned grid for atomic number  46.
 Inv3:  Mode=1 IEnd=   536752128.
 Iteration    1 A*A^-1 deviation from unit magnitude is 1.12D-14 for  13373.
 Iteration    1 A*A^-1 deviation from orthogonality  is 4.11D-15 for  13373    879.
 Iteration    1 A^-1*A deviation from unit magnitude is 1.13D-14 for  13360.
 Iteration    1 A^-1*A deviation from orthogonality  is 2.49D-12 for   6883   6857.
 EnCoef did   100 forward-backward iterations
 EnCoef did     2 forward-backward iterations
 Restarting incremental Fock formation.
 Error on total polarization charges =  0.02923
 SCF Done:  E(RPBE1PBE) =  -5027.95448104     A.U. after   22 cycles
            NFock= 22  Conv=0.38D-08     -V/T= 2.0436
 Hyperfine terms turned off by default for NAtoms > 100.

 **********************************************************************

            Population analysis using the SCF Density.

 **********************************************************************

 Orbital symmetries:
       Occupied  (A) (A) (A) (A) (A) (A) (A) (A) (A) (A) (A) (A)
                 (A) (A) (A) (A) (A) (A) (A) (A) (A) (A) (A) (A)
                 (A) (A) (A) (A) (A) (A) (A) (A) (A) (A) (A) (A)
                 (A) (A) (A) (A) (A) (A) (A) (A) (A) (A) (A) (A)
                 (A) (A) (A) (A) (A) (A) (A) (A) (A) (A) (A) (A)
                 (A) (A) (A) (A) (A) (A) (A) (A) (A) (A) (A) (A)
                 (A) (A) (A) (A) (A) (A) (A) (A) (A) (A) (A) (A)
                 (A) (A) (A) (A) (A) (A) (A) (A) (A) (A) (A) (A)
                 (A) (A) (A) (A) (A) (A) (A) (A) (A) (A) (A) (A)
                 (A) (A) (A) (A) (A) (A) (A) (A) (A) (A) (A) (A)
                 (A) (A) (A) (A) (A) (A) (A) (A) (A) (A) (A) (A)
                 (A) (A) (A) (A) (A) (A) (A) (A) (A) (A) (A) (A)
                 (A) (A) (A) (A) (A) (A) (A) (A) (A) (A) (A) (A)
                 (A) (A) (A) (A) (A) (A) (A) (A) (A) (A) (A) (A)
                 (A) (A) (A) (A) (A) (A) (A) (A) (A) (A) (A) (A)
                 (A) (A) (A) (A) (A) (A) (A) (A) (A) (A) (A) (A)
                 (A) (A) (A) (A) (A) (A) (A) (A) (A) (A) (A) (A)
                 (A) (A) (A) (A) (A) (A) (A) (A) (A) (A) (A) (A)
                 (A) (A) (A) (A) (A) (A) (A) (A) (A) (A) (A) (A)
                 (A) (A) (A) (A) (A) (A) (A) (A) (A) (A) (A) (A)
                 (A) (A) (A) (A) (A) (A) (A) (A) (A) (A) (A) (A)
                 (A) (A) (A) (A) (A) (A) (A) (A) (A) (A) (A) (A)
                 (A) (A) (A) (A) (A) (A) (A) (A) (A) (A) (A) (A)
                 (A) (A) (A) (A) (A) (A) (A) (A) (A) (A) (A) (A)
                 (A) (A) (A) (A) (A) (A) (A) (A) (A) (A) (A) (A)
                 (A) (A) (A) (A) (A) (A) (A) (A) (A) (A) (A) (A)
                 (A) (A) (A) (A) (A) (A) (A) (A) (A) (A) (A) (A)
                 (A) (A) (A) (A) (A) (A) (A) (A) (A) (A) (A) (A)
                 (A) (A) (A) (A) (A) (A) (A) (A) (A) (A) (A) (A)
                 (A) (A) (A) (A) (A) (A) (A) (A) (A) (A) (A) (A)
                 (A) (A) (A) (A) (A) (A) (A) (A) (A) (A) (A) (A)
                 (A) (A) (A) (A) (A) (A) (A) (A) (A) (A) (A) (A)
                 (A) (A) (A) (A) (A) (A) (A) (A) (A) (A) (A) (A)
                 (A) (A) (A) (A) (A) (A) (A) (A) (A) (A) (A) (A)
                 (A) (A) (A) (A) (A) (A) (A) (A)
       Virtual   (A) (A) (A) (A) (A) (A) (A) (A) (A) (A) (A) (A)
                 (A) (A) (A) (A) (A) (A) (A) (A) (A) (A) (A) (A)
                 (A) (A) (A) (A) (A) (A) (A) (A) (A) (A) (A) (A)
                 (A) (A) (A) (A) (A) (A) (A) (A) (A) (A) (A) (A)
                 (A) (A) (A) (A) (A) (A) (A) (A) (A) (A) (A) (A)
                 (A) (A) (A) (A) (A) (A) (A) (A) (A) (A) (A) (A)
                 (A) (A) (A) (A) (A) (A) (A) (A) (A) (A) (A) (A)
                 (A) (A) (A) (A) (A) (A) (A) (A) (A) (A) (A) (A)
                 (A) (A) (A) (A) (A) (A) (A) (A) (A) (A) (A) (A)
                 (A) (A) (A) (A) (A) (A) (A) (A) (A) (A) (A) (A)
                 (A) (A) (A) (A) (A) (A) (A) (A) (A) (A) (A) (A)
                 (A) (A) (A) (A) (A) (A) (A) (A) (A) (A) (A) (A)
                 (A) (A) (A) (A) (A) (A) (A) (A) (A) (A) (A) (A)
                 (A) (A) (A) (A) (A) (A) (A) (A) (A) (A) (A) (A)
                 (A) (A) (A) (A) (A) (A) (A) (A) (A) (A) (A) (A)
                 (A) (A) (A) (A) (A) (A) (A) (A) (A) (A) (A) (A)
                 (A) (A) (A) (A) (A) (A) (A) (A) (A) (A) (A) (A)
                 (A) (A) (A) (A) (A) (A) (A) (A) (A) (A) (A) (A)
                 (A) (A) (A) (A) (A) (A) (A) (A) (A) (A) (A) (A)
                 (A) (A) (A) (A) (A) (A) (A) (A) (A) (A) (A) (A)
                 (A) (A) (A) (A) (A) (A) (A) (A) (A) (A) (A) (A)
                 (A) (A) (A) (A) (A) (A) (A) (A) (A) (A) (A) (A)
                 (A) (A) (A) (A) (A) (A) (A) (A) (A) (A) (A) (A)
                 (A) (A) (A) (A) (A) (A) (A) (A) (A) (A) (A) (A)
                 (A) (A) (A) (A) (A) (A) (A) (A) (A) (A) (A) (A)
                 (A) (A) (A) (A) (A) (A) (A) (A) (A) (A) (A) (A)
                 (A) (A) (A) (A) (A) (A) (A) (A) (A) (A) (A) (A)
                 (A) (A) (A) (A) (A) (A) (A) (A) (A) (A) (A) (A)
                 (A) (A) (A) (A) (A) (A) (A) (A) (A) (A) (A) (A)
                 (A) (A) (A) (A) (A) (A) (A) (A) (A) (A) (A) (A)
                 (A) (A) (A) (A) (A) (A) (A) (A) (A) (A) (A) (A)
                 (A) (A) (A) (A) (A) (A) (A) (A) (A) (A) (A) (A)
                 (A) (A) (A) (A) (A) (A) (A) (A) (A) (A) (A) (A)
                 (A) (A) (A) (A) (A) (A) (A) (A) (A) (A) (A) (A)
                 (A) (A) (A) (A) (A) (A) (A) (A) (A) (A) (A) (A)
                 (A) (A) (A) (A) (A) (A) (A) (A) (A) (A) (A) (A)
                 (A) (A) (A) (A) (A) (A) (A) (A) (A) (A) (A) (A)
                 (A) (A) (A) (A) (A) (A) (A) (A) (A) (A) (A) (A)
                 (A) (A) (A) (A) (A) (A) (A) (A) (A) (A) (A) (A)
                 (A) (A) (A) (A) (A) (A) (A) (A) (A) (A) (A) (A)
                 (A) (A) (A) (A) (A) (A) (A) (A) (A) (A) (A) (A)
                 (A) (A) (A) (A) (A) (A) (A) (A) (A) (A) (A) (A)
                 (A) (A) (A) (A) (A) (A) (A) (A) (A) (A) (A) (A)
                 (A) (A) (A) (A) (A) (A) (A) (A) (A) (A) (A) (A)
                 (A) (A) (A) (A) (A) (A) (A) (A) (A) (A) (A) (A)
                 (A) (A) (A) (A) (A) (A) (A) (A) (A) (A) (A) (A)
                 (A) (A) (A) (A) (A) (A) (A) (A) (A) (A) (A) (A)
                 (A) (A) (A) (A) (A) (A) (A) (A) (A) (A) (A) (A)
                 (A) (A) (A) (A) (A) (A) (A) (A) (A) (A) (A) (A)
                 (A) (A) (A) (A) (A) (A) (A) (A) (A) (A) (A) (A)
                 (A) (A) (A) (A) (A) (A) (A) (A) (A) (A) (A) (A)
                 (A) (A) (A) (A) (A) (A) (A) (A) (A) (A) (A) (A)
                 (A) (A) (A) (A) (A) (A) (A) (A) (A) (A) (A) (A)
                 (A) (A) (A) (A) (A) (A) (A) (A) (A) (A) (A) (A)
                 (A) (A) (A) (A) (A) (A) (A) (A) (A) (A) (A) (A)
                 (A) (A) (A) (A) (A) (A) (A) (A) (A) (A) (A) (A)
                 (A) (A) (A) (A) (A) (A) (A) (A) (A) (A) (A) (A)
                 (A) (A) (A) (A) (A) (A) (A) (A) (A) (A) (A) (A)
                 (A) (A) (A) (A) (A) (A) (A) (A) (A) (A) (A) (A)
                 (A) (A) (A) (A) (A) (A) (A) (A) (A) (A) (A) (A)
                 (A) (A) (A) (A) (A) (A) (A) (A) (A) (A) (A) (A)
                 (A) (A) (A) (A) (A) (A) (A) (A) (A) (A) (A) (A)
                 (A) (A) (A) (A) (A) (A) (A) (A) (A) (A) (A) (A)
                 (A) (A) (A) (A) (A) (A) (A) (A) (A) (A) (A) (A)
                 (A) (A) (A) (A) (A) (A) (A) (A) (A) (A) (A) (A)
                 (A) (A) (A) (A) (A) (A) (A) (A) (A) (A) (A) (A)
                 (A) (A) (A) (A) (A) (A) (A) (A) (A) (A) (A) (A)
                 (A) (A) (A) (A) (A) (A) (A) (A) (A) (A) (A) (A)
                 (A) (A) (A) (A) (A) (A) (A) (A) (A) (A) (A) (A)
                 (A) (A) (A) (A) (A) (A) (A) (A) (A) (A) (A) (A)
                 (A) (A) (A) (A) (A) (A) (A) (A) (A) (A) (A) (A)
                 (A) (A) (A) (A) (A) (A) (A) (A) (A) (A) (A) (A)
                 (A) (A) (A) (A) (A) (A) (A) (A) (A) (A) (A) (A)
                 (A) (A) (A) (A) (A) (A) (A) (A) (A) (A) (A) (A)
                 (A) (A) (A) (A) (A) (A) (A) (A) (A) (A) (A) (A)
                 (A) (A) (A) (A) (A) (A) (A) (A) (A) (A) (A) (A)
                 (A) (A) (A) (A) (A) (A) (A) (A) (A) (A) (A) (A)
                 (A) (A) (A) (A) (A) (A) (A) (A) (A) (A) (A) (A)
                 (A) (A) (A) (A) (A) (A) (A) (A) (A) (A) (A) (A)
                 (A) (A) (A) (A) (A) (A) (A) (A) (A) (A) (A) (A)
                 (A) (A) (A) (A) (A) (A) (A) (A) (A) (A) (A) (A)
                 (A) (A) (A) (A) (A) (A) (A) (A) (A) (A) (A) (A)
                 (A) (A) (A) (A) (A) (A) (A) (A) (A) (A) (A) (A)
                 (A) (A) (A) (A) (A) (A) (A) (A) (A) (A) (A) (A)
                 (A) (A) (A) (A) (A) (A) (A) (A) (A) (A) (A) (A)
                 (A) (A) (A) (A) (A) (A) (A) (A) (A) (A) (A) (A)
                 (A) (A) (A) (A) (A) (A) (A) (A) (A) (A) (A) (A)
                 (A) (A) (A) (A) (A) (A) (A) (A) (A) (A) (A) (A)
                 (A) (A) (A) (A) (A) (A) (A) (A) (A) (A) (A) (A)
                 (A) (A) (A) (A) (A) (A) (A) (A) (A) (A) (A) (A)
                 (A) (A) (A) (A) (A) (A) (A) (A) (A) (A) (A) (A)
                 (A) (A) (A) (A) (A) (A) (A) (A) (A) (A) (A) (A)
                 (A) (A) (A) (A) (A) (A) (A) (A) (A) (A) (A) (A)
                 (A) (A) (A) (A) (A) (A) (A) (A) (A) (A) (A) (A)
                 (A) (A) (A) (A) (A) (A) (A) (A) (A) (A) (A) (A)
                 (A) (A) (A) (A) (A) (A) (A) (A) (A) (A) (A) (A)
                 (A) (A) (A) (A) (A) (A) (A) (A) (A) (A) (A) (A)
                 (A) (A) (A) (A) (A) (A) (A) (A) (A) (A) (A) (A)
                 (A) (A) (A) (A) (A) (A) (A) (A) (A) (A) (A) (A)
                 (A) (A) (A) (A) (A) (A) (A) (A) (A) (A) (A) (A)
                 (A) (A) (A) (A) (A) (A) (A) (A) (A) (A) (A) (A)
                 (A) (A) (A) (A) (A) (A) (A) (A) (A) (A) (A) (A)
                 (A) (A) (A) (A) (A) (A) (A) (A) (A) (A) (A) (A)
                 (A) (A) (A) (A) (A) (A) (A) (A) (A) (A) (A) (A)
                 (A) (A) (A) (A) (A) (A) (A) (A) (A) (A) (A) (A)
                 (A) (A) (A) (A) (A) (A) (A) (A) (A) (A) (A) (A)
                 (A) (A) (A) (A) (A) (A) (A) (A) (A) (A) (A) (A)
                 (A) (A) (A) (A) (A) (A) (A) (A) (A) (A) (A) (A)
                 (A) (A) (A) (A) (A) (A) (A) (A) (A) (A) (A) (A)
                 (A) (A) (A) (A) (A) (A) (A) (A) (A) (A) (A) (A)
                 (A) (A) (A) (A) (A) (A) (A) (A) (A) (A) (A) (A)
                 (A) (A) (A) (A) (A) (A) (A) (A) (A) (A) (A) (A)
                 (A) (A) (A) (A) (A) (A) (A) (A) (A) (A) (A) (A)
                 (A) (A) (A) (A) (A) (A) (A) (A) (A) (A) (A) (A)
                 (A) (A) (A) (A) (A) (A) (A) (A) (A) (A) (A) (A)
                 (A) (A) (A) (A) (A) (A) (A) (A) (A) (A) (A) (A)
                 (A) (A) (A) (A) (A) (A) (A) (A) (A) (A) (A) (A)
                 (A) (A) (A) (A) (A) (A) (A) (A) (A) (A) (A) (A)
                 (A) (A) (A) (A) (A) (A) (A) (A) (A) (A) (A) (A)
                 (A) (A) (A) (A) (A) (A) (A) (A) (A) (A) (A) (A)
                 (A) (A) (A) (A) (A) (A) (A) (A) (A) (A) (A) (A)
                 (A) (A) (A) (A) (A) (A) (A) (A) (A) (A) (A) (A)
                 (A) (A) (A) (A) (A) (A) (A) (A) (A) (A) (A) (A)
                 (A) (A) (A) (A) (A) (A) (A) (A) (A) (A) (A) (A)
                 (A) (A) (A) (A) (A) (A) (A) (A) (A) (A) (A) (A)
                 (A) (A) (A) (A) (A) (A) (A) (A) (A) (A) (A) (A)
                 (A) (A) (A) (A) (A) (A) (A) (A) (A) (A) (A) (A)
                 (A) (A) (A) (A) (A) (A) (A) (A) (A) (A) (A) (A)
                 (A) (A) (A) (A) (A) (A) (A) (A) (A) (A) (A) (A)
                 (A) (A) (A) (A) (A) (A) (A) (A) (A) (A) (A) (A)
                 (A) (A) (A) (A) (A) (A) (A) (A) (A) (A) (A) (A)
                 (A) (A) (A) (A) (A) (A) (A) (A) (A) (A) (A) (A)
                 (A) (A) (A) (A) (A) (A) (A) (A) (A) (A) (A) (A)
                 (A) (A) (A) (A) (A) (A) (A) (A) (A) (A) (A) (A)
                 (A) (A) (A) (A) (A) (A) (A) (A) (A) (A) (A) (A)
                 (A) (A) (A) (A) (A) (A) (A) (A) (A) (A) (A) (A)
                 (A) (A) (A) (A) (A) (A) (A) (A) (A) (A) (A) (A)
                 (A) (A) (A) (A) (A) (A) (A) (A) (A) (A) (A) (A)
                 (A) (A) (A) (A) (A) (A) (A) (A) (A) (A) (A) (A)
                 (A) (A) (A) (A) (A) (A) (A) (A)
 The electronic state is 1-A.
 Alpha  occ. eigenvalues --  -14.48299 -14.48298 -14.48292 -14.48281 -14.48280
 Alpha  occ. eigenvalues --  -14.48263 -14.48262 -14.48243 -14.41282 -14.41153
 Alpha  occ. eigenvalues --  -10.32288 -10.32282 -10.32173 -10.32139 -10.31910
 Alpha  occ. eigenvalues --  -10.31897 -10.31890 -10.31885 -10.31883 -10.31872
 Alpha  occ. eigenvalues --  -10.31870 -10.31863 -10.31478 -10.31461 -10.31295
 Alpha  occ. eigenvalues --  -10.31288 -10.30884 -10.30884 -10.30880 -10.30868
 Alpha  occ. eigenvalues --  -10.30357 -10.30347 -10.30346 -10.30331 -10.29056
 Alpha  occ. eigenvalues --  -10.29039 -10.29022 -10.29009 -10.28965 -10.28903
 Alpha  occ. eigenvalues --  -10.28796 -10.28793 -10.28781 -10.28645 -10.28618
 Alpha  occ. eigenvalues --  -10.28591 -10.28570 -10.28515 -10.28509 -10.28459
 Alpha  occ. eigenvalues --  -10.28283 -10.28267 -10.28263 -10.28260 -10.28236
 Alpha  occ. eigenvalues --  -10.28235 -10.28212 -10.28202 -10.28091 -10.28082
 Alpha  occ. eigenvalues --  -10.28082 -10.28073 -10.27907 -10.27823 -10.27819
 Alpha  occ. eigenvalues --  -10.27817 -10.27815 -10.27743 -10.27691 -10.27550
 Alpha  occ. eigenvalues --  -10.27312 -10.27285 -10.27284 -10.27217 -10.27133
 Alpha  occ. eigenvalues --  -10.27121 -10.27117 -10.27109 -10.26989 -10.26984
 Alpha  occ. eigenvalues --  -10.26983 -10.26977 -10.26949 -10.26925 -10.26921
 Alpha  occ. eigenvalues --  -10.26875 -10.26826 -10.26806 -10.26789 -10.26772
 Alpha  occ. eigenvalues --  -10.26771 -10.26758 -10.26755 -10.26749 -10.26749
 Alpha  occ. eigenvalues --  -10.26719 -10.26642 -10.26625 -10.26593 -10.26584
 Alpha  occ. eigenvalues --  -10.26578 -10.26505 -10.26492 -10.26491 -10.26491
 Alpha  occ. eigenvalues --  -10.26455 -10.26453 -10.26446 -10.26424 -10.26374
 Alpha  occ. eigenvalues --  -10.26372 -10.26360 -10.26342 -10.26279 -10.26272
 Alpha  occ. eigenvalues --  -10.26227 -10.25933 -10.25821 -10.25777 -10.25773
 Alpha  occ. eigenvalues --   -3.56811  -3.56780  -2.24774  -2.24741  -2.24500
 Alpha  occ. eigenvalues --   -2.24478  -2.20517  -2.20476  -1.03321  -1.03312
 Alpha  occ. eigenvalues --   -1.02771  -1.02743  -1.02607  -1.02601  -1.02485
 Alpha  occ. eigenvalues --   -1.02479  -0.99727  -0.99474  -0.92602  -0.92568
 Alpha  occ. eigenvalues --   -0.92517  -0.92477  -0.92449  -0.92426  -0.90588
 Alpha  occ. eigenvalues --   -0.90502  -0.90444  -0.90388  -0.88861  -0.88746
 Alpha  occ. eigenvalues --   -0.86329  -0.86204  -0.85715  -0.85587  -0.85528
 Alpha  occ. eigenvalues --   -0.85433  -0.84598  -0.84453  -0.84349  -0.84119
 Alpha  occ. eigenvalues --   -0.82818  -0.82791  -0.82776  -0.82701  -0.82572
 Alpha  occ. eigenvalues --   -0.82560  -0.82532  -0.82464  -0.82193  -0.82013
 Alpha  occ. eigenvalues --   -0.81921  -0.81715  -0.79510  -0.79470  -0.79422
 Alpha  occ. eigenvalues --   -0.79391  -0.79353  -0.79323  -0.79003  -0.78901
 Alpha  occ. eigenvalues --   -0.78809  -0.78747  -0.78534  -0.78424  -0.76408
 Alpha  occ. eigenvalues --   -0.76294  -0.74931  -0.74793  -0.70727  -0.70710
 Alpha  occ. eigenvalues --   -0.70647  -0.70545  -0.70532  -0.70424  -0.70337
 Alpha  occ. eigenvalues --   -0.70331  -0.69592  -0.69389  -0.69347  -0.69251
 Alpha  occ. eigenvalues --   -0.69129  -0.69118  -0.69019  -0.68882  -0.68461
 Alpha  occ. eigenvalues --   -0.68428  -0.68342  -0.68312  -0.66876  -0.66776
 Alpha  occ. eigenvalues --   -0.66652  -0.66530  -0.64686  -0.64662  -0.64550
 Alpha  occ. eigenvalues --   -0.64540  -0.64189  -0.64116  -0.63294  -0.63186
 Alpha  occ. eigenvalues --   -0.63105  -0.63062  -0.62994  -0.62882  -0.60351
 Alpha  occ. eigenvalues --   -0.59856  -0.59835  -0.59709  -0.58525  -0.58203
 Alpha  occ. eigenvalues --   -0.58138  -0.58028  -0.57989  -0.57509  -0.57467
 Alpha  occ. eigenvalues --   -0.57265  -0.57128  -0.57110  -0.57040  -0.56921
 Alpha  occ. eigenvalues --   -0.56436  -0.56298  -0.55984  -0.55889  -0.55850
 Alpha  occ. eigenvalues --   -0.55736  -0.55566  -0.55467  -0.54958  -0.54833
 Alpha  occ. eigenvalues --   -0.54252  -0.54084  -0.53960  -0.53857  -0.52291
 Alpha  occ. eigenvalues --   -0.52099  -0.51882  -0.51779  -0.51642  -0.51603
 Alpha  occ. eigenvalues --   -0.51435  -0.51409  -0.51189  -0.51024  -0.51012
 Alpha  occ. eigenvalues --   -0.50863  -0.50717  -0.50677  -0.50571  -0.50526
 Alpha  occ. eigenvalues --   -0.50149  -0.50116  -0.50008  -0.49969  -0.49851
 Alpha  occ. eigenvalues --   -0.49745  -0.49619  -0.49434  -0.49379  -0.49294
 Alpha  occ. eigenvalues --   -0.49170  -0.49140  -0.49049  -0.48984  -0.48637
 Alpha  occ. eigenvalues --   -0.48494  -0.48315  -0.48251  -0.48198  -0.47954
 Alpha  occ. eigenvalues --   -0.47781  -0.47714  -0.47644  -0.47586  -0.47419
 Alpha  occ. eigenvalues --   -0.47111  -0.46888  -0.46829  -0.46788  -0.46732
 Alpha  occ. eigenvalues --   -0.46631  -0.46610  -0.46520  -0.46391  -0.46374
 Alpha  occ. eigenvalues --   -0.46021  -0.45847  -0.45750  -0.45744  -0.45568
 Alpha  occ. eigenvalues --   -0.45464  -0.44600  -0.44575  -0.44485  -0.44317
 Alpha  occ. eigenvalues --   -0.44258  -0.43937  -0.43869  -0.43209  -0.43126
 Alpha  occ. eigenvalues --   -0.43109  -0.43089  -0.42828  -0.42713  -0.42593
 Alpha  occ. eigenvalues --   -0.42513  -0.42248  -0.42159  -0.42018  -0.41953
 Alpha  occ. eigenvalues --   -0.41897  -0.41842  -0.41773  -0.41683  -0.41659
 Alpha  occ. eigenvalues --   -0.41540  -0.41487  -0.41419  -0.41243  -0.41132
 Alpha  occ. eigenvalues --   -0.40764  -0.40607  -0.40247  -0.40203  -0.40026
 Alpha  occ. eigenvalues --   -0.39943  -0.39108  -0.39051  -0.38618  -0.38484
 Alpha  occ. eigenvalues --   -0.38405  -0.38357  -0.38270  -0.38151  -0.38087
 Alpha  occ. eigenvalues --   -0.37891  -0.37772  -0.37757  -0.37696  -0.37541
 Alpha  occ. eigenvalues --   -0.37183  -0.36635  -0.36406  -0.36172  -0.36101
 Alpha  occ. eigenvalues --   -0.35898  -0.35631  -0.35511  -0.35014  -0.34827
 Alpha  occ. eigenvalues --   -0.34485  -0.34300  -0.34212  -0.33992  -0.33820
 Alpha  occ. eigenvalues --   -0.33708  -0.33519  -0.33332  -0.33304  -0.33199
 Alpha  occ. eigenvalues --   -0.33189  -0.32881  -0.32449  -0.32186  -0.32168
 Alpha  occ. eigenvalues --   -0.31804  -0.31367  -0.31336  -0.31025  -0.31015
 Alpha  occ. eigenvalues --   -0.30974  -0.30747  -0.30693  -0.30661  -0.29986
 Alpha  occ. eigenvalues --   -0.29914  -0.29855  -0.29725  -0.29608  -0.29173
 Alpha  occ. eigenvalues --   -0.29095  -0.29019  -0.28999  -0.28836  -0.28626
 Alpha  occ. eigenvalues --   -0.28593  -0.28281  -0.28240  -0.28130  -0.27928
 Alpha  occ. eigenvalues --   -0.27334  -0.26835  -0.25666  -0.25496  -0.24800
 Alpha  occ. eigenvalues --   -0.24111
 Alpha virt. eigenvalues --   -0.09843  -0.09773  -0.09329  -0.09208  -0.09154
 Alpha virt. eigenvalues --   -0.08981  -0.08810  -0.08709  -0.07957  -0.07586
 Alpha virt. eigenvalues --   -0.07466  -0.07099  -0.06921  -0.06514  -0.06358
 Alpha virt. eigenvalues --   -0.06350  -0.05855  -0.05844  -0.05586  -0.05538
 Alpha virt. eigenvalues --   -0.04769  -0.04264  -0.04240  -0.03807  -0.03367
 Alpha virt. eigenvalues --   -0.03202  -0.03090  -0.02797  -0.02705  -0.02676
 Alpha virt. eigenvalues --   -0.02426  -0.02418  -0.01475  -0.00757  -0.00379
 Alpha virt. eigenvalues --   -0.00199   0.00211   0.00483   0.01216   0.01348
 Alpha virt. eigenvalues --    0.01763   0.01971   0.02614   0.03085   0.04480
 Alpha virt. eigenvalues --    0.04635   0.04839   0.04879   0.05146   0.05238
 Alpha virt. eigenvalues --    0.05404   0.05731   0.05809   0.06028   0.06189
 Alpha virt. eigenvalues --    0.06282   0.06633   0.06783   0.07208   0.07308
 Alpha virt. eigenvalues --    0.07423   0.07495   0.07546   0.07649   0.07687
 Alpha virt. eigenvalues --    0.07797   0.07882   0.08181   0.08395   0.08636
 Alpha virt. eigenvalues --    0.08912   0.09104   0.09259   0.09294   0.09493
 Alpha virt. eigenvalues --    0.09586   0.09663   0.09746   0.09760   0.09851
 Alpha virt. eigenvalues --    0.09998   0.10077   0.10115   0.10158   0.10431
 Alpha virt. eigenvalues --    0.10652   0.10750   0.10794   0.10848   0.11490
 Alpha virt. eigenvalues --    0.11773   0.12002   0.12096   0.12214   0.12452
 Alpha virt. eigenvalues --    0.12619   0.12835   0.13030   0.13183   0.13346
 Alpha virt. eigenvalues --    0.13564   0.13745   0.13784   0.13884   0.13939
 Alpha virt. eigenvalues --    0.13944   0.14100   0.14218   0.14339   0.14386
 Alpha virt. eigenvalues --    0.14453   0.14553   0.14690   0.14822   0.14930
 Alpha virt. eigenvalues --    0.14985   0.15329   0.15389   0.15544   0.15648
 Alpha virt. eigenvalues --    0.15749   0.15870   0.15962   0.16137   0.16256
 Alpha virt. eigenvalues --    0.16326   0.16382   0.16501   0.16608   0.16701
 Alpha virt. eigenvalues --    0.16799   0.16923   0.17043   0.17061   0.17171
 Alpha virt. eigenvalues --    0.17638   0.17834   0.18036   0.18292   0.18456
 Alpha virt. eigenvalues --    0.18515   0.18595   0.18766   0.18936   0.18995
 Alpha virt. eigenvalues --    0.19310   0.19334   0.19373   0.19451   0.19711
 Alpha virt. eigenvalues --    0.19809   0.20082   0.20554   0.20720   0.21007
 Alpha virt. eigenvalues --    0.21614   0.21926   0.22078   0.22326   0.22353
 Alpha virt. eigenvalues --    0.22975   0.23137   0.23193   0.23457   0.23626
 Alpha virt. eigenvalues --    0.23686   0.23865   0.24018   0.24107   0.24217
 Alpha virt. eigenvalues --    0.24253   0.24385   0.24472   0.24550   0.24633
 Alpha virt. eigenvalues --    0.24796   0.24867   0.25155   0.25286   0.25397
 Alpha virt. eigenvalues --    0.25578   0.25641   0.25668   0.25870   0.25883
 Alpha virt. eigenvalues --    0.25949   0.25958   0.26389   0.26631   0.26708
 Alpha virt. eigenvalues --    0.26837   0.26937   0.27035   0.27136   0.27256
 Alpha virt. eigenvalues --    0.27338   0.27450   0.27495   0.27599   0.27692
 Alpha virt. eigenvalues --    0.27912   0.27952   0.28182   0.28298   0.28391
 Alpha virt. eigenvalues --    0.28415   0.28477   0.28596   0.28633   0.28682
 Alpha virt. eigenvalues --    0.28810   0.29018   0.29069   0.29149   0.29632
 Alpha virt. eigenvalues --    0.29645   0.29799   0.29878   0.30028   0.30170
 Alpha virt. eigenvalues --    0.30234   0.30261   0.30469   0.30671   0.30773
 Alpha virt. eigenvalues --    0.30839   0.30982   0.31165   0.31274   0.31424
 Alpha virt. eigenvalues --    0.31575   0.32074   0.32256   0.32445   0.32506
 Alpha virt. eigenvalues --    0.32657   0.32810   0.32999   0.33021   0.33198
 Alpha virt. eigenvalues --    0.33580   0.33684   0.33828   0.33972   0.34116
 Alpha virt. eigenvalues --    0.34269   0.34336   0.34376   0.34607   0.34794
 Alpha virt. eigenvalues --    0.34956   0.35251   0.35289   0.35360   0.35594
 Alpha virt. eigenvalues --    0.35734   0.35827   0.35893   0.35986   0.36156
 Alpha virt. eigenvalues --    0.36369   0.36533   0.36655   0.36870   0.37031
 Alpha virt. eigenvalues --    0.37201   0.37467   0.37690   0.37918   0.37987
 Alpha virt. eigenvalues --    0.38035   0.38171   0.38260   0.38296   0.38362
 Alpha virt. eigenvalues --    0.38403   0.38514   0.38566   0.38645   0.38755
 Alpha virt. eigenvalues --    0.38886   0.39053   0.39188   0.39261   0.39315
 Alpha virt. eigenvalues --    0.39489   0.39713   0.39839   0.40037   0.40316
 Alpha virt. eigenvalues --    0.40453   0.40585   0.40665   0.40941   0.41001
 Alpha virt. eigenvalues --    0.41177   0.41209   0.41322   0.41445   0.41699
 Alpha virt. eigenvalues --    0.41814   0.41930   0.41999   0.42202   0.42349
 Alpha virt. eigenvalues --    0.42415   0.42563   0.42811   0.42898   0.43074
 Alpha virt. eigenvalues --    0.43126   0.43268   0.43302   0.43494   0.43513
 Alpha virt. eigenvalues --    0.43616   0.43819   0.44049   0.44062   0.44177
 Alpha virt. eigenvalues --    0.44282   0.44357   0.44672   0.44777   0.44865
 Alpha virt. eigenvalues --    0.44898   0.44984   0.45037   0.45199   0.45451
 Alpha virt. eigenvalues --    0.45530   0.45604   0.45669   0.45828   0.45865
 Alpha virt. eigenvalues --    0.46065   0.46199   0.46363   0.46463   0.46607
 Alpha virt. eigenvalues --    0.46706   0.46839   0.46913   0.47006   0.47131
 Alpha virt. eigenvalues --    0.47173   0.47266   0.47505   0.47551   0.47776
 Alpha virt. eigenvalues --    0.47837   0.47962   0.48036   0.48175   0.48260
 Alpha virt. eigenvalues --    0.48405   0.48457   0.48666   0.48789   0.48943
 Alpha virt. eigenvalues --    0.48961   0.49119   0.49231   0.49363   0.49477
 Alpha virt. eigenvalues --    0.49678   0.49812   0.50011   0.50190   0.50419
 Alpha virt. eigenvalues --    0.50468   0.50581   0.50685   0.50759   0.51087
 Alpha virt. eigenvalues --    0.51196   0.51256   0.51479   0.51666   0.51840
 Alpha virt. eigenvalues --    0.52078   0.52133   0.52240   0.52543   0.52623
 Alpha virt. eigenvalues --    0.52732   0.52842   0.53135   0.53228   0.53346
 Alpha virt. eigenvalues --    0.53565   0.53767   0.53976   0.54105   0.54348
 Alpha virt. eigenvalues --    0.54511   0.54952   0.55021   0.55114   0.55291
 Alpha virt. eigenvalues --    0.55317   0.55597   0.55690   0.55781   0.56014
 Alpha virt. eigenvalues --    0.56057   0.56419   0.56524   0.56605   0.56805
 Alpha virt. eigenvalues --    0.57060   0.57134   0.57468   0.57606   0.57653
 Alpha virt. eigenvalues --    0.57789   0.57950   0.58157   0.58185   0.58376
 Alpha virt. eigenvalues --    0.58524   0.58541   0.58737   0.58842   0.58993
 Alpha virt. eigenvalues --    0.59138   0.59221   0.59420   0.59490   0.59633
 Alpha virt. eigenvalues --    0.59676   0.59688   0.59861   0.59947   0.60015
 Alpha virt. eigenvalues --    0.60262   0.60395   0.60451   0.60505   0.60736
 Alpha virt. eigenvalues --    0.60793   0.60836   0.61009   0.61165   0.61297
 Alpha virt. eigenvalues --    0.61363   0.61646   0.61758   0.61988   0.62067
 Alpha virt. eigenvalues --    0.62172   0.62315   0.62401   0.62475   0.62562
 Alpha virt. eigenvalues --    0.62610   0.62800   0.62926   0.63108   0.63157
 Alpha virt. eigenvalues --    0.63272   0.63390   0.63564   0.63723   0.63870
 Alpha virt. eigenvalues --    0.63938   0.64009   0.64063   0.64226   0.64304
 Alpha virt. eigenvalues --    0.64335   0.64452   0.64563   0.64623   0.64748
 Alpha virt. eigenvalues --    0.64761   0.64881   0.64945   0.65101   0.65189
 Alpha virt. eigenvalues --    0.65298   0.65461   0.65650   0.65705   0.65773
 Alpha virt. eigenvalues --    0.65808   0.65896   0.65937   0.65971   0.66046
 Alpha virt. eigenvalues --    0.66235   0.66302   0.66389   0.66470   0.66557
 Alpha virt. eigenvalues --    0.66598   0.66903   0.66949   0.66994   0.67073
 Alpha virt. eigenvalues --    0.67212   0.67357   0.67378   0.67468   0.67553
 Alpha virt. eigenvalues --    0.67648   0.67692   0.67768   0.67814   0.67961
 Alpha virt. eigenvalues --    0.68051   0.68157   0.68212   0.68289   0.68397
 Alpha virt. eigenvalues --    0.68521   0.68592   0.68762   0.68956   0.69015
 Alpha virt. eigenvalues --    0.69115   0.69153   0.69349   0.69481   0.69493
 Alpha virt. eigenvalues --    0.69560   0.69712   0.69876   0.69936   0.69991
 Alpha virt. eigenvalues --    0.70104   0.70167   0.70240   0.70345   0.70469
 Alpha virt. eigenvalues --    0.70636   0.70705   0.70790   0.70817   0.71032
 Alpha virt. eigenvalues --    0.71094   0.71134   0.71266   0.71352   0.71398
 Alpha virt. eigenvalues --    0.71480   0.71646   0.71668   0.71797   0.72016
 Alpha virt. eigenvalues --    0.72134   0.72284   0.72397   0.72457   0.72578
 Alpha virt. eigenvalues --    0.72693   0.72874   0.72958   0.73018   0.73175
 Alpha virt. eigenvalues --    0.73381   0.73496   0.73647   0.73755   0.73920
 Alpha virt. eigenvalues --    0.73994   0.74063   0.74166   0.74299   0.74526
 Alpha virt. eigenvalues --    0.74626   0.74683   0.74800   0.74923   0.75013
 Alpha virt. eigenvalues --    0.75183   0.75410   0.75582   0.75685   0.75849
 Alpha virt. eigenvalues --    0.75953   0.76086   0.76288   0.76349   0.76455
 Alpha virt. eigenvalues --    0.76568   0.76730   0.76847   0.76893   0.77038
 Alpha virt. eigenvalues --    0.77101   0.77149   0.77313   0.77418   0.77612
 Alpha virt. eigenvalues --    0.77763   0.77938   0.78031   0.78216   0.78424
 Alpha virt. eigenvalues --    0.78508   0.78539   0.78644   0.78764   0.78991
 Alpha virt. eigenvalues --    0.79079   0.79145   0.79246   0.79462   0.79519
 Alpha virt. eigenvalues --    0.79710   0.79741   0.79846   0.80064   0.80103
 Alpha virt. eigenvalues --    0.80195   0.80328   0.80461   0.80509   0.80717
 Alpha virt. eigenvalues --    0.80802   0.80930   0.81124   0.81290   0.81711
 Alpha virt. eigenvalues --    0.81771   0.81977   0.82040   0.82295   0.82484
 Alpha virt. eigenvalues --    0.82546   0.82753   0.82940   0.83068   0.83189
 Alpha virt. eigenvalues --    0.83462   0.83635   0.83975   0.84053   0.84179
 Alpha virt. eigenvalues --    0.84460   0.84478   0.84782   0.84878   0.85062
 Alpha virt. eigenvalues --    0.85134   0.85327   0.85446   0.85789   0.85830
 Alpha virt. eigenvalues --    0.86067   0.86257   0.86473   0.86553   0.86730
 Alpha virt. eigenvalues --    0.86976   0.87134   0.87341   0.87392   0.87719
 Alpha virt. eigenvalues --    0.87765   0.87937   0.88214   0.88588   0.88789
 Alpha virt. eigenvalues --    0.88970   0.89229   0.89392   0.89540   0.89783
 Alpha virt. eigenvalues --    0.90333   0.90618   0.90746   0.90912   0.91069
 Alpha virt. eigenvalues --    0.91322   0.91444   0.91520   0.91719   0.92014
 Alpha virt. eigenvalues --    0.92253   0.92404   0.92601   0.92899   0.93093
 Alpha virt. eigenvalues --    0.93363   0.93708   0.94055   0.94178   0.94397
 Alpha virt. eigenvalues --    0.94425   0.94627   0.94782   0.95321   0.95630
 Alpha virt. eigenvalues --    0.96132   0.96232   0.96509   0.97986   0.98400
 Alpha virt. eigenvalues --    0.99129   0.99491   0.99619   1.00011   1.00150
 Alpha virt. eigenvalues --    1.00318   1.00800   1.01122   1.01235   1.01422
 Alpha virt. eigenvalues --    1.01628   1.01719   1.02011   1.02189   1.02262
 Alpha virt. eigenvalues --    1.02341   1.02498   1.02532   1.02686   1.02858
 Alpha virt. eigenvalues --    1.03279   1.03858   1.03922   1.04352   1.04621
 Alpha virt. eigenvalues --    1.04905   1.05151   1.05259   1.05630   1.05682
 Alpha virt. eigenvalues --    1.05963   1.06402   1.06569   1.06722   1.07077
 Alpha virt. eigenvalues --    1.07344   1.07787   1.08053   1.08316   1.08525
 Alpha virt. eigenvalues --    1.08547   1.08897   1.09141   1.09543   1.09709
 Alpha virt. eigenvalues --    1.10294   1.10413   1.10719   1.10979   1.11054
 Alpha virt. eigenvalues --    1.11212   1.11793   1.12156   1.12406   1.12523
 Alpha virt. eigenvalues --    1.12833   1.13122   1.13374   1.13638   1.13840
 Alpha virt. eigenvalues --    1.14338   1.14699   1.14725   1.14826   1.15288
 Alpha virt. eigenvalues --    1.15751   1.16078   1.16390   1.17501   1.17618
 Alpha virt. eigenvalues --    1.17871   1.18031   1.18228   1.18324   1.18423
 Alpha virt. eigenvalues --    1.18439   1.18545   1.18805   1.19064   1.19203
 Alpha virt. eigenvalues --    1.19499   1.19771   1.19912   1.19965   1.20220
 Alpha virt. eigenvalues --    1.20516   1.20614   1.20747   1.20955   1.21071
 Alpha virt. eigenvalues --    1.21177   1.21409   1.21485   1.21649   1.21687
 Alpha virt. eigenvalues --    1.21803   1.21849   1.22277   1.22347   1.22489
 Alpha virt. eigenvalues --    1.22504   1.22568   1.22647   1.22735   1.22904
 Alpha virt. eigenvalues --    1.22995   1.23218   1.23300   1.23401   1.23482
 Alpha virt. eigenvalues --    1.23584   1.23665   1.23825   1.24022   1.24183
 Alpha virt. eigenvalues --    1.24239   1.24358   1.24401   1.24665   1.24815
 Alpha virt. eigenvalues --    1.24958   1.25030   1.25115   1.25196   1.25274
 Alpha virt. eigenvalues --    1.25558   1.25723   1.25766   1.25849   1.26028
 Alpha virt. eigenvalues --    1.26086   1.26219   1.26283   1.26433   1.26615
 Alpha virt. eigenvalues --    1.26791   1.26842   1.27122   1.27214   1.27450
 Alpha virt. eigenvalues --    1.27755   1.27775   1.27960   1.28117   1.28188
 Alpha virt. eigenvalues --    1.28415   1.28481   1.28691   1.28776   1.29035
 Alpha virt. eigenvalues --    1.29165   1.29268   1.29355   1.29444   1.29579
 Alpha virt. eigenvalues --    1.29907   1.30082   1.30342   1.30603   1.30696
 Alpha virt. eigenvalues --    1.30937   1.31118   1.31332   1.31506   1.31940
 Alpha virt. eigenvalues --    1.32053   1.32277   1.32360   1.32633   1.32809
 Alpha virt. eigenvalues --    1.33039   1.33133   1.33312   1.33553   1.34180
 Alpha virt. eigenvalues --    1.34297   1.34381   1.34598   1.34742   1.35075
 Alpha virt. eigenvalues --    1.35117   1.35340   1.35512   1.35745   1.36168
 Alpha virt. eigenvalues --    1.36328   1.36789   1.36944   1.37094   1.37587
 Alpha virt. eigenvalues --    1.37671   1.38167   1.38757   1.38929   1.39025
 Alpha virt. eigenvalues --    1.39340   1.39425   1.40035   1.40910   1.41249
 Alpha virt. eigenvalues --    1.41994   1.42385   1.42484   1.42928   1.43248
 Alpha virt. eigenvalues --    1.43968   1.44090   1.44334   1.44759   1.45269
 Alpha virt. eigenvalues --    1.45458   1.46628   1.47092   1.47791   1.48219
 Alpha virt. eigenvalues --    1.48559   1.48935   1.49596   1.49932   1.50183
 Alpha virt. eigenvalues --    1.50587   1.50893   1.50998   1.51638   1.52017
 Alpha virt. eigenvalues --    1.52298   1.52386   1.52450   1.52500   1.52554
 Alpha virt. eigenvalues --    1.52951   1.53008   1.53280   1.53487   1.53567
 Alpha virt. eigenvalues --    1.54075   1.54271   1.54911   1.55280   1.55726
 Alpha virt. eigenvalues --    1.55999   1.56479   1.56820   1.57094   1.57260
 Alpha virt. eigenvalues --    1.57572   1.57841   1.58038   1.58282   1.58537
 Alpha virt. eigenvalues --    1.58623   1.59149   1.59552   1.59757   1.60010
 Alpha virt. eigenvalues --    1.60900   1.61268   1.61947   1.62300   1.63077
 Alpha virt. eigenvalues --    1.63737   1.63846   1.64185   1.64316   1.64508
 Alpha virt. eigenvalues --    1.65177   1.65515   1.65593   1.65893   1.66406
 Alpha virt. eigenvalues --    1.66495   1.66531   1.66562   1.66602   1.66922
 Alpha virt. eigenvalues --    1.67025   1.67181   1.67294   1.67624   1.67742
 Alpha virt. eigenvalues --    1.67845   1.68035   1.68071   1.68267   1.68310
 Alpha virt. eigenvalues --    1.68512   1.68743   1.68817   1.68854   1.68942
 Alpha virt. eigenvalues --    1.68949   1.69060   1.69141   1.69299   1.69644
 Alpha virt. eigenvalues --    1.69765   1.69886   1.69992   1.70098   1.70227
 Alpha virt. eigenvalues --    1.70405   1.70484   1.70642   1.70755   1.70820
 Alpha virt. eigenvalues --    1.70900   1.71106   1.71148   1.71170   1.71200
 Alpha virt. eigenvalues --    1.71432   1.71507   1.71762   1.71885   1.71959
 Alpha virt. eigenvalues --    1.72071   1.72317   1.72374   1.72437   1.72539
 Alpha virt. eigenvalues --    1.72665   1.72718   1.72807   1.72977   1.73017
 Alpha virt. eigenvalues --    1.73300   1.73449   1.73516   1.73536   1.73747
 Alpha virt. eigenvalues --    1.73894   1.74005   1.74076   1.74270   1.74444
 Alpha virt. eigenvalues --    1.74481   1.74611   1.74840   1.75001   1.75047
 Alpha virt. eigenvalues --    1.75086   1.75260   1.75361   1.75467   1.75610
 Alpha virt. eigenvalues --    1.75698   1.75857   1.75912   1.76149   1.76348
 Alpha virt. eigenvalues --    1.76441   1.76558   1.76718   1.76797   1.76874
 Alpha virt. eigenvalues --    1.76984   1.77108   1.77285   1.77552   1.77797
 Alpha virt. eigenvalues --    1.77967   1.78061   1.78090   1.78339   1.78453
 Alpha virt. eigenvalues --    1.78558   1.78585   1.78648   1.78758   1.79023
 Alpha virt. eigenvalues --    1.79139   1.79222   1.79345   1.79421   1.79535
 Alpha virt. eigenvalues --    1.79891   1.80141   1.80304   1.80371   1.80486
 Alpha virt. eigenvalues --    1.80539   1.80886   1.80972   1.81145   1.81315
 Alpha virt. eigenvalues --    1.81404   1.81510   1.81583   1.81839   1.81993
 Alpha virt. eigenvalues --    1.82199   1.82684   1.82918   1.82937   1.83046
 Alpha virt. eigenvalues --    1.83405   1.83577   1.83720   1.83764   1.84008
 Alpha virt. eigenvalues --    1.84070   1.84230   1.84694   1.84792   1.84895
 Alpha virt. eigenvalues --    1.84962   1.85321   1.85494   1.85957   1.85969
 Alpha virt. eigenvalues --    1.86453   1.86541   1.86840   1.87166   1.87319
 Alpha virt. eigenvalues --    1.87748   1.87924   1.87998   1.88224   1.88599
 Alpha virt. eigenvalues --    1.88633   1.88926   1.88972   1.89118   1.89475
 Alpha virt. eigenvalues --    1.89514   1.89810   1.89909   1.90240   1.90477
 Alpha virt. eigenvalues --    1.90517   1.90649   1.90949   1.91599   1.91758
 Alpha virt. eigenvalues --    1.92116   1.92267   1.92320   1.92434   1.92657
 Alpha virt. eigenvalues --    1.92723   1.92957   1.93060   1.93164   1.93188
 Alpha virt. eigenvalues --    1.93366   1.93445   1.93581   1.93897   1.94036
 Alpha virt. eigenvalues --    1.94085   1.94134   1.94208   1.94275   1.94329
 Alpha virt. eigenvalues --    1.94629   1.94747   1.94960   1.95074   1.95100
 Alpha virt. eigenvalues --    1.95117   1.95300   1.95515   1.95534   1.95637
 Alpha virt. eigenvalues --    1.95831   1.95942   1.96042   1.96212   1.96302
 Alpha virt. eigenvalues --    1.96345   1.96466   1.96634   1.96742   1.97089
 Alpha virt. eigenvalues --    1.97343   1.97354   1.97421   1.97530   1.97659
 Alpha virt. eigenvalues --    1.97791   1.97874   1.98008   1.98020   1.98151
 Alpha virt. eigenvalues --    1.98273   1.98884   1.99085   1.99276   1.99382
 Alpha virt. eigenvalues --    1.99448   1.99821   1.99929   2.00529   2.00718
 Alpha virt. eigenvalues --    2.00800   2.00888   2.01035   2.01196   2.01410
 Alpha virt. eigenvalues --    2.01485   2.01592   2.01750   2.01866   2.01939
 Alpha virt. eigenvalues --    2.01978   2.02105   2.02239   2.02457   2.02471
 Alpha virt. eigenvalues --    2.02796   2.03060   2.03211   2.03365   2.03457
 Alpha virt. eigenvalues --    2.03588   2.04008   2.04877   2.05006   2.05110
 Alpha virt. eigenvalues --    2.05707   2.05844   2.06507   2.06959   2.07045
 Alpha virt. eigenvalues --    2.07390   2.07518   2.08233   2.08628   2.08659
 Alpha virt. eigenvalues --    2.08877   2.08987   2.09118   2.09183   2.09272
 Alpha virt. eigenvalues --    2.09293   2.09413   2.09664   2.09913   2.10008
 Alpha virt. eigenvalues --    2.10235   2.10475   2.10704   2.10861   2.11157
 Alpha virt. eigenvalues --    2.11272   2.11341   2.11704   2.11755   2.11867
 Alpha virt. eigenvalues --    2.12290   2.12410   2.12533   2.12606   2.12904
 Alpha virt. eigenvalues --    2.13000   2.13160   2.13308   2.13365   2.13521
 Alpha virt. eigenvalues --    2.13619   2.14126   2.14367   2.14696   2.15123
 Alpha virt. eigenvalues --    2.15472   2.15567   2.15843   2.16114   2.16182
 Alpha virt. eigenvalues --    2.16495   2.16662   2.17061   2.17319   2.17476
 Alpha virt. eigenvalues --    2.17537   2.18095   2.18343   2.18469   2.18918
 Alpha virt. eigenvalues --    2.19123   2.19226   2.19492   2.19855   2.19940
 Alpha virt. eigenvalues --    2.20260   2.20882   2.21045   2.21163   2.21503
 Alpha virt. eigenvalues --    2.21765   2.21945   2.21988   2.22057   2.22454
 Alpha virt. eigenvalues --    2.22575   2.22587   2.22934   2.23051   2.23127
 Alpha virt. eigenvalues --    2.23339   2.23496   2.23793   2.23841   2.23982
 Alpha virt. eigenvalues --    2.24049   2.24317   2.24393   2.24691   2.25011
 Alpha virt. eigenvalues --    2.25495   2.25645   2.25810   2.26065   2.26319
 Alpha virt. eigenvalues --    2.26385   2.26602   2.26682   2.27045   2.27402
 Alpha virt. eigenvalues --    2.27464   2.27766   2.27813   2.28291   2.28462
 Alpha virt. eigenvalues --    2.28512   2.28647   2.28717   2.28978   2.29040
 Alpha virt. eigenvalues --    2.29320   2.29496   2.29786   2.29849   2.29868
 Alpha virt. eigenvalues --    2.29933   2.30380   2.30446   2.30581   2.30681
 Alpha virt. eigenvalues --    2.30737   2.30815   2.30884   2.31082   2.31463
 Alpha virt. eigenvalues --    2.31507   2.31843   2.32037   2.32258   2.32316
 Alpha virt. eigenvalues --    2.32451   2.32740   2.32865   2.32969   2.33007
 Alpha virt. eigenvalues --    2.33125   2.33201   2.33295   2.33438   2.33494
 Alpha virt. eigenvalues --    2.33649   2.33949   2.34031   2.34108   2.34279
 Alpha virt. eigenvalues --    2.34529   2.35133   2.35363   2.35503   2.35907
 Alpha virt. eigenvalues --    2.36496   2.36633   2.36788   2.36883   2.37005
 Alpha virt. eigenvalues --    2.37031   2.37132   2.37252   2.37373   2.37470
 Alpha virt. eigenvalues --    2.37773   2.37851   2.38045   2.38140   2.38273
 Alpha virt. eigenvalues --    2.38445   2.38601   2.38657   2.38714   2.38786
 Alpha virt. eigenvalues --    2.38899   2.39364   2.39478   2.39763   2.40288
 Alpha virt. eigenvalues --    2.40826   2.41947   2.42444   2.42591   2.43102
 Alpha virt. eigenvalues --    2.43366   2.43569   2.43776   2.43910   2.44036
 Alpha virt. eigenvalues --    2.44273   2.44428   2.44610   2.44928   2.45686
 Alpha virt. eigenvalues --    2.45776   2.45987   2.46381   2.47109   2.47319
 Alpha virt. eigenvalues --    2.47815   2.48026   2.48396   2.48588   2.49951
 Alpha virt. eigenvalues --    2.50444   2.50594   2.50770   2.51481   2.51927
 Alpha virt. eigenvalues --    2.52075   2.52230   2.52323   2.52777   2.53020
 Alpha virt. eigenvalues --    2.53318   2.53650   2.54119   2.54321   2.54943
 Alpha virt. eigenvalues --    2.55355   2.55439   2.56230   2.56353   2.56531
 Alpha virt. eigenvalues --    2.56598   2.56911   2.57158   2.57318   2.57439
 Alpha virt. eigenvalues --    2.57642   2.58104   2.58388   2.58593   2.58960
 Alpha virt. eigenvalues --    2.59080   2.59502   2.59605   2.60084   2.60223
 Alpha virt. eigenvalues --    2.60311   2.60694   2.60815   2.60914   2.61036
 Alpha virt. eigenvalues --    2.61727   2.62017   2.62399   2.62499   2.62895
 Alpha virt. eigenvalues --    2.63485   2.63638   2.63838   2.64111   2.64315
 Alpha virt. eigenvalues --    2.64500   2.64580   2.65233   2.65339   2.65506
 Alpha virt. eigenvalues --    2.65522   2.65636   2.65709   2.65761   2.65913
 Alpha virt. eigenvalues --    2.65956   2.66063   2.66530   2.66707   2.67066
 Alpha virt. eigenvalues --    2.67759   2.68027   2.68170   2.68224   2.68788
 Alpha virt. eigenvalues --    2.68960   2.69159   2.69337   2.70035   2.70174
 Alpha virt. eigenvalues --    2.70238   2.70414   2.70906   2.71025   2.71411
 Alpha virt. eigenvalues --    2.71468   2.71636   2.71827   2.72027   2.72102
 Alpha virt. eigenvalues --    2.72372   2.72458   2.72757   2.73009   2.73100
 Alpha virt. eigenvalues --    2.73266   2.73438   2.73496   2.73626   2.74071
 Alpha virt. eigenvalues --    2.74262   2.74402   2.74751   2.74880   2.75206
 Alpha virt. eigenvalues --    2.75767   2.76230   2.76339   2.76461   2.76756
 Alpha virt. eigenvalues --    2.76872   2.76949   2.77064   2.77173   2.77253
 Alpha virt. eigenvalues --    2.77461   2.77544   2.77712   2.78063   2.78100
 Alpha virt. eigenvalues --    2.79300   2.79453   2.80322   2.80731   2.80803
 Alpha virt. eigenvalues --    2.80945   2.81014   2.81532   2.81663   2.82074
 Alpha virt. eigenvalues --    2.82369   2.84183   2.84778   2.85333   2.85497
 Alpha virt. eigenvalues --    2.85657   2.86286   2.86326   2.86518   2.86965
 Alpha virt. eigenvalues --    2.87307   2.87625   2.87923   2.87995   2.88200
 Alpha virt. eigenvalues --    2.88225   2.88647   2.88711   2.88911   2.89358
 Alpha virt. eigenvalues --    2.89456   2.89683   2.89922   2.90686   2.91418
 Alpha virt. eigenvalues --    2.91619   2.91667   2.91828   2.92173   2.94092
 Alpha virt. eigenvalues --    2.94355   2.94950   2.95495   2.95869   2.95989
 Alpha virt. eigenvalues --    2.96877   2.96972   2.97349   2.97493   2.97727
 Alpha virt. eigenvalues --    2.98323   2.98490   2.99025   2.99312   2.99724
 Alpha virt. eigenvalues --    3.00033   3.00363   3.00441   3.00807   3.01235
 Alpha virt. eigenvalues --    3.02570   3.03065   3.03291   3.03503   3.03852
 Alpha virt. eigenvalues --    3.04254   3.04418   3.04953   3.05740   3.05909
 Alpha virt. eigenvalues --    3.06159   3.06906   3.07718   3.08254   3.08539
 Alpha virt. eigenvalues --    3.08767   3.09185   3.09341   3.09654   3.09922
 Alpha virt. eigenvalues --    3.10268   3.10632   3.11152   3.11972   3.12217
 Alpha virt. eigenvalues --    3.12811   3.12970   3.13337   3.13809   3.13892
 Alpha virt. eigenvalues --    3.14470   3.14822   3.15181   3.15359   3.15642
 Alpha virt. eigenvalues --    3.16592   3.16855   3.18659   3.19214   3.22808
 Alpha virt. eigenvalues --    3.23592   3.24846   3.25530   3.27332   3.27669
 Alpha virt. eigenvalues --    3.28754   3.29661   3.30097   3.31247   3.32037
 Alpha virt. eigenvalues --    3.33741   3.33891   3.34532   3.42446   3.42951
 Alpha virt. eigenvalues --    3.44509   3.45411   3.48766   3.48918   3.51917
 Alpha virt. eigenvalues --    3.52098   3.52197   3.52544   3.54436   3.54571
 Alpha virt. eigenvalues --    3.59990   3.60501   3.60713   3.61016   3.63427
 Alpha virt. eigenvalues --    3.63630   3.64954   3.65086   3.67174   3.67404
 Alpha virt. eigenvalues --    3.73715   3.74107   3.80007   3.80264  51.68312
 Alpha virt. eigenvalues --   51.68823
          Condensed to atoms (all electrons):
 Mulliken charges:
               1
     1  Pd   0.505568
     2  Pd   0.504287
     3  C   -0.022951
     4  C   -0.009227
     5  C    0.010574
     6  C   -0.033053
     7  C    0.014668
     8  C   -0.012346
     9  C    0.059005
    10  C   -0.049181
    11  C    0.147167
    12  N   -0.319431
    13  C    0.151250
    14  C   -0.039321
    15  C    0.054358
    16  C   -0.045065
    17  C    0.144794
    18  N   -0.319394
    19  C    0.151331
    20  C   -0.036605
    21  H    0.054657
    22  H    0.050096
    23  H    0.047748
    24  H    0.050223
    25  H    0.067995
    26  H    0.100330
    27  H    0.107121
    28  H    0.067851
    29  H    0.067801
    30  H    0.101922
    31  H    0.105669
    32  H    0.067940
    33  C   -0.022943
    34  C   -0.012098
    35  C    0.015519
    36  C   -0.035896
    37  C    0.013162
    38  C   -0.010166
    39  C    0.057222
    40  C   -0.047382
    41  C    0.144760
    42  N   -0.319026
    43  C    0.151329
    44  C   -0.037846
    45  C    0.059691
    46  C   -0.049422
    47  C    0.148734
    48  N   -0.318866
    49  C    0.151055
    50  C   -0.039845
    51  H    0.054587
    52  H    0.050148
    53  H    0.048379
    54  H    0.050056
    55  H    0.068172
    56  H    0.103556
    57  H    0.107151
    58  H    0.067673
    59  H    0.068047
    60  H    0.100308
    61  H    0.106586
    62  H    0.067850
    63  C   -0.034066
    64  C    0.138838
    65  N   -0.316495
    66  C    0.145760
    67  C   -0.015327
    68  C    0.039927
    69  C   -0.057922
    70  C   -0.036388
    71  C    0.007978
    72  C   -0.070769
    73  C   -0.038894
    74  C    0.044634
    75  C   -0.060017
    76  N   -0.186940
    77  C   -0.061182
    78  C    0.052392
    79  C   -0.039814
    80  C   -0.082013
    81  C    0.016580
    82  C   -0.009492
    83  C   -0.052027
    84  C    0.050674
    85  C   -0.023111
    86  C    0.003186
    87  C   -0.005056
    88  C    0.030266
    89  C   -0.033274
    90  C    0.139059
    91  N   -0.317601
    92  C    0.138040
    93  C   -0.022938
    94  C   -0.038509
    95  C    0.006465
    96  C    0.025532
    97  C    0.031087
    98  C    0.020788
    99  C    0.002432
   100  C    0.001290
   101  C   -0.024104
   102  C    0.003583
   103  C   -0.005304
   104  C    0.031274
   105  H    0.060247
   106  H    0.095673
   107  H    0.107635
   108  H    0.048042
   109  H    0.042475
   110  H    0.041904
   111  H    0.042345
   112  H    0.046964
   113  H    0.060447
   114  H    0.047098
   115  H    0.060350
   116  H    0.097031
   117  H    0.110442
   118  H    0.052875
   119  H    0.041569
   120  H    0.048553
   121  H    0.061657
   122  H    0.048006
   123  H    0.041711
   124  H    0.042532
   125  H    0.046261
   126  H    0.060306
   127  H    0.046876
   128  C   -0.031643
   129  C    0.138967
   130  N   -0.316413
   131  C    0.138073
   132  C   -0.020725
   133  C    0.057806
   134  C   -0.027222
   135  C   -0.037038
   136  C    0.010093
   137  C   -0.091151
   138  C   -0.001271
   139  C    0.033117
   140  C   -0.061132
   141  N   -0.186446
   142  C   -0.053566
   143  C    0.057524
   144  C   -0.038012
   145  C   -0.084448
   146  C    0.006238
   147  C   -0.038587
   148  C   -0.037327
   149  C    0.052475
   150  C   -0.027513
   151  C    0.004922
   152  C   -0.005078
   153  C    0.028210
   154  C   -0.031623
   155  C    0.138870
   156  N   -0.315836
   157  C    0.135874
   158  C   -0.021544
   159  C   -0.019498
   160  C    0.013902
   161  C    0.015490
   162  C    0.032509
   163  C    0.014453
   164  C   -0.005956
   165  C   -0.023245
   166  C   -0.031254
   167  C    0.005510
   168  C   -0.004296
   169  C    0.025906
   170  H    0.060609
   171  H    0.096225
   172  H    0.100332
   173  H    0.054502
   174  H    0.041858
   175  H    0.041555
   176  H    0.053167
   177  H    0.048556
   178  H    0.060225
   179  H    0.047355
   180  H    0.060553
   181  H    0.099574
   182  H    0.102419
   183  H    0.043605
   184  H    0.044918
   185  H    0.049247
   186  H    0.062057
   187  H    0.048955
   188  H    0.045504
   189  H    0.046332
   190  H    0.049721
   191  H    0.060248
   192  H    0.047554
 Sum of Mulliken charges =   4.00000
 Mulliken charges with hydrogens summed into heavy atoms:
               1
     1  Pd   0.505568
     2  Pd   0.504287
     3  C    0.031706
     4  C    0.040870
     5  C    0.010574
     6  C    0.014695
     7  C    0.014668
     8  C    0.037876
     9  C    0.059005
    10  C    0.018814
    11  C    0.247497
    12  N   -0.319431
    13  C    0.258371
    14  C    0.028530
    15  C    0.054358
    16  C    0.022736
    17  C    0.246716
    18  N   -0.319394
    19  C    0.257000
    20  C    0.031335
    33  C    0.031644
    34  C    0.038050
    35  C    0.015519
    36  C    0.012482
    37  C    0.013162
    38  C    0.039890
    39  C    0.057222
    40  C    0.020789
    41  C    0.248316
    42  N   -0.319026
    43  C    0.258480
    44  C    0.029827
    45  C    0.059691
    46  C    0.018624
    47  C    0.249042
    48  N   -0.318866
    49  C    0.257641
    50  C    0.028005
    63  C    0.026181
    64  C    0.234512
    65  N   -0.316495
    66  C    0.253395
    67  C   -0.015327
    68  C    0.039927
    69  C   -0.057922
    70  C    0.011654
    71  C    0.050453
    72  C   -0.070769
    73  C   -0.038894
    74  C    0.044634
    75  C   -0.060017
    76  N   -0.186940
    77  C   -0.061182
    78  C    0.052392
    79  C   -0.039814
    80  C   -0.082013
    81  C    0.058484
    82  C    0.032853
    83  C   -0.052027
    84  C    0.050674
    85  C    0.023853
    86  C    0.063633
    87  C    0.042042
    88  C    0.030266
    89  C    0.027076
    90  C    0.236090
    91  N   -0.317601
    92  C    0.248482
    93  C   -0.022938
    94  C    0.014366
    95  C    0.048034
    96  C    0.074085
    97  C    0.092745
    98  C    0.068793
    99  C    0.044142
   100  C    0.043822
   101  C    0.022157
   102  C    0.063889
   103  C    0.041572
   104  C    0.031274
   128  C    0.028966
   129  C    0.235192
   130  N   -0.316413
   131  C    0.238405
   132  C   -0.020725
   133  C    0.057806
   134  C   -0.027222
   135  C    0.017464
   136  C    0.051951
   137  C   -0.091151
   138  C   -0.001271
   139  C    0.033117
   140  C   -0.061132
   141  N   -0.186446
   142  C   -0.053566
   143  C    0.057524
   144  C   -0.038012
   145  C   -0.084448
   146  C    0.047793
   147  C    0.014579
   148  C   -0.037327
   149  C    0.052475
   150  C    0.021043
   151  C    0.065146
   152  C    0.042277
   153  C    0.028210
   154  C    0.028929
   155  C    0.238445
   156  N   -0.315836
   157  C    0.238293
   158  C   -0.021544
   159  C    0.024107
   160  C    0.058820
   161  C    0.064736
   162  C    0.094566
   163  C    0.063408
   164  C    0.039547
   165  C    0.023087
   166  C    0.018467
   167  C    0.065758
   168  C    0.043258
   169  C    0.025906
 Electronic spatial extent (au):  <R**2>=         172385.2839
 Charge=              4.0000 electrons
 Dipole moment (field-independent basis, Debye):
    X=             -0.1202    Y=            -34.4510    Z=             -4.5317  Tot=             34.7480
 Quadrupole moment (field-independent basis, Debye-Ang):
   XX=            254.3664   YY=           -370.4219   ZZ=           -558.6852
   XY=             -4.4340   XZ=             -7.3917   YZ=              2.2289
 Traceless Quadrupole moment (field-independent basis, Debye-Ang):
   XX=            479.2800   YY=           -145.5083   ZZ=           -333.7716
   XY=             -4.4340   XZ=             -7.3917   YZ=              2.2289
 Octapole moment (field-independent basis, Debye-Ang**2):
  XXX=            -82.5553  YYY=           -336.3040  ZZZ=            -39.7460  XYY=            -71.9948
  XXY=          -1087.7065  XXZ=            -44.7428  XZZ=             87.1945  YZZ=           -468.4426
  YYZ=            -72.4847  XYZ=            -28.4269
 Hexadecapole moment (field-independent basis, Debye-Ang**3):
 XXXX=         -76555.9694 YYYY=         -42164.3917 ZZZZ=         -28901.1015 XXXY=           -844.3981
 XXXZ=           -544.6123 YYYX=           -136.5884 YYYZ=           -889.4418 ZZZX=            349.7557
 ZZZY=           1028.9561 XXYY=         -26191.6425 XXZZ=         -20575.6098 YYZZ=         -12739.4930
 XXYZ=           -712.8014 YYXZ=           -296.6203 ZZXY=            158.8528
 N-N= 2.480375554264D+04 E-N=-6.098039863333D+04  KE= 4.818069368003D+03
 Unable to Open any file for archive entry.
 1\1\GINC-CX3-15-22\SP\RPBE1PBE\def2SVP\C110H70N10Pd2(4+)\VPOSLIGU\02-J
 un-2023\0\\# SP PBE1PBE/def2svp empiricaldispersion=GD3BJ scrf=(solven
 t=dmso)\\cis_l2_lb\\4,1\Pd,0,-6.101,-2.3355,0.2751\Pd,0,6.0752,-2.4507
 ,0.168\C,0,0.0001,-4.9075,5.6304\C,0,1.2109,-4.5499,5.0418\C,0,1.2233,
 -3.7407,3.8978\C,0,0.007,-3.3049,3.3615\C,0,-1.2142,-3.6872,3.9272\C,0
 ,-1.2076,-4.4933,5.0739\C,0,-2.4675,-3.2881,3.2574\C,0,-2.5876,-2.0407
 ,2.6281\C,0,-3.7168,-1.7541,1.8817\N,0,-4.7168,-2.6366,1.7394\C,0,-4.6
 569,-3.8064,2.3916\C,0,-3.5595,-4.1613,3.1605\C,0,2.4761,-3.3847,3.203
 \C,0,2.6446,-2.1187,2.625\C,0,3.7681,-1.8577,1.8613\N,0,4.7145,-2.7847
 ,1.6493\C,0,4.6077,-3.9796,2.2473\C,0,3.5147,-4.31,3.0341\H,0,-0.0024,
 -5.5212,6.5334\H,0,2.151,-4.8875,5.4834\H,0,0.0097,-2.7179,2.4407\H,0,
 -2.1494,-4.7869,5.5424\H,0,-1.8005,-1.2898,2.7045\H,0,-3.8196,-0.7992,
 1.3613\H,0,-5.5016,-4.4861,2.2605\H,0,-3.5404,-5.1452,3.6307\H,0,1.900
 5,-1.3325,2.7572\H,0,3.9095,-0.8853,1.3841\H,0,5.4085,-4.6977,2.0596\H
 ,0,3.4547,-5.3111,3.463\C,0,-0.083,-6.6535,-3.9532\C,0,1.1342,-6.0945,
 -3.571\C,0,1.1591,-4.9395,-2.7772\C,0,-0.0532,-4.3631,-2.3837\C,0,-1.2
 795,-4.9336,-2.7407\C,0,-1.2855,-6.0899,-3.5324\C,0,-2.522,-4.3297,-2.
 2211\C,0,-2.6477,-2.939,-2.0981\C,0,-3.7621,-2.4025,-1.4792\N,0,-4.741
 9,-3.1747,-0.9865\C,0,-4.6769,-4.5033,-1.1537\C,0,-3.5938,-5.1117,-1.7
 7\C,0,2.4203,-4.3486,-2.2883\C,0,2.5563,-2.9615,-2.1349\C,0,3.6906,-2.
 4439,-1.5356\N,0,4.6817,-3.232,-1.0933\C,0,4.6077,-4.5553,-1.296\C,0,3
 .5037,-5.1446,-1.8926\H,0,-0.0947,-7.5432,-4.5859\H,0,2.0689,-6.5504,-
 3.9045\H,0,-0.042,-3.4924,-1.7252\H,0,-2.2328,-6.5416,-3.8349\H,0,-1.8
 766,-2.2655,-2.4734\H,0,-3.8656,-1.3232,-1.3514\H,0,-5.5034,-5.0925,-0
 .7511\H,0,-3.5688,-6.1998,-1.8411\H,0,1.7771,-2.2757,-2.4689\H,0,3.800
 8,-1.3683,-1.3818\H,0,5.4454,-5.157,-0.9376\H,0,3.4734,-6.2304,-1.99\C
 ,0,-9.4194,-2.4966,-2.3993\C,0,-8.4801,-2.7999,-1.4497\N,0,-7.4188,-1.
 98,-1.2181\C,0,-7.279,-0.8609,-1.9037\C,0,-8.2065,-0.44,-2.8777\C,0,-8
 .0417,0.7842,-3.599\C,0,-6.9032,1.684,-3.3035\C,0,-6.7007,2.2062,-2.01
 6\C,0,-5.5972,3.0018,-1.7362\C,0,-4.6607,3.295,-2.7427\C,0,-3.4963,4.0
 717,-2.4649\C,0,-2.4789,4.7105,-2.2672\C,0,-1.277,5.4721,-2.0808\N,0,-
 0.1194,4.8101,-2.1831\C,0,1.0203,5.4986,-2.0456\C,0,2.2411,4.7644,-2.1
 855\C,0,3.2771,4.1431,-2.3406\C,0,4.4536,3.3754,-2.5716\C,0,5.7363,3.9
 091,-2.3531\C,0,6.8693,3.1482,-2.6164\C,0,6.7571,1.8362,-3.0981\C,0,7.
 956,1.0229,-3.4007\C,0,8.9414,1.4851,-4.2521\C,0,10.0418,0.6739,-4.610
 9\C,0,10.1677,-0.6108,-4.1329\C,0,9.2032,-1.1174,-3.2302\C,0,9.2721,-2
 .4172,-2.667\C,0,8.337,-2.8232,-1.7515\N,0,7.343,-1.9891,-1.3405\C,0,7
 .2318,-0.7812,-1.8606\C,0,8.1091,-0.2866,-2.8452\C,0,5.4742,1.3058,-3.
 3152\C,0,4.3393,2.0592,-3.0567\C,0,1.0493,6.8824,-1.8006\C,0,-0.1585,7
 .5606,-1.6979\C,0,-1.347,6.8528,-1.8344\C,0,-4.8777,2.7971,-4.0396\C,0
 ,-5.9867,2.0072,-4.3131\C,0,-8.9545,1.0827,-4.5919\C,0,-10.0442,0.2268
 ,-4.8703\C,0,-10.2333,-0.9387,-4.1636\C,0,-9.3112,-1.3007,-3.1532\H,0,
 -10.251,-3.181,-2.574\H,0,-8.5339,-3.7091,-0.8489\H,0,-6.395,-0.2581,-
 1.6883\H,0,-7.4206,1.9938,-1.2216\H,0,-5.4528,3.3989,-0.7303\H,0,5.837
 4,4.927,-1.9731\H,0,7.859,3.5717,-2.4315\H,0,8.8487,2.4829,-4.6862\H,0
 ,10.79,1.0731,-5.299\H,0,11.0053,-1.2432,-4.4335\H,0,10.0769,-3.096,-2
 .9534\H,0,8.3578,-3.8158,-1.3\H,0,6.4354,-0.1444,-1.4739\H,0,5.3646,0.
 295,-3.7154\H,0,3.3493,1.6385,-3.2416\H,0,2.0039,7.3995,-1.6973\H,0,-0
 .1742,8.6356,-1.5098\H,0,-2.3165,7.3462,-1.7561\H,0,-4.1601,3.0248,-4.
 8298\H,0,-6.132,1.6081,-5.3194\H,0,-8.8437,2.0099,-5.1582\H,0,-10.7501
 ,0.5073,-5.655\H,0,-11.0815,-1.5928,-4.3745\C,0,-9.3817,-1.4531,2.832\
 C,0,-8.43,-2.0922,2.0847\N,0,-7.3877,-1.4111,1.5352\C,0,-7.2462,-0.116
 3,1.7532\C,0,-8.139,0.6262,2.5547\C,0,-7.9621,2.0246,2.8094\C,0,-6.738
 5,2.7556,2.4124\C,0,-5.462,2.2445,2.703\C,0,-4.3185,2.9798,2.4253\C,0,
 -4.4155,4.264,1.8583\C,0,-3.2393,5.0411,1.6573\C,0,-2.213,5.6898,1.561
 \C,0,-0.9959,6.4436,1.5277\N,0,0.1426,5.7419,1.4939\C,0,1.3016,6.4105,
 1.5056\C,0,2.4967,5.6218,1.5195\C,0,3.5053,4.9441,1.5994\C,0,4.6618,4.
 133,1.7814\C,0,4.5472,2.8946,2.4399\C,0,5.6752,2.1311,2.7034\C,0,6.950
 7,2.5713,2.3117\C,0,8.1614,1.8046,2.6799\C,0,9.213,2.4349,3.3204\C,0,1
 0.3451,1.7176,3.7648\C,0,10.4386,0.3569,3.5847\C,0,9.4049,-0.3299,2.90
 6\C,0,9.4454,-1.7244,2.6555\C,0,8.4455,-2.3237,1.9379\N,0,7.4088,-1.60
 19,1.431\C,0,7.3207,-0.3055,1.666\C,0,8.2728,0.3996,2.4307\C,0,7.0581,
 3.7931,1.6303\C,0,5.9341,4.5657,1.3678\C,0,1.3722,7.8138,1.5444\C,0,0.
 184,8.5339,1.5783\C,0,-1.0249,7.8485,1.5694\C,0,-5.6902,4.7721,1.5485\
 C,0,-6.8292,4.025,1.8197\C,0,-8.962,2.6883,3.4987\C,0,-10.1044,2.0147,
 3.9815\C,0,-10.2582,0.6604,3.797\C,0,-9.2783,-0.0608,3.0757\H,0,-10.22
 38,-2.0186,3.2339\H,0,-8.4735,-3.1628,1.8805\H,0,-6.4078,0.3794,1.2608
 \H,0,-5.3603,1.2752,3.1962\H,0,-3.3362,2.5762,2.677\H,0,3.5657,2.5511,
 2.7714\H,0,5.5666,1.1978,3.2608\H,0,9.1489,3.5063,3.5216\H,0,11.1445,2
 .2555,4.2788\H,0,11.3022,-0.2015,3.9509\H,0,10.2799,-2.3236,3.0231\H,0
 ,8.4449,-3.3931,1.7234\H,0,6.481,0.2258,1.2134\H,0,8.0397,4.1418,1.302
 1\H,0,6.0355,5.5194,0.8469\H,0,2.3421,8.3125,1.5531\H,0,0.1999,9.6252,
 1.611\H,0,-1.9795,8.3751,1.5965\H,0,-5.78,5.7614,1.0964\H,0,-7.8104,4.
 4326,1.5673\H,0,-8.8455,3.753,3.7113\H,0,-10.8603,2.5802,4.5306\H,0,-1
 1.127,0.1324,4.1943\\Version=ES64L-G16RevC.01\State=1-A\HF=-5027.95448
 1\RMSD=3.757e-09\Dipole=0.0473217,-13.5540763,1.7828993\Quadrupole=356
 .3328906,-108.181852,-248.1510387,3.2975455,-5.4955789,-1.657138\PG=C0
 1 [X(C110H70N10Pd2)]\\@
 The archive entry for this job was punched.


 IT TAKES GREATER CHARACTER TO CARRY OFF GOOD FORTUNE THAN BAD.
                     FRENCH PROVERB.
 Job cpu time:       1 days  7 hours 39 minutes 11.2 seconds.
 Elapsed time:       0 days  0 hours 41 minutes 23.8 seconds.
 File lengths (MBytes):  RWF=   5376 Int=      0 D2E=      0 Chk=    272 Scr=     16
 Normal termination of Gaussian 16 at Fri Jun  2 06:25:59 2023.
