Job execution start: Tue Jun 22 09:37:24 BST 2021
Shared library path: /work/e05/e05/atarzia/orca_4_2_1_linux_x86-64_openmpi314:/work/e05/e05/atarzia/openmpi-3.1.4/lib:/opt/cray/pe/papi/6.0.0.4/lib64:/opt/cray/libfabric/1.11.0.0.233/lib64
Slurm Job ID is: 344301
Slurm Job name is: s_3d1_b_PBE0
nid001068

                                 *****************
                                 * O   R   C   A *
                                 *****************

           --- An Ab Initio, DFT and Semiempirical electronic structure package ---

                  #######################################################
                  #                        -***-                        #
                  #          Department of theory and spectroscopy      #
                  #               Directorship: Frank Neese             #
                  #        Max Planck Institute fuer Kohlenforschung    #
                  #                Kaiser Wilhelm Platz 1               #
                  #                 D-45470 Muelheim/Ruhr               #
                  #                      Germany                        #
                  #                                                     #
                  #                  All rights reserved                #
                  #                        -***-                        #
                  #######################################################


                         Program Version 4.2.1 -  RELEASE  -


 With contributions from (in alphabetic order):
   Daniel Aravena         : Magnetic Suceptibility
   Michael Atanasov       : Ab Initio Ligand Field Theory (pilot matlab implementation)
   Alexander A. Auer      : GIAO ZORA, VPT2
   Ute Becker             : Parallelization
   Giovanni Bistoni       : ED, misc. LED, open-shell LED, HFLD
   Martin Brehm           : Molecular dynamics
   Dmytro Bykov           : SCF Hessian
   Vijay G. Chilkuri      : MRCI spin determinant printing, contributions to CSF-ICE
   Dipayan Datta          : RHF DLPNO-CCSD density
   Achintya Kumar Dutta   : EOM-CC, STEOM-CC
   Dmitry Ganyushin       : Spin-Orbit,Spin-Spin,Magnetic field MRCI
   Miquel Garcia          : C-PCM Hessian, Gaussian charge scheme
   Yang Guo               : DLPNO-NEVPT2, CIM, IAO-localization
   Andreas Hansen         : Spin unrestricted coupled pair/coupled cluster methods
   Benjamin Helmich-Paris : CASSCF linear response (MC-RPA)
   Lee Huntington         : MR-EOM, pCC
   Robert Izsak           : Overlap fitted RIJCOSX, COSX-SCS-MP3, EOM
   Christian Kollmar      : KDIIS, OOCD, Brueckner-CCSD(T), CCSD density
   Simone Kossmann        : Meta GGA functionals, TD-DFT gradient, OOMP2, MP2 Hessian
   Martin Krupicka        : AUTO-CI
   Lucas Lang             : DCDCAS
   Dagmar Lenk            : GEPOL surface, SMD
   Dimitrios Liakos       : Extrapolation schemes; Compound Job, initial MDCI parallelization
   Dimitrios Manganas     : Further ROCIS development; embedding schemes
   Dimitrios Pantazis     : SARC Basis sets
   Taras Petrenko         : DFT Hessian,TD-DFT gradient, ASA, ECA, R-Raman, ABS, FL, XAS/XES, NRVS
   Peter Pinski           : DLPNO-MP2, DLPNO-MP2 Gradient
   Christoph Reimann      : Effective Core Potentials
   Marius Retegan         : Local ZFS, SOC
   Christoph Riplinger    : Optimizer, TS searches, QM/MM, DLPNO-CCSD(T), (RO)-DLPNO pert. Triples
   Tobias Risthaus        : Range-separated hybrids, TD-DFT gradient, RPA, STAB
   Michael Roemelt        : Original ROCIS implementation
   Masaaki Saitow         : Open-shell DLPNO-CCSD energy and density
   Barbara Sandhoefer     : DKH picture change effects
   Avijit Sen             : IP-ROCIS
   Kantharuban Sivalingam : CASSCF convergence, NEVPT2, FIC-MRCI
   Bernardo de Souza      : ESD, SOC TD-DFT
   Georgi Stoychev        : AutoAux, RI-MP2 NMR
   Willem Van den Heuvel  : Paramagnetic NMR
   Boris Wezisla          : Elementary symmetry handling
   Frank Wennmohs         : Technical directorship


 We gratefully acknowledge several colleagues who have allowed us to
 interface, adapt or use parts of their codes:
   Stefan Grimme, W. Hujo, H. Kruse,             : VdW corrections, initial TS optimization,
                  C. Bannwarth                     DFT functionals, gCP, sTDA/sTD-DF
   Ed Valeev, F. Pavosevic, A. Kumar             : LibInt (2-el integral package), F12 methods
   Garnet Chan, S. Sharma, J. Yang, R. Olivares  : DMRG
   Ulf Ekstrom                                   : XCFun DFT Library
   Mihaly Kallay                                 : mrcc  (arbitrary order and MRCC methods)
   Andreas Klamt, Michael Diedenhofen            : otool_cosmo (COSMO solvation model)
   Jiri Pittner, Ondrej Demel                    : Mk-CCSD
   Frank Weinhold                                : gennbo (NPA and NBO analysis)
   Christopher J. Cramer and Donald G. Truhlar   : smd solvation model
   Lars Goerigk                                  : TD-DFT with DH, B97 family of functionals
   V. Asgeirsson, H. Jonsson                     : NEB implementation
   FAccTs GmbH                                   : IRC, NEB, NEB-TS, Multilevel, MM, QM/MM, CI optimization
   S Lehtola, MJT Oliveira, MAL Marques          : LibXC Library


 Your calculation uses the libint2 library for the computation of 2-el integrals
 For citations please refer to: http://libint.valeyev.net

 Your ORCA version has been built with support for libXC version: 4.2.3
 For citations please refer to: https://tddft.org/programs/libxc/

 This ORCA versions uses:
   CBLAS   interface :  Fast vector & matrix operations
   LAPACKE interface :  Fast linear algebra routines
   SCALAPACK package :  Parallel linear algebra routines




***************************************
The coordinates will be read from file: s_3d1_b.xyz
***************************************


Your calculation utilizes the atom-pairwise dispersion correction
with the Becke-Johnson damping scheme (D3BJ)
Cite in your paper:
S.Grimme, S.Ehrlich, L.Goerigk, J Comput Chem, (2011), 32, 1456–1465 
S.Grimme, J.Antony, S.Ehrlich and H.Krieg, J.Chem.Phys., 132, (2010), 154104 
   

----- Orbital basis set information -----
Your calculation utilizes the basis: def2-SVP
   F. Weigend and R. Ahlrichs, Phys. Chem. Chem. Phys. 7, 3297 (2005).

cite the ECPs for Pd [Def2-ECP] as follows:
Ce-Yb(ecp-28): M. Dolg, H. Stoll, H.Preuss, J. Chem. Phys., 1989, 90, 1730-1734.
Y-Cd(ecp-28), Hf-Hg(ecp-46): D. Andrae,U. Haeussermann, M. Dolg, H. Stoll, H. Preuss, Theor. Chim. Acta, 1990, 77, 123-141.
In-Sb(ecp-28), Tl-Bi(ecp-46): B. Metz, H. Stoll, M. Dolg, J. Chem. Phys., 2000, 113, 2563-2569.
Te-Xe(ecp-28), Po-Rn(ecp-46): K. A. Peterson, D. Figgen, E. Goll, H. Stoll, M. Dolg, J. Chem. Phys., 2003, 119, 11113-11123.
Rb(ecp-28), Cs(ecp-46): T. Leininger, A. Nicklass, W. Kuechle, H. Stoll, M. Dolg, A. Bergner, Chem. Phys. Lett., 1996, 255, 274-280.
Sr(ecp-28), Ba(ecp-46): M. Kaupp, P. V. Schleyer, H. Stoll and H. Preuss, J. Chem. Phys., 1991, 94, 1360-1366.
La(ecp-46): M. Dolg, H. Stoll, A. Savin, H. Preuss, Theor. Chim. Acta, 1989, 75, 173-194.
Lu(ecp-28): X. Cao, M. Dolg, J. Chem. Phys., 2001, 115, 7348-7355.

ECP parameters for Pd [Def2-ECP] have been obtained from:
TURBOMOLE (7.0.2)

================================================================================
                                        WARNINGS
                       Please study these warnings very carefully!
================================================================================


INFO   : the flag for use of LIBINT has been found!

================================================================================
                                       INPUT FILE
================================================================================
NAME = s_3d1_b_PBE0.in
|  1> ! DFT SP RKS PBE0 def2-SVP D3BJ Grid6 NOFINALGRID SlowConv TightSCF printbasis 
|  2> 
|  3> %base "_s_3d1_b_PBE0"
|  4> %maxcore 3000
|  5> %scf
|  6>    MaxIter 2000
|  7> end
|  8> %pal
|  9>    nprocs 32
| 10> end
| 11> 
| 12> * xyzfile 4 1 s_3d1_b.xyz
| 13> 
| 14>                          ****END OF INPUT****
================================================================================

                       ****************************
                       * Single Point Calculation *
                       ****************************

---------------------------------
CARTESIAN COORDINATES (ANGSTROEM)
---------------------------------
  Pd     0.292800    6.450100    0.340500
  Pd     0.093300   -3.195300    0.220900
  C      5.053800    0.710900    0.129900
  C      4.578200   -0.390900    0.271800
  C      4.012500   -1.673600    0.415700
  C      4.802700   -2.806800    0.652600
  C      4.188100   -4.040300    0.775900
  C      2.809400   -4.127400    0.656800
  N      2.061100   -3.046100    0.425200
  C      2.630400   -1.846300    0.309100
  H      5.873800   -2.708800    0.737800
  H      4.770100   -4.928500    0.961500
  H      2.284500   -5.074000    0.752700
  H      1.967000   -1.003100    0.117900
  C      5.568000    2.007600   -0.085000
  C      6.829900    2.178900   -0.659000
  C      7.292800    3.456500   -0.913900
  C      6.517100    4.561400   -0.606200
  C      5.259000    4.404400   -0.019500
  C      4.792400    3.119700    0.243000
  H      7.431500    1.318500   -0.907800
  H      8.264300    3.595100   -1.363200
  H      6.884900    5.546100   -0.848500
  H      3.844200    2.964500    0.732400
  C      4.434500    5.584800    0.283800
  C      5.002700    6.803200    0.670900
  C      4.189100    7.901700    0.893000
  C      2.819000    7.767000    0.746000
  N      2.271300    6.597900    0.406700
  C      3.045600    5.538000    0.173800
  H      6.069500    6.885800    0.807200
  H      4.612700    8.850300    1.180700
  H      2.139600    8.602300    0.900200
  H      2.532900    4.629000   -0.132600
  C      0.454000    2.487300    5.187700
  C      0.352600    3.616900    4.770700
  C      0.246100    4.919800    4.244500
  C      0.064700    6.043000    5.063000
  C     -0.033700    7.291800    4.475500
  C      0.050200    7.403400    3.095700
  N      0.230000    6.331800    2.320600
  C      0.326500    5.119000    2.864700
  H      0.000500    5.925900    6.133600
  H     -0.176100    8.173500    5.079200
  H     -0.029200    8.362500    2.592300
  H      0.478500    4.281500    2.183500
  C      0.618300    1.162100    5.644600
  C      1.200600    0.915700    6.890200
  C      1.403900   -0.389200    7.299200
  C      1.034200   -1.447100    6.486200
  C      0.437600   -1.214500    5.244300
  C      0.230100    0.098000    4.830200
  H      1.495800    1.740000    7.520700
  H      1.860400   -0.586000    8.257100
  H      1.235800   -2.455400    6.812000
  H     -0.261800    0.312300    3.894800
  C      0.069300   -2.351300    4.385400
  C     -0.368500   -3.565800    4.924400
  C     -0.639200   -4.633000    4.084600
  C     -0.484000   -4.472100    2.718700
  N     -0.099700   -3.303700    2.197800
  C      0.173600   -2.271700    2.997300
  H     -0.504500   -3.669200    5.989400
  H     -0.966700   -5.578700    4.485100
  H     -0.672200   -5.285300    2.021200
  H      0.508000   -1.361900    2.505400
  C     -4.690600    2.588300    0.553500
  C     -4.235900    3.704400    0.464400
  C     -3.663500    4.989300    0.387700
  C     -4.441400    6.154700    0.365400
  C     -3.807100    7.383500    0.310100
  C     -2.421600    7.433900    0.283600
  N     -1.684800    6.319900    0.304500
  C     -2.274000    5.126600    0.351300
  H     -5.517800    6.086200    0.392000
  H     -4.379600    8.296700    0.291000
  H     -1.880700    8.376300    0.243300
  H     -1.624600    4.253200    0.367600
  C     -5.191800    1.277300    0.697800
  C     -6.461100    1.064300    1.241100
  C     -6.917200   -0.228800    1.418200
  C     -6.128700   -1.308600    1.058400
  C     -4.862300   -1.108700    0.503500
  C     -4.399000    0.191100    0.325200
  H     -7.074500    1.905200    1.525200
  H     -7.894100   -0.399300    1.844100
  H     -6.492600   -2.308700    1.234400
  H     -3.440900    0.378500   -0.132700
  C     -4.033100   -2.266800    0.132500
  C     -4.602400   -3.435000   -0.385700
  C     -3.795200   -4.520000   -0.682800
  C     -2.430800   -4.421600   -0.471300
  N     -1.881500   -3.300600    0.001800
  C     -2.649500   -2.251100    0.301000
  H     -5.664800   -3.486100   -0.565200
  H     -4.218700   -5.429900   -1.076200
  H     -1.757100   -5.247600   -0.684900
  H     -2.134500   -1.383800    0.709500
  C     -0.100300    2.732900   -4.618300
  C      0.035100    3.858000   -4.198300
  C      0.157400    5.140800   -3.628800
  C      0.172000    6.313300   -4.396600
  C      0.264900    7.534400   -3.752200
  C      0.331700    7.572600   -2.366700
  N      0.318600    6.453700   -1.640500
  C      0.241200    5.266000   -2.240600
  H      0.109600    6.256100   -5.472200
  H      0.279800    8.452800   -4.316500
  H      0.398800    8.508500   -1.820400
  H      0.237600    4.382500   -1.600500
  C     -0.304100    1.419700   -5.092200
  C     -0.888400    1.208600   -6.343500
  C     -1.126100   -0.083100   -6.774900
  C     -0.783500   -1.163500   -5.979900
  C     -0.187500   -0.965900   -4.731800
  C      0.048600    0.332300   -4.291300
  H     -1.156600    2.051000   -6.962100
  H     -1.584400   -0.251600   -7.737400
  H     -1.003900   -2.162000   -6.323700
  H      0.537500    0.513800   -3.347300
  C      0.171200   -2.129300   -3.904400
  C      0.656200   -3.305000   -4.486300
  C      0.941000   -4.400400   -3.688700
  C      0.747900   -4.303500   -2.322200
  N      0.308500   -3.173500   -1.759800
  C      0.023800   -2.114200   -2.518100
  H      0.819400   -3.354100   -5.551400
  H      1.309100   -5.316400   -4.121600
  H      0.949800   -5.140400   -1.655800
  H     -0.354300   -1.240800   -1.994000

----------------------------
CARTESIAN COORDINATES (A.U.)
----------------------------
  NO LB      ZA    FRAG     MASS         X           Y           Z
   0 Pd   18.0000*   0   106.400    0.553312   12.188923    0.643452
   1 Pd   18.0000*   0   106.400    0.176311   -6.038242    0.417441
   2 C     6.0000    0    12.011    9.550298    1.343406    0.245475
   3 C     6.0000    0    12.011    8.651544   -0.738694    0.513628
   4 C     6.0000    0    12.011    7.582526   -3.162646    0.785559
   5 C     6.0000    0    12.011    9.075788   -5.304083    1.233235
   6 C     6.0000    0    12.011    7.914362   -7.635060    1.466239
   7 C     6.0000    0    12.011    5.308997   -7.799656    1.241172
   8 N     7.0000    0    14.007    3.894915   -5.756295    0.803512
   9 C     6.0000    0    12.011    4.970736   -3.489001    0.584114
  10 H     1.0000    0     1.008   11.099873   -5.118890    1.394240
  11 H     1.0000    0     1.008    9.014183   -9.313515    1.816972
  12 H     1.0000    0     1.008    4.317079   -9.588470    1.422397
  13 H     1.0000    0     1.008    3.717091   -1.895584    0.222799
  14 C     6.0000    0    12.011   10.521995    3.793814   -0.160627
  15 C     6.0000    0    12.011   12.906641    4.117524   -1.245330
  16 C     6.0000    0    12.011   13.781395    6.531838   -1.727021
  17 C     6.0000    0    12.011   12.315534    8.619797   -1.145552
  18 C     6.0000    0    12.011    9.938070    8.323110   -0.036850
  19 C     6.0000    0    12.011    9.056324    5.895379    0.459203
  20 H     1.0000    0     1.008   14.043500    2.491604   -1.715493
  21 H     1.0000    0     1.008   15.617264    6.793754   -2.576075
  22 H     1.0000    0     1.008   13.010575   10.480610   -1.603433
  23 H     1.0000    0     1.008    7.264485    5.602093    1.384035
  24 C     6.0000    0    12.011    8.379991   10.553743    0.536304
  25 C     6.0000    0    12.011    9.453733   12.856185    1.267817
  26 C     6.0000    0    12.011    7.916252   14.932049    1.687525
  27 C     6.0000    0    12.011    5.327138   14.677503    1.409736
  28 N     7.0000    0    14.007    4.292135   12.468224    0.768552
  29 C     6.0000    0    12.011    5.755350   10.465303    0.328434
  30 H     1.0000    0     1.008   11.469693   13.012276    1.525387
  31 H     1.0000    0     1.008    8.716740   16.724643    2.231200
  32 H     1.0000    0     1.008    4.043258   16.255991    1.701131
  33 H     1.0000    0     1.008    4.786487    8.747542   -0.250578
  34 C     6.0000    0    12.011    0.857936    4.700316    9.803332
  35 C     6.0000    0    12.011    0.666317    6.834950    9.015316
  36 C     6.0000    0    12.011    0.465062    9.297075    8.020943
  37 C     6.0000    0    12.011    0.122265   11.419615    9.567683
  38 C     6.0000    0    12.011   -0.063684   13.779505    8.457469
  39 C     6.0000    0    12.011    0.094864   13.990398    5.850025
  40 N     7.0000    0    14.007    0.434637   11.965368    4.385298
  41 C     6.0000    0    12.011    0.616996    9.673508    5.413498
  42 H     1.0000    0     1.008    0.000945   11.198328   11.590824
  43 H     1.0000    0     1.008   -0.332781   15.445677    9.598297
  44 H     1.0000    0     1.008   -0.055180   15.802835    4.898737
  45 H     1.0000    0     1.008    0.904234    8.090862    4.126217
  46 C     6.0000    0    12.011    1.168418    2.196051   10.666748
  47 C     6.0000    0    12.011    2.268805    1.730422   13.020591
  48 C     6.0000    0    12.011    2.652987   -0.735481   13.793489
  49 C     6.0000    0    12.011    1.954355   -2.734623   12.257142
  50 C     6.0000    0    12.011    0.826944   -2.295072    9.910291
  51 C     6.0000    0    12.011    0.434826    0.185193    9.127755
  52 H     1.0000    0     1.008    2.826652    3.288123   14.212063
  53 H     1.0000    0     1.008    3.515646   -1.107380   15.603658
  54 H     1.0000    0     1.008    2.335324   -4.640034   12.872814
  55 H     1.0000    0     1.008   -0.494730    0.590161    7.360105
  56 C     6.0000    0    12.011    0.130958   -4.443313    8.287205
  57 C     6.0000    0    12.011   -0.696364   -6.738385    9.305767
  58 C     6.0000    0    12.011   -1.207913   -8.755101    7.718775
  59 C     6.0000    0    12.011   -0.914627   -8.451044    5.137598
  60 N     7.0000    0    14.007   -0.188406   -6.243088    4.153240
  61 C     6.0000    0    12.011    0.328056   -4.292891    5.664076
  62 H     1.0000    0     1.008   -0.953367   -6.933783   11.318326
  63 H     1.0000    0     1.008   -1.826798  -10.542215    8.475611
  64 H     1.0000    0     1.008   -1.270274   -9.987770    3.819514
  65 H     1.0000    0     1.008    0.959981   -2.573618    4.734520
  66 C     6.0000    0    12.011   -8.863949    4.891178    1.045963
  67 C     6.0000    0    12.011   -8.004691    7.000301    0.877589
  68 C     6.0000    0    12.011   -6.923012    9.428411    0.732647
  69 C     6.0000    0    12.011   -8.393030   11.630697    0.690506
  70 C     6.0000    0    12.011   -7.194376   13.952793    0.586004
  71 C     6.0000    0    12.011   -4.576161   14.048035    0.535926
  72 N     7.0000    0    14.007   -3.183811   11.942880    0.575422
  73 C     6.0000    0    12.011   -4.297237    9.687870    0.663861
  74 H     1.0000    0     1.008  -10.427131   11.501251    0.740773
  75 H     1.0000    0     1.008   -8.276245   15.678491    0.549910
  76 H     1.0000    0     1.008   -3.554008   15.828913    0.459770
  77 H     1.0000    0     1.008   -3.070049    8.037383    0.694663
  78 C     6.0000    0    12.011   -9.811080    2.413747    1.318651
  79 C     6.0000    0    12.011  -12.209710    2.011236    2.345339
  80 C     6.0000    0    12.011  -13.071614   -0.432369    2.680010
  81 C     6.0000    0    12.011  -11.581565   -2.472896    2.000086
  82 C     6.0000    0    12.011   -9.188415   -2.095139    0.951477
  83 C     6.0000    0    12.011   -8.312905    0.361127    0.614539
  84 H     1.0000    0     1.008  -13.368868    3.600306    2.882210
  85 H     1.0000    0     1.008  -14.917687   -0.754568    3.484844
  86 H     1.0000    0     1.008  -12.269236   -4.362811    2.332678
  87 H     1.0000    0     1.008   -6.502359    0.715261   -0.250767
  88 C     6.0000    0    12.011   -7.621454   -4.283631    0.250389
  89 C     6.0000    0    12.011   -8.697276   -6.491209   -0.728867
  90 C     6.0000    0    12.011   -7.171889   -8.541562   -1.290305
  91 C     6.0000    0    12.011   -4.593546   -8.355613   -0.890628
  92 N     7.0000    0    14.007   -3.555520   -6.237230    0.003402
  93 C     6.0000    0    12.011   -5.006829   -4.253963    0.568808
  94 H     1.0000    0     1.008  -10.704921   -6.587774   -1.068073
  95 H     1.0000    0     1.008   -7.972188  -10.261024   -2.033723
  96 H     1.0000    0     1.008   -3.320438   -9.916527   -1.294273
  97 H     1.0000    0     1.008   -4.033620   -2.615003    1.340761
  98 C     6.0000    0    12.011   -0.189540    5.164433   -8.727322
  99 C     6.0000    0    12.011    0.066329    7.290563   -7.933637
 100 C     6.0000    0    12.011    0.297443    9.714704   -6.857438
 101 C     6.0000    0    12.011    0.325033   11.930408   -8.308370
 102 C     6.0000    0    12.011    0.500588   14.237953   -7.090630
 103 C     6.0000    0    12.011    0.626822   14.310140   -4.472415
 104 N     7.0000    0    14.007    0.602067   12.195726   -3.100096
 105 C     6.0000    0    12.011    0.455802    9.951298   -4.234120
 106 H     1.0000    0     1.008    0.207114   11.822316  -10.340959
 107 H     1.0000    0     1.008    0.528745   15.973477   -8.157003
 108 H     1.0000    0     1.008    0.753623   16.078735   -3.440057
 109 H     1.0000    0     1.008    0.448999    8.281725   -3.024507
 110 C     6.0000    0    12.011   -0.574666    2.682844   -9.622863
 111 C     6.0000    0    12.011   -1.678833    2.283923  -11.987478
 112 C     6.0000    0    12.011   -2.128021   -0.157036  -12.802706
 113 C     6.0000    0    12.011   -1.480600   -2.198696  -11.300373
 114 C     6.0000    0    12.011   -0.354324   -1.825286   -8.941806
 115 C     6.0000    0    12.011    0.091841    0.627956   -8.109382
 116 H     1.0000    0     1.008   -2.185657    3.875828  -13.156462
 117 H     1.0000    0     1.008   -2.994082   -0.475455  -14.621567
 118 H     1.0000    0     1.008   -1.897096   -4.085588  -11.950061
 119 H     1.0000    0     1.008    1.015728    0.970941   -6.325480
 120 C     6.0000    0    12.011    0.323521   -4.023794   -7.378247
 121 C     6.0000    0    12.011    1.240038   -6.245545   -8.477878
 122 C     6.0000    0    12.011    1.778232   -8.315551   -6.970633
 123 C     6.0000    0    12.011    1.413326   -8.132436   -4.388322
 124 N     7.0000    0    14.007    0.582981   -5.997046   -3.325540
 125 C     6.0000    0    12.011    0.044975   -3.995259   -4.758519
 126 H     1.0000    0     1.008    1.548442   -6.338330  -10.490626
 127 H     1.0000    0     1.008    2.473840  -10.046540   -7.788695
 128 H     1.0000    0     1.008    1.794862   -9.713948   -3.129009
 129 H     1.0000    0     1.008   -0.669530   -2.344772   -3.768114
* core charge reduced due to ECP

--------------------------------
INTERNAL COORDINATES (ANGSTROEM)
--------------------------------
 Pd     0   0   0     0.000000000000     0.00000000     0.00000000
 Pd     1   0   0     9.648204266598     0.00000000     0.00000000
 C      2   1   0     6.314526085939    50.61779214     0.00000000
 C      3   2   1     1.208426336191    28.96792295   165.90266877
 C      4   3   2     1.409270375052   179.00993691    52.48574275
 C      5   4   3     1.401670392781   121.79032401   124.71511532
 C      6   5   4     1.383639512301   119.03757148   180.42348534
 C      7   6   5     1.386573081377   119.34155324     0.27854182
 N      8   7   6     1.335215765335   121.41812075     0.00000000
 C      9   8   7     1.333079795061   120.30715069   359.66197505
 H      6   5   4     1.078943117129   119.97166429     0.52711307
 H      7   6   5     1.077993784769   120.66780592   180.20262246
 H      8   7   6     1.086631667126   121.83336477   180.38967533
 H     10   9   8     1.089790456923   116.85176338   179.85155081
 C      3   2   1     1.411387452119   148.95174416   342.66083763
 C     15   3   2     1.396857652018   120.28877048   216.20660874
 C     16  15   3     1.382574475390   119.44210987   177.26610359
 C     17  16  15     1.384627671975   120.58720825   359.95758626
 C     18  17  16     1.397025948220   120.54140368     0.69120967
 C     19  18  17     1.391788741153   119.00300737   359.56234550
 H     16  15   3     1.078940294919   120.04481730   357.79938631
 H     17  16  15     1.079301950336   119.78748395   180.39855769
 H     18  17  16     1.078712297140   119.17637819   182.26831698
 H     20  19  18     1.078277626588   120.88193296   177.42227958
 C     19  18  17     1.471439873050   120.06783303   180.95908696
 C     25  19  18     1.398998288062   121.87749468   326.38639153
 C     26  25  19     1.384909968193   119.77340053   177.36158121
 C     27  26  25     1.384531364758   119.15378378     0.95236622
 N     28  27  26     1.334876245200   121.21277672     0.59303163
 C     29  28  27     1.333105738492   120.16008255   358.54795357
 H     26  25  19     1.078639277052   120.22165786   356.67445757
 H     27  26  25     1.077984327344   120.65979542   180.70536927
 H     28  27  26     1.087698529005   121.89374760   180.58245234
 H     30  29  28     1.087668722544   116.09666424   182.12348456
 C     24  20  19     5.618796487683   154.51426781   275.14245650
 C     35  24  20     1.208373750129    72.39852630    97.78874856
 C     36  35  24     1.409176035845   178.20992926    25.98963240
 C     37  36  35     1.401579983447   122.18533435   189.53253285
 C     38  37  36     1.383596852410   118.98243039   180.10223062
 C     39  38  37     1.386845993613   119.39243085   359.94594908
 N     40  39  38     1.334703940955   121.42081078   359.69948797
 C     41  40  39     1.332756879555   120.21734418     0.35098289
 H     38  37  36     1.078896848638   120.01422670   359.89625921
 H     39  38  37     1.078019638040   120.65122070   179.83583209
 H     40  39  38     1.086088730261   121.85571650   179.53989792
 H     42  41  40     1.090203508525   117.00485409   180.33905920
 C     35  24  20     1.411349403939   105.43837040   278.39972322
 C     47  35  24     1.396891409523   120.18692210   113.83212621
 C     48  47  35     1.382525189644   119.44453755   182.61932458
 C     49  48  47     1.384485283418   120.54533829   359.92679104
 C     50  49  48     1.397265160948   120.58015093   359.37673062
 C     51  50  49     1.391830201569   119.01739797     0.54024540
 H     48  47  35     1.078954948086   120.02400490     2.07271200
 H     49  48  47     1.079210313146   119.79509274   179.52174450
 H     50  49  48     1.078636681186   119.14398476   177.79809815
 H     52  51  50     1.078361377276   120.89622578   182.36096016
 C     51  50  49     1.471620990609   119.80243774   179.11155665
 C     57  51  50     1.398999674768   121.60514566    33.84647609
 C     58  57  51     1.384723210609   119.77352515   183.33459564
 C     59  58  57     1.384073213381   119.14337826   359.31839443
 N     60  59  58     1.335732705297   121.25192878   358.92771369
 C     61  60  59     1.333760525732   120.13320938     1.58784754
 H     58  57  51     1.078616039191   120.20467042     3.93348028
 H     59  58  57     1.077963352809   120.67713505   179.31189853
 H     60  59  58     1.087759040413   121.76913847   179.19472884
 H     62  61  60     1.086979765221   116.06568525   178.28322930
 C     46  42  41     5.678329072007   106.35044815   272.65360261
 C     67  46  42     1.208457740262    53.36223859    54.87878887
 C     68  67  46     1.408720220626   177.85062775   353.49422435
 C     69  68  67     1.401350370179   122.26540442   211.95381701
 C     70  69  68     1.383959544206   118.98679496   178.99735699
 C     71  70  69     1.386669629003   119.40441545   359.74038745
 N     72  71  70     1.335779566396   121.36661632     0.29368952
 C     73  72  71     1.331657527294   120.25291403     0.00000000
 H     70  69  68     1.078905357295   120.04141591   359.04434344
 H     71  70  69     1.077986688229   120.62792881   179.94963732
 H     72  71  70     1.087342935784   121.95418631   180.19121375
 H     74  73  72     1.088491437725   117.10236367   180.06998709
 C     67  46  42     1.410937606700   124.82529856   236.07695153
 C     79  67  46     1.397020536714   120.27763109   131.85140157
 C     80  79  67     1.382569792090   119.48197155   182.24408663
 C     81  80  79     1.384614144807   120.54656584   359.81295815
 C     82  81  80     1.397012161722   120.52112285   359.63675044
 C     83  82  81     1.391372638800   119.10574737     0.43726044
 H     80  79  67     1.078927791838   120.00817801     1.82258275
 H     81  80  79     1.079256535769   119.79584436   179.55871753
 H     82  81  80     1.078702563268   119.24339547   178.09078755
 H     84  83  82     1.078307368054   120.83921659   182.19780018
 C     83  82  81     1.471872701697   119.88264768   179.68607253
 C     89  83  82     1.399044305946   121.40685064    35.71184575
 C     90  89  83     1.384581254387   119.77381588   182.09258888
 C     91  90  89     1.384197301688   119.08853593   359.39971687
 N     92  91  90     1.334988801451   121.29342826   359.46489125
 C     93  92  91     1.334464270784   120.20190424     1.01510143
 H     90  89  83     1.078668262257   120.13090102     2.87864950
 H     91  90  89     1.077976725166   120.71171832   179.57109512
 H     92  91  90     1.087093671217   121.79120256   179.71233292
 H     94  93  92     1.088258489514   116.01376337   178.22871200
 C     78  74  73     5.430838000714   112.22998927   275.42851230
 C     99  78  74     1.208545890730    56.75521664    52.84846544
 C    100  99  78     1.408851794903   176.25575808     1.65907948
 C    101 100  99     1.401601316352   122.76283607   205.49454429
 C    102 101 100     1.383823319647   118.93261539   178.52918666
 C    103 102 101     1.387635301511   119.50327381   359.54726098
 N    104 103 102     1.333969737288   121.33152750     0.52214254
 C    105 104 103     1.332944882581   120.18937454     0.04999607
 H    102 101 100     1.078925836191   120.07684144   358.63939104
 H    103 102 101     1.078014406212   120.59236897   179.90961596
 H    104 103 102     1.085750850794   121.94360717   180.40664644
 H    106 105 104     1.091014766170   117.23310292   179.78450441
 C     99  78  74     1.410889751185   121.89615415   234.55792825
 C    111  99  78     1.397040224904   120.12605267   131.02588336
 C    112 111  99     1.382424008761   119.51221098   182.30879368
 C    113 112 111     1.384436318507   120.49260489   359.67327225
 C    114 113 112     1.397145436238   120.54234547   359.74511048
 C    115 114 113     1.391081126319   119.16123459     0.51001121
 H    112 111  99     1.078997201109   119.96627884     1.89145490
 H    113 112 111     1.079276326990   119.81407400   179.51834928
 H    114 113 112     1.078784895148   119.25831689   178.24607285
 H    116 115 114     1.078471816971   120.74206068   182.09138348
 C    115 114 113     1.471990492496   119.62377628   180.13490820
 C    121 115 114     1.398607557537   120.99957352    36.72716939
 C    122 121 115     1.384621955625   119.78142080   182.28850838
 C    123 122 121     1.383473696895   119.00293226   359.49844173
 N    124 123 122     1.336512671096   121.38193109   359.23362534
 C    125 124 123     1.333487708980   120.16818049     1.14206945
 H    122 121 115     1.078648719463   120.10343854     3.04532446
 H    123 122 121     1.077940638440   120.74172410   179.58175129
 H    124 123 122     1.088693795335   121.65970699   179.47549878
 H    126 125 124     1.086493433022   116.01272984   178.36057301

---------------------------
INTERNAL COORDINATES (A.U.)
---------------------------
 Pd     0   0   0     0.000000000000     0.00000000     0.00000000
 Pd     1   0   0    18.232463748001     0.00000000     0.00000000
 C      2   1   0    11.932724967926    50.61779214     0.00000000
 C      3   2   1     2.283594828419    28.96792295   165.90266877
 C      4   3   2     2.663135057497   179.00993691    52.48574275
 C      5   4   3     2.648773172383   121.79032401   124.71511532
 C      6   5   4     2.614699746321   119.03757148   180.42348534
 C      7   6   5     2.620243388470   119.34155324     0.27854182
 N      8   7   6     2.523192126178   121.41812075     0.00000000
 C      9   8   7     2.519155727329   120.30715069   359.66197505
 H      6   5   4     2.038907005453   119.97166429     0.52711307
 H      7   6   5     2.037113027282   120.66780592   180.20262246
 H      8   7   6     2.053436259314   121.83336477   180.38967533
 H     10   9   8     2.059405506945   116.85176338   179.85155081
 C      3   2   1     2.667135753358   148.95174416   342.66083763
 C     15   3   2     2.639678410385   120.28877048   216.20660874
 C     16  15   3     2.612687118237   119.44210987   177.26610359
 C     17  16  15     2.616567097482   120.58720825   359.95758626
 C     18  17  16     2.639996444117   120.54140368     0.69120967
 C     19  18  17     2.630099557054   119.00300737   359.56234550
 H     16  15   3     2.038901672249   120.04481730   357.79938631
 H     17  16  15     2.039585101943   119.78748395   180.39855769
 H     18  17  16     2.038470818887   119.17637819   182.26831698
 H     20  19  18     2.037649410586   120.88193296   177.42227958
 C     19  18  17     2.780618382595   120.06783303   180.95908696
 C     25  19  18     2.643723626262   121.87749468   326.38639153
 C     26  25  19     2.617100560022   119.77340053   177.36158121
 C     27  26  25     2.616385103218   119.15378378     0.95236622
 N     28  27  26     2.522550526106   121.21277672     0.59303163
 C     29  28  27     2.519204753309   120.16008255   358.54795357
 H     26  25  19     2.038332830920   120.22165786   356.67445757
 H     27  26  25     2.037095155340   120.65979542   180.70536927
 H     28  27  26     2.055452336089   121.89374760   180.58245234
 H     30  29  28     2.055396010040   116.09666424   182.12348456
 C     24  20  19    10.617986563960   154.51426781   275.14245650
 C     35  24  20     2.283495455163    72.39852630    97.78874856
 C     36  35  24     2.662956782232   178.20992926    25.98963240
 C     37  36  35     2.648602323501   122.18533435   189.53253285
 C     38  37  36     2.614619130811   118.98243039   180.10223062
 C     39  38  37     2.620759117854   119.39243085   359.94594908
 N     40  39  38     2.522224918270   121.42081078   359.69948797
 C     41  40  39     2.518545505458   120.21734418     0.35098289
 H     38  37  36     2.038819570676   120.01422670   359.89625921
 H     39  38  37     2.037161882885   120.65122070   179.83583209
 H     40  39  38     2.052410257332   121.85571650   179.53989792
 H     42  41  40     2.060186061352   117.00485409   180.33905920
 C     35  24  20     2.667063852718   105.43837040   278.39972322
 C     47  35  24     2.639742202826   120.18692210   113.83212621
 C     48  47  35     2.612593981675   119.44453755   182.61932458
 C     49  48  47     2.616298022104   120.54533829   359.92679104
 C     50  49  48     2.640448490662   120.58015093   359.37673062
 C     51  50  49     2.630177905886   119.01739797     0.54024540
 H     48  47  35     2.038929362722   120.02400490     2.07271200
 H     49  48  47     2.039411932749   119.79509274   179.52174450
 H     50  49  48     2.038327925443   119.14398476   177.79809815
 H     52  51  50     2.037807676449   120.89622578   182.36096016
 C     51  50  49     2.780960645180   119.80243774   179.11155665
 C     57  51  50     2.643726246756   121.60514566    33.84647609
 C     58  57  51     2.616747639336   119.77352515   183.33459564
 C     59  58  57     2.615519322587   119.14337826   359.31839443
 N     60  59  58     2.524169001133   121.25192878   358.92771369
 C     61  60  59     2.520442121868   120.13320938     1.58784754
 H     58  57  51     2.038288917726   120.20467042     3.93348028
 H     59  58  57     2.037055519213   120.67713505   179.31189853
 H     60  59  58     2.055566686077   121.76913847   179.19472884
 H     62  61  60     2.054094069382   116.06568525   178.28322930
 C     46  42  41    10.730486844376   106.35044815   272.65360261
 C     67  46  42     2.283654173513    53.36223859    54.87878887
 C     68  67  46     2.662095416300   177.85062775   353.49422435
 C     69  68  67     2.648168417307   122.26540442   211.95381701
 C     70  69  68     2.615304518977   118.98679496   178.99735699
 C     71  70  69     2.620425837042   119.40441545   359.74038745
 N     72  71  70     2.524257555776   121.36661632     0.29368952
 C     73  72  71     2.516468030761   120.25291403     0.00000000
 H     70  69  68     2.038835649708   120.04141591   359.04434344
 H     71  70  69     2.037099616767   120.62792881   179.94963732
 H     72  71  70     2.054780362286   121.95418631   180.19121375
 H     74  73  72     2.056950716418   117.10236367   180.06998709
 C     67  46  42     2.666285668713   124.82529856   236.07695153
 C     79  67  46     2.639986217853   120.27763109   131.85140157
 C     80  79  67     2.612678268083   119.48197155   182.24408663
 C     81  80  79     2.616541534839   120.54656584   359.81295815
 C     82  81  80     2.639970391412   120.52112285   359.63675044
 C     83  82  81     2.629313237562   119.10574737     0.43726044
 H     80  79  67     2.038878044850   120.00817801     1.82258275
 H     81  80  79     2.039499280848   119.79584436   179.55871753
 H     82  81  80     2.038452424535   119.24339547   178.09078755
 H     84  83  82     2.037705613812   120.83921659   182.19780018
 C     83  82  81     2.781436310202   119.88264768   179.68607253
 C     89  83  82     2.643810587460   121.40685064    35.71184575
 C     90  89  83     2.616479380953   119.77381588   182.09258888
 C     91  90  89     2.615753815503   119.08853593   359.39971687
 N     92  91  90     2.522763226594   121.29342826   359.46489125
 C     93  92  91     2.521772007285   120.20190424     1.01510143
 H     90  89  83     2.038387605018   120.13090102     2.87864950
 H     91  90  89     2.037080789305   120.71171832   179.57109512
 H     92  91  90     2.054309320519   121.79120256   179.71233292
 H     94  93  92     2.056510508097   116.01376337   178.22871200
 C     78  74  73    10.262796499042   112.22998927   275.42851230
 C     99  78  74     2.283820753755    56.75521664    52.84846544
 C    100  99  78     2.662344055649   176.25575808     1.65907948
 C    101 100  99     2.648642636849   122.76283607   205.49454429
 C    102 101 100     2.615047091867   118.93261539   178.52918666
 C    103 102 101     2.622250693617   119.50327381   359.54726098
 N    104 103 102     2.520837474413   121.33152750     0.52214254
 C    105 104 103     2.518900779691   120.18937454     0.04999607
 H    102 101 100     2.038874349213   120.07684144   358.63939104
 H    103 102 101     2.037151996162   120.59236897   179.90961596
 H    104 103 102     2.051771757673   121.94360717   180.40664644
 H    106 105 104     2.061719116125   117.23310292   179.78450441
 C     99  78  74     2.666195234897   121.89615415   234.55792825
 C    111  99  78     2.640023423140   120.12605267   131.02588336
 C    112 111  99     2.612402777517   119.51221098   182.30879368
 C    113 112 111     2.616205491832   120.49260489   359.67327225
 C    114 113 112     2.640222243747   120.54234547   359.74511048
 C    115 114 113     2.628762358809   119.16123459     0.51001121
 H    112 111  99     2.039009209363   119.96627884     1.89145490
 H    113 112 111     2.039536680835   119.81407400   179.51834928
 H    114 113 112     2.038608009241   119.25831689   178.24607285
 H    116 115 114     2.038016377227   120.74206068   182.09138348
 C    115 114 113     2.781658902554   119.62377628   180.13490820
 C    121 115 114     2.642985252578   120.99957352    36.72716939
 C    122 121 115     2.616556295147   119.78142080   182.28850838
 C    123 122 121     2.614386400615   119.00293226   359.49844173
 N    124 123 122     2.525642922887   121.38193109   359.23362534
 C    125 124 123     2.519926572922   120.16818049     1.14206945
 H    122 121 115     2.038350674491   120.10343854     3.04532446
 H    123 122 121     2.037012595275   120.74172410   179.58175129
 H    124 123 122     2.057333116882   121.65970699   179.47549878
 H    126 125 124     2.053175034716   116.01272984   178.36057301

---------------------
BASIS SET INFORMATION
---------------------
There are 4 groups of distinct atoms

 Group   1 Type Pd  : 7s6p5d1f contracted to 5s3p2d1f pattern {31111/411/41/1}
 Group   2 Type C   : 7s4p1d contracted to 3s2p1d pattern {511/31/1}
 Group   3 Type N   : 7s4p1d contracted to 3s2p1d pattern {511/31/1}
 Group   4 Type H   : 4s1p contracted to 2s1p pattern {31/1}

Atom   0Pd   basis set group =>   1
Atom   1Pd   basis set group =>   1
Atom   2C    basis set group =>   2
Atom   3C    basis set group =>   2
Atom   4C    basis set group =>   2
Atom   5C    basis set group =>   2
Atom   6C    basis set group =>   2
Atom   7C    basis set group =>   2
Atom   8N    basis set group =>   3
Atom   9C    basis set group =>   2
Atom  10H    basis set group =>   4
Atom  11H    basis set group =>   4
Atom  12H    basis set group =>   4
Atom  13H    basis set group =>   4
Atom  14C    basis set group =>   2
Atom  15C    basis set group =>   2
Atom  16C    basis set group =>   2
Atom  17C    basis set group =>   2
Atom  18C    basis set group =>   2
Atom  19C    basis set group =>   2
Atom  20H    basis set group =>   4
Atom  21H    basis set group =>   4
Atom  22H    basis set group =>   4
Atom  23H    basis set group =>   4
Atom  24C    basis set group =>   2
Atom  25C    basis set group =>   2
Atom  26C    basis set group =>   2
Atom  27C    basis set group =>   2
Atom  28N    basis set group =>   3
Atom  29C    basis set group =>   2
Atom  30H    basis set group =>   4
Atom  31H    basis set group =>   4
Atom  32H    basis set group =>   4
Atom  33H    basis set group =>   4
Atom  34C    basis set group =>   2
Atom  35C    basis set group =>   2
Atom  36C    basis set group =>   2
Atom  37C    basis set group =>   2
Atom  38C    basis set group =>   2
Atom  39C    basis set group =>   2
Atom  40N    basis set group =>   3
Atom  41C    basis set group =>   2
Atom  42H    basis set group =>   4
Atom  43H    basis set group =>   4
Atom  44H    basis set group =>   4
Atom  45H    basis set group =>   4
Atom  46C    basis set group =>   2
Atom  47C    basis set group =>   2
Atom  48C    basis set group =>   2
Atom  49C    basis set group =>   2
Atom  50C    basis set group =>   2
Atom  51C    basis set group =>   2
Atom  52H    basis set group =>   4
Atom  53H    basis set group =>   4
Atom  54H    basis set group =>   4
Atom  55H    basis set group =>   4
Atom  56C    basis set group =>   2
Atom  57C    basis set group =>   2
Atom  58C    basis set group =>   2
Atom  59C    basis set group =>   2
Atom  60N    basis set group =>   3
Atom  61C    basis set group =>   2
Atom  62H    basis set group =>   4
Atom  63H    basis set group =>   4
Atom  64H    basis set group =>   4
Atom  65H    basis set group =>   4
Atom  66C    basis set group =>   2
Atom  67C    basis set group =>   2
Atom  68C    basis set group =>   2
Atom  69C    basis set group =>   2
Atom  70C    basis set group =>   2
Atom  71C    basis set group =>   2
Atom  72N    basis set group =>   3
Atom  73C    basis set group =>   2
Atom  74H    basis set group =>   4
Atom  75H    basis set group =>   4
Atom  76H    basis set group =>   4
Atom  77H    basis set group =>   4
Atom  78C    basis set group =>   2
Atom  79C    basis set group =>   2
Atom  80C    basis set group =>   2
Atom  81C    basis set group =>   2
Atom  82C    basis set group =>   2
Atom  83C    basis set group =>   2
Atom  84H    basis set group =>   4
Atom  85H    basis set group =>   4
Atom  86H    basis set group =>   4
Atom  87H    basis set group =>   4
Atom  88C    basis set group =>   2
Atom  89C    basis set group =>   2
Atom  90C    basis set group =>   2
Atom  91C    basis set group =>   2
Atom  92N    basis set group =>   3
Atom  93C    basis set group =>   2
Atom  94H    basis set group =>   4
Atom  95H    basis set group =>   4
Atom  96H    basis set group =>   4
Atom  97H    basis set group =>   4
Atom  98C    basis set group =>   2
Atom  99C    basis set group =>   2
Atom 100C    basis set group =>   2
Atom 101C    basis set group =>   2
Atom 102C    basis set group =>   2
Atom 103C    basis set group =>   2
Atom 104N    basis set group =>   3
Atom 105C    basis set group =>   2
Atom 106H    basis set group =>   4
Atom 107H    basis set group =>   4
Atom 108H    basis set group =>   4
Atom 109H    basis set group =>   4
Atom 110C    basis set group =>   2
Atom 111C    basis set group =>   2
Atom 112C    basis set group =>   2
Atom 113C    basis set group =>   2
Atom 114C    basis set group =>   2
Atom 115C    basis set group =>   2
Atom 116H    basis set group =>   4
Atom 117H    basis set group =>   4
Atom 118H    basis set group =>   4
Atom 119H    basis set group =>   4
Atom 120C    basis set group =>   2
Atom 121C    basis set group =>   2
Atom 122C    basis set group =>   2
Atom 123C    basis set group =>   2
Atom 124N    basis set group =>   3
Atom 125C    basis set group =>   2
Atom 126H    basis set group =>   4
Atom 127H    basis set group =>   4
Atom 128H    basis set group =>   4
Atom 129H    basis set group =>   4

-------------------------
BASIS SET IN INPUT FORMAT
-------------------------

 # Basis set for element : H 
 NewGTO H 
 S 3 
   1      13.0107010000      0.0334854848
   2       1.9622572000      0.2347218709
   3       0.4445379600      0.8137702853
 S 1 
   1       0.1219496200      1.0000000000
 P 1 
   1       0.8000000000      1.0000000000
  end;

 # Basis set for element : C 
 NewGTO C 
 S 5 
   1    1238.4016938000      0.0055173650
   2     186.2900499200      0.0410888285
   3      42.2511763460      0.1822538213
   4      11.6765579320      0.4682845944
   5       3.5930506482      0.4457581734
 S 1 
   1       0.4024514736      1.0000000000
 S 1 
   1       0.1309018267      1.0000000000
 P 3 
   1       9.4680970621      0.0568883320
   2       2.0103545142      0.3129405934
   3       0.5477100471      0.7606501651
 P 1 
   1       0.1526861379      1.0000000000
 D 1 
   1       0.8000000000      1.0000000000
  end;

 # Basis set for element : N 
 NewGTO N 
 S 5 
   1    1712.8415853000     -0.0054477995
   2     257.6481267700     -0.0406271746
   3      58.4582458530     -0.1811196225
   4      16.1983679050     -0.4684397556
   5       5.0052600809     -0.4461684629
 S 1 
   1       0.5873185657      1.0000000000
 S 1 
   1       0.1876459225      1.0000000000
 P 3 
   1      13.5714702330     -0.0588481170
   2       2.9257372874     -0.3202462476
   3       0.7992775075     -0.7532822652
 P 1 
   1       0.2195434803      1.0000000000
 D 1 
   1       1.0000000000      1.0000000000
  end;

 # Basis set for element : Pd
 NewGTO Pd
 S 3 
   1       8.4756400000      2.1727229431
   2       7.1657170000     -2.9039633126
   3       3.1821100000     -0.2310570076
 S 1 
   1       1.3973644196      1.0000000000
 S 1 
   1       0.6053295587      1.0000000000
 S 1 
   1       0.1022951421      1.0000000000
 S 1 
   1       0.0373389729      1.0000000000
 P 4 
   1       4.2460970000     -0.8346018694
   2       3.3925940000      0.8828643810
   3       1.1975891264      0.6438870170
   4       0.5267375059      0.2760105151
 P 1 
   1       0.2060709410      1.0000000000
 P 1 
   1       0.0370000000      1.0000000000
 D 4 
   1       7.3613290985     -0.0186922795
   2       2.6291037258      0.2533662423
   3       1.1292744634      0.4840070353
   4       0.4447165990      0.4270306822
 D 1 
   1       0.1554489384      1.0000000000
 F 1 
   1       1.2462900000      1.0000000000
  end;

-------------------------
ECP PARAMETER INFORMATION
-------------------------

 Group 1, Type Pd ECP Def2-ECP (replacing 28 core electrons, lmax=3)

Atom   0Pd   ECP group =>   1
Atom   1Pd   ECP group =>   1


-------------------------
ECP BASIS IN INPUT FORMAT
-------------------------

 #ECP Def2-ECP
 NewECP Pd
   N_core 28
   lmax f
   s 4
     1      12.4300000000    240.2290403000  2
     2       6.1707594000     35.1719435000  2
     3      13.2700000000     31.9295543000  2
     4       6.6300000000      5.3982169000  2
   p 4
     1      11.0800000000    170.4172760000  2
     2       5.8295541000     28.4721329000  2
     3      13.2700000000     31.9295543000  2
     4       6.6300000000      5.3982169000  2
   d 4
     1       9.5100000000     69.0138449000  2
     2       4.1397811000     11.7508616000  2
     3      13.2700000000     31.9295543000  2
     4       6.6300000000      5.3982169000  2
   f 2
     1      13.2700000000    -31.9295543000  2
     2       6.6300000000     -5.3982169000  2
 End




           ************************************************************
           *        Program running with 32 parallel MPI-processes    *
           *              working on a common directory               *
           ************************************************************
------------------------------------------------------------------------------
                           ORCA GTO INTEGRAL CALCULATION
------------------------------------------------------------------------------

                         BASIS SET STATISTICS AND STARTUP INFO

 # of primitive gaussian shells          ... 1238
 # of primitive gaussian functions       ... 2370
 # of contracted shells                  ...  646
 # of contracted basis functions         ... 1422
 Highest angular momentum                ...    3
 Maximum contraction depth               ...    5
 Integral package used                   ... LIBINT
 Integral threshhold            Thresh   ...  2.500e-11
 Primitive cut-off              TCut     ...  2.500e-12


------------------------------ INTEGRAL EVALUATION ----------------------------


 * One electron integrals 

   ECP integrals                         ... done
 Pre-screening matrix                    ... done
 Shell pair data                         ... done (   0.026 sec)



           ************************************************************
           *        Program running with 32 parallel MPI-processes    *
           *              working on a common directory               *
           ************************************************************
-------------------------------------------------------------------------------
                                 ORCA SCF
-------------------------------------------------------------------------------

------------
SCF SETTINGS
------------
Hamiltonian:
 Density Functional     Method          .... DFT(GTOs)
 Exchange Functional    Exchange        .... PBE
   PBE kappa parameter   XKappa         ....  0.804000
   PBE mue parameter    XMuePBE         ....  0.219520
 Correlation Functional Correlation     .... PBE
   PBE beta parameter  CBetaPBE         ....  0.066725
 LDA part of GGA corr.  LDAOpt          .... PW91-LDA
 Gradients option       PostSCFGGA      .... off
 Hybrid DFT is turned on
   Fraction HF Exchange ScalHFX         ....  0.250000
   Scaling of DF-GGA-X  ScalDFX         ....  0.750000
   Scaling of DF-GGA-C  ScalDFC         ....  1.000000
   Scaling of DF-LDA-C  ScalLDAC        ....  1.000000
   Perturbative correction              ....  0.000000
   Density functional embedding theory  .... OFF
   NL short-range parameter             ....  6.900000


General Settings:
 Integral files         IntName         .... _s_3d1_b_PBE0
 Hartree-Fock type      HFTyp           .... RHF
 Total Charge           Charge          ....    4
 Multiplicity           Mult            ....    1
 Number of Electrons    NEL             ....  568
 Basis Dimension        Dim             .... 1422
 Nuclear Repulsion      ENuc            ....  13805.8819686207 Eh

Convergence Acceleration:
 DIIS                   CNVDIIS         .... on
   Start iteration      DIISMaxIt       ....     0
   Startup error        DIISStart       ....  0.200000
   # of expansion vecs  DIISMaxEq       ....     5
   Bias factor          DIISBfac        ....   1.050
   Max. coefficient     DIISMaxC        ....  10.000
 Newton-Raphson         CNVNR           .... off
 SOSCF                  CNVSOSCF        .... off
 Level Shifting         CNVShift        .... on
   Level shift para.    LevelShift      ....    0.2500
   Turn off err/grad.   ShiftErr        ....    0.0000
 Zerner damping         CNVZerner       .... off
 Static damping         CNVDamp         .... on
   Fraction old density DampFac         ....    0.8500
   Max. Damping (<1)    DampMax         ....    0.9800
   Min. Damping (>=0)   DampMin         ....    0.0000
   Turn off err/grad.   DampErr         ....    0.0300
 Fernandez-Rico         CNVRico         .... off

SCF Procedure:
 Maximum # iterations   MaxIter         ....  2000
 SCF integral mode      SCFMode         .... Direct
   Integral package                     .... LIBINT
 Reset frequency        DirectResetFreq ....    20
 Integral Threshold     Thresh          ....  2.500e-11 Eh
 Primitive CutOff       TCut            ....  2.500e-12 Eh

Convergence Tolerance:
 Convergence Check Mode ConvCheckMode   .... Total+1el-Energy
 Convergence forced     ConvForced      .... 0
 Energy Change          TolE            ....  1.000e-08 Eh
 1-El. energy change                    ....  1.000e-05 Eh
 DIIS Error             TolErr          ....  5.000e-07


Diagonalization of the overlap matrix:
Smallest eigenvalue                        ... 2.614e-04
Time for diagonalization                   ...    0.436 sec
Threshold for overlap eigenvalues          ... 1.000e-08
Number of eigenvalues below threshold      ... 0
Time for construction of square roots      ...    0.233 sec
Total time needed                          ...    0.673 sec

-------------------
DFT GRID GENERATION
-------------------

General Integration Accuracy     IntAcc      ...  5.340
Radial Grid Type                 RadialGrid  ... Gauss-Chebyshev
Angular Grid (max. acc.)         AngularGrid ... Lebedev-590
Angular grid pruning method      GridPruning ... 3 (G Style)
Weight generation scheme         WeightScheme... Becke
Basis function cutoff            BFCut       ...    1.0000e-11
Integration weight cutoff        WCut        ...    1.0000e-14
Grids for H and He will be reduced by one unit

# of grid points (after initial pruning)     ... 1898500 (   0.0 sec)
# of grid points (after weights+screening)   ... 1564298 (   7.5 sec)
nearest neighbour list constructed           ...    0.0 sec
Grid point re-assignment to atoms done       ...    0.2 sec
Grid point division into batches done        ...   16.1 sec
Reduced shell lists constructed in   17.0 sec

Total number of grid points                  ...  1564298
Total number of batches                      ...    24507
Average number of points per batch           ...       63
Average number of grid points per atom       ...    12033
Average number of shells per batch           ...   152.34 (23.58%)
Average number of basis functions per batch  ...   310.20 (21.81%)
Average number of large shells per batch     ...    85.53 (56.14%)
Average number of large basis fcns per batch ...   175.53 (56.59%)
Maximum spatial batch extension              ...  10.61,  5.01, 12.73 au
Average spatial batch extension              ...   0.03,  0.03,  0.03 au

Time for grid setup =   25.141 sec

------------------------------
INITIAL GUESS: MODEL POTENTIAL
------------------------------
Loading Hartree-Fock densities                     ... done
  calling /work/e05/e05/atarzia/orca_4_2_1_linux_x86-64_openmpi314/orca _s_3d1_b_PBE0_atom46.inp > _s_3d1_b_PBE0_atom46.out in order to generate an atomic fitting density for atom 0 (Pd with ECP) on-the-fly... 
    atom 0 (Pd), assumed electronic state with S=3: 1s2 2s2 2p6 3s2 3p6 4s2 3d10 4p6 5s2 4d8           ... done
Calculating cut-offs                               ... done
Setting up the integral package                    ... done
Initializing the effective Hamiltonian             ... done
Starting the Coulomb interaction                   ... done (   0.5 sec)
Reading the grid                                   ... done
Mapping shells                                     ... done
Starting the XC term evaluation                    ... done (   0.8 sec)
  promolecular density results
     # of electrons  =    627.963768315
     EX              =   -712.279241041
     EC              =    -22.931611909
     EX+EC           =   -735.210852950
Transforming the Hamiltonian                       ... done (   0.1 sec)
Diagonalizing the Hamiltonian                      ... done (   0.3 sec)
Back transforming the eigenvectors                 ... done (   0.1 sec)
Now organizing SCF variables                       ... done
                      ------------------
                      INITIAL GUESS DONE (  60.5 sec)
                      ------------------
--------------
SCF ITERATIONS
--------------
ITER       Energy         Delta-E        Max-DP      RMS-DP      [F,P]     Damp
               ***  Starting incremental Fock matrix formation  ***
  0  -3458.0566436323   0.000000000000 0.03282966  0.00039328  0.4577710 0.8500
  1  -3458.2929201549  -0.236276522623 0.02780448  0.00036656  0.3872040 0.8500
                               ***Turning on DIIS***
  2  -3458.4648236425  -0.171903487550 0.02253613  0.00029200  0.3266502 0.8500
  3  -3458.5834447952  -0.118621152762 0.01724317  0.00019544  0.2756126 0.8500
  4  -3458.6719899422  -0.088545146988 0.01378535  0.00014503  0.2332939 0.8500
  5  -3458.7402727249  -0.068282782677 0.01138049  0.00011698  0.1979529 0.8500
  6  -3458.7953564281  -0.055083703166 0.00962930  0.00009814  0.1682290 0.8500
  7  -3458.8409694391  -0.045613011087 0.00826913  0.00008468  0.1430625 0.8500
  8  -3458.8793087967  -0.038339357601 0.00716777  0.00007298  0.1216538 0.8500
  9  -3458.9114460571  -0.032137260394 0.00614002  0.00006214  0.1033779 0.8500
 10  -3458.9383392261  -0.026893169006 0.00518467  0.00005258  0.0878073 0.8500
 11  -3458.9608892790  -0.022550052890 0.00436577  0.00004447  0.0745903 0.8500
 12  -3458.9798575846  -0.018968305614 0.00369834  0.00003772  0.0633850 0.8500
 13  -3458.9958485806  -0.015990995995 0.00315482  0.00003205  0.0538729 0.8500
 14  -3459.0093441606  -0.013495579975 0.00269068  0.00002721  0.0457822 0.8500
 15  -3459.0207435057  -0.011399345116 0.00228304  0.00002309  0.0388984 0.8500
 16  -3459.0303815892  -0.009638083473 0.00193160  0.00001957  0.0330488 0.8500
 17  -3459.0385385401  -0.008156950902 0.01091588  0.00011066  0.0280829 0.0000
 18  -3459.0841876530  -0.045649112928 0.00022788  0.00000272  0.0001912 0.0000
 19  -3459.0841902837  -0.000002630693 0.00011394  0.00000101  0.0000870 0.0000
               *** Restarting incremental Fock matrix formation ***
                                   *** Resetting DIIS ***
 20  -3459.0841904573  -0.000000173568 0.00008592  0.00000070  0.0000423 0.0000
 21  -3459.0841904185   0.000000038837 0.00003500  0.00000023  0.0000580 0.0000
 22  -3459.0841905513  -0.000000132852 0.00001626  0.00000014  0.0000147 0.0000
 23  -3459.0841906104  -0.000000059117 0.00000976  0.00000009  0.0000052 0.0000
 24  -3459.0841905961   0.000000014285 0.00000640  0.00000005  0.0000018 0.0000
                            ***DIIS convergence achieved***

               *****************************************************
               *                     SUCCESS                       *
               *           SCF CONVERGED AFTER  25 CYCLES          *
               *****************************************************


----------------
TOTAL SCF ENERGY
----------------

Total Energy       :        -3459.08419058 Eh          -94126.46612 eV

Components:
Nuclear Repulsion  :        13805.88196862 Eh          375677.14742 eV
Electronic Energy  :       -17264.96615921 Eh         -469803.61355 eV
One Electron Energy:       -32136.08274578 Eh         -874467.26857 eV
Two Electron Energy:        14871.11658658 Eh          404663.65502 eV

Virial components:
Potential Energy   :        -6727.68729736 Eh         -183069.67844 eV
Kinetic Energy     :         3268.60310678 Eh           88943.21232 eV
Virial Ratio       :            2.05827599


DFT components:
N(Alpha)           :      284.000070264750 electrons
N(Beta)            :      284.000070264750 electrons
N(Total)           :      568.000140529499 electrons
E(X)               :     -348.393676355672 Eh       
E(C)               :      -19.521752816136 Eh       
E(XC)              :     -367.915429171808 Eh       
DFET-embed. en.    :        0.000000000000 Eh       

---------------
SCF CONVERGENCE
---------------

  Last Energy change         ...    1.1814e-08  Tolerance :   1.0000e-08
  Last MAX-Density change    ...    3.1113e-06  Tolerance :   1.0000e-07
  Last RMS-Density change    ...    2.8505e-08  Tolerance :   5.0000e-09
  Last DIIS Error            ...    6.7828e-07  Tolerance :   5.0000e-07

             **** THE GBW FILE WAS UPDATED (_s_3d1_b_PBE0.gbw) ****
             **** DENSITY FILE WAS UPDATED (_s_3d1_b_PBE0.scfp) ****
             **** ENERGY FILE WAS UPDATED (_s_3d1_b_PBE0.en.tmp) ****
             **** THE GBW FILE WAS UPDATED (_s_3d1_b_PBE0.gbw) ****
             **** DENSITY FILE WAS UPDATED (_s_3d1_b_PBE0.scfp) ****
----------------
ORBITAL ENERGIES
----------------

  NO   OCC          E(Eh)            E(eV) 
   0   2.0000     -14.778988      -402.1567 
   1   2.0000     -14.777266      -402.1098 
   2   2.0000     -14.777190      -402.1078 
   3   2.0000     -14.776489      -402.0887 
   4   2.0000     -14.776101      -402.0781 
   5   2.0000     -14.775646      -402.0658 
   6   2.0000     -14.775599      -402.0645 
   7   2.0000     -14.773440      -402.0057 
   8   2.0000     -10.611830      -288.7626 
   9   2.0000     -10.610241      -288.7193 
  10   2.0000     -10.610057      -288.7143 
  11   2.0000     -10.609322      -288.6943 
  12   2.0000     -10.606259      -288.6110 
  13   2.0000     -10.605672      -288.5950 
  14   2.0000     -10.605200      -288.5822 
  15   2.0000     -10.604914      -288.5744 
  16   2.0000     -10.603462      -288.5349 
  17   2.0000     -10.603265      -288.5295 
  18   2.0000     -10.603096      -288.5249 
  19   2.0000     -10.602730      -288.5150 
  20   2.0000     -10.601879      -288.4918 
  21   2.0000     -10.601604      -288.4843 
  22   2.0000     -10.601206      -288.4735 
  23   2.0000     -10.599354      -288.4231 
  24   2.0000     -10.589987      -288.1682 
  25   2.0000     -10.588238      -288.1206 
  26   2.0000     -10.588011      -288.1144 
  27   2.0000     -10.587108      -288.0898 
  28   2.0000     -10.574359      -287.7429 
  29   2.0000     -10.574062      -287.7348 
  30   2.0000     -10.573665      -287.7241 
  31   2.0000     -10.571703      -287.6707 
  32   2.0000     -10.571430      -287.6632 
  33   2.0000     -10.569839      -287.6199 
  34   2.0000     -10.569537      -287.6117 
  35   2.0000     -10.568517      -287.5840 
  36   2.0000     -10.566717      -287.5350 
  37   2.0000     -10.566513      -287.5294 
  38   2.0000     -10.565854      -287.5115 
  39   2.0000     -10.563881      -287.4578 
  40   2.0000     -10.563177      -287.4387 
  41   2.0000     -10.561456      -287.3918 
  42   2.0000     -10.561137      -287.3832 
  43   2.0000     -10.560734      -287.3722 
  44   2.0000     -10.560292      -287.3602 
  45   2.0000     -10.559923      -287.3501 
  46   2.0000     -10.559489      -287.3383 
  47   2.0000     -10.557487      -287.2838 
  48   2.0000     -10.548571      -287.0412 
  49   2.0000     -10.548370      -287.0357 
  50   2.0000     -10.548295      -287.0337 
  51   2.0000     -10.547870      -287.0221 
  52   2.0000     -10.544260      -286.9239 
  53   2.0000     -10.544160      -286.9212 
  54   2.0000     -10.544001      -286.9169 
  55   2.0000     -10.542953      -286.8883 
  56   2.0000     -10.540519      -286.8221 
  57   2.0000     -10.539543      -286.7956 
  58   2.0000     -10.539468      -286.7935 
  59   2.0000     -10.538855      -286.7768 
  60   2.0000     -10.538237      -286.7600 
  61   2.0000     -10.538104      -286.7564 
  62   2.0000     -10.537835      -286.7491 
  63   2.0000     -10.537121      -286.7296 
  64   2.0000     -10.532493      -286.6037 
  65   2.0000     -10.531896      -286.5875 
  66   2.0000     -10.531886      -286.5872 
  67   2.0000     -10.531416      -286.5744 
  68   2.0000     -10.526309      -286.4354 
  69   2.0000     -10.526215      -286.4329 
  70   2.0000     -10.525940      -286.4254 
  71   2.0000     -10.525045      -286.4010 
  72   2.0000     -10.524209      -286.3783 
  73   2.0000     -10.523960      -286.3715 
  74   2.0000     -10.523930      -286.3707 
  75   2.0000     -10.523513      -286.3593 
  76   2.0000     -10.515502      -286.1414 
  77   2.0000     -10.515398      -286.1385 
  78   2.0000     -10.515174      -286.1324 
  79   2.0000     -10.514426      -286.1121 
  80   2.0000      -3.875407      -105.4552 
  81   2.0000      -3.874833      -105.4396 
  82   2.0000      -2.552884       -69.4675 
  83   2.0000      -2.552510       -69.4573 
  84   2.0000      -2.552355       -69.4531 
  85   2.0000      -2.552081       -69.4456 
  86   2.0000      -2.515873       -68.4604 
  87   2.0000      -2.515451       -68.4489 
  88   2.0000      -1.330279       -36.1987 
  89   2.0000      -1.330273       -36.1986 
  90   2.0000      -1.323214       -36.0065 
  91   2.0000      -1.323038       -36.0017 
  92   2.0000      -1.322480       -35.9865 
  93   2.0000      -1.320980       -35.9457 
  94   2.0000      -1.320268       -35.9263 
  95   2.0000      -1.319459       -35.9043 
  96   2.0000      -1.189290       -32.3622 
  97   2.0000      -1.188893       -32.3514 
  98   2.0000      -1.188613       -32.3438 
  99   2.0000      -1.187804       -32.3218 
 100   2.0000      -1.167199       -31.7611 
 101   2.0000      -1.166416       -31.7398 
 102   2.0000      -1.164796       -31.6957 
 103   2.0000      -1.163968       -31.6732 
 104   2.0000      -1.153194       -31.3800 
 105   2.0000      -1.151591       -31.3364 
 106   2.0000      -1.151090       -31.3227 
 107   2.0000      -1.150071       -31.2950 
 108   2.0000      -1.127614       -30.6839 
 109   2.0000      -1.126819       -30.6623 
 110   2.0000      -1.125552       -30.6278 
 111   2.0000      -1.124615       -30.6023 
 112   2.0000      -1.122561       -30.5465 
 113   2.0000      -1.121699       -30.5230 
 114   2.0000      -1.121033       -30.5048 
 115   2.0000      -1.119621       -30.4664 
 116   2.0000      -1.090575       -29.6761 
 117   2.0000      -1.090026       -29.6611 
 118   2.0000      -1.089928       -29.6584 
 119   2.0000      -1.089451       -29.6455 
 120   2.0000      -1.058382       -28.8000 
 121   2.0000      -1.057853       -28.7856 
 122   2.0000      -1.057400       -28.7733 
 123   2.0000      -1.056615       -28.7520 
 124   2.0000      -1.045716       -28.4554 
 125   2.0000      -1.045274       -28.4434 
 126   2.0000      -1.044757       -28.4293 
 127   2.0000      -1.043913       -28.4063 
 128   2.0000      -0.995734       -27.0953 
 129   2.0000      -0.995072       -27.0773 
 130   2.0000      -0.994332       -27.0572 
 131   2.0000      -0.992060       -26.9953 
 132   2.0000      -0.984271       -26.7834 
 133   2.0000      -0.983605       -26.7653 
 134   2.0000      -0.982594       -26.7377 
 135   2.0000      -0.980808       -26.6891 
 136   2.0000      -0.977999       -26.6127 
 137   2.0000      -0.977036       -26.5865 
 138   2.0000      -0.975349       -26.5406 
 139   2.0000      -0.974469       -26.5167 
 140   2.0000      -0.973122       -26.4800 
 141   2.0000      -0.973077       -26.4788 
 142   2.0000      -0.971476       -26.4352 
 143   2.0000      -0.970861       -26.4185 
 144   2.0000      -0.929390       -25.2900 
 145   2.0000      -0.928183       -25.2571 
 146   2.0000      -0.927054       -25.2264 
 147   2.0000      -0.926775       -25.2188 
 148   2.0000      -0.916113       -24.9287 
 149   2.0000      -0.914014       -24.8716 
 150   2.0000      -0.913322       -24.8527 
 151   2.0000      -0.912845       -24.8398 
 152   2.0000      -0.902570       -24.5602 
 153   2.0000      -0.896633       -24.3986 
 154   2.0000      -0.892517       -24.2866 
 155   2.0000      -0.887359       -24.1463 
 156   2.0000      -0.885683       -24.1007 
 157   2.0000      -0.880190       -23.9512 
 158   2.0000      -0.876544       -23.8520 
 159   2.0000      -0.876407       -23.8482 
 160   2.0000      -0.850513       -23.1436 
 161   2.0000      -0.848946       -23.1010 
 162   2.0000      -0.848128       -23.0787 
 163   2.0000      -0.846261       -23.0279 
 164   2.0000      -0.840697       -22.8765 
 165   2.0000      -0.839916       -22.8553 
 166   2.0000      -0.839344       -22.8397 
 167   2.0000      -0.838584       -22.8190 
 168   2.0000      -0.838096       -22.8058 
 169   2.0000      -0.837450       -22.7882 
 170   2.0000      -0.836740       -22.7689 
 171   2.0000      -0.835157       -22.7258 
 172   2.0000      -0.827529       -22.5182 
 173   2.0000      -0.825652       -22.4671 
 174   2.0000      -0.824691       -22.4410 
 175   2.0000      -0.822816       -22.3900 
 176   2.0000      -0.806839       -21.9552 
 177   2.0000      -0.804557       -21.8931 
 178   2.0000      -0.802032       -21.8244 
 179   2.0000      -0.799745       -21.7622 
 180   2.0000      -0.798765       -21.7355 
 181   2.0000      -0.795397       -21.6438 
 182   2.0000      -0.789860       -21.4932 
 183   2.0000      -0.786121       -21.3915 
 184   2.0000      -0.783966       -21.3328 
 185   2.0000      -0.782398       -21.2901 
 186   2.0000      -0.781300       -21.2603 
 187   2.0000      -0.779872       -21.2214 
 188   2.0000      -0.779278       -21.2052 
 189   2.0000      -0.777447       -21.1554 
 190   2.0000      -0.776474       -21.1289 
 191   2.0000      -0.775824       -21.1113 
 192   2.0000      -0.775354       -21.0985 
 193   2.0000      -0.774803       -21.0835 
 194   2.0000      -0.773790       -21.0559 
 195   2.0000      -0.773150       -21.0385 
 196   2.0000      -0.771718       -20.9995 
 197   2.0000      -0.771263       -20.9871 
 198   2.0000      -0.770183       -20.9578 
 199   2.0000      -0.766967       -20.8702 
 200   2.0000      -0.766022       -20.8445 
 201   2.0000      -0.765331       -20.8257 
 202   2.0000      -0.759494       -20.6669 
 203   2.0000      -0.756282       -20.5795 
 204   2.0000      -0.755558       -20.5598 
 205   2.0000      -0.754682       -20.5359 
 206   2.0000      -0.750795       -20.4302 
 207   2.0000      -0.748440       -20.3661 
 208   2.0000      -0.745953       -20.2984 
 209   2.0000      -0.745822       -20.2948 
 210   2.0000      -0.745219       -20.2784 
 211   2.0000      -0.744655       -20.2631 
 212   2.0000      -0.728932       -19.8352 
 213   2.0000      -0.728557       -19.8251 
 214   2.0000      -0.728268       -19.8172 
 215   2.0000      -0.727560       -19.7979 
 216   2.0000      -0.717784       -19.5319 
 217   2.0000      -0.717234       -19.5169 
 218   2.0000      -0.714888       -19.4531 
 219   2.0000      -0.713661       -19.4197 
 220   2.0000      -0.706349       -19.2207 
 221   2.0000      -0.705643       -19.2015 
 222   2.0000      -0.705248       -19.1908 
 223   2.0000      -0.703726       -19.1494 
 224   2.0000      -0.702323       -19.1112 
 225   2.0000      -0.701362       -19.0850 
 226   2.0000      -0.700286       -19.0557 
 227   2.0000      -0.698445       -19.0057 
 228   2.0000      -0.697826       -18.9888 
 229   2.0000      -0.694273       -18.8921 
 230   2.0000      -0.693905       -18.8821 
 231   2.0000      -0.692002       -18.8303 
 232   2.0000      -0.689931       -18.7740 
 233   2.0000      -0.678746       -18.4696 
 234   2.0000      -0.668789       -18.1987 
 235   2.0000      -0.666297       -18.1309 
 236   2.0000      -0.665082       -18.0978 
 237   2.0000      -0.663726       -18.0609 
 238   2.0000      -0.659562       -17.9476 
 239   2.0000      -0.659414       -17.9436 
 240   2.0000      -0.659361       -17.9421 
 241   2.0000      -0.658774       -17.9261 
 242   2.0000      -0.656687       -17.8694 
 243   2.0000      -0.656119       -17.8539 
 244   2.0000      -0.655346       -17.8329 
 245   2.0000      -0.652394       -17.7525 
 246   2.0000      -0.649818       -17.6824 
 247   2.0000      -0.648554       -17.6481 
 248   2.0000      -0.648122       -17.6363 
 249   2.0000      -0.644612       -17.5408 
 250   2.0000      -0.644449       -17.5363 
 251   2.0000      -0.642555       -17.4848 
 252   2.0000      -0.642167       -17.4743 
 253   2.0000      -0.640791       -17.4368 
 254   2.0000      -0.629406       -17.1270 
 255   2.0000      -0.629084       -17.1182 
 256   2.0000      -0.627450       -17.0738 
 257   2.0000      -0.620784       -16.8924 
 258   2.0000      -0.618485       -16.8298 
 259   2.0000      -0.617311       -16.7979 
 260   2.0000      -0.615384       -16.7454 
 261   2.0000      -0.611592       -16.6423 
 262   2.0000      -0.611096       -16.6288 
 263   2.0000      -0.608625       -16.5615 
 264   2.0000      -0.607587       -16.5333 
 265   2.0000      -0.606171       -16.4948 
 266   2.0000      -0.597820       -16.2675 
 267   2.0000      -0.596175       -16.2227 
 268   2.0000      -0.594646       -16.1812 
 269   2.0000      -0.593450       -16.1486 
 270   2.0000      -0.593049       -16.1377 
 271   2.0000      -0.590666       -16.0728 
 272   2.0000      -0.579987       -15.7822 
 273   2.0000      -0.578717       -15.7477 
 274   2.0000      -0.577037       -15.7020 
 275   2.0000      -0.576097       -15.6764 
 276   2.0000      -0.550862       -14.9897 
 277   2.0000      -0.550269       -14.9736 
 278   2.0000      -0.549691       -14.9579 
 279   2.0000      -0.548748       -14.9322 
 280   2.0000      -0.530369       -14.4321 
 281   2.0000      -0.529325       -14.4037 
 282   2.0000      -0.528932       -14.3930 
 283   2.0000      -0.527663       -14.3584 
 284   0.0000      -0.368342       -10.0231 
 285   0.0000      -0.367560       -10.0018 
 286   0.0000      -0.366273        -9.9668 
 287   0.0000      -0.362577        -9.8662 
 288   0.0000      -0.361962        -9.8495 
 289   0.0000      -0.361668        -9.8415 
 290   0.0000      -0.359094        -9.7714 
 291   0.0000      -0.358049        -9.7430 
 292   0.0000      -0.356974        -9.7138 
 293   0.0000      -0.356699        -9.7063 
 294   0.0000      -0.354431        -9.6446 
 295   0.0000      -0.353221        -9.6116 
 296   0.0000      -0.351785        -9.5726 
 297   0.0000      -0.346539        -9.4298 
 298   0.0000      -0.345623        -9.4049 
 299   0.0000      -0.343765        -9.3543 
 300   0.0000      -0.340217        -9.2578 
 301   0.0000      -0.338201        -9.2029 
 302   0.0000      -0.311125        -8.4661 
 303   0.0000      -0.302719        -8.2374 
 304   0.0000      -0.301853        -8.2138 
 305   0.0000      -0.300245        -8.1701 
 306   0.0000      -0.297614        -8.0985 
 307   0.0000      -0.294727        -8.0199 
 308   0.0000      -0.282562        -7.6889 
 309   0.0000      -0.281695        -7.6653 
 310   0.0000      -0.279080        -7.5941 
 311   0.0000      -0.277990        -7.5645 
 312   0.0000      -0.274739        -7.4760 
 313   0.0000      -0.271988        -7.4012 
 314   0.0000      -0.241546        -6.5728 
 315   0.0000      -0.241000        -6.5579 
 316   0.0000      -0.240200        -6.5362 
 317   0.0000      -0.239014        -6.5039 
 318   0.0000      -0.236002        -6.4219 
 319   0.0000      -0.234839        -6.3903 
 320   0.0000      -0.227135        -6.1807 
 321   0.0000      -0.226012        -6.1501 
 322   0.0000      -0.210258        -5.7214 
 323   0.0000      -0.208213        -5.6658 
 324   0.0000      -0.205744        -5.5986 
 325   0.0000      -0.202555        -5.5118 
 326   0.0000      -0.202270        -5.5040 
 327   0.0000      -0.201613        -5.4862 
 328   0.0000      -0.198354        -5.3975 
 329   0.0000      -0.195049        -5.3076 
 330   0.0000      -0.190042        -5.1713 
 331   0.0000      -0.189327        -5.1519 
 332   0.0000      -0.187094        -5.0911 
 333   0.0000      -0.184399        -5.0178 
 334   0.0000      -0.183883        -5.0037 
 335   0.0000      -0.182859        -4.9759 
 336   0.0000      -0.180984        -4.9248 
 337   0.0000      -0.179234        -4.8772 
 338   0.0000      -0.178407        -4.8547 
 339   0.0000      -0.177428        -4.8281 
 340   0.0000      -0.176123        -4.7925 
 341   0.0000      -0.173992        -4.7346 
 342   0.0000      -0.173267        -4.7148 
 343   0.0000      -0.172659        -4.6983 
 344   0.0000      -0.168471        -4.5843 
 345   0.0000      -0.167678        -4.5627 
 346   0.0000      -0.165458        -4.5023 
 347   0.0000      -0.164010        -4.4629 
 348   0.0000      -0.156766        -4.2658 
 349   0.0000      -0.156399        -4.2558 
 350   0.0000      -0.155019        -4.2183 
 351   0.0000      -0.152496        -4.1496 
 352   0.0000      -0.149769        -4.0754 
 353   0.0000      -0.149216        -4.0604 
 354   0.0000      -0.147819        -4.0224 
 355   0.0000      -0.145955        -3.9716 
 356   0.0000      -0.143995        -3.9183 
 357   0.0000      -0.141322        -3.8456 
 358   0.0000      -0.138477        -3.7681 
 359   0.0000      -0.136765        -3.7216 
 360   0.0000      -0.133449        -3.6313 
 361   0.0000      -0.132060        -3.5935 
 362   0.0000      -0.131269        -3.5720 
 363   0.0000      -0.130698        -3.5565 
 364   0.0000      -0.126452        -3.4409 
 365   0.0000      -0.125134        -3.4051 
 366   0.0000      -0.124615        -3.3910 
 367   0.0000      -0.123350        -3.3565 
 368   0.0000      -0.120974        -3.2919 
 369   0.0000      -0.119328        -3.2471 
 370   0.0000      -0.116241        -3.1631 
 371   0.0000      -0.112734        -3.0677 
 372   0.0000      -0.110669        -3.0115 
 373   0.0000      -0.109936        -2.9915 
 374   0.0000      -0.106332        -2.8934 
 375   0.0000      -0.103819        -2.8251 
 376   0.0000      -0.101959        -2.7744 
 377   0.0000      -0.096528        -2.6267 
 378   0.0000      -0.091992        -2.5032 
 379   0.0000      -0.087872        -2.3911 
 380   0.0000      -0.086865        -2.3637 
 381   0.0000      -0.085821        -2.3353 
 382   0.0000      -0.084370        -2.2958 
 383   0.0000      -0.082728        -2.2512 
 384   0.0000      -0.082281        -2.2390 
 385   0.0000      -0.078741        -2.1426 
 386   0.0000      -0.076595        -2.0843 
 387   0.0000      -0.075298        -2.0490 
 388   0.0000      -0.072750        -1.9796 
 389   0.0000      -0.070010        -1.9051 
 390   0.0000      -0.068744        -1.8706 
 391   0.0000      -0.065375        -1.7789 
 392   0.0000      -0.062826        -1.7096 
 393   0.0000      -0.057333        -1.5601 
 394   0.0000      -0.056235        -1.5302 
 395   0.0000      -0.054579        -1.4852 
 396   0.0000      -0.052586        -1.4309 
 397   0.0000      -0.051895        -1.4121 
 398   0.0000      -0.049037        -1.3344 
 399   0.0000      -0.048163        -1.3106 
 400   0.0000      -0.044026        -1.1980 
[...]
      dyz     :     0.046496
      dx2y2   :     0.017579
      dxy     :     0.015787
124 N s       :     3.093525  s :     3.093525
      pz      :     1.350691  p :     3.768860
      px      :     1.230538
      py      :     1.187630
      dz2     :     0.011531  d :     0.068447
      dxz     :     0.008105
      dyz     :     0.023882
      dx2y2   :     0.012091
      dxy     :     0.012838
125 C s       :     2.838988  s :     2.838988
      pz      :     1.035118  p :     2.967506
      px      :     0.953650
      py      :     0.978738
      dz2     :     0.033570  d :     0.126654
      dxz     :     0.018466
      dyz     :     0.046013
      dx2y2   :     0.014715
      dxy     :     0.013891
126 H s       :     0.864140  s :     0.864140
      pz      :     0.048504  p :     0.072711
      px      :     0.012934
      py      :     0.011272
127 H s       :     0.858041  s :     0.858041
      pz      :     0.017319  p :     0.072646
      px      :     0.017175
      py      :     0.038152
128 H s       :     0.871442  s :     0.871442
      pz      :     0.023471  p :     0.070020
      px      :     0.014674
      py      :     0.031876
129 H s       :     0.883209  s :     0.883209
      pz      :     0.018038  p :     0.070212
      px      :     0.018225
      py      :     0.033949


                      *****************************
                      * MAYER POPULATION ANALYSIS *
                      *****************************

  NA   - Mulliken gross atomic population
  ZA   - Total nuclear charge
  QA   - Mulliken gross atomic charge
  VA   - Mayer's total valence
  BVA  - Mayer's bonded valence
  FA   - Mayer's free valence

  ATOM       NA         ZA         QA         VA         BVA        FA
  0 Pd    17.6053    18.0000     0.3947     2.5860     2.5860    -0.0000
  1 Pd    17.6178    18.0000     0.3822     2.6031     2.6031    -0.0000
  2 C      5.9667     6.0000     0.0333     3.7053     3.7053    -0.0000
  3 C      6.0214     6.0000    -0.0214     3.7154     3.7154    -0.0000
  4 C      6.1045     6.0000    -0.1045     3.8313     3.8313    -0.0000
  5 C      5.8817     6.0000     0.1183     3.8650     3.8650    -0.0000
  6 C      6.0203     6.0000    -0.0203     3.9219     3.9219    -0.0000
  7 C      5.8723     6.0000     0.1277     3.8721     3.8721    -0.0000
  8 N      7.3028     7.0000    -0.3028     3.3754     3.3754    -0.0000
  9 C      5.8428     6.0000     0.1572     3.8685     3.8685    -0.0000
 10 H      0.9156     1.0000     0.0844     0.9891     0.9891    -0.0000
 11 H      0.9074     1.0000     0.0926     0.9842     0.9842    -0.0000
 12 H      0.9054     1.0000     0.0946     0.9817     0.9817    -0.0000
 13 H      0.9444     1.0000     0.0556     0.9986     0.9986    -0.0000
 14 C      6.0631     6.0000    -0.0631     3.7750     3.7750    -0.0000
 15 C      5.9489     6.0000     0.0511     3.8498     3.8498    -0.0000
 16 C      5.9880     6.0000     0.0120     3.8902     3.8902    -0.0000
 17 C      6.0073     6.0000    -0.0073     3.8806     3.8806    -0.0000
 18 C      5.9570     6.0000     0.0430     3.8219     3.8219    -0.0000
 19 C      6.0135     6.0000    -0.0135     3.8708     3.8708    -0.0000
 20 H      0.9453     1.0000     0.0547     0.9899     0.9899    -0.0000
 21 H      0.9270     1.0000     0.0730     0.9819     0.9819    -0.0000
 22 H      0.9516     1.0000     0.0484     0.9891     0.9891    -0.0000
 23 H      1.0044     1.0000    -0.0044     0.9981     0.9981    -0.0000
 24 C      6.0202     6.0000    -0.0202     3.9001     3.9001    -0.0000
 25 C      5.9341     6.0000     0.0659     3.8860     3.8860    -0.0000
 26 C      6.0132     6.0000    -0.0132     3.9305     3.9305    -0.0000
 27 C      5.8691     6.0000     0.1309     3.8634     3.8634    -0.0000
 28 N      7.3015     7.0000    -0.3015     3.3882     3.3882    -0.0000
 29 C      5.8657     6.0000     0.1343     3.8691     3.8691    -0.0000
 30 H      0.9190     1.0000     0.0810     0.9901     0.9901    -0.0000
 31 H      0.9109     1.0000     0.0891     0.9849     0.9849    -0.0000
 32 H      0.9116     1.0000     0.0884     0.9826     0.9826    -0.0000
 33 H      0.9545     1.0000     0.0455     1.0080     1.0080    -0.0000
 34 C      5.9686     6.0000     0.0314     3.7058     3.7058    -0.0000
 35 C      6.0184     6.0000    -0.0184     3.7145     3.7145    -0.0000
 36 C      6.1039     6.0000    -0.1039     3.8378     3.8378    -0.0000
 37 C      5.8807     6.0000     0.1193     3.8631     3.8631    -0.0000
 38 C      6.0210     6.0000    -0.0210     3.9228     3.9228    -0.0000
 39 C      5.8686     6.0000     0.1314     3.8750     3.8750    -0.0000
 40 N      7.3022     7.0000    -0.3022     3.3734     3.3734    -0.0000
 41 C      5.8396     6.0000     0.1604     3.8708     3.8708    -0.0000
 42 H      0.9159     1.0000     0.0841     0.9893     0.9893    -0.0000
 43 H      0.9067     1.0000     0.0933     0.9841     0.9841    -0.0000
 44 H      0.9124     1.0000     0.0876     0.9837     0.9837    -0.0000
 45 H      0.9467     1.0000     0.0533     0.9999     0.9999    -0.0000
 46 C      6.0637     6.0000    -0.0637     3.7759     3.7759    -0.0000
 47 C      5.9484     6.0000     0.0516     3.8498     3.8498    -0.0000
 48 C      5.9880     6.0000     0.0120     3.8901     3.8901    -0.0000
 49 C      6.0093     6.0000    -0.0093     3.8805     3.8805    -0.0000
 50 C      5.9576     6.0000     0.0424     3.8205     3.8205    -0.0000
 51 C      6.0118     6.0000    -0.0118     3.8701     3.8701    -0.0000
 52 H      0.9444     1.0000     0.0556     0.9899     0.9899    -0.0000
 53 H      0.9273     1.0000     0.0727     0.9819     0.9819    -0.0000
 54 H      0.9527     1.0000     0.0473     0.9891     0.9891    -0.0000
 55 H      1.0046     1.0000    -0.0046     0.9980     0.9980    -0.0000
 56 C      6.0223     6.0000    -0.0223     3.8959     3.8959    -0.0000
 57 C      5.9346     6.0000     0.0654     3.8859     3.8859    -0.0000
 58 C      6.0135     6.0000    -0.0135     3.9304     3.9304    -0.0000
 59 C      5.8716     6.0000     0.1284     3.8608     3.8608    -0.0000
 60 N      7.3072     7.0000    -0.3072     3.3828     3.3828    -0.0000
 61 C      5.8676     6.0000     0.1324     3.8671     3.8671    -0.0000
 62 H      0.9185     1.0000     0.0815     0.9900     0.9900    -0.0000
 63 H      0.9117     1.0000     0.0883     0.9850     0.9850    -0.0000
 64 H      0.9059     1.0000     0.0941     0.9825     0.9825    -0.0000
 65 H      0.9511     1.0000     0.0489     1.0085     1.0085    -0.0000
 66 C      5.9676     6.0000     0.0324     3.7041     3.7041    -0.0000
 67 C      6.0163     6.0000    -0.0163     3.7125     3.7125    -0.0000
 68 C      6.1061     6.0000    -0.1061     3.8415     3.8415    -0.0000
 69 C      5.8812     6.0000     0.1188     3.8633     3.8633    -0.0000
 70 C      6.0192     6.0000    -0.0192     3.9227     3.9227    -0.0000
 71 C      5.8695     6.0000     0.1305     3.8693     3.8693    -0.0000
 72 N      7.3016     7.0000    -0.3016     3.3743     3.3743    -0.0000
 73 C      5.8367     6.0000     0.1633     3.8771     3.8771    -0.0000
 74 H      0.9161     1.0000     0.0839     0.9893     0.9893    -0.0000
 75 H      0.9072     1.0000     0.0928     0.9842     0.9842    -0.0000
 76 H      0.9058     1.0000     0.0942     0.9812     0.9812    -0.0000
 77 H      0.9558     1.0000     0.0442     1.0030     1.0030    -0.0000
 78 C      6.0630     6.0000    -0.0630     3.7746     3.7746    -0.0000
 79 C      5.9484     6.0000     0.0516     3.8495     3.8495    -0.0000
 80 C      5.9881     6.0000     0.0119     3.8888     3.8888    -0.0000
 81 C      6.0075     6.0000    -0.0075     3.8802     3.8802    -0.0000
 82 C      5.9616     6.0000     0.0384     3.8192     3.8192    -0.0000
 83 C      6.0102     6.0000    -0.0102     3.8716     3.8716    -0.0000
 84 H      0.9442     1.0000     0.0558     0.9899     0.9899    -0.0000
 85 H      0.9270     1.0000     0.0730     0.9819     0.9819    -0.0000
 86 H      0.9524     1.0000     0.0476     0.9890     0.9890    -0.0000
 87 H      1.0066     1.0000    -0.0066     0.9982     0.9982    -0.0000
 88 C      6.0236     6.0000    -0.0236     3.8924     3.8924    -0.0000
 89 C      5.9327     6.0000     0.0673     3.8866     3.8866    -0.0000
 90 C      6.0143     6.0000    -0.0143     3.9287     3.9287    -0.0000
 91 C      5.8747     6.0000     0.1253     3.8652     3.8652    -0.0000
 92 N      7.3055     7.0000    -0.3055     3.3815     3.3815    -0.0000
 93 C      5.8692     6.0000     0.1308     3.8645     3.8645    -0.0000
 94 H      0.9187     1.0000     0.0813     0.9903     0.9903    -0.0000
 95 H      0.9113     1.0000     0.0887     0.9849     0.9849     0.0000
 96 H      0.9092     1.0000     0.0908     0.9838     0.9838    -0.0000
 97 H      0.9418     1.0000     0.0582     1.0035     1.0035    -0.0000
 98 C      5.9661     6.0000     0.0339     3.7057     3.7057    -0.0000
 99 C      6.0189     6.0000    -0.0189     3.7146     3.7146    -0.0000
100 C      6.1027     6.0000    -0.1027     3.8428     3.8428    -0.0000
101 C      5.8796     6.0000     0.1204     3.8610     3.8610    -0.0000
102 C      6.0215     6.0000    -0.0215     3.9219     3.9219    -0.0000
103 C      5.8656     6.0000     0.1344     3.8746     3.8746    -0.0000
104 N      7.3004     7.0000    -0.3004     3.3808     3.3808    -0.0000
105 C      5.8465     6.0000     0.1535     3.8715     3.8715    -0.0000
106 H      0.9161     1.0000     0.0839     0.9893     0.9893    -0.0000
107 H      0.9065     1.0000     0.0935     0.9841     0.9841    -0.0000
108 H      0.9061     1.0000     0.0939     0.9816     0.9816    -0.0000
109 H      0.9490     1.0000     0.0510     1.0002     1.0002    -0.0000
110 C      6.0633     6.0000    -0.0633     3.7734     3.7734    -0.0000
111 C      5.9484     6.0000     0.0516     3.8501     3.8501    -0.0000
112 C      5.9881     6.0000     0.0119     3.8882     3.8882    -0.0000
113 C      6.0081     6.0000    -0.0081     3.8801     3.8801    -0.0000
114 C      5.9645     6.0000     0.0355     3.8200     3.8200    -0.0000
115 C      6.0072     6.0000    -0.0072     3.8714     3.8714    -0.0000
116 H      0.9438     1.0000     0.0562     0.9898     0.9898    -0.0000
117 H      0.9271     1.0000     0.0729     0.9819     0.9819    -0.0000
118 H      0.9529     1.0000     0.0471     0.9890     0.9890    -0.0000
119 H      1.0060     1.0000    -0.0060     0.9983     0.9983    -0.0000
120 C      6.0279     6.0000    -0.0279     3.8926     3.8926    -0.0000
121 C      5.9325     6.0000     0.0675     3.8872     3.8872    -0.0000
122 C      6.0128     6.0000    -0.0128     3.9306     3.9306    -0.0000
123 C      5.8758     6.0000     0.1242     3.8618     3.8618    -0.0000
124 N      7.3058     7.0000    -0.3058     3.3777     3.3777    -0.0000
125 C      5.8634     6.0000     0.1366     3.8724     3.8724    -0.0000
126 H      0.9179     1.0000     0.0821     0.9902     0.9902    -0.0000
127 H      0.9114     1.0000     0.0886     0.9849     0.9849    -0.0000
128 H      0.9120     1.0000     0.0880     0.9841     0.9841    -0.0000
129 H      0.9481     1.0000     0.0519     1.0045     1.0045    -0.0000

  Mayer bond orders larger than 0.100000
B(  0-Pd, 28-N ) :   0.5511 B(  0-Pd, 40-N ) :   0.5412 B(  0-Pd, 72-N ) :   0.5425 
B(  0-Pd,104-N ) :   0.5454 B(  1-Pd,  8-N ) :   0.5447 B(  1-Pd, 60-N ) :   0.5487 
B(  1-Pd, 92-N ) :   0.5479 B(  1-Pd,124-N ) :   0.5446 B(  2-C ,  3-C ) :   2.6078 
B(  2-C , 14-C ) :   1.0060 B(  3-C ,  4-C ) :   1.0140 B(  4-C ,  5-C ) :   1.3392 
B(  4-C ,  9-C ) :   1.3725 B(  5-C ,  6-C ) :   1.4037 B(  5-C , 10-H ) :   0.9861 
B(  6-C ,  7-C ) :   1.4189 B(  6-C , 11-H ) :   0.9714 B(  7-C ,  8-N ) :   1.3152 
B(  7-C , 12-H ) :   0.9516 B(  8-N ,  9-C ) :   1.3262 B(  9-C , 13-H ) :   0.9621 
B( 14-C , 15-C ) :   1.3284 B( 14-C , 19-C ) :   1.3433 B( 15-C , 16-C ) :   1.3862 
B( 15-C , 20-H ) :   0.9959 B( 16-C , 17-C ) :   1.3970 B( 16-C , 21-H ) :   0.9818 
B( 17-C , 18-C ) :   1.3576 B( 17-C , 22-H ) :   0.9879 B( 18-C , 19-C ) :   1.3637 
B( 18-C , 24-C ) :   1.0088 B( 19-C , 23-H ) :   0.9847 B( 24-C , 25-C ) :   1.3727 
B( 24-C , 29-C ) :   1.4055 B( 25-C , 26-C ) :   1.4058 B( 25-C , 30-H ) :   0.9793 
B( 26-C , 27-C ) :   1.4260 B( 26-C , 31-H ) :   0.9713 B( 27-C , 28-N ) :   1.3150 
B( 27-C , 32-H ) :   0.9514 B( 28-N , 29-C ) :   1.3239 B( 29-C , 33-H ) :   0.9535 
B( 34-C , 35-C ) :   2.6086 B( 34-C , 46-C ) :   1.0054 B( 35-C , 36-C ) :   1.0129 
B( 36-C , 37-C ) :   1.3383 B( 36-C , 41-C ) :   1.3782 B( 37-C , 38-C ) :   1.4036 
B( 37-C , 42-H ) :   0.9864 B( 38-C , 39-C ) :   1.4188 B( 38-C , 43-H ) :   0.9713 
B( 39-C , 40-N ) :   1.3183 B( 39-C , 44-H ) :   0.9556 B( 40-N , 41-C ) :   1.3238 
B( 41-C , 45-H ) :   0.9591 B( 46-C , 47-C ) :   1.3292 B( 46-C , 51-C ) :   1.3437 
B( 47-C , 48-C ) :   1.3857 B( 47-C , 52-H ) :   0.9959 B( 48-C , 49-C ) :   1.3973 
B( 48-C , 53-H ) :   0.9820 B( 49-C , 50-C ) :   1.3570 B( 49-C , 54-H ) :   0.9879 
B( 50-C , 51-C ) :   1.3636 B( 50-C , 56-C ) :   1.0087 B( 51-C , 55-H ) :   0.9850 
B( 56-C , 57-C ) :   1.3721 B( 56-C , 61-C ) :   1.4042 B( 57-C , 58-C ) :   1.4053 
B( 57-C , 62-H ) :   0.9794 B( 58-C , 59-C ) :   1.4277 B( 58-C , 63-H ) :   0.9713 
B( 59-C , 60-N ) :   1.3126 B( 59-C , 64-H ) :   0.9464 B( 60-N , 61-C ) :   1.3268 
B( 61-C , 65-H ) :   0.9534 B( 66-C , 67-C ) :   2.6053 B( 66-C , 78-C ) :   1.0068 
B( 67-C , 68-C ) :   1.0158 B( 68-C , 69-C ) :   1.3379 B( 68-C , 73-C ) :   1.3774 
B( 69-C , 70-C ) :   1.4025 B( 69-C , 74-H ) :   0.9864 B( 70-C , 71-C ) :   1.4210 
B( 70-C , 75-H ) :   0.9713 B( 71-C , 72-N ) :   1.3117 B( 71-C , 76-H ) :   0.9517 
B( 72-N , 73-C ) :   1.3295 B( 73-C , 77-H ) :   0.9620 B( 78-C , 79-C ) :   1.3285 
B( 78-C , 83-C ) :   1.3420 B( 79-C , 80-C ) :   1.3859 B( 79-C , 84-H ) :   0.9959 
B( 80-C , 81-C ) :   1.3959 B( 80-C , 85-H ) :   0.9821 B( 81-C , 82-C ) :   1.3570 
B( 81-C , 86-H ) :   0.9886 B( 82-C , 83-C ) :   1.3653 B( 82-C , 88-C ) :   1.0055 
B( 83-C , 87-H ) :   0.9861 B( 88-C , 89-C ) :   1.3734 B( 88-C , 93-C ) :   1.4033 
B( 89-C , 90-C ) :   1.4057 B( 89-C , 94-H ) :   0.9796 B( 90-C , 91-C ) :   1.4253 
B( 90-C , 95-H ) :   0.9716 B( 91-C , 92-N ) :   1.3168 B( 91-C , 96-H ) :   0.9492 
B( 92-N , 93-C ) :   1.3223 B( 93-C , 97-H ) :   0.9539 B( 98-C , 99-C ) :   2.6053 
B( 98-C ,110-C ) :   1.0072 B( 99-C ,100-C ) :   1.0171 B(100-C ,101-C ) :   1.3341 
B(100-C ,105-C ) :   1.3817 B(101-C ,102-C ) :   1.4049 B(101-C ,106-H ) :   0.9863 
B(102-C ,103-C ) :   1.4167 B(102-C ,107-H ) :   0.9712 B(103-C ,104-N ) :   1.3215 
B(103-C ,108-H ) :   0.9536 B(104-N ,105-C ) :   1.3205 B(105-C ,109-H ) :   0.9588 
B(110-C ,111-C ) :   1.3297 B(110-C ,115-C ) :   1.3401 B(111-C ,112-C ) :   1.3855 
B(111-C ,116-H ) :   0.9959 B(112-C ,113-C ) :   1.3958 B(112-C ,117-H ) :   0.9823 
B(113-C ,114-C ) :   1.3563 B(113-C ,118-H ) :   0.9888 B(114-C ,115-C ) :   1.3676 
B(114-C ,120-C ) :   1.0042 B(115-C ,119-H ) :   0.9866 B(120-C ,121-C ) :   1.3754 
B(120-C ,125-C ) :   1.4016 B(121-C ,122-C ) :   1.4028 B(121-C ,126-H ) :   0.9800 
B(122-C ,123-C ) :   1.4295 B(122-C ,127-H ) :   0.9716 B(123-C ,124-N ) :   1.3092 
B(123-C ,128-H ) :   0.9489 B(124-N ,125-C ) :   1.3312 B(125-C ,129-H ) :   0.9572 


-------
TIMINGS
-------

Total SCF time: 0 days 0 hours 9 min 24 sec 

Total time                  ....     564.838 sec
Sum of individual times     ....     560.628 sec  ( 99.3%)

Fock matrix formation       ....     450.872 sec  ( 79.8%)
  XC integration            ....      24.549 sec  (  5.4% of F)
    Basis function eval.    ....       5.857 sec  ( 23.9% of XC)
    Density eval.           ....       8.666 sec  ( 35.3% of XC)
    XC-Functional eval.     ....       0.710 sec  (  2.9% of XC)
    XC-Potential eval.      ....       3.388 sec  ( 13.8% of XC)
Diagonalization             ....      11.436 sec  (  2.0%)
Density matrix formation    ....       0.639 sec  (  0.1%)
Population analysis         ....       2.467 sec  (  0.4%)
Initial guess               ....      35.315 sec  (  6.3%)
Orbital Transformation      ....       0.000 sec  (  0.0%)
Orbital Orthonormalization  ....       0.000 sec  (  0.0%)
DIIS solution               ....      34.758 sec  (  6.2%)
Grid generation             ....      25.141 sec  (  4.5%)


-------------------------------------------------------------------------------
                          DFT DISPERSION CORRECTION                            
                                                                               
                              DFTD3 V3.1  Rev 1                                
                          USING Becke-Johnson damping                          
-------------------------------------------------------------------------------
The PBE0 functional is recognized
Active option DFTDOPT                   ...         4   

molecular C6(AA) [au] = 260906.649298 


            DFT-D V3
 parameters
 s6 scaling factor         :     1.0000 
 a1 scaling factor         :     0.4145 
 s8 scaling factor         :     1.2177 
 a2 scaling factor         :     4.8593 
 ad hoc parameters k1-k3   :    16.0000     1.3333    -4.0000 

 Edisp/kcal,au: -129.360718077583  -0.206149404313 
 E6   /kcal   : -80.149559870 
 E8   /kcal   : -49.211158207 
 % E8         :  38.041809708 

-------------------------   ----------------
Dispersion correction           -0.206149404
-------------------------   ----------------


-------------------------   --------------------
FINAL SINGLE POINT ENERGY     -3459.290339988639
-------------------------   --------------------


                            ***************************************
                            *     ORCA property calculations      *
                            ***************************************

                                    ---------------------
                                    Active property flags
                                    ---------------------
   (+) Dipole Moment


------------------------------------------------------------------------------
                       ORCA ELECTRIC PROPERTIES CALCULATION
------------------------------------------------------------------------------

Dipole Moment Calculation                       ... on
Quadrupole Moment Calculation                   ... off
Polarizability Calculation                      ... off
GBWName                                         ... _s_3d1_b_PBE0.gbw
Electron density file                           ... _s_3d1_b_PBE0.scfp
The origin for moment calculation is the CENTER OF MASS  = ( 0.334305,  2.754183  0.539287)

-------------
DIPOLE MOMENT
-------------
                                X             Y             Z
Electronic contribution:      2.45428      29.78942      -0.55040
Nuclear contribution   :     -2.50576     -29.77772       0.58353
                        -----------------------------------------
Total Dipole Moment    :     -0.05148       0.01170       0.03313
                        -----------------------------------------
Magnitude (a.u.)       :      0.06232
Magnitude (Debye)      :      0.15842



--------------------
Rotational spectrum 
--------------------
 
Rotational constants in cm-1:     0.000827     0.000529     0.000525 
Rotational constants in MHz :    24.800545    15.873873    15.728468 

 Dipole components along the rotational axes: 
x,y,z [a.u.] :    -0.004136    -0.005824    -0.061913 
x,y,z [Debye]:    -0.010514    -0.014805    -0.157371 

 

Timings for individual modules:

Sum of individual times         ...      591.006 sec (=   9.850 min)
GTO integral calculation        ...       15.980 sec (=   0.266 min)   2.7 %
SCF iterations                  ...      575.025 sec (=   9.584 min)  97.3 %
                             ****ORCA TERMINATED NORMALLY****
TOTAL RUN TIME: 0 days 0 hours 10 minutes 0 seconds 408 msec
