Job execution start: Tue Jun 22 09:35:23 BST 2021
Shared library path: /work/e05/e05/atarzia/orca_4_2_1_linux_x86-64_openmpi314:/work/e05/e05/atarzia/openmpi-3.1.4/lib:/opt/cray/pe/papi/6.0.0.4/lib64:/opt/cray/libfabric/1.11.0.0.233/lib64
Slurm Job ID is: 344300
Slurm Job name is: s_3d1_a_PBE0
nid001905

                                 *****************
                                 * O   R   C   A *
                                 *****************

           --- An Ab Initio, DFT and Semiempirical electronic structure package ---

                  #######################################################
                  #                        -***-                        #
                  #          Department of theory and spectroscopy      #
                  #               Directorship: Frank Neese             #
                  #        Max Planck Institute fuer Kohlenforschung    #
                  #                Kaiser Wilhelm Platz 1               #
                  #                 D-45470 Muelheim/Ruhr               #
                  #                      Germany                        #
                  #                                                     #
                  #                  All rights reserved                #
                  #                        -***-                        #
                  #######################################################


                         Program Version 4.2.1 -  RELEASE  -


 With contributions from (in alphabetic order):
   Daniel Aravena         : Magnetic Suceptibility
   Michael Atanasov       : Ab Initio Ligand Field Theory (pilot matlab implementation)
   Alexander A. Auer      : GIAO ZORA, VPT2
   Ute Becker             : Parallelization
   Giovanni Bistoni       : ED, misc. LED, open-shell LED, HFLD
   Martin Brehm           : Molecular dynamics
   Dmytro Bykov           : SCF Hessian
   Vijay G. Chilkuri      : MRCI spin determinant printing, contributions to CSF-ICE
   Dipayan Datta          : RHF DLPNO-CCSD density
   Achintya Kumar Dutta   : EOM-CC, STEOM-CC
   Dmitry Ganyushin       : Spin-Orbit,Spin-Spin,Magnetic field MRCI
   Miquel Garcia          : C-PCM Hessian, Gaussian charge scheme
   Yang Guo               : DLPNO-NEVPT2, CIM, IAO-localization
   Andreas Hansen         : Spin unrestricted coupled pair/coupled cluster methods
   Benjamin Helmich-Paris : CASSCF linear response (MC-RPA)
   Lee Huntington         : MR-EOM, pCC
   Robert Izsak           : Overlap fitted RIJCOSX, COSX-SCS-MP3, EOM
   Christian Kollmar      : KDIIS, OOCD, Brueckner-CCSD(T), CCSD density
   Simone Kossmann        : Meta GGA functionals, TD-DFT gradient, OOMP2, MP2 Hessian
   Martin Krupicka        : AUTO-CI
   Lucas Lang             : DCDCAS
   Dagmar Lenk            : GEPOL surface, SMD
   Dimitrios Liakos       : Extrapolation schemes; Compound Job, initial MDCI parallelization
   Dimitrios Manganas     : Further ROCIS development; embedding schemes
   Dimitrios Pantazis     : SARC Basis sets
   Taras Petrenko         : DFT Hessian,TD-DFT gradient, ASA, ECA, R-Raman, ABS, FL, XAS/XES, NRVS
   Peter Pinski           : DLPNO-MP2, DLPNO-MP2 Gradient
   Christoph Reimann      : Effective Core Potentials
   Marius Retegan         : Local ZFS, SOC
   Christoph Riplinger    : Optimizer, TS searches, QM/MM, DLPNO-CCSD(T), (RO)-DLPNO pert. Triples
   Tobias Risthaus        : Range-separated hybrids, TD-DFT gradient, RPA, STAB
   Michael Roemelt        : Original ROCIS implementation
   Masaaki Saitow         : Open-shell DLPNO-CCSD energy and density
   Barbara Sandhoefer     : DKH picture change effects
   Avijit Sen             : IP-ROCIS
   Kantharuban Sivalingam : CASSCF convergence, NEVPT2, FIC-MRCI
   Bernardo de Souza      : ESD, SOC TD-DFT
   Georgi Stoychev        : AutoAux, RI-MP2 NMR
   Willem Van den Heuvel  : Paramagnetic NMR
   Boris Wezisla          : Elementary symmetry handling
   Frank Wennmohs         : Technical directorship


 We gratefully acknowledge several colleagues who have allowed us to
 interface, adapt or use parts of their codes:
   Stefan Grimme, W. Hujo, H. Kruse,             : VdW corrections, initial TS optimization,
                  C. Bannwarth                     DFT functionals, gCP, sTDA/sTD-DF
   Ed Valeev, F. Pavosevic, A. Kumar             : LibInt (2-el integral package), F12 methods
   Garnet Chan, S. Sharma, J. Yang, R. Olivares  : DMRG
   Ulf Ekstrom                                   : XCFun DFT Library
   Mihaly Kallay                                 : mrcc  (arbitrary order and MRCC methods)
   Andreas Klamt, Michael Diedenhofen            : otool_cosmo (COSMO solvation model)
   Jiri Pittner, Ondrej Demel                    : Mk-CCSD
   Frank Weinhold                                : gennbo (NPA and NBO analysis)
   Christopher J. Cramer and Donald G. Truhlar   : smd solvation model
   Lars Goerigk                                  : TD-DFT with DH, B97 family of functionals
   V. Asgeirsson, H. Jonsson                     : NEB implementation
   FAccTs GmbH                                   : IRC, NEB, NEB-TS, Multilevel, MM, QM/MM, CI optimization
   S Lehtola, MJT Oliveira, MAL Marques          : LibXC Library


 Your calculation uses the libint2 library for the computation of 2-el integrals
 For citations please refer to: http://libint.valeyev.net

 Your ORCA version has been built with support for libXC version: 4.2.3
 For citations please refer to: https://tddft.org/programs/libxc/

 This ORCA versions uses:
   CBLAS   interface :  Fast vector & matrix operations
   LAPACKE interface :  Fast linear algebra routines
   SCALAPACK package :  Parallel linear algebra routines




***************************************
The coordinates will be read from file: s_3d1_a.xyz
***************************************


Your calculation utilizes the atom-pairwise dispersion correction
with the Becke-Johnson damping scheme (D3BJ)
Cite in your paper:
S.Grimme, S.Ehrlich, L.Goerigk, J Comput Chem, (2011), 32, 1456–1465 
S.Grimme, J.Antony, S.Ehrlich and H.Krieg, J.Chem.Phys., 132, (2010), 154104 
   

----- Orbital basis set information -----
Your calculation utilizes the basis: def2-SVP
   F. Weigend and R. Ahlrichs, Phys. Chem. Chem. Phys. 7, 3297 (2005).

cite the ECPs for Pd [Def2-ECP] as follows:
Ce-Yb(ecp-28): M. Dolg, H. Stoll, H.Preuss, J. Chem. Phys., 1989, 90, 1730-1734.
Y-Cd(ecp-28), Hf-Hg(ecp-46): D. Andrae,U. Haeussermann, M. Dolg, H. Stoll, H. Preuss, Theor. Chim. Acta, 1990, 77, 123-141.
In-Sb(ecp-28), Tl-Bi(ecp-46): B. Metz, H. Stoll, M. Dolg, J. Chem. Phys., 2000, 113, 2563-2569.
Te-Xe(ecp-28), Po-Rn(ecp-46): K. A. Peterson, D. Figgen, E. Goll, H. Stoll, M. Dolg, J. Chem. Phys., 2003, 119, 11113-11123.
Rb(ecp-28), Cs(ecp-46): T. Leininger, A. Nicklass, W. Kuechle, H. Stoll, M. Dolg, A. Bergner, Chem. Phys. Lett., 1996, 255, 274-280.
Sr(ecp-28), Ba(ecp-46): M. Kaupp, P. V. Schleyer, H. Stoll and H. Preuss, J. Chem. Phys., 1991, 94, 1360-1366.
La(ecp-46): M. Dolg, H. Stoll, A. Savin, H. Preuss, Theor. Chim. Acta, 1989, 75, 173-194.
Lu(ecp-28): X. Cao, M. Dolg, J. Chem. Phys., 2001, 115, 7348-7355.

ECP parameters for Pd [Def2-ECP] have been obtained from:
TURBOMOLE (7.0.2)

================================================================================
                                        WARNINGS
                       Please study these warnings very carefully!
================================================================================


INFO   : the flag for use of LIBINT has been found!

================================================================================
                                       INPUT FILE
================================================================================
NAME = s_3d1_a_PBE0.in
|  1> ! DFT SP RKS PBE0 def2-SVP D3BJ Grid6 NOFINALGRID SlowConv TightSCF printbasis 
|  2> 
|  3> %base "_s_3d1_a_PBE0"
|  4> %maxcore 3000
|  5> %scf
|  6>    MaxIter 2000
|  7> end
|  8> %pal
|  9>    nprocs 32
| 10> end
| 11> 
| 12> * xyzfile 4 1 s_3d1_a.xyz
| 13> 
| 14>                          ****END OF INPUT****
================================================================================

                       ****************************
                       * Single Point Calculation *
                       ****************************

---------------------------------
CARTESIAN COORDINATES (ANGSTROEM)
---------------------------------
  Pd    -0.093000    6.230800    0.242300
  Pd    -0.015600   -3.365800    0.123800
  C      4.878700    2.474800    0.254200
  C      4.451500    3.603500    0.314200
  C      3.877800    4.889500    0.355500
  C      4.644900    6.061200    0.406300
  C      3.998100    7.284600    0.425000
  C      2.611800    7.324700    0.388300
  N      1.886000    6.205800    0.340200
  C      2.487500    5.017300    0.327300
  H      5.721900    6.001900    0.429700
  H      4.561700    8.202700    0.464700
  H      2.063100    8.262200    0.396600
  H      1.848500    4.135100    0.288700
  C      5.359000    1.152900    0.141300
  C      6.659000    0.912400   -0.310000
  C      7.097700   -0.390200   -0.458900
  C      6.261500   -1.452100   -0.159200
  C      4.963200   -1.224700    0.304400
  C      4.516300    0.084400    0.451700
  H      7.309600    1.740200   -0.545700
  H      8.098500   -0.581800   -0.814500
  H      6.614700   -2.460000   -0.311100
  H      3.531200    0.291200    0.838900
  C      4.089800   -2.368200    0.614800
  C      4.605100   -3.538000    1.182600
  C      3.768000   -4.616100    1.415100
  C      2.427900   -4.509200    1.087200
  N      1.926800   -3.384000    0.569000
  C      2.724300   -2.340300    0.334600
  H      5.648700   -3.596000    1.449100
  H      4.150200   -5.527600    1.845300
  H      1.734200   -5.332600    1.242700
  H      2.250700   -1.469700   -0.112000
  C     -0.109200    2.373900    5.136100
  C     -0.166500    3.511300    4.732100
  C     -0.205000    4.808900    4.184900
  C     -0.249200    5.964700    4.976000
  C     -0.265200    7.201200    4.354400
  C     -0.232000    7.269500    2.969100
  N     -0.190200    6.165500    2.220400
  C     -0.180300    4.965000    2.797400
  H     -0.269700    5.883500    6.051600
  H     -0.300000    8.107700    4.936700
  H     -0.238400    8.218100    2.439800
  H     -0.147100    4.095900    2.140400
  C      0.000100    1.042000    5.588700
  C      0.455700    0.772800    6.881500
  C      0.600500   -0.539200    7.292700
  C      0.292500   -1.582400    6.436200
  C     -0.175200   -1.326200    5.144800
  C     -0.318500   -0.007600    4.725500
  H      0.697800    1.586000    7.548000
  H      0.959400   -0.752900    8.287900
  H      0.441300   -2.598000    6.768000
  H     -0.708900    0.221000    3.746500
  C     -0.494200   -2.450000    4.249200
  C     -1.066000   -3.627500    4.742200
  C     -1.306700   -4.686800    3.883700
  C     -0.982400   -4.554000    2.545100
  N     -0.459900   -3.421400    2.065600
  C     -0.218100   -2.395400    2.883700
  H     -1.329200   -3.705800    5.785400
  H     -1.740400   -5.603900    4.248400
  H     -1.144300   -5.362100    1.835100
  H      0.231200   -1.517300    2.426700
  C     -5.003300    2.395400    0.125200
  C     -4.593900    3.531900    0.095800
  C     -4.041100    4.827700    0.088700
  C     -4.827200    5.987600    0.065200
  C     -4.200600    7.221400    0.079200
  C     -2.815200    7.283300    0.120600
  N     -2.071200    6.175500    0.142600
  C     -2.653200    4.977400    0.124200
  H     -5.903100    5.911300    0.037200
  H     -4.779000    8.131000    0.061000
  H     -2.282000    8.229500    0.137100
  H     -1.999900    4.105100    0.142800
  C     -5.463000    1.063700    0.202500
  C     -6.761200    0.791600    0.640900
  C     -7.179900   -0.521000    0.754900
  C     -6.325600   -1.561800    0.433100
  C     -5.028900   -1.302600   -0.018000
  C     -4.602100    0.016600   -0.130400
  H     -7.425900    1.602900    0.893900
  H     -8.179300   -0.737200    1.100500
  H     -6.663600   -2.578600    0.558200
  H     -3.618700    0.248600   -0.507400
  C     -4.136100   -2.424100   -0.352400
  C     -4.630600   -3.588000   -0.950300
  C     -3.775500   -4.646800   -1.205200
  C     -2.438500   -4.526400   -0.869800
  N     -1.957200   -3.406000   -0.323100
  C     -2.772200   -2.381200   -0.066400
  H     -5.672100   -3.656200   -1.222300
  H     -4.141600   -5.553700   -1.658400
  H     -1.731200   -5.334700   -1.042400
  H     -2.314100   -1.514400    0.403100
  C     -0.008000    2.496000   -4.745000
  C      0.029200    3.624000   -4.313000
  C      0.044900    4.908200   -3.734000
  C      0.070100    6.083700   -4.496400
  C      0.064300    7.304600   -3.844600
  C      0.028800    7.338300   -2.458100
  N      0.005100    6.215700   -1.736800
  C      0.016200    5.029600   -2.343200
  H      0.092900    6.029400   -5.573700
  H      0.084000    8.225700   -4.404400
  H      0.018600    8.273500   -1.905600
  H     -0.003000    4.144300   -1.707700
  C     -0.093900    1.174200   -5.230900
  C     -0.541200    0.930000   -6.531600
  C     -0.663300   -0.373500   -6.975800
  C     -0.340900   -1.432600   -6.144500
  C      0.118800   -1.201200   -4.845600
  C      0.239300    0.108700   -4.393000
  H     -0.794600    1.755500   -7.178500
  H     -1.015600   -0.568200   -7.977200
  H     -0.472100   -2.441900   -6.501900
  H      0.623000    0.319300   -3.407400
  C      0.453500   -2.341700   -3.977200
  C      1.045000   -3.497400   -4.497800
  C      1.300300   -4.573900   -3.665300
  C      0.971100   -4.479500   -2.324600
  N      0.430000   -3.367400   -1.818500
  C      0.173600   -2.325300   -2.611500
  H      1.311800   -3.545500   -5.541800
  H      1.749000   -5.474800   -4.051600
  H      1.144100   -5.302300   -1.634500
  H     -0.290500   -1.466200   -2.133900

----------------------------
CARTESIAN COORDINATES (A.U.)
----------------------------
  NO LB      ZA    FRAG     MASS         X           Y           Z
   0 Pd   18.0000*   0   106.400   -0.175745   11.774506    0.457881
   1 Pd   18.0000*   0   106.400   -0.029480   -6.360440    0.233948
   2 C     6.0000    0    12.011    9.219407    4.676694    0.480368
   3 C     6.0000    0    12.011    8.412116    6.809628    0.593752
   4 C     6.0000    0    12.011    7.327980    9.239816    0.671798
   5 C     6.0000    0    12.011    8.777589   11.454008    0.767796
   6 C     6.0000    0    12.011    7.555314   13.765899    0.803134
   7 C     6.0000    0    12.011    4.935587   13.841677    0.733781
   8 N     7.0000    0    14.007    3.564023   11.727262    0.642885
   9 C     6.0000    0    12.011    4.700694    9.481323    0.618507
  10 H     1.0000    0     1.008   10.812824   11.341947    0.812015
  11 H     1.0000    0     1.008    8.620364   15.500857    0.878156
  12 H     1.0000    0     1.008    3.898694   15.613295    0.749465
  13 H     1.0000    0     1.008    3.493159    7.814207    0.545564
  14 C     6.0000    0    12.011   10.127042    2.178665    0.267018
  15 C     6.0000    0    12.011   12.583686    1.724186   -0.585815
  16 C     6.0000    0    12.011   13.412709   -0.737371   -0.867195
  17 C     6.0000    0    12.011   11.832520   -2.744071   -0.300844
  18 C     6.0000    0    12.011    9.379089   -2.314348    0.575233
  19 C     6.0000    0    12.011    8.534570    0.159493    0.853589
  20 H     1.0000    0     1.008   13.813142    3.288501   -1.031224
  21 H     1.0000    0     1.008   15.303947   -1.099443   -1.539182
  22 H     1.0000    0     1.008   12.499971   -4.648726   -0.587894
  23 H     1.0000    0     1.008    6.673001    0.550288    1.585291
  24 C     6.0000    0    12.011    7.728602   -4.475249    1.161804
  25 C     6.0000    0    12.011    8.702378   -6.685851    2.234790
  26 C     6.0000    0    12.011    7.120488   -8.723165    2.674151
  27 C     6.0000    0    12.011    4.588066   -8.521153    2.054510
  28 N     7.0000    0    14.007    3.641124   -6.394833    1.075254
  29 C     6.0000    0    12.011    5.148181   -4.422526    0.632302
  30 H     1.0000    0     1.008   10.674496   -6.795455    2.738402
  31 H     1.0000    0     1.008    7.842741  -10.445650    3.487112
  32 H     1.0000    0     1.008    3.277163  -10.077154    2.348363
  33 H     1.0000    0     1.008    4.253207   -2.777330   -0.211649
  34 C     6.0000    0    12.011   -0.206358    4.486021    9.705822
  35 C     6.0000    0    12.011   -0.314639    6.635395    8.942373
  36 C     6.0000    0    12.011   -0.387394    9.087504    7.908315
  37 C     6.0000    0    12.011   -0.470920   11.271649    9.403277
  38 C     6.0000    0    12.011   -0.501155   13.608296    8.228623
  39 C     6.0000    0    12.011   -0.438416   13.737364    5.610786
  40 N     7.0000    0    14.007   -0.359426   11.651106    4.195948
  41 C     6.0000    0    12.011   -0.340718    9.382490    5.286320
  42 H     1.0000    0     1.008   -0.509659   11.118204   11.435867
  43 H     1.0000    0     1.008   -0.566918   15.321333    9.329011
  44 H     1.0000    0     1.008   -0.450511   15.529958    4.610554
  45 H     1.0000    0     1.008   -0.277979    7.740129    4.044770
  46 C     6.0000    0    12.011    0.000189    1.969095   10.561112
  47 C     6.0000    0    12.011    0.861148    1.460380   13.004150
  48 C     6.0000    0    12.011    1.134781   -1.018940   13.781206
  49 C     6.0000    0    12.011    0.552745   -2.990303   12.162655
  50 C     6.0000    0    12.011   -0.331080   -2.506155    9.722263
  51 C     6.0000    0    12.011   -0.601878   -0.014362    8.929901
  52 H     1.0000    0     1.008    1.318651    2.997106   14.263653
  53 H     1.0000    0     1.008    1.813003   -1.422775   15.661861
  54 H     1.0000    0     1.008    0.833936   -4.909508   12.789666
  55 H     1.0000    0     1.008   -1.339627    0.417629    7.079859
  56 C     6.0000    0    12.011   -0.933903   -4.629829    8.029824
  57 C     6.0000    0    12.011   -2.014448   -6.854982    8.961459
  58 C     6.0000    0    12.011   -2.469305   -8.856768    7.339129
  59 C     6.0000    0    12.011   -1.856467   -8.605813    4.809542
  60 N     7.0000    0    14.007   -0.869085   -6.465509    3.903418
  61 C     6.0000    0    12.011   -0.412149   -4.526650    5.449403
  62 H     1.0000    0     1.008   -2.511824   -7.002947   10.932822
  63 H     1.0000    0     1.008   -3.288879  -10.589836    8.028313
  64 H     1.0000    0     1.008   -2.162414  -10.132901    3.467836
  65 H     1.0000    0     1.008    0.436905   -2.867281    4.585798
  66 C     6.0000    0    12.011   -9.454867    4.526650    0.236594
  67 C     6.0000    0    12.011   -8.681213    6.674324    0.181036
  68 C     6.0000    0    12.011   -7.636572    9.123031    0.167619
  69 C     6.0000    0    12.011   -9.122086   11.314924    0.123210
  70 C     6.0000    0    12.011   -7.937984   13.646468    0.149666
  71 C     6.0000    0    12.011   -5.319957   13.763442    0.227901
  72 N     7.0000    0    14.007   -3.914001   11.670004    0.269475
  73 C     6.0000    0    12.011   -5.013821    9.405923    0.234704
  74 H     1.0000    0     1.008  -11.155242   11.170738    0.070298
  75 H     1.0000    0     1.008   -9.031001   15.365363    0.115273
  76 H     1.0000    0     1.008   -4.312355   15.551501    0.259081
  77 H     1.0000    0     1.008   -3.779263    7.757515    0.269853
  78 C     6.0000    0    12.011  -10.323574    2.010102    0.382670
  79 C     6.0000    0    12.011  -12.776816    1.495907    1.211125
  80 C     6.0000    0    12.011  -13.568045   -0.984547    1.426554
  81 C     6.0000    0    12.011  -11.953652   -2.951374    0.818440
  82 C     6.0000    0    12.011   -9.503244   -2.461557   -0.034015
  83 C     6.0000    0    12.011   -8.696709    0.031369   -0.246420
  84 H     1.0000    0     1.008  -14.032917    3.029042    1.689226
  85 H     1.0000    0     1.008  -15.456637   -1.393106    2.079644
  86 H     1.0000    0     1.008  -12.592379   -4.872848    1.054845
  87 H     1.0000    0     1.008   -6.838352    0.469786   -0.958847
  88 C     6.0000    0    12.011   -7.816096   -4.580885   -0.665939
  89 C     6.0000    0    12.011   -8.750566   -6.780337   -1.795807
  90 C     6.0000    0    12.011   -7.134661   -8.781179   -2.277498
  91 C     6.0000    0    12.011   -4.608097   -8.553656   -1.643684
  92 N     7.0000    0    14.007   -3.698572   -6.436407   -0.610571
  93 C     6.0000    0    12.011   -5.238699   -4.499816   -0.125478
  94 H     1.0000    0     1.008  -10.718716   -6.909217   -2.309812
  95 H     1.0000    0     1.008   -7.826490  -10.494972   -3.133922
  96 H     1.0000    0     1.008   -3.271494  -10.081122   -1.969851
  97 H     1.0000    0     1.008   -4.373015   -2.861801    0.761749
  98 C     6.0000    0    12.011   -0.015118    4.716756   -8.966751
  99 C     6.0000    0    12.011    0.055180    6.848368   -8.150389
 100 C     6.0000    0    12.011    0.084849    9.275154   -7.056237
 101 C     6.0000    0    12.011    0.132470   11.496527   -8.496965
 102 C     6.0000    0    12.011    0.121509   13.803694   -7.265241
 103 C     6.0000    0    12.011    0.054424   13.867377   -4.645136
 104 N     7.0000    0    14.007    0.009638   11.745971   -3.282076
 105 C     6.0000    0    12.011    0.030614    9.504567   -4.428006
 106 H     1.0000    0     1.008    0.175556   11.393915  -10.532767
 107 H     1.0000    0     1.008    0.158737   15.544320   -8.323110
 108 H     1.0000    0     1.008    0.035149   15.634649   -3.601062
 109 H     1.0000    0     1.008   -0.005669    7.831592   -3.227085
 110 C     6.0000    0    12.011   -0.177445    2.218916   -9.884968
 111 C     6.0000    0    12.011   -1.022720    1.757445  -12.342935
 112 C     6.0000    0    12.011   -1.253455   -0.705813  -13.182352
 113 C     6.0000    0    12.011   -0.644208   -2.707222  -11.611422
 114 C     6.0000    0    12.011    0.224499   -2.269939   -9.156857
 115 C     6.0000    0    12.011    0.452211    0.205413   -8.301567
 116 H     1.0000    0     1.008   -1.501576    3.317414  -13.565399
 117 H     1.0000    0     1.008   -1.919206   -1.073742  -15.074723
 118 H     1.0000    0     1.008   -0.892140   -4.614522  -12.286810
 119 H     1.0000    0     1.008    1.177299    0.603390   -6.439053
 120 C     6.0000    0    12.011    0.856991   -4.425172   -7.515819
 121 C     6.0000    0    12.011    1.974764   -6.609128   -8.499610
 122 C     6.0000    0    12.011    2.457211   -8.643418   -6.926413
 123 C     6.0000    0    12.011    1.835113   -8.465028   -4.392857
 124 N     7.0000    0    14.007    0.812582   -6.363464   -3.436467
 125 C     6.0000    0    12.011    0.328056   -4.394180   -4.935020
 126 H     1.0000    0     1.008    2.478943   -6.700024  -10.472484
 127 H     1.0000    0     1.008    3.305131  -10.345873   -7.656414
 128 H     1.0000    0     1.008    2.162036  -10.019895   -3.088757
 129 H     1.0000    0     1.008   -0.548965   -2.770716   -4.032487
* core charge reduced due to ECP

--------------------------------
INTERNAL COORDINATES (ANGSTROEM)
--------------------------------
 Pd     0   0   0     0.000000000000     0.00000000     0.00000000
 Pd     1   0   0     9.597643698846     0.00000000     0.00000000
 C      1   2   0     6.231009428656    52.47286670     0.00000000
 C      3   1   2     1.208330885975    32.32114648   184.52648019
 C      4   3   1     1.408770165783   176.49195766   345.36571181
 C      5   4   3     1.401393570700   122.77777356   198.08815014
 C      6   5   4     1.383982474600   118.93102446   179.07548991
 C      7   6   5     1.387365341213   119.48401321   359.76617423
 N      8   7   6     1.334554779692   121.34261694     0.25166436
 C      9   8   7     1.332103941140   120.18556380     0.04240110
 H      6   5   4     1.078885095828   120.08327530   359.10597456
 H      7   6   5     1.078020714087   120.59728361   179.95163185
 H      8   7   6     1.086299604161   121.96923360   180.28451413
 H     10   9   8     1.089994403655   117.24146474   179.93017571
 C      3   1   2     1.410976296753   146.73994883     7.58179383
 C     15   3   1     1.396965260842   120.25933685   153.59730254
 C     16  15   3     1.382532335969   119.49119966   182.23900413
 C     17  16  15     1.384442898786   120.51102858   359.72653505
 C     18  17  16     1.397218168362   120.54597103   359.69973836
 C     19  18  17     1.391100179714   119.13077864     0.49517941
 H     16  15   3     1.078928955029   119.97596501     1.82178456
 H     17  16  15     1.079241659685   119.80220487   179.52692741
 H     18  17  16     1.078742907277   119.23608231   178.17224238
 H     20  19  18     1.078476745229   120.79090785   182.08311833
 C     19  18  17     1.471994555017   119.66139797   179.88761562
 C     25  19  18     1.398700457568   121.11197828    36.31657906
 C     26  25  19     1.384591011815   119.77830244   182.51583928
 C     27  26  25     1.383768054986   119.04923780   359.54298031
 N     28  27  26     1.336303666836   121.33863329   359.12856119
 C     29  28  27     1.334263579657   120.17527403     1.18445518
 H     26  25  19     1.078650643165   120.11318473     3.22842194
 H     27  26  25     1.077952285586   120.73451533   179.55144913
 H     28  27  26     1.087836154942   121.68292090   179.40884911
 H     30  29  28     1.087056981027   115.99163841   178.43832767
 C     14  10   9     5.516493586509   115.80602978   275.96468076
 C     35  14  10     1.208378272728    54.72783022    50.16765196
 C     36  35  14     1.408785239133   176.49715282     8.82134252
 C     37  36  35     1.401308848898   122.77128658   198.11365089
 C     38  37  36     1.384042922022   118.92678585   179.05873940
 C     39  38  37     1.387379983999   119.48202819   359.74913206
 N     40  39  38     1.334584178686   121.34455062     0.27009618
 C     41  40  39     1.332001223723   120.18372615     0.03876763
 H     38  37  36     1.078855435172   120.09007927   359.08963204
 H     39  38  37     1.077973367018   120.60072378   179.94154543
 H     40  39  38     1.086297109450   121.96285460   180.28280660
 H     42  41  40     1.089993600899   117.24198979   179.91527102
 C     35  14  10     1.410939708138   123.76285079   231.55866368
 C     47  35  14     1.396915115531   120.26837473   131.83127992
 C     48  47  35     1.382532632526   119.49156420   182.22172899
 C     49  48  47     1.384457471358   120.51492336   359.72607171
 C     50  49  48     1.397174180265   120.53858160   359.71284411
 C     51  50  49     1.391061946859   119.13748313     0.47848851
 H     48  47  35     1.078948052503   119.97538191     1.80952858
 H     49  48  47     1.079305304351   119.79988218   179.52810317
 H     50  49  48     1.078738170271   119.23755977   178.17209097
 H     52  51  50     1.078476295521   120.78622998   182.09729045
 C     51  50  49     1.472000951087   119.66394486   179.87359884
 C     57  51  50     1.398753191239   121.12025928    36.35670209
 C     58  57  51     1.384584858360   119.77381258   182.50762619
 C     59  58  57     1.383711057266   119.05554737   359.57260829
 N     60  59  58     1.336304329111   121.33965264   359.12511444
 C     61  60  59     1.334327864507   120.16990147     1.15932906
 H     58  57  51     1.078736005703   120.11191119     3.22289707
 H     59  58  57     1.078041831285   120.73231223   179.57161815
 H     60  59  58     1.087813044599   121.68372835   179.40443641
 H     62  61  60     1.087096637839   115.99223454   178.46470447
 C     46  42  41     5.525885424979   116.00293060   276.31099384
 C     67  46  42     1.208348033474    54.66810611    49.99033944
 C     68  67  46     1.408806548111   176.52674409     9.14273930
 C     69  68  67     1.401382699337   122.76986635   197.62033523
 C     70  69  68     1.383866323024   118.93183196   179.08147472
 C     71  70  69     1.387399989188   119.48635409   359.78177187
 N     72  71  70     1.334631349849   121.33980376     0.23633092
 C     73  72  71     1.332105915459   120.18277992     0.03823196
 H     70  69  68     1.078965476741   120.08320634   359.11311668
 H     71  70  69     1.078076973133   120.60615800   179.95148661
 H     72  71  70     1.086217717587   121.97086646   180.25982426
 H     74  73  72     1.089978963100   117.23765137   179.95414750
 C     67  46  42     1.410930285308   123.83484931   231.42479376
 C     79  67  46     1.396981105814   120.25223054   132.16401058
 C     80  79  67     1.382470415597   119.48916592   182.23768038
 C     81  80  79     1.384430702491   120.51314415   359.72639615
 C     82  81  80     1.397178134670   120.54916763   359.69587914
 C     83  82  81     1.391071759472   119.12842947     0.49004680
 H     80  79  67     1.078908142522   119.97660069     1.81606230
 H     81  80  79     1.079343392994   119.80294176   179.52234572
 H     82  81  80     1.078784617058   119.22879968   178.15789434
 H     84  83  82     1.078438018618   120.79935362   182.09464878
 C     83  82  81     1.471963807300   119.66442654   179.89063981
 C     89  83  82     1.398813021815   121.10711017    36.22930828
 C     90  89  83     1.384639830425   119.77716103   182.52847296
 C     91  90  89     1.383675655636   119.04968153   359.51943496
 N     92  91  90     1.336348285441   121.34094715   359.12741461
 C     93  92  91     1.334291920833   120.17547024     1.21535373
 H     90  89  83     1.078590510806   120.11650520     3.23418502
 H     91  90  89     1.077908651046   120.73131060   179.52937630
 H     92  91  90     1.087847847817   121.67744488   179.41929400
 H     94  93  92     1.087027184573   115.98449493   178.39906514
 C     78  74  73     5.517921461927   115.76139807   275.88646236
 C     99  78  74     1.208466731027    54.70830259    50.11789145
 C    100  99  78     1.408778595096   176.50166049     8.93691623
 C    101 100  99     1.401316898492   122.77005024   197.98147566
 C    102 101 100     1.384006390881   118.92687705   179.05993468
 C    103 102 101     1.387363755473   119.48486296   359.76139167
 N    104 103 102     1.334565899459   121.34302768     0.25477572
 C    105 104 103     1.332170176817   120.18333195     0.04719259
 H    102 101 100     1.078908531804   120.09334115   359.10138610
 H    103 102 101     1.078048857891   120.60338197   179.95144470
 H    104 103 102     1.086259329074   121.96915008   180.27240077
 H    106 105 104     1.089947237255   117.23416776   179.92607056
 C     99  78  74     1.410897891415   123.79911745   231.52751171
 C    111  99  78     1.396972233081   120.25961540   131.95124355
 C    112 111  99     1.382510144628   119.48873266   182.23198881
 C    113 112 111     1.384447275991   120.51645627   359.72835695
 C    114 113 112     1.397143965381   120.54091145   359.70488808
 C    115 114 113     1.391116465290   119.13881551     0.48715430
 H    112 111  99     1.078953854435   119.98012969     1.81859946
 H    113 112 111     1.079270744531   119.80411296   179.53248093
 H    114 113 112     1.078719004190   119.24220458   178.16958586
 H    116 115 114     1.078418012646   120.80062499   182.09551626
 C    115 114 113     1.472033593367   119.66578872   179.87834406
 C    121 115 114     1.398763418166   121.11319246    36.31087702
 C    122 121 115     1.384588960667   119.77361180   182.51959642
 C    123 122 121     1.383748709123   119.05500906   359.55125305
 N    124 123 122     1.336298181545   121.33617557   359.12733519
 C    125 124 123     1.334377146837   120.17666702     1.17885906
 H    122 121 115     1.078624981168   120.11132013     3.22835137
 H    123 122 121     1.078044614105   120.73196886   179.55146856
 H    124 123 122     1.087734733287   121.68562521   179.41175602
 H    126 125 124     1.086988215208   115.98638249   178.44704116

---------------------------
INTERNAL COORDINATES (A.U.)
---------------------------
 Pd     0   0   0     0.000000000000     0.00000000     0.00000000
 Pd     1   0   0    18.136918121774     0.00000000     0.00000000
 C      1   2   0    11.774901358041    52.47286670     0.00000000
 C      3   1   2     2.283414453650    32.32114648   184.52648019
 C      4   3   1     2.662189798969   176.49195766   345.36571181
 C      5   4   3     2.648250054461   122.77777356   198.08815014
 C      6   5   4     2.615347851141   118.93102446   179.07548991
 C      7   6   5     2.621740542587   119.48401321   359.76617423
 N      8   7   6     2.521943044334   121.34261694     0.25166436
 C      9   8   7     2.517311630671   120.18556380     0.04240110
 H      6   5   4     2.038797361084   120.08327530   359.10597456
 H      7   6   5     2.037163916318   120.59728361   179.95163185
 H      8   7   6     2.052808751251   121.96923360   180.28451413
 H     10   9   8     2.059790910415   117.24146474   179.93017571
 C      3   1   2     2.666358782318   146.73994883     7.58179383
 C     15   3   1     2.639881761594   120.25933685   153.59730254
 C     16  15   3     2.612607486272   119.49119966   182.23900413
 C     17  16  15     2.616217926758   120.51102858   359.72653505
 C     18  17  16     2.640359687543   120.54597103   359.69973836
 C     19  18  17     2.628798364508   119.13077864     0.49517941
 H     16  15   3     2.038880242963   119.97596501     1.82178456
 H     17  16  15     2.039471169124   119.80220487   179.52692741
 H     18  17  16     2.038528663663   119.23608231   178.17224238
 H     20  19  18     2.038025690286   120.79090785   182.08311833
 C     19  18  17     2.781666579606   119.66139797   179.88761562
 C     25  19  18     2.643160808193   121.11197828    36.31657906
 C     26  25  19     2.616497819820   119.77830244   182.51583928
 C     27  26  25     2.614942656793   119.04923780   359.54298031
 N     28  27  26     2.525247962075   121.33863329   359.12856119
 C     29  28  27     2.521392756018   120.17527403     1.18445518
 H     26  25  19     2.038354309760   120.11318473     3.22842194
 H     27  26  25     2.037034605192   120.73451533   179.55144913
 H     28  27  26     2.055712411419   121.68292090   179.40884911
 H     30  29  28     2.054239986109   115.99163841   178.43832767
 C     14  10   9    10.424662098036   115.80602978   275.96468076
 C     35  14  10     2.283504001636    54.72783022    50.16765196
 C     36  35  14     2.662218283473   176.49715282     8.82134252
 C     37  36  35     2.648089953458   122.77128658   198.11365089
 C     38  37  36     2.615462080214   118.92678585   179.05873940
 C     39  38  37     2.621768213441   119.48202819   359.74913206
 N     40  39  38     2.521998600381   121.34455062     0.27009618
 C     41  40  39     2.517117522885   120.18372615     0.03876763
 H     38  37  36     2.038741310567   120.09007927   359.08963204
 H     39  38  37     2.037074443325   120.60072378   179.94154543
 H     40  39  38     2.052804036931   121.96285460   180.28280660
 H     42  41  40     2.059789393425   117.24198979   179.91527102
 C     35  14  10     2.666289639855   123.76285079   231.55866368
 C     47  35  14     2.639787000689   120.26837473   131.83127992
 C     48  47  35     2.612608046684   119.49156420   182.22172899
 C     49  48  47     2.616245464928   120.51492336   359.72607171
 C     50  49  48     2.640276562087   120.53858160   359.71284411
 C     51  50  49     2.628726114883   119.13748313     0.47848851
 H     48  47  35     2.038916331958   119.97538191     1.80952858
 H     49  48  47     2.039591440112   119.79988218   179.52810317
 H     50  49  48     2.038519712020   119.23755977   178.17209097
 H     52  51  50     2.038024840460   120.78622998   182.09729045
 C     51  50  49     2.781678666425   119.66394486   179.87359884
 C     57  51  50     2.643260460389   121.12025928    36.35670209
 C     58  57  51     2.616486191475   119.77381258   182.50762619
 C     59  58  57     2.614834946711   119.05554737   359.57260829
 N     60  59  58     2.525249213593   121.33965264   359.12511444
 C     61  60  59     2.521514236778   120.16990147     1.15932906
 H     58  57  51     2.038515621579   120.11191119     3.22289707
 H     59  58  57     2.037203822039   120.73231223   179.57161815
 H     60  59  58     2.055668739199   121.68372835   179.40443641
 H     62  61  60     2.054314926622   115.99223454   178.46470447
 C     46  42  41    10.442410100638   116.00293060   276.31099384
 C     67  46  42     2.283446857728    54.66810611    49.99033944
 C     68  67  46     2.662258551604   176.52674409     9.14273930
 C     69  68  67     2.648229510562   122.76986635   197.62033523
 C     70  69  68     2.615128356472   118.93183196   179.08147472
 C     71  70  69     2.621806017771   119.48635409   359.78177187
 N     72  71  70     2.522087740960   121.33980376     0.23633092
 C     73  72  71     2.517315361593   120.18277992     0.03823196
 H     70  69  68     2.038949258997   120.08320634   359.11311668
 H     71  70  69     2.037270230508   120.60615800   179.95148661
 H     72  71  70     2.052654008053   121.97086646   180.25982426
 H     74  73  72     2.059761731994   117.23765137   179.95414750
 C     67  46  42     2.666271833288   123.83484931   231.42479376
 C     79  67  46     2.639911704250   120.25223054   132.16401058
 C     80  79  67     2.612490473726   119.48916592   182.23768038
 C     81  80  79     2.616194879100   120.51314415   359.72639615
 C     82  81  80     2.640284034829   120.54916763   359.69587914
 C     83  82  81     2.628744658034   119.12842947     0.49004680
 H     80  79  67     2.038840913024   119.97660069     1.81606230
 H     81  80  79     2.039663417216   119.80294176   179.52234572
 H     82  81  80     2.038607483726   119.22879968   178.15789434
 H     84  83  82     2.037952507596   120.79935362   182.09464878
 C     83  82  81     2.781608474840   119.66442654   179.89063981
 C     89  83  82     2.643373523794   121.10711017    36.22930828
 C     90  89  83     2.616590073623   119.77716103   182.52847296
 C     91  90  89     2.614768047326   119.04968153   359.51943496
 N     92  91  90     2.525332279018   121.34094715   359.12741461
 C     93  92  91     2.521446313078   120.17547024     1.21535373
 H     90  89  83     2.038240676069   120.11650520     3.23418502
 H     91  90  89     2.036952147862   120.73131060   179.52937630
 H     92  91  90     2.055734507750   121.67744488   179.41929400
 H     94  93  92     2.054183678970   115.98449493   178.39906514
 C     78  74  73    10.427360391529   115.76139807   275.88646236
 C     99  78  74     2.283671163597    54.70830259    50.11789145
 C    100  99  78     2.662205728061   176.50166049     8.93691623
 C    101 100  99     2.648105164986   122.77005024   197.98147566
 C    102 101 100     2.615393046362   118.92687705   179.05993468
 C    103 102 101     2.621737545972   119.48486296   359.76139167
 N    104 103 102     2.521964057649   121.34302768     0.25477572
 C    105 104 103     2.517436797961   120.18333195     0.04719259
 H    102 101 100     2.038841648661   120.09334115   359.10138610
 H    103 102 101     2.037217100401   120.60338197   179.95144470
 H    104 103 102     2.052732642367   121.96915008   180.27240077
 H    106 105 104     2.059701778836   117.23416776   179.92607056
 C     99  78  74     2.666210617702   123.79911745   231.52751171
 C    111  99  78     2.639894937216   120.25961540   131.95124355
 C    112 111  99     2.612565550715   119.48873266   182.23198881
 C    113 112 111     2.616226198477   120.51645627   359.72835695
 C    114 113 112     2.640219464230   120.54091145   359.70488808
 C    115 114 113     2.628829139786   119.13881551     0.48715430
 H    112 111  99     2.038927296021   119.98012969     1.81859946
 H    113 112 111     2.039526131516   119.80411296   179.53248093
 H    114 113 112     2.038483493375   119.24220458   178.16958586
 H    116 115 114     2.037914701789   120.80062499   182.09551626
 C    115 114 113     2.781740351395   119.66578872   179.87834406
 C    121 115 114     2.643279786482   121.11319246    36.31087702
 C    122 121 115     2.616493943711   119.77361180   182.51959642
 C    123 122 121     2.614906098410   119.05500906   359.55125305
 N    124 123 122     2.525237596377   121.33617557   359.12733519
 C    125 124 123     2.521607366885   120.17666702     1.17885906
 H    122 121 115     2.038305815614   120.11132013     3.22835137
 H    123 122 121     2.037209080807   120.73196886   179.55146856
 H    124 123 122     2.055520752267   121.68562521   179.41175602
 H    126 125 124     2.054110037542   115.98638249   178.44704116

---------------------
BASIS SET INFORMATION
---------------------
There are 4 groups of distinct atoms

 Group   1 Type Pd  : 7s6p5d1f contracted to 5s3p2d1f pattern {31111/411/41/1}
 Group   2 Type C   : 7s4p1d contracted to 3s2p1d pattern {511/31/1}
 Group   3 Type N   : 7s4p1d contracted to 3s2p1d pattern {511/31/1}
 Group   4 Type H   : 4s1p contracted to 2s1p pattern {31/1}

Atom   0Pd   basis set group =>   1
Atom   1Pd   basis set group =>   1
Atom   2C    basis set group =>   2
Atom   3C    basis set group =>   2
Atom   4C    basis set group =>   2
Atom   5C    basis set group =>   2
Atom   6C    basis set group =>   2
Atom   7C    basis set group =>   2
Atom   8N    basis set group =>   3
Atom   9C    basis set group =>   2
Atom  10H    basis set group =>   4
Atom  11H    basis set group =>   4
Atom  12H    basis set group =>   4
Atom  13H    basis set group =>   4
Atom  14C    basis set group =>   2
Atom  15C    basis set group =>   2
Atom  16C    basis set group =>   2
Atom  17C    basis set group =>   2
Atom  18C    basis set group =>   2
Atom  19C    basis set group =>   2
Atom  20H    basis set group =>   4
Atom  21H    basis set group =>   4
Atom  22H    basis set group =>   4
Atom  23H    basis set group =>   4
Atom  24C    basis set group =>   2
Atom  25C    basis set group =>   2
Atom  26C    basis set group =>   2
Atom  27C    basis set group =>   2
Atom  28N    basis set group =>   3
Atom  29C    basis set group =>   2
Atom  30H    basis set group =>   4
Atom  31H    basis set group =>   4
Atom  32H    basis set group =>   4
Atom  33H    basis set group =>   4
Atom  34C    basis set group =>   2
Atom  35C    basis set group =>   2
Atom  36C    basis set group =>   2
Atom  37C    basis set group =>   2
Atom  38C    basis set group =>   2
Atom  39C    basis set group =>   2
Atom  40N    basis set group =>   3
Atom  41C    basis set group =>   2
Atom  42H    basis set group =>   4
Atom  43H    basis set group =>   4
Atom  44H    basis set group =>   4
Atom  45H    basis set group =>   4
Atom  46C    basis set group =>   2
Atom  47C    basis set group =>   2
Atom  48C    basis set group =>   2
Atom  49C    basis set group =>   2
Atom  50C    basis set group =>   2
Atom  51C    basis set group =>   2
Atom  52H    basis set group =>   4
Atom  53H    basis set group =>   4
Atom  54H    basis set group =>   4
Atom  55H    basis set group =>   4
Atom  56C    basis set group =>   2
Atom  57C    basis set group =>   2
Atom  58C    basis set group =>   2
Atom  59C    basis set group =>   2
Atom  60N    basis set group =>   3
Atom  61C    basis set group =>   2
Atom  62H    basis set group =>   4
Atom  63H    basis set group =>   4
Atom  64H    basis set group =>   4
Atom  65H    basis set group =>   4
Atom  66C    basis set group =>   2
Atom  67C    basis set group =>   2
Atom  68C    basis set group =>   2
Atom  69C    basis set group =>   2
Atom  70C    basis set group =>   2
Atom  71C    basis set group =>   2
Atom  72N    basis set group =>   3
Atom  73C    basis set group =>   2
Atom  74H    basis set group =>   4
Atom  75H    basis set group =>   4
Atom  76H    basis set group =>   4
Atom  77H    basis set group =>   4
Atom  78C    basis set group =>   2
Atom  79C    basis set group =>   2
Atom  80C    basis set group =>   2
Atom  81C    basis set group =>   2
Atom  82C    basis set group =>   2
Atom  83C    basis set group =>   2
Atom  84H    basis set group =>   4
Atom  85H    basis set group =>   4
Atom  86H    basis set group =>   4
Atom  87H    basis set group =>   4
Atom  88C    basis set group =>   2
Atom  89C    basis set group =>   2
Atom  90C    basis set group =>   2
Atom  91C    basis set group =>   2
Atom  92N    basis set group =>   3
Atom  93C    basis set group =>   2
Atom  94H    basis set group =>   4
Atom  95H    basis set group =>   4
Atom  96H    basis set group =>   4
Atom  97H    basis set group =>   4
Atom  98C    basis set group =>   2
Atom  99C    basis set group =>   2
Atom 100C    basis set group =>   2
Atom 101C    basis set group =>   2
Atom 102C    basis set group =>   2
Atom 103C    basis set group =>   2
Atom 104N    basis set group =>   3
Atom 105C    basis set group =>   2
Atom 106H    basis set group =>   4
Atom 107H    basis set group =>   4
Atom 108H    basis set group =>   4
Atom 109H    basis set group =>   4
Atom 110C    basis set group =>   2
Atom 111C    basis set group =>   2
Atom 112C    basis set group =>   2
Atom 113C    basis set group =>   2
Atom 114C    basis set group =>   2
Atom 115C    basis set group =>   2
Atom 116H    basis set group =>   4
Atom 117H    basis set group =>   4
Atom 118H    basis set group =>   4
Atom 119H    basis set group =>   4
Atom 120C    basis set group =>   2
Atom 121C    basis set group =>   2
Atom 122C    basis set group =>   2
Atom 123C    basis set group =>   2
Atom 124N    basis set group =>   3
Atom 125C    basis set group =>   2
Atom 126H    basis set group =>   4
Atom 127H    basis set group =>   4
Atom 128H    basis set group =>   4
Atom 129H    basis set group =>   4

-------------------------
BASIS SET IN INPUT FORMAT
-------------------------

 # Basis set for element : H 
 NewGTO H 
 S 3 
   1      13.0107010000      0.0334854848
   2       1.9622572000      0.2347218709
   3       0.4445379600      0.8137702853
 S 1 
   1       0.1219496200      1.0000000000
 P 1 
   1       0.8000000000      1.0000000000
  end;

 # Basis set for element : C 
 NewGTO C 
 S 5 
   1    1238.4016938000      0.0055173650
   2     186.2900499200      0.0410888285
   3      42.2511763460      0.1822538213
   4      11.6765579320      0.4682845944
   5       3.5930506482      0.4457581734
 S 1 
   1       0.4024514736      1.0000000000
 S 1 
   1       0.1309018267      1.0000000000
 P 3 
   1       9.4680970621      0.0568883320
   2       2.0103545142      0.3129405934
   3       0.5477100471      0.7606501651
 P 1 
   1       0.1526861379      1.0000000000
 D 1 
   1       0.8000000000      1.0000000000
  end;

 # Basis set for element : N 
 NewGTO N 
 S 5 
   1    1712.8415853000     -0.0054477995
   2     257.6481267700     -0.0406271746
   3      58.4582458530     -0.1811196225
   4      16.1983679050     -0.4684397556
   5       5.0052600809     -0.4461684629
 S 1 
   1       0.5873185657      1.0000000000
 S 1 
   1       0.1876459225      1.0000000000
 P 3 
   1      13.5714702330     -0.0588481170
   2       2.9257372874     -0.3202462476
   3       0.7992775075     -0.7532822652
 P 1 
   1       0.2195434803      1.0000000000
 D 1 
   1       1.0000000000      1.0000000000
  end;

 # Basis set for element : Pd
 NewGTO Pd
 S 3 
   1       8.4756400000      2.1727229431
   2       7.1657170000     -2.9039633126
   3       3.1821100000     -0.2310570076
 S 1 
   1       1.3973644196      1.0000000000
 S 1 
   1       0.6053295587      1.0000000000
 S 1 
   1       0.1022951421      1.0000000000
 S 1 
   1       0.0373389729      1.0000000000
 P 4 
   1       4.2460970000     -0.8346018694
   2       3.3925940000      0.8828643810
   3       1.1975891264      0.6438870170
   4       0.5267375059      0.2760105151
 P 1 
   1       0.2060709410      1.0000000000
 P 1 
   1       0.0370000000      1.0000000000
 D 4 
   1       7.3613290985     -0.0186922795
   2       2.6291037258      0.2533662423
   3       1.1292744634      0.4840070353
   4       0.4447165990      0.4270306822
 D 1 
   1       0.1554489384      1.0000000000
 F 1 
   1       1.2462900000      1.0000000000
  end;

-------------------------
ECP PARAMETER INFORMATION
-------------------------

 Group 1, Type Pd ECP Def2-ECP (replacing 28 core electrons, lmax=3)

Atom   0Pd   ECP group =>   1
Atom   1Pd   ECP group =>   1


-------------------------
ECP BASIS IN INPUT FORMAT
-------------------------

 #ECP Def2-ECP
 NewECP Pd
   N_core 28
   lmax f
   s 4
     1      12.4300000000    240.2290403000  2
     2       6.1707594000     35.1719435000  2
     3      13.2700000000     31.9295543000  2
     4       6.6300000000      5.3982169000  2
   p 4
     1      11.0800000000    170.4172760000  2
     2       5.8295541000     28.4721329000  2
     3      13.2700000000     31.9295543000  2
     4       6.6300000000      5.3982169000  2
   d 4
     1       9.5100000000     69.0138449000  2
     2       4.1397811000     11.7508616000  2
     3      13.2700000000     31.9295543000  2
     4       6.6300000000      5.3982169000  2
   f 2
     1      13.2700000000    -31.9295543000  2
     2       6.6300000000     -5.3982169000  2
 End




           ************************************************************
           *        Program running with 32 parallel MPI-processes    *
           *              working on a common directory               *
           ************************************************************
------------------------------------------------------------------------------
                           ORCA GTO INTEGRAL CALCULATION
------------------------------------------------------------------------------

                         BASIS SET STATISTICS AND STARTUP INFO

 # of primitive gaussian shells          ... 1238
 # of primitive gaussian functions       ... 2370
 # of contracted shells                  ...  646
 # of contracted basis functions         ... 1422
 Highest angular momentum                ...    3
 Maximum contraction depth               ...    5
 Integral package used                   ... LIBINT
 Integral threshhold            Thresh   ...  2.500e-11
 Primitive cut-off              TCut     ...  2.500e-12


------------------------------ INTEGRAL EVALUATION ----------------------------


 * One electron integrals 

   ECP integrals                         ... done
 Pre-screening matrix                    ... done
 Shell pair data                         ... done (   0.027 sec)



           ************************************************************
           *        Program running with 32 parallel MPI-processes    *
           *              working on a common directory               *
           ************************************************************
-------------------------------------------------------------------------------
                                 ORCA SCF
-------------------------------------------------------------------------------

------------
SCF SETTINGS
------------
Hamiltonian:
 Density Functional     Method          .... DFT(GTOs)
 Exchange Functional    Exchange        .... PBE
   PBE kappa parameter   XKappa         ....  0.804000
   PBE mue parameter    XMuePBE         ....  0.219520
 Correlation Functional Correlation     .... PBE
   PBE beta parameter  CBetaPBE         ....  0.066725
 LDA part of GGA corr.  LDAOpt          .... PW91-LDA
 Gradients option       PostSCFGGA      .... off
 Hybrid DFT is turned on
   Fraction HF Exchange ScalHFX         ....  0.250000
   Scaling of DF-GGA-X  ScalDFX         ....  0.750000
   Scaling of DF-GGA-C  ScalDFC         ....  1.000000
   Scaling of DF-LDA-C  ScalLDAC        ....  1.000000
   Perturbative correction              ....  0.000000
   Density functional embedding theory  .... OFF
   NL short-range parameter             ....  6.900000


General Settings:
 Integral files         IntName         .... _s_3d1_a_PBE0
 Hartree-Fock type      HFTyp           .... RHF
 Total Charge           Charge          ....    4
 Multiplicity           Mult            ....    1
 Number of Electrons    NEL             ....  568
 Basis Dimension        Dim             .... 1422
 Nuclear Repulsion      ENuc            ....  13817.0805033163 Eh

Convergence Acceleration:
 DIIS                   CNVDIIS         .... on
   Start iteration      DIISMaxIt       ....     0
   Startup error        DIISStart       ....  0.200000
   # of expansion vecs  DIISMaxEq       ....     5
   Bias factor          DIISBfac        ....   1.050
   Max. coefficient     DIISMaxC        ....  10.000
 Newton-Raphson         CNVNR           .... off
 SOSCF                  CNVSOSCF        .... off
 Level Shifting         CNVShift        .... on
   Level shift para.    LevelShift      ....    0.2500
   Turn off err/grad.   ShiftErr        ....    0.0000
 Zerner damping         CNVZerner       .... off
 Static damping         CNVDamp         .... on
   Fraction old density DampFac         ....    0.8500
   Max. Damping (<1)    DampMax         ....    0.9800
   Min. Damping (>=0)   DampMin         ....    0.0000
   Turn off err/grad.   DampErr         ....    0.0300
 Fernandez-Rico         CNVRico         .... off

SCF Procedure:
 Maximum # iterations   MaxIter         ....  2000
 SCF integral mode      SCFMode         .... Direct
   Integral package                     .... LIBINT
 Reset frequency        DirectResetFreq ....    20
 Integral Threshold     Thresh          ....  2.500e-11 Eh
 Primitive CutOff       TCut            ....  2.500e-12 Eh

Convergence Tolerance:
 Convergence Check Mode ConvCheckMode   .... Total+1el-Energy
 Convergence forced     ConvForced      .... 0
 Energy Change          TolE            ....  1.000e-08 Eh
 1-El. energy change                    ....  1.000e-05 Eh
 DIIS Error             TolErr          ....  5.000e-07


Diagonalization of the overlap matrix:
Smallest eigenvalue                        ... 2.609e-04
Time for diagonalization                   ...    0.499 sec
Threshold for overlap eigenvalues          ... 1.000e-08
Number of eigenvalues below threshold      ... 0
Time for construction of square roots      ...    0.236 sec
Total time needed                          ...    0.739 sec

-------------------
DFT GRID GENERATION
-------------------

General Integration Accuracy     IntAcc      ...  5.340
Radial Grid Type                 RadialGrid  ... Gauss-Chebyshev
Angular Grid (max. acc.)         AngularGrid ... Lebedev-590
Angular grid pruning method      GridPruning ... 3 (G Style)
Weight generation scheme         WeightScheme... Becke
Basis function cutoff            BFCut       ...    1.0000e-11
Integration weight cutoff        WCut        ...    1.0000e-14
Grids for H and He will be reduced by one unit

# of grid points (after initial pruning)     ... 1898500 (   0.0 sec)
# of grid points (after weights+screening)   ... 1564073 (   7.5 sec)
nearest neighbour list constructed           ...    0.0 sec
Grid point re-assignment to atoms done       ...    0.2 sec
Grid point division into batches done        ...   16.1 sec
Reduced shell lists constructed in   17.0 sec

Total number of grid points                  ...  1564073
Total number of batches                      ...    24508
Average number of points per batch           ...       63
Average number of grid points per atom       ...    12031
Average number of shells per batch           ...   150.29 (23.26%)
Average number of basis functions per batch  ...   306.59 (21.56%)
Average number of large shells per batch     ...    85.15 (56.66%)
Average number of large basis fcns per batch ...   174.73 (56.99%)
Maximum spatial batch extension              ...  12.99,  7.15, 12.27 au
Average spatial batch extension              ...   0.03,  0.03,  0.03 au

Time for grid setup =   25.104 sec

------------------------------
INITIAL GUESS: MODEL POTENTIAL
------------------------------
Loading Hartree-Fock densities                     ... done
  calling /work/e05/e05/atarzia/orca_4_2_1_linux_x86-64_openmpi314/orca _s_3d1_a_PBE0_atom46.inp > _s_3d1_a_PBE0_atom46.out in order to generate an atomic fitting density for atom 0 (Pd with ECP) on-the-fly... 
    atom 0 (Pd), assumed electronic state with S=3: 1s2 2s2 2p6 3s2 3p6 4s2 3d10 4p6 5s2 4d8           ... done
Calculating cut-offs                               ... done
Setting up the integral package                    ... done
Initializing the effective Hamiltonian             ... done
Starting the Coulomb interaction                   ... done (   0.5 sec)
Reading the grid                                   ... done
Mapping shells                                     ... done
Starting the XC term evaluation                    ... done (   0.8 sec)
  promolecular density results
     # of electrons  =    627.963647670
     EX              =   -712.277139575
     EC              =    -22.931114788
     EX+EC           =   -735.208254364
Transforming the Hamiltonian                       ... done (   0.2 sec)
Diagonalizing the Hamiltonian                      ... done (   0.3 sec)
Back transforming the eigenvectors                 ... done (   0.1 sec)
Now organizing SCF variables                       ... done
                      ------------------
                      INITIAL GUESS DONE (  59.1 sec)
                      ------------------
--------------
SCF ITERATIONS
--------------
ITER       Energy         Delta-E        Max-DP      RMS-DP      [F,P]     Damp
               ***  Starting incremental Fock matrix formation  ***
  0  -3458.0578854970   0.000000000000 0.03287832  0.00039261  0.4578703 0.8500
  1  -3458.2938350459  -0.235949548949 0.02784407  0.00036606  0.3872915 0.8500
                               ***Turning on DIIS***
  2  -3458.4655507543  -0.171715708389 0.02256539  0.00029169  0.3267217 0.8500
  3  -3458.5840652121  -0.118514457808 0.01726473  0.00019527  0.2756653 0.8500
  4  -3458.6725350974  -0.088469885306 0.01381405  0.00014488  0.2333297 0.8500
  5  -3458.7407624608  -0.068227363416 0.01141015  0.00011683  0.1979820 0.8500
  6  -3458.7958018433  -0.055039382516 0.00965319  0.00009801  0.1682571 0.8500
  7  -3458.8413781565  -0.045576313161 0.00828771  0.00008457  0.1430897 0.8500
  8  -3458.8796868587  -0.038308702158 0.00718034  0.00007288  0.1216783 0.8500
  9  -3458.9117984908  -0.032111632128 0.00615144  0.00006205  0.1033970 0.8500
 10  -3458.9386701874  -0.026871696637 0.00519687  0.00005250  0.0878216 0.8500
 11  -3458.9612021316  -0.022531944194 0.00437704  0.00004440  0.0746023 0.8500
 12  -3458.9801551074  -0.018952975819 0.00370714  0.00003766  0.0633960 0.8500
 13  -3458.9961331332  -0.015978025724 0.00316113  0.00003199  0.0538830 0.8500
 14  -3459.0096177395  -0.013484606356 0.00269577  0.00002717  0.0457907 0.8500
 15  -3459.0210077940  -0.011390054484 0.00228788  0.00002305  0.0389051 0.8500
 16  -3459.0306380028  -0.009630208828 0.00193613  0.00001954  0.0330543 0.8500
 17  -3459.0387882707  -0.008150267884 0.01094129  0.00011049  0.0280876 0.0000
 18  -3459.0843996315  -0.045611360785 0.00023072  0.00000271  0.0001963 0.0000
 19  -3459.0844022459  -0.000002614443 0.00010750  0.00000102  0.0000847 0.0000
               *** Restarting incremental Fock matrix formation ***
                                   *** Resetting DIIS ***
 20  -3459.0844023860  -0.000000140077 0.00008206  0.00000069  0.0000423 0.0000
 21  -3459.0844023650   0.000000021024 0.00003249  0.00000023  0.0000567 0.0000
 22  -3459.0844024978  -0.000000132799 0.00001793  0.00000014  0.0000145 0.0000
 23  -3459.0844025633  -0.000000065465 0.00001068  0.00000009  0.0000051 0.0000
 24  -3459.0844025470   0.000000016244 0.00000610  0.00000005  0.0000017 0.0000
                            ***DIIS convergence achieved***

               *****************************************************
               *                     SUCCESS                       *
               *           SCF CONVERGED AFTER  25 CYCLES          *
               *****************************************************


----------------
TOTAL SCF ENERGY
----------------

Total Energy       :        -3459.08440252 Eh          -94126.47189 eV

Components:
Nuclear Repulsion  :        13817.08050332 Eh          375981.87504 eV
Electronic Energy  :       -17276.16490584 Eh         -470108.34693 eV
One Electron Energy:       -32158.34743325 Eh         -875073.12152 eV
Two Electron Energy:        14882.18252742 Eh          404964.77458 eV

Virial components:
Potential Energy   :        -6727.68098148 Eh         -183069.50658 eV
Kinetic Energy     :         3268.59657896 Eh           88943.03469 eV
Virial Ratio       :            2.05827817


DFT components:
N(Alpha)           :      283.999997832516 electrons
N(Beta)            :      283.999997832516 electrons
N(Total)           :      567.999995665031 electrons
E(X)               :     -348.392363614695 Eh       
E(C)               :      -19.521667322654 Eh       
E(XC)              :     -367.914030937349 Eh       
DFET-embed. en.    :        0.000000000000 Eh       

---------------
SCF CONVERGENCE
---------------

  Last Energy change         ...    2.7161e-08  Tolerance :   1.0000e-08
  Last MAX-Density change    ...    2.8752e-06  Tolerance :   1.0000e-07
  Last RMS-Density change    ...    2.6983e-08  Tolerance :   5.0000e-09
  Last DIIS Error            ...    7.1985e-07  Tolerance :   5.0000e-07

             **** THE GBW FILE WAS UPDATED (_s_3d1_a_PBE0.gbw) ****
             **** DENSITY FILE WAS UPDATED (_s_3d1_a_PBE0.scfp) ****
             **** ENERGY FILE WAS UPDATED (_s_3d1_a_PBE0.en.tmp) ****
             **** THE GBW FILE WAS UPDATED (_s_3d1_a_PBE0.gbw) ****
             **** DENSITY FILE WAS UPDATED (_s_3d1_a_PBE0.scfp) ****
----------------
ORBITAL ENERGIES
----------------

  NO   OCC          E(Eh)            E(eV) 
   0   2.0000     -14.777195      -402.1079 
   1   2.0000     -14.777156      -402.1069 
   2   2.0000     -14.777144      -402.1065 
   3   2.0000     -14.777132      -402.1062 
   4   2.0000     -14.776210      -402.0811 
   5   2.0000     -14.776120      -402.0787 
   6   2.0000     -14.776119      -402.0786 
   7   2.0000     -14.776085      -402.0777 
   8   2.0000     -10.608949      -288.6842 
   9   2.0000     -10.608936      -288.6838 
  10   2.0000     -10.608926      -288.6835 
  11   2.0000     -10.608898      -288.6828 
  12   2.0000     -10.607084      -288.6334 
  13   2.0000     -10.607080      -288.6333 
  14   2.0000     -10.607051      -288.6325 
  15   2.0000     -10.607042      -288.6323 
  16   2.0000     -10.603314      -288.5308 
  17   2.0000     -10.603310      -288.5307 
  18   2.0000     -10.603272      -288.5297 
  19   2.0000     -10.603262      -288.5294 
  20   2.0000     -10.601588      -288.4839 
  21   2.0000     -10.601577      -288.4836 
  22   2.0000     -10.601568      -288.4833 
  23   2.0000     -10.601537      -288.4825 
  24   2.0000     -10.586749      -288.0801 
  25   2.0000     -10.586741      -288.0799 
  26   2.0000     -10.586730      -288.0796 
  27   2.0000     -10.586715      -288.0792 
  28   2.0000     -10.575328      -287.7693 
  29   2.0000     -10.575323      -287.7692 
  30   2.0000     -10.575302      -287.7686 
  31   2.0000     -10.575284      -287.7681 
  32   2.0000     -10.568271      -287.5773 
  33   2.0000     -10.568257      -287.5769 
  34   2.0000     -10.568241      -287.5764 
  35   2.0000     -10.568230      -287.5762 
  36   2.0000     -10.567773      -287.5637 
  37   2.0000     -10.567763      -287.5634 
  38   2.0000     -10.567746      -287.5630 
  39   2.0000     -10.567740      -287.5628 
  40   2.0000     -10.561691      -287.3982 
  41   2.0000     -10.561688      -287.3981 
  42   2.0000     -10.561651      -287.3971 
  43   2.0000     -10.561641      -287.3969 
  44   2.0000     -10.559721      -287.3446 
  45   2.0000     -10.559706      -287.3442 
  46   2.0000     -10.559694      -287.3439 
  47   2.0000     -10.559688      -287.3437 
  48   2.0000     -10.548696      -287.0446 
  49   2.0000     -10.548679      -287.0442 
  50   2.0000     -10.548652      -287.0434 
  51   2.0000     -10.548648      -287.0433 
  52   2.0000     -10.544750      -286.9372 
  53   2.0000     -10.544740      -286.9369 
  54   2.0000     -10.544706      -286.9360 
  55   2.0000     -10.544702      -286.9359 
  56   2.0000     -10.538694      -286.7724 
  57   2.0000     -10.538661      -286.7715 
  58   2.0000     -10.538644      -286.7711 
  59   2.0000     -10.538639      -286.7709 
  60   2.0000     -10.538557      -286.7687 
  61   2.0000     -10.538543      -286.7683 
  62   2.0000     -10.538523      -286.7678 
  63   2.0000     -10.538505      -286.7673 
  64   2.0000     -10.531365      -286.5730 
  65   2.0000     -10.531327      -286.5720 
  66   2.0000     -10.531313      -286.5716 
  67   2.0000     -10.531309      -286.5715 
  68   2.0000     -10.526724      -286.4467 
  69   2.0000     -10.526716      -286.4465 
  70   2.0000     -10.526689      -286.4458 
  71   2.0000     -10.526679      -286.4455 
  72   2.0000     -10.524281      -286.3802 
  73   2.0000     -10.524264      -286.3798 
  74   2.0000     -10.524234      -286.3790 
  75   2.0000     -10.524228      -286.3788 
  76   2.0000     -10.515808      -286.1497 
  77   2.0000     -10.515792      -286.1492 
  78   2.0000     -10.515775      -286.1488 
  79   2.0000     -10.515752      -286.1482 
  80   2.0000      -3.875967      -105.4704 
  81   2.0000      -3.874672      -105.4352 
  82   2.0000      -2.553229       -69.4769 
  83   2.0000      -2.553200       -69.4761 
  84   2.0000      -2.552122       -69.4468 
  85   2.0000      -2.552092       -69.4460 
  86   2.0000      -2.516292       -68.4718 
  87   2.0000      -2.515303       -68.4449 
  88   2.0000      -1.330090       -36.1936 
  89   2.0000      -1.330048       -36.1925 
  90   2.0000      -1.322265       -35.9807 
  91   2.0000      -1.322236       -35.9799 
  92   2.0000      -1.322150       -35.9775 
  93   2.0000      -1.322117       -35.9766 
  94   2.0000      -1.321636       -35.9635 
  95   2.0000      -1.321042       -35.9474 
  96   2.0000      -1.190020       -32.3821 
  97   2.0000      -1.189407       -32.3654 
  98   2.0000      -1.189367       -32.3643 
  99   2.0000      -1.189361       -32.3642 
 100   2.0000      -1.166345       -31.7379 
 101   2.0000      -1.163934       -31.6723 
 102   2.0000      -1.163448       -31.6590 
 103   2.0000      -1.163440       -31.6588 
 104   2.0000      -1.154721       -31.4216 
 105   2.0000      -1.152543       -31.3623 
 106   2.0000      -1.152157       -31.3518 
 107   2.0000      -1.152155       -31.3517 
 108   2.0000      -1.126625       -30.6570 
 109   2.0000      -1.125147       -30.6168 
 110   2.0000      -1.125135       -30.6165 
 111   2.0000      -1.124135       -30.5893 
 112   2.0000      -1.123487       -30.5716 
 113   2.0000      -1.122436       -30.5430 
 114   2.0000      -1.122425       -30.5427 
 115   2.0000      -1.121165       -30.5085 
 116   2.0000      -1.090660       -29.6784 
 117   2.0000      -1.090126       -29.6638 
 118   2.0000      -1.090119       -29.6636 
 119   2.0000      -1.089672       -29.6515 
 120   2.0000      -1.059020       -28.8174 
 121   2.0000      -1.058537       -28.8043 
 122   2.0000      -1.058534       -28.8042 
 123   2.0000      -1.057986       -28.7893 
 124   2.0000      -1.045321       -28.4446 
 125   2.0000      -1.044552       -28.4237 
 126   2.0000      -1.044544       -28.4235 
 127   2.0000      -1.043424       -28.3930 
 128   2.0000      -0.995333       -27.0844 
 129   2.0000      -0.994078       -27.0502 
 130   2.0000      -0.994063       -27.0498 
 131   2.0000      -0.991226       -26.9726 
 132   2.0000      -0.984912       -26.8008 
 133   2.0000      -0.984389       -26.7866 
 134   2.0000      -0.984377       -26.7863 
 135   2.0000      -0.982050       -26.7229 
 136   2.0000      -0.977862       -26.6090 
 137   2.0000      -0.976484       -26.5715 
 138   2.0000      -0.975598       -26.5474 
 139   2.0000      -0.973676       -26.4951 
 140   2.0000      -0.973634       -26.4939 
 141   2.0000      -0.973629       -26.4938 
 142   2.0000      -0.971328       -26.4312 
 143   2.0000      -0.971319       -26.4309 
 144   2.0000      -0.929865       -25.3029 
 145   2.0000      -0.928317       -25.2608 
 146   2.0000      -0.927457       -25.2374 
 147   2.0000      -0.927441       -25.2370 
 148   2.0000      -0.917490       -24.9662 
 149   2.0000      -0.914921       -24.8963 
 150   2.0000      -0.913500       -24.8576 
 151   2.0000      -0.913496       -24.8575 
 152   2.0000      -0.903500       -24.5855 
 153   2.0000      -0.894760       -24.3477 
 154   2.0000      -0.890664       -24.2362 
 155   2.0000      -0.886898       -24.1337 
 156   2.0000      -0.886889       -24.1335 
 157   2.0000      -0.881757       -23.9938 
 158   2.0000      -0.877110       -23.8674 
 159   2.0000      -0.877101       -23.8671 
 160   2.0000      -0.849800       -23.1242 
 161   2.0000      -0.847758       -23.0687 
 162   2.0000      -0.847749       -23.0684 
 163   2.0000      -0.844977       -22.9930 
 164   2.0000      -0.840354       -22.8672 
 165   2.0000      -0.840307       -22.8659 
 166   2.0000      -0.840303       -22.8658 
 167   2.0000      -0.838985       -22.8299 
 168   2.0000      -0.838682       -22.8217 
 169   2.0000      -0.838681       -22.8217 
 170   2.0000      -0.838381       -22.8135 
 171   2.0000      -0.837288       -22.7838 
 172   2.0000      -0.827112       -22.5069 
 173   2.0000      -0.824308       -22.4306 
 174   2.0000      -0.824300       -22.4303 
 175   2.0000      -0.821967       -22.3669 
 176   2.0000      -0.807322       -21.9683 
 177   2.0000      -0.803751       -21.8712 
 178   2.0000      -0.803026       -21.8515 
 179   2.0000      -0.800789       -21.7906 
 180   2.0000      -0.796458       -21.6727 
 181   2.0000      -0.793835       -21.6013 
 182   2.0000      -0.790514       -21.5110 
 183   2.0000      -0.790495       -21.5105 
 184   2.0000      -0.783233       -21.3129 
 185   2.0000      -0.782615       -21.2960 
 186   2.0000      -0.780745       -21.2452 
 187   2.0000      -0.779732       -21.2176 
 188   2.0000      -0.779706       -21.2169 
 189   2.0000      -0.776728       -21.1359 
 190   2.0000      -0.776683       -21.1346 
 191   2.0000      -0.776378       -21.1263 
 192   2.0000      -0.776035       -21.1170 
 193   2.0000      -0.774297       -21.0697 
 194   2.0000      -0.774277       -21.0691 
 195   2.0000      -0.772475       -21.0201 
 196   2.0000      -0.772242       -21.0138 
 197   2.0000      -0.772102       -21.0100 
 198   2.0000      -0.770410       -20.9639 
 199   2.0000      -0.769255       -20.9325 
 200   2.0000      -0.766033       -20.8448 
 201   2.0000      -0.765978       -20.8433 
 202   2.0000      -0.761449       -20.7201 
 203   2.0000      -0.756782       -20.5931 
 204   2.0000      -0.756767       -20.5927 
 205   2.0000      -0.754967       -20.5437 
 206   2.0000      -0.751696       -20.4547 
 207   2.0000      -0.747597       -20.3431 
 208   2.0000      -0.746254       -20.3066 
 209   2.0000      -0.746242       -20.3063 
 210   2.0000      -0.745425       -20.2840 
 211   2.0000      -0.745419       -20.2839 
 212   2.0000      -0.729445       -19.8492 
 213   2.0000      -0.728994       -19.8369 
 214   2.0000      -0.728983       -19.8366 
 215   2.0000      -0.728789       -19.8314 
 216   2.0000      -0.716925       -19.5085 
 217   2.0000      -0.713910       -19.4265 
 218   2.0000      -0.713901       -19.4262 
 219   2.0000      -0.712333       -19.3836 
 220   2.0000      -0.706989       -19.2382 
 221   2.0000      -0.706710       -19.2306 
 222   2.0000      -0.706706       -19.2305 
 223   2.0000      -0.706503       -19.2249 
 224   2.0000      -0.702281       -19.1100 
 225   2.0000      -0.701253       -19.0821 
 226   2.0000      -0.700069       -19.0498 
 227   2.0000      -0.698736       -19.0136 
 228   2.0000      -0.698563       -19.0089 
 229   2.0000      -0.694641       -18.9021 
 230   2.0000      -0.694634       -18.9019 
 231   2.0000      -0.692227       -18.8365 
 232   2.0000      -0.690058       -18.7774 
 233   2.0000      -0.676639       -18.4123 
 234   2.0000      -0.668706       -18.1964 
 235   2.0000      -0.668675       -18.1956 
 236   2.0000      -0.664505       -18.0821 
 237   2.0000      -0.664493       -18.0818 
 238   2.0000      -0.660044       -17.9607 
 239   2.0000      -0.659953       -17.9582 
 240   2.0000      -0.659937       -17.9578 
 241   2.0000      -0.659656       -17.9502 
 242   2.0000      -0.656640       -17.8681 
 243   2.0000      -0.654405       -17.8073 
 244   2.0000      -0.654402       -17.8072 
 245   2.0000      -0.653405       -17.7801 
 246   2.0000      -0.651749       -17.7350 
 247   2.0000      -0.649544       -17.6750 
 248   2.0000      -0.649529       -17.6746 
 249   2.0000      -0.644971       -17.5506 
 250   2.0000      -0.644961       -17.5503 
 251   2.0000      -0.642252       -17.4766 
 252   2.0000      -0.642233       -17.4761 
 253   2.0000      -0.641617       -17.4593 
 254   2.0000      -0.630967       -17.1695 
 255   2.0000      -0.626900       -17.0588 
 256   2.0000      -0.626875       -17.0581 
 257   2.0000      -0.618745       -16.8369 
 258   2.0000      -0.618374       -16.8268 
 259   2.0000      -0.618348       -16.8261 
 260   2.0000      -0.615578       -16.7507 
 261   2.0000      -0.611219       -16.6321 
 262   2.0000      -0.611187       -16.6312 
 263   2.0000      -0.608996       -16.5716 
 264   2.0000      -0.608942       -16.5701 
 265   2.0000      -0.606382       -16.5005 
 266   2.0000      -0.597903       -16.2698 
 267   2.0000      -0.596405       -16.2290 
 268   2.0000      -0.593694       -16.1552 
 269   2.0000      -0.592476       -16.1221 
 270   2.0000      -0.592455       -16.1215 
 271   2.0000      -0.590294       -16.0627 
 272   2.0000      -0.580632       -15.7998 
 273   2.0000      -0.579223       -15.7615 
 274   2.0000      -0.579190       -15.7606 
 275   2.0000      -0.578285       -15.7359 
 276   2.0000      -0.551339       -15.0027 
 277   2.0000      -0.550990       -14.9932 
 278   2.0000      -0.550976       -14.9928 
 279   2.0000      -0.550615       -14.9830 
 280   2.0000      -0.530019       -14.4226 
 281   2.0000      -0.528616       -14.3844 
 282   2.0000      -0.528598       -14.3839 
 283   2.0000      -0.527154       -14.3446 
 284   0.0000      -0.367505       -10.0003 
 285   0.0000      -0.365457        -9.9446 
 286   0.0000      -0.365406        -9.9432 
 287   0.0000      -0.365373        -9.9423 
 288   0.0000      -0.363208        -9.8834 
 289   0.0000      -0.363162        -9.8822 
 290   0.0000      -0.359035        -9.7698 
 291   0.0000      -0.358451        -9.7540 
 292   0.0000      -0.357680        -9.7330 
 293   0.0000      -0.356519        -9.7014 
 294   0.0000      -0.354861        -9.6563 
 295   0.0000      -0.352358        -9.5881 
 296   0.0000      -0.352273        -9.5858 
 297   0.0000      -0.347715        -9.4618 
 298   0.0000      -0.344510        -9.3746 
 299   0.0000      -0.344455        -9.3731 
 300   0.0000      -0.342540        -9.3210 
 301   0.0000      -0.339256        -9.2316 
 302   0.0000      -0.312270        -8.4973 
 303   0.0000      -0.300890        -8.1876 
 304   0.0000      -0.299234        -8.1426 
 305   0.0000      -0.299193        -8.1415 
 306   0.0000      -0.296428        -8.0662 
 307   0.0000      -0.293577        -7.9886 
 308   0.0000      -0.282872        -7.6973 
 309   0.0000      -0.281730        -7.6663 
 310   0.0000      -0.280069        -7.6211 
 311   0.0000      -0.279174        -7.5967 
 312   0.0000      -0.279140        -7.5958 
 313   0.0000      -0.270378        -7.3574 
 314   0.0000      -0.241644        -6.5755 
 315   0.0000      -0.241642        -6.5754 
 316   0.0000      -0.241249        -6.5647 
 317   0.0000      -0.240162        -6.5351 
 318   0.0000      -0.238126        -6.4797 
 319   0.0000      -0.238115        -6.4794 
 320   0.0000      -0.225914        -6.1474 
 321   0.0000      -0.225870        -6.1462 
 322   0.0000      -0.210134        -5.7180 
 323   0.0000      -0.206102        -5.6083 
 324   0.0000      -0.206050        -5.6069 
 325   0.0000      -0.205446        -5.5905 
 326   0.0000      -0.201565        -5.4849 
 327   0.0000      -0.201507        -5.4833 
 328   0.0000      -0.201172        -5.4742 
 329   0.0000      -0.196291        -5.3413 
 330   0.0000      -0.190427        -5.1818 
 331   0.0000      -0.187165        -5.0930 
 332   0.0000      -0.187138        -5.0923 
 333   0.0000      -0.185218        -5.0401 
 334   0.0000      -0.182978        -4.9791 
 335   0.0000      -0.182939        -4.9780 
 336   0.0000      -0.182490        -4.9658 
 337   0.0000      -0.180870        -4.9217 
 338   0.0000      -0.178137        -4.8474 
 339   0.0000      -0.178133        -4.8472 
 340   0.0000      -0.177671        -4.8347 
 341   0.0000      -0.177120        -4.8197 
 342   0.0000      -0.171180        -4.6581 
 343   0.0000      -0.169192        -4.6039 
 344   0.0000      -0.169171        -4.6034 
 345   0.0000      -0.166642        -4.5346 
 346   0.0000      -0.166607        -4.5336 
 347   0.0000      -0.162396        -4.4190 
 348   0.0000      -0.158046        -4.3006 
 349   0.0000      -0.157784        -4.2935 
 350   0.0000      -0.152205        -4.1417 
 351   0.0000      -0.152200        -4.1416 
 352   0.0000      -0.151470        -4.1217 
 353   0.0000      -0.148354        -4.0369 
 354   0.0000      -0.148265        -4.0345 
 355   0.0000      -0.146071        -3.9748 
 356   0.0000      -0.143737        -3.9113 
 357   0.0000      -0.141431        -3.8485 
 358   0.0000      -0.138500        -3.7688 
 359   0.0000      -0.136304        -3.7090 
 360   0.0000      -0.134463        -3.6589 
 361   0.0000      -0.134417        -3.6577 
 362   0.0000      -0.130983        -3.5642 
 363   0.0000      -0.130853        -3.5607 
 364   0.0000      -0.128609        -3.4996 
 365   0.0000      -0.128527        -3.4974 
 366   0.0000      -0.125629        -3.4185 
 367   0.0000      -0.125569        -3.4169 
 368   0.0000      -0.122074        -3.3218 
 369   0.0000      -0.118854        -3.2342 
 370   0.0000      -0.117195        -3.1890 
 371   0.0000      -0.111383        -3.0309 
 372   0.0000      -0.111325        -3.0293 
 373   0.0000      -0.108910        -2.9636 
 374   0.0000      -0.104595        -2.8462 
 375   0.0000      -0.104546        -2.8448 
 376   0.0000      -0.104478        -2.8430 
 377   0.0000      -0.097019        -2.6400 
 378   0.0000      -0.095758        -2.6057 
 379   0.0000      -0.087534        -2.3819 
 380   0.0000      -0.087518        -2.3815 
 381   0.0000      -0.085435        -2.3248 
 382   0.0000      -0.082097        -2.2340 
 383   0.0000      -0.080999        -2.2041 
 384   0.0000      -0.080970        -2.2033 
 385   0.0000      -0.078047        -2.1238 
 386   0.0000      -0.076046        -2.0693 
 387   0.0000      -0.076014        -2.0685 
 388   0.0000      -0.075051        -2.0422 
 389   0.0000      -0.069944        -1.9033 
 390   0.0000      -0.069903        -1.9022 
 391   0.0000      -0.069753        -1.8981 
 392   0.0000      -0.064821        -1.7639 
 393   0.0000      -0.059769        -1.6264 
 394   0.0000      -0.056589        -1.5399 
 395   0.0000      -0.054190        -1.4746 
 396   0.0000      -0.054141        -1.4732 
 397   0.0000      -0.051841        -1.4107 
 398   0.0000      -0.047258        -1.2859 
 399   0.0000      -0.047252        -1.2858 
 400   0.0000      -0.046961        -1.2779 
[...]
      dyz     :     0.043845
      dx2y2   :     0.018402
      dxy     :     0.017776
124 N s       :     3.093565  s :     3.093565
      pz      :     1.345625  p :     3.769302
      px      :     1.234431
      py      :     1.189246
      dz2     :     0.011718  d :     0.068397
      dxz     :     0.008350
      dyz     :     0.022943
      dx2y2   :     0.012335
      dxy     :     0.013051
125 C s       :     2.839436  s :     2.839436
      pz      :     1.029391  p :     2.968042
      px      :     0.960820
      py      :     0.977832
      dz2     :     0.033842  d :     0.126434
      dxz     :     0.019280
      dyz     :     0.044379
      dx2y2   :     0.014110
      dxy     :     0.014823
126 H s       :     0.864238  s :     0.864238
      pz      :     0.047077  p :     0.072719
      px      :     0.014355
      py      :     0.011286
127 H s       :     0.858194  s :     0.858194
      pz      :     0.016115  p :     0.072625
      px      :     0.019196
      py      :     0.037314
128 H s       :     0.870564  s :     0.870564
      pz      :     0.024829  p :     0.070287
      px      :     0.014030
      py      :     0.031429
129 H s       :     0.882070  s :     0.882070
      pz      :     0.016639  p :     0.070297
      px      :     0.020301
      py      :     0.033356


                      *****************************
                      * MAYER POPULATION ANALYSIS *
                      *****************************

  NA   - Mulliken gross atomic population
  ZA   - Total nuclear charge
  QA   - Mulliken gross atomic charge
  VA   - Mayer's total valence
  BVA  - Mayer's bonded valence
  FA   - Mayer's free valence

  ATOM       NA         ZA         QA         VA         BVA        FA
  0 Pd    17.6000    18.0000     0.4000     2.5814     2.5814    -0.0000
  1 Pd    17.6285    18.0000     0.3715     2.6228     2.6228    -0.0000
  2 C      5.9675     6.0000     0.0325     3.7052     3.7052    -0.0000
  3 C      6.0163     6.0000    -0.0163     3.7139     3.7139    -0.0000
  4 C      6.1039     6.0000    -0.1039     3.8449     3.8449    -0.0000
  5 C      5.8794     6.0000     0.1206     3.8610     3.8610    -0.0000
  6 C      6.0208     6.0000    -0.0208     3.9223     3.9223    -0.0000
  7 C      5.8669     6.0000     0.1331     3.8729     3.8729    -0.0000
  8 N      7.3003     7.0000    -0.3003     3.3782     3.3782    -0.0000
  9 C      5.8407     6.0000     0.1593     3.8751     3.8751    -0.0000
 10 H      0.9162     1.0000     0.0838     0.9893     0.9893    -0.0000
 11 H      0.9064     1.0000     0.0936     0.9841     0.9841    -0.0000
 12 H      0.9076     1.0000     0.0924     0.9818     0.9818    -0.0000
 13 H      0.9533     1.0000     0.0467     1.0024     1.0024    -0.0000
 14 C      6.0631     6.0000    -0.0631     3.7742     3.7742    -0.0000
 15 C      5.9479     6.0000     0.0521     3.8494     3.8494    -0.0000
 16 C      5.9881     6.0000     0.0119     3.8884     3.8884    -0.0000
 17 C      6.0086     6.0000    -0.0086     3.8801     3.8801    -0.0000
 18 C      5.9629     6.0000     0.0371     3.8190     3.8190    -0.0000
 19 C      6.0086     6.0000    -0.0086     3.8717     3.8717    -0.0000
 20 H      0.9434     1.0000     0.0566     0.9898     0.9898    -0.0000
 21 H      0.9270     1.0000     0.0730     0.9819     0.9819    -0.0000
 22 H      0.9531     1.0000     0.0469     0.9890     0.9890    -0.0000
 23 H      1.0066     1.0000    -0.0066     0.9982     0.9982    -0.0000
 24 C      6.0273     6.0000    -0.0273     3.8906     3.8906    -0.0000
 25 C      5.9320     6.0000     0.0680     3.8867     3.8867    -0.0000
 26 C      6.0140     6.0000    -0.0140     3.9292     3.9292    -0.0000
 27 C      5.8780     6.0000     0.1220     3.8613     3.8613    -0.0000
 28 N      7.3086     7.0000    -0.3086     3.3780     3.3780    -0.0000
 29 C      5.8663     6.0000     0.1337     3.8674     3.8674    -0.0000
 30 H      0.9181     1.0000     0.0819     0.9902     0.9902    -0.0000
 31 H      0.9117     1.0000     0.0883     0.9849     0.9849    -0.0000
 32 H      0.9047     1.0000     0.0953     0.9826     0.9826    -0.0000
 33 H      0.9436     1.0000     0.0564     1.0041     1.0041    -0.0000
 34 C      5.9674     6.0000     0.0326     3.7051     3.7051    -0.0000
 35 C      6.0164     6.0000    -0.0164     3.7139     3.7139    -0.0000
 36 C      6.1039     6.0000    -0.1039     3.8449     3.8449    -0.0000
 37 C      5.8794     6.0000     0.1206     3.8610     3.8610    -0.0000
 38 C      6.0208     6.0000    -0.0208     3.9224     3.9224    -0.0000
 39 C      5.8669     6.0000     0.1331     3.8729     3.8729    -0.0000
 40 N      7.3003     7.0000    -0.3003     3.3784     3.3784    -0.0000
 41 C      5.8406     6.0000     0.1594     3.8751     3.8751    -0.0000
 42 H      0.9162     1.0000     0.0838     0.9893     0.9893    -0.0000
 43 H      0.9064     1.0000     0.0936     0.9841     0.9841    -0.0000
 44 H      0.9076     1.0000     0.0924     0.9818     0.9818    -0.0000
 45 H      0.9533     1.0000     0.0467     1.0024     1.0024    -0.0000
 46 C      6.0631     6.0000    -0.0631     3.7742     3.7742    -0.0000
 47 C      5.9479     6.0000     0.0521     3.8494     3.8494    -0.0000
 48 C      5.9881     6.0000     0.0119     3.8884     3.8884    -0.0000
 49 C      6.0085     6.0000    -0.0085     3.8801     3.8801    -0.0000
 50 C      5.9630     6.0000     0.0370     3.8190     3.8190    -0.0000
 51 C      6.0087     6.0000    -0.0087     3.8717     3.8717    -0.0000
 52 H      0.9434     1.0000     0.0566     0.9898     0.9898    -0.0000
 53 H      0.9270     1.0000     0.0730     0.9819     0.9819    -0.0000
 54 H      0.9531     1.0000     0.0469     0.9890     0.9890    -0.0000
 55 H      1.0065     1.0000    -0.0065     0.9982     0.9982    -0.0000
 56 C      6.0274     6.0000    -0.0274     3.8907     3.8907    -0.0000
 57 C      5.9319     6.0000     0.0681     3.8866     3.8866    -0.0000
 58 C      6.0141     6.0000    -0.0141     3.9292     3.9292    -0.0000
 59 C      5.8779     6.0000     0.1221     3.8614     3.8614    -0.0000
 60 N      7.3087     7.0000    -0.3087     3.3782     3.3782    -0.0000
 61 C      5.8662     6.0000     0.1338     3.8672     3.8672    -0.0000
 62 H      0.9180     1.0000     0.0820     0.9902     0.9902    -0.0000
 63 H      0.9116     1.0000     0.0884     0.9849     0.9849    -0.0000
 64 H      0.9049     1.0000     0.0951     0.9827     0.9827    -0.0000
 65 H      0.9436     1.0000     0.0564     1.0041     1.0041    -0.0000
 66 C      5.9676     6.0000     0.0324     3.7052     3.7052    -0.0000
 67 C      6.0163     6.0000    -0.0163     3.7138     3.7138    -0.0000
 68 C      6.1038     6.0000    -0.1038     3.8448     3.8448    -0.0000
 69 C      5.8795     6.0000     0.1205     3.8610     3.8610    -0.0000
 70 C      6.0209     6.0000    -0.0209     3.9224     3.9224    -0.0000
 71 C      5.8669     6.0000     0.1331     3.8729     3.8729    -0.0000
 72 N      7.3004     7.0000    -0.3004     3.3783     3.3783    -0.0000
 73 C      5.8406     6.0000     0.1594     3.8751     3.8751    -0.0000
 74 H      0.9161     1.0000     0.0839     0.9893     0.9893    -0.0000
 75 H      0.9064     1.0000     0.0936     0.9841     0.9841    -0.0000
 76 H      0.9076     1.0000     0.0924     0.9818     0.9818    -0.0000
 77 H      0.9533     1.0000     0.0467     1.0024     1.0024    -0.0000
 78 C      6.0631     6.0000    -0.0631     3.7743     3.7743    -0.0000
 79 C      5.9478     6.0000     0.0522     3.8495     3.8495    -0.0000
 80 C      5.9881     6.0000     0.0119     3.8884     3.8884    -0.0000
 81 C      6.0087     6.0000    -0.0087     3.8801     3.8801    -0.0000
 82 C      5.9626     6.0000     0.0374     3.8190     3.8190    -0.0000
 83 C      6.0087     6.0000    -0.0087     3.8717     3.8717    -0.0000
 84 H      0.9434     1.0000     0.0566     0.9898     0.9898    -0.0000
 85 H      0.9269     1.0000     0.0731     0.9819     0.9819    -0.0000
 86 H      0.9530     1.0000     0.0470     0.9890     0.9890    -0.0000
 87 H      1.0067     1.0000    -0.0067     0.9982     0.9982    -0.0000
 88 C      6.0272     6.0000    -0.0272     3.8905     3.8905    -0.0000
 89 C      5.9320     6.0000     0.0680     3.8867     3.8867    -0.0000
 90 C      6.0140     6.0000    -0.0140     3.9293     3.9293    -0.0000
 91 C      5.8779     6.0000     0.1221     3.8613     3.8613    -0.0000
 92 N      7.3087     7.0000    -0.3087     3.3781     3.3781    -0.0000
 93 C      5.8663     6.0000     0.1337     3.8674     3.8674    -0.0000
 94 H      0.9181     1.0000     0.0819     0.9902     0.9902    -0.0000
 95 H      0.9117     1.0000     0.0883     0.9850     0.9850    -0.0000
 96 H      0.9048     1.0000     0.0952     0.9826     0.9826    -0.0000
 97 H      0.9435     1.0000     0.0565     1.0041     1.0041    -0.0000
 98 C      5.9675     6.0000     0.0325     3.7051     3.7051    -0.0000
 99 C      6.0163     6.0000    -0.0163     3.7137     3.7137    -0.0000
100 C      6.1038     6.0000    -0.1038     3.8448     3.8448    -0.0000
101 C      5.8795     6.0000     0.1205     3.8610     3.8610    -0.0000
102 C      6.0209     6.0000    -0.0209     3.9224     3.9224    -0.0000
103 C      5.8669     6.0000     0.1331     3.8729     3.8729    -0.0000
104 N      7.3004     7.0000    -0.3004     3.3782     3.3782    -0.0000
105 C      5.8406     6.0000     0.1594     3.8751     3.8751    -0.0000
106 H      0.9161     1.0000     0.0839     0.9893     0.9893    -0.0000
107 H      0.9064     1.0000     0.0936     0.9841     0.9841    -0.0000
108 H      0.9076     1.0000     0.0924     0.9818     0.9818    -0.0000
109 H      0.9533     1.0000     0.0467     1.0024     1.0024    -0.0000
110 C      6.0632     6.0000    -0.0632     3.7742     3.7742    -0.0000
111 C      5.9479     6.0000     0.0521     3.8494     3.8494    -0.0000
112 C      5.9881     6.0000     0.0119     3.8884     3.8884    -0.0000
113 C      6.0086     6.0000    -0.0086     3.8801     3.8801    -0.0000
114 C      5.9629     6.0000     0.0371     3.8190     3.8190    -0.0000
115 C      6.0086     6.0000    -0.0086     3.8717     3.8717    -0.0000
116 H      0.9434     1.0000     0.0566     0.9898     0.9898    -0.0000
117 H      0.9270     1.0000     0.0730     0.9819     0.9819    -0.0000
118 H      0.9531     1.0000     0.0469     0.9890     0.9890    -0.0000
119 H      1.0066     1.0000    -0.0066     0.9982     0.9982    -0.0000
120 C      6.0273     6.0000    -0.0273     3.8906     3.8906    -0.0000
121 C      5.9319     6.0000     0.0681     3.8867     3.8867    -0.0000
122 C      6.0141     6.0000    -0.0141     3.9291     3.9291    -0.0000
123 C      5.8779     6.0000     0.1221     3.8614     3.8614    -0.0000
124 N      7.3087     7.0000    -0.3087     3.3780     3.3780    -0.0000
125 C      5.8662     6.0000     0.1338     3.8672     3.8672    -0.0000
126 H      0.9181     1.0000     0.0819     0.9902     0.9902    -0.0000
127 H      0.9116     1.0000     0.0884     0.9849     0.9849    -0.0000
128 H      0.9049     1.0000     0.0951     0.9827     0.9827    -0.0000
129 H      0.9436     1.0000     0.0564     1.0041     1.0041    -0.0000

  Mayer bond orders larger than 0.100000
B(  0-Pd,  8-N ) :   0.5439 B(  0-Pd, 40-N ) :   0.5439 B(  0-Pd, 72-N ) :   0.5440 
B(  0-Pd,104-N ) :   0.5439 B(  1-Pd, 28-N ) :   0.5473 B(  1-Pd, 60-N ) :   0.5474 
B(  1-Pd, 92-N ) :   0.5474 B(  1-Pd,124-N ) :   0.5474 B(  2-C ,  3-C ) :   2.6055 
B(  2-C , 14-C ) :   1.0067 B(  3-C ,  4-C ) :   1.0167 B(  4-C ,  5-C ) :   1.3352 
B(  4-C ,  9-C ) :   1.3819 B(  5-C ,  6-C ) :   1.4037 B(  5-C , 10-H ) :   0.9865 
B(  6-C ,  7-C ) :   1.4185 B(  6-C , 11-H ) :   0.9711 B(  7-C ,  8-N ) :   1.3182 
B(  7-C , 12-H ) :   0.9542 B(  8-N ,  9-C ) :   1.3234 B(  9-C , 13-H ) :   0.9591 
B( 14-C , 15-C ) :   1.3294 B( 14-C , 19-C ) :   1.3412 B( 15-C , 16-C ) :   1.3852 
B( 15-C , 20-H ) :   0.9959 B( 16-C , 17-C ) :   1.3962 B( 16-C , 21-H ) :   0.9823 
B( 17-C , 18-C ) :   1.3561 B( 17-C , 22-H ) :   0.9887 B( 18-C , 19-C ) :   1.3666 
B( 18-C , 24-C ) :   1.0049 B( 19-C , 23-H ) :   0.9863 B( 24-C , 25-C ) :   1.3741 
B( 24-C , 29-C ) :   1.4015 B( 25-C , 26-C ) :   1.4038 B( 25-C , 30-H ) :   0.9799 
B( 26-C , 27-C ) :   1.4280 B( 26-C , 31-H ) :   0.9715 B( 27-C , 28-N ) :   1.3112 
B( 27-C , 32-H ) :   0.9461 B( 28-N , 29-C ) :   1.3275 B( 29-C , 33-H ) :   0.9559 
B( 34-C , 35-C ) :   2.6055 B( 34-C , 46-C ) :   1.0067 B( 35-C , 36-C ) :   1.0167 
B( 36-C , 37-C ) :   1.3353 B( 36-C , 41-C ) :   1.3818 B( 37-C , 38-C ) :   1.4035 
B( 37-C , 42-H ) :   0.9865 B( 38-C , 39-C ) :   1.4187 B( 38-C , 43-H ) :   0.9712 
B( 39-C , 40-N ) :   1.3181 B( 39-C , 44-H ) :   0.9542 B( 40-N , 41-C ) :   1.3236 
B( 41-C , 45-H ) :   0.9591 B( 46-C , 47-C ) :   1.3294 B( 46-C , 51-C ) :   1.3411 
B( 47-C , 48-C ) :   1.3852 B( 47-C , 52-H ) :   0.9959 B( 48-C , 49-C ) :   1.3962 
B( 48-C , 53-H ) :   0.9822 B( 49-C , 50-C ) :   1.3561 B( 49-C , 54-H ) :   0.9887 
B( 50-C , 51-C ) :   1.3667 B( 50-C , 56-C ) :   1.0048 B( 51-C , 55-H ) :   0.9864 
B( 56-C , 57-C ) :   1.3741 B( 56-C , 61-C ) :   1.4017 B( 57-C , 58-C ) :   1.4038 
B( 57-C , 62-H ) :   0.9799 B( 58-C , 59-C ) :   1.4281 B( 58-C , 63-H ) :   0.9714 
B( 59-C , 60-N ) :   1.3113 B( 59-C , 64-H ) :   0.9462 B( 60-N , 61-C ) :   1.3273 
B( 61-C , 65-H ) :   0.9558 B( 66-C , 67-C ) :   2.6055 B( 66-C , 78-C ) :   1.0068 
B( 67-C , 68-C ) :   1.0166 B( 68-C , 69-C ) :   1.3351 B( 68-C , 73-C ) :   1.3819 
B( 69-C , 70-C ) :   1.4038 B( 69-C , 74-H ) :   0.9865 B( 70-C , 71-C ) :   1.4185 
B( 70-C , 75-H ) :   0.9711 B( 71-C , 72-N ) :   1.3181 B( 71-C , 76-H ) :   0.9542 
B( 72-N , 73-C ) :   1.3234 B( 73-C , 77-H ) :   0.9591 B( 78-C , 79-C ) :   1.3293 
B( 78-C , 83-C ) :   1.3412 B( 79-C , 80-C ) :   1.3852 B( 79-C , 84-H ) :   0.9959 
B( 80-C , 81-C ) :   1.3962 B( 80-C , 85-H ) :   0.9822 B( 81-C , 82-C ) :   1.3560 
B( 81-C , 86-H ) :   0.9886 B( 82-C , 83-C ) :   1.3666 B( 82-C , 88-C ) :   1.0051 
B( 83-C , 87-H ) :   0.9863 B( 88-C , 89-C ) :   1.3741 B( 88-C , 93-C ) :   1.4014 
B( 89-C , 90-C ) :   1.4038 B( 89-C , 94-H ) :   0.9799 B( 90-C , 91-C ) :   1.4282 
B( 90-C , 95-H ) :   0.9715 B( 91-C , 92-N ) :   1.3111 B( 91-C , 96-H ) :   0.9461 
B( 92-N , 93-C ) :   1.3275 B( 93-C , 97-H ) :   0.9559 B( 98-C , 99-C ) :   2.6053 
B( 98-C ,110-C ) :   1.0068 B( 99-C ,100-C ) :   1.0167 B(100-C ,101-C ) :   1.3352 
B(100-C ,105-C ) :   1.3819 B(101-C ,102-C ) :   1.4037 B(101-C ,106-H ) :   0.9865 
B(102-C ,103-C ) :   1.4186 B(102-C ,107-H ) :   0.9711 B(103-C ,104-N ) :   1.3182 
B(103-C ,108-H ) :   0.9542 B(104-N ,105-C ) :   1.3234 B(105-C ,109-H ) :   0.9592 
B(110-C ,111-C ) :   1.3293 B(110-C ,115-C ) :   1.3412 B(111-C ,112-C ) :   1.3852 
B(111-C ,116-H ) :   0.9959 B(112-C ,113-C ) :   1.3962 B(112-C ,117-H ) :   0.9822 
B(113-C ,114-C ) :   1.3562 B(113-C ,118-H ) :   0.9887 B(114-C ,115-C ) :   1.3665 
B(114-C ,120-C ) :   1.0049 B(115-C ,119-H ) :   0.9864 B(120-C ,121-C ) :   1.3740 
B(120-C ,125-C ) :   1.4016 B(121-C ,122-C ) :   1.4039 B(121-C ,126-H ) :   0.9799 
B(122-C ,123-C ) :   1.4280 B(122-C ,127-H ) :   0.9715 B(123-C ,124-N ) :   1.3113 
B(123-C ,128-H ) :   0.9462 B(124-N ,125-C ) :   1.3272 B(125-C ,129-H ) :   0.9559 


-------
TIMINGS
-------

Total SCF time: 0 days 0 hours 9 min 43 sec 

Total time                  ....     583.256 sec
Sum of individual times     ....     579.117 sec  ( 99.3%)

Fock matrix formation       ....     470.833 sec  ( 80.7%)
  XC integration            ....      24.357 sec  (  5.2% of F)
    Basis function eval.    ....       5.788 sec  ( 23.8% of XC)
    Density eval.           ....       8.564 sec  ( 35.2% of XC)
    XC-Functional eval.     ....       0.719 sec  (  3.0% of XC)
    XC-Potential eval.      ....       3.404 sec  ( 14.0% of XC)
Diagonalization             ....      11.343 sec  (  1.9%)
Density matrix formation    ....       0.604 sec  (  0.1%)
Population analysis         ....       2.482 sec  (  0.4%)
Initial guess               ....      34.043 sec  (  5.8%)
Orbital Transformation      ....       0.000 sec  (  0.0%)
Orbital Orthonormalization  ....       0.000 sec  (  0.0%)
DIIS solution               ....      34.708 sec  (  6.0%)
Grid generation             ....      25.104 sec  (  4.3%)


-------------------------------------------------------------------------------
                          DFT DISPERSION CORRECTION                            
                                                                               
                              DFTD3 V3.1  Rev 1                                
                          USING Becke-Johnson damping                          
-------------------------------------------------------------------------------
The PBE0 functional is recognized
Active option DFTDOPT                   ...         4   

molecular C6(AA) [au] = 260901.245917 


            DFT-D V3
 parameters
 s6 scaling factor         :     1.0000 
 a1 scaling factor         :     0.4145 
 s8 scaling factor         :     1.2177 
 a2 scaling factor         :     4.8593 
 ad hoc parameters k1-k3   :    16.0000     1.3333    -4.0000 

 Edisp/kcal,au: -129.411625532669  -0.206230530497 
 E6   /kcal   : -80.180431648 
 E8   /kcal   : -49.231193885 
 % E8         :  38.042327096 

-------------------------   ----------------
Dispersion correction           -0.206230530
-------------------------   ----------------


-------------------------   --------------------
FINAL SINGLE POINT ENERGY     -3459.290633050349
-------------------------   --------------------


                            ***************************************
                            *     ORCA property calculations      *
                            ***************************************

                                    ---------------------
                                    Active property flags
                                    ---------------------
   (+) Dipole Moment


------------------------------------------------------------------------------
                       ORCA ELECTRIC PROPERTIES CALCULATION
------------------------------------------------------------------------------

Dipole Moment Calculation                       ... on
Quadrupole Moment Calculation                   ... off
Polarizability Calculation                      ... off
GBWName                                         ... _s_3d1_a_PBE0.gbw
Electron density file                           ... _s_3d1_a_PBE0.scfp
The origin for moment calculation is the CENTER OF MASS  = (-0.095211,  2.063514  0.334452)

-------------
DIPOLE MOMENT
-------------
                                X             Y             Z
Electronic contribution:     -0.65159      59.67254       1.01204
Nuclear contribution   :      0.65169     -59.65115      -1.01503
                        -----------------------------------------
Total Dipole Moment    :      0.00010       0.02139      -0.00299
                        -----------------------------------------
Magnitude (a.u.)       :      0.02160
Magnitude (Debye)      :      0.05489



--------------------
Rotational spectrum 
--------------------
 
Rotational constants in cm-1:     0.000815     0.000534     0.000533 
Rotational constants in MHz :    24.447334    16.003390    15.976968 

 Dipole components along the rotational axes: 
x,y,z [a.u.] :     0.021347    -0.002054    -0.002542 
x,y,z [Debye]:     0.054260    -0.005220    -0.006461 

 

Timings for individual modules:

Sum of individual times         ...      608.573 sec (=  10.143 min)
GTO integral calculation        ...       16.113 sec (=   0.269 min)   2.6 %
SCF iterations                  ...      592.460 sec (=   9.874 min)  97.4 %
                             ****ORCA TERMINATED NORMALLY****
TOTAL RUN TIME: 0 days 0 hours 10 minutes 47 seconds 408 msec
