Job execution start: Tue Jun 22 11:53:02 BST 2021
Shared library path: /work/e05/e05/atarzia/orca_4_2_1_linux_x86-64_openmpi314:/work/e05/e05/atarzia/openmpi-3.1.4/lib:/opt/cray/pe/papi/6.0.0.4/lib64:/opt/cray/libfabric/1.11.0.0.233/lib64
Slurm Job ID is: 344699
Slurm Job name is: s_3d1_b_B97-3c
nid001483

                                 *****************
                                 * O   R   C   A *
                                 *****************

           --- An Ab Initio, DFT and Semiempirical electronic structure package ---

                  #######################################################
                  #                        -***-                        #
                  #          Department of theory and spectroscopy      #
                  #               Directorship: Frank Neese             #
                  #        Max Planck Institute fuer Kohlenforschung    #
                  #                Kaiser Wilhelm Platz 1               #
                  #                 D-45470 Muelheim/Ruhr               #
                  #                      Germany                        #
                  #                                                     #
                  #                  All rights reserved                #
                  #                        -***-                        #
                  #######################################################


                         Program Version 4.2.1 -  RELEASE  -


 With contributions from (in alphabetic order):
   Daniel Aravena         : Magnetic Suceptibility
   Michael Atanasov       : Ab Initio Ligand Field Theory (pilot matlab implementation)
   Alexander A. Auer      : GIAO ZORA, VPT2
   Ute Becker             : Parallelization
   Giovanni Bistoni       : ED, misc. LED, open-shell LED, HFLD
   Martin Brehm           : Molecular dynamics
   Dmytro Bykov           : SCF Hessian
   Vijay G. Chilkuri      : MRCI spin determinant printing, contributions to CSF-ICE
   Dipayan Datta          : RHF DLPNO-CCSD density
   Achintya Kumar Dutta   : EOM-CC, STEOM-CC
   Dmitry Ganyushin       : Spin-Orbit,Spin-Spin,Magnetic field MRCI
   Miquel Garcia          : C-PCM Hessian, Gaussian charge scheme
   Yang Guo               : DLPNO-NEVPT2, CIM, IAO-localization
   Andreas Hansen         : Spin unrestricted coupled pair/coupled cluster methods
   Benjamin Helmich-Paris : CASSCF linear response (MC-RPA)
   Lee Huntington         : MR-EOM, pCC
   Robert Izsak           : Overlap fitted RIJCOSX, COSX-SCS-MP3, EOM
   Christian Kollmar      : KDIIS, OOCD, Brueckner-CCSD(T), CCSD density
   Simone Kossmann        : Meta GGA functionals, TD-DFT gradient, OOMP2, MP2 Hessian
   Martin Krupicka        : AUTO-CI
   Lucas Lang             : DCDCAS
   Dagmar Lenk            : GEPOL surface, SMD
   Dimitrios Liakos       : Extrapolation schemes; Compound Job, initial MDCI parallelization
   Dimitrios Manganas     : Further ROCIS development; embedding schemes
   Dimitrios Pantazis     : SARC Basis sets
   Taras Petrenko         : DFT Hessian,TD-DFT gradient, ASA, ECA, R-Raman, ABS, FL, XAS/XES, NRVS
   Peter Pinski           : DLPNO-MP2, DLPNO-MP2 Gradient
   Christoph Reimann      : Effective Core Potentials
   Marius Retegan         : Local ZFS, SOC
   Christoph Riplinger    : Optimizer, TS searches, QM/MM, DLPNO-CCSD(T), (RO)-DLPNO pert. Triples
   Tobias Risthaus        : Range-separated hybrids, TD-DFT gradient, RPA, STAB
   Michael Roemelt        : Original ROCIS implementation
   Masaaki Saitow         : Open-shell DLPNO-CCSD energy and density
   Barbara Sandhoefer     : DKH picture change effects
   Avijit Sen             : IP-ROCIS
   Kantharuban Sivalingam : CASSCF convergence, NEVPT2, FIC-MRCI
   Bernardo de Souza      : ESD, SOC TD-DFT
   Georgi Stoychev        : AutoAux, RI-MP2 NMR
   Willem Van den Heuvel  : Paramagnetic NMR
   Boris Wezisla          : Elementary symmetry handling
   Frank Wennmohs         : Technical directorship


 We gratefully acknowledge several colleagues who have allowed us to
 interface, adapt or use parts of their codes:
   Stefan Grimme, W. Hujo, H. Kruse,             : VdW corrections, initial TS optimization,
                  C. Bannwarth                     DFT functionals, gCP, sTDA/sTD-DF
   Ed Valeev, F. Pavosevic, A. Kumar             : LibInt (2-el integral package), F12 methods
   Garnet Chan, S. Sharma, J. Yang, R. Olivares  : DMRG
   Ulf Ekstrom                                   : XCFun DFT Library
   Mihaly Kallay                                 : mrcc  (arbitrary order and MRCC methods)
   Andreas Klamt, Michael Diedenhofen            : otool_cosmo (COSMO solvation model)
   Jiri Pittner, Ondrej Demel                    : Mk-CCSD
   Frank Weinhold                                : gennbo (NPA and NBO analysis)
   Christopher J. Cramer and Donald G. Truhlar   : smd solvation model
   Lars Goerigk                                  : TD-DFT with DH, B97 family of functionals
   V. Asgeirsson, H. Jonsson                     : NEB implementation
   FAccTs GmbH                                   : IRC, NEB, NEB-TS, Multilevel, MM, QM/MM, CI optimization
   S Lehtola, MJT Oliveira, MAL Marques          : LibXC Library


 Your calculation uses the libint2 library for the computation of 2-el integrals
 For citations please refer to: http://libint.valeyev.net

 Your ORCA version has been built with support for libXC version: 4.2.3
 For citations please refer to: https://tddft.org/programs/libxc/

 This ORCA versions uses:
   CBLAS   interface :  Fast vector & matrix operations
   LAPACKE interface :  Fast linear algebra routines
   SCALAPACK package :  Parallel linear algebra routines




***************************************
The coordinates will be read from file: s_3d1_b.xyz
***************************************


Your calculation utilizes the atom-pairwise dispersion correction
with the Becke-Johnson damping scheme (D3BJ)
Cite in your paper:
S.Grimme, S.Ehrlich, L.Goerigk, J Comput Chem, (2011), 32, 1456–1465 
S.Grimme, J.Antony, S.Ehrlich and H.Krieg, J.Chem.Phys., 132, (2010), 154104 
   

Your calculation employs the composite approach B97-3c by Grimme and coworkers.
For the correct reference, please check the publication list of the Grimme group:
http://www.thch.uni-bonn.de/tc/index.php?section=publikationen&subsection=grimme#2017
   

XCFun DFT library Copyright 2009-2010 Ulf Ekstrom and contributors.
See http://admol.org/xcfun for more information. This is free soft-
ware; see the source code for copying conditions. There is ABSOLUTELY
NO WARRANTY; not even for MERCHANTABILITY or FITNESS FOR A PARTICULAR
PURPOSE. For details see the documentation. Scientific users of this 
library should cite U. Ekstrom, L. Visscher, R. Bast, A. J. Thorvald-
sen and K. Ruud; J.Chem.Theor.Comp. 2010, DOI: 10.1021/ct100117s
XCFun Version 0.99 
----- Orbital basis set information -----
Your calculation utilizes the basis: def2-mTZVP
----- AuxJ basis set information -----
Your calculation utilizes the basis: def2-mTZVP/J
cite the ECPs for Pd [Def2-ECP] as follows:
Ce-Yb(ecp-28): M. Dolg, H. Stoll, H.Preuss, J. Chem. Phys., 1989, 90, 1730-1734.
Y-Cd(ecp-28), Hf-Hg(ecp-46): D. Andrae,U. Haeussermann, M. Dolg, H. Stoll, H. Preuss, Theor. Chim. Acta, 1990, 77, 123-141.
In-Sb(ecp-28), Tl-Bi(ecp-46): B. Metz, H. Stoll, M. Dolg, J. Chem. Phys., 2000, 113, 2563-2569.
Te-Xe(ecp-28), Po-Rn(ecp-46): K. A. Peterson, D. Figgen, E. Goll, H. Stoll, M. Dolg, J. Chem. Phys., 2003, 119, 11113-11123.
Rb(ecp-28), Cs(ecp-46): T. Leininger, A. Nicklass, W. Kuechle, H. Stoll, M. Dolg, A. Bergner, Chem. Phys. Lett., 1996, 255, 274-280.
Sr(ecp-28), Ba(ecp-46): M. Kaupp, P. V. Schleyer, H. Stoll and H. Preuss, J. Chem. Phys., 1991, 94, 1360-1366.
La(ecp-46): M. Dolg, H. Stoll, A. Savin, H. Preuss, Theor. Chim. Acta, 1989, 75, 173-194.
Lu(ecp-28): X. Cao, M. Dolg, J. Chem. Phys., 2001, 115, 7348-7355.

ECP parameters for Pd [Def2-ECP] have been obtained from:
TURBOMOLE (7.0.2)

================================================================================
                                        WARNINGS
                       Please study these warnings very carefully!
================================================================================


INFO   : the flag for use of LIBINT has been found!

================================================================================
                                       INPUT FILE
================================================================================
NAME = s_3d1_b_B97-3c.in
|  1> ! DFT SP B97-3c TightSCF printbasis  Grid6 NOFINALGRID SlowConv 
|  2> 
|  3> %base "_s_3d1_b_B97-3c"
|  4> %maxcore 3000
|  5> %scf
|  6>    MaxIter 2000
|  7> end
|  8> %pal
|  9>    nprocs 32
| 10> end
| 11> 
| 12> * xyzfile 4 1 s_3d1_b.xyz
| 13> 
| 14>                          ****END OF INPUT****
================================================================================

                       ****************************
                       * Single Point Calculation *
                       ****************************

---------------------------------
CARTESIAN COORDINATES (ANGSTROEM)
---------------------------------
  Pd     0.292800    6.450100    0.340500
  Pd     0.093300   -3.195300    0.220900
  C      5.053800    0.710900    0.129900
  C      4.578200   -0.390900    0.271800
  C      4.012500   -1.673600    0.415700
  C      4.802700   -2.806800    0.652600
  C      4.188100   -4.040300    0.775900
  C      2.809400   -4.127400    0.656800
  N      2.061100   -3.046100    0.425200
  C      2.630400   -1.846300    0.309100
  H      5.873800   -2.708800    0.737800
  H      4.770100   -4.928500    0.961500
  H      2.284500   -5.074000    0.752700
  H      1.967000   -1.003100    0.117900
  C      5.568000    2.007600   -0.085000
  C      6.829900    2.178900   -0.659000
  C      7.292800    3.456500   -0.913900
  C      6.517100    4.561400   -0.606200
  C      5.259000    4.404400   -0.019500
  C      4.792400    3.119700    0.243000
  H      7.431500    1.318500   -0.907800
  H      8.264300    3.595100   -1.363200
  H      6.884900    5.546100   -0.848500
  H      3.844200    2.964500    0.732400
  C      4.434500    5.584800    0.283800
  C      5.002700    6.803200    0.670900
  C      4.189100    7.901700    0.893000
  C      2.819000    7.767000    0.746000
  N      2.271300    6.597900    0.406700
  C      3.045600    5.538000    0.173800
  H      6.069500    6.885800    0.807200
  H      4.612700    8.850300    1.180700
  H      2.139600    8.602300    0.900200
  H      2.532900    4.629000   -0.132600
  C      0.454000    2.487300    5.187700
  C      0.352600    3.616900    4.770700
  C      0.246100    4.919800    4.244500
  C      0.064700    6.043000    5.063000
  C     -0.033700    7.291800    4.475500
  C      0.050200    7.403400    3.095700
  N      0.230000    6.331800    2.320600
  C      0.326500    5.119000    2.864700
  H      0.000500    5.925900    6.133600
  H     -0.176100    8.173500    5.079200
  H     -0.029200    8.362500    2.592300
  H      0.478500    4.281500    2.183500
  C      0.618300    1.162100    5.644600
  C      1.200600    0.915700    6.890200
  C      1.403900   -0.389200    7.299200
  C      1.034200   -1.447100    6.486200
  C      0.437600   -1.214500    5.244300
  C      0.230100    0.098000    4.830200
  H      1.495800    1.740000    7.520700
  H      1.860400   -0.586000    8.257100
  H      1.235800   -2.455400    6.812000
  H     -0.261800    0.312300    3.894800
  C      0.069300   -2.351300    4.385400
  C     -0.368500   -3.565800    4.924400
  C     -0.639200   -4.633000    4.084600
  C     -0.484000   -4.472100    2.718700
  N     -0.099700   -3.303700    2.197800
  C      0.173600   -2.271700    2.997300
  H     -0.504500   -3.669200    5.989400
  H     -0.966700   -5.578700    4.485100
  H     -0.672200   -5.285300    2.021200
  H      0.508000   -1.361900    2.505400
  C     -4.690600    2.588300    0.553500
  C     -4.235900    3.704400    0.464400
  C     -3.663500    4.989300    0.387700
  C     -4.441400    6.154700    0.365400
  C     -3.807100    7.383500    0.310100
  C     -2.421600    7.433900    0.283600
  N     -1.684800    6.319900    0.304500
  C     -2.274000    5.126600    0.351300
  H     -5.517800    6.086200    0.392000
  H     -4.379600    8.296700    0.291000
  H     -1.880700    8.376300    0.243300
  H     -1.624600    4.253200    0.367600
  C     -5.191800    1.277300    0.697800
  C     -6.461100    1.064300    1.241100
  C     -6.917200   -0.228800    1.418200
  C     -6.128700   -1.308600    1.058400
  C     -4.862300   -1.108700    0.503500
  C     -4.399000    0.191100    0.325200
  H     -7.074500    1.905200    1.525200
  H     -7.894100   -0.399300    1.844100
  H     -6.492600   -2.308700    1.234400
  H     -3.440900    0.378500   -0.132700
  C     -4.033100   -2.266800    0.132500
  C     -4.602400   -3.435000   -0.385700
  C     -3.795200   -4.520000   -0.682800
  C     -2.430800   -4.421600   -0.471300
  N     -1.881500   -3.300600    0.001800
  C     -2.649500   -2.251100    0.301000
  H     -5.664800   -3.486100   -0.565200
  H     -4.218700   -5.429900   -1.076200
  H     -1.757100   -5.247600   -0.684900
  H     -2.134500   -1.383800    0.709500
  C     -0.100300    2.732900   -4.618300
  C      0.035100    3.858000   -4.198300
  C      0.157400    5.140800   -3.628800
  C      0.172000    6.313300   -4.396600
  C      0.264900    7.534400   -3.752200
  C      0.331700    7.572600   -2.366700
  N      0.318600    6.453700   -1.640500
  C      0.241200    5.266000   -2.240600
  H      0.109600    6.256100   -5.472200
  H      0.279800    8.452800   -4.316500
  H      0.398800    8.508500   -1.820400
  H      0.237600    4.382500   -1.600500
  C     -0.304100    1.419700   -5.092200
  C     -0.888400    1.208600   -6.343500
  C     -1.126100   -0.083100   -6.774900
  C     -0.783500   -1.163500   -5.979900
  C     -0.187500   -0.965900   -4.731800
  C      0.048600    0.332300   -4.291300
  H     -1.156600    2.051000   -6.962100
  H     -1.584400   -0.251600   -7.737400
  H     -1.003900   -2.162000   -6.323700
  H      0.537500    0.513800   -3.347300
  C      0.171200   -2.129300   -3.904400
  C      0.656200   -3.305000   -4.486300
  C      0.941000   -4.400400   -3.688700
  C      0.747900   -4.303500   -2.322200
  N      0.308500   -3.173500   -1.759800
  C      0.023800   -2.114200   -2.518100
  H      0.819400   -3.354100   -5.551400
  H      1.309100   -5.316400   -4.121600
  H      0.949800   -5.140400   -1.655800
  H     -0.354300   -1.240800   -1.994000

----------------------------
CARTESIAN COORDINATES (A.U.)
----------------------------
  NO LB      ZA    FRAG     MASS         X           Y           Z
   0 Pd   18.0000*   0   106.400    0.553312   12.188923    0.643452
   1 Pd   18.0000*   0   106.400    0.176311   -6.038242    0.417441
   2 C     6.0000    0    12.011    9.550298    1.343406    0.245475
   3 C     6.0000    0    12.011    8.651544   -0.738694    0.513628
   4 C     6.0000    0    12.011    7.582526   -3.162646    0.785559
   5 C     6.0000    0    12.011    9.075788   -5.304083    1.233235
   6 C     6.0000    0    12.011    7.914362   -7.635060    1.466239
   7 C     6.0000    0    12.011    5.308997   -7.799656    1.241172
   8 N     7.0000    0    14.007    3.894915   -5.756295    0.803512
   9 C     6.0000    0    12.011    4.970736   -3.489001    0.584114
  10 H     1.0000    0     1.008   11.099873   -5.118890    1.394240
  11 H     1.0000    0     1.008    9.014183   -9.313515    1.816972
  12 H     1.0000    0     1.008    4.317079   -9.588470    1.422397
  13 H     1.0000    0     1.008    3.717091   -1.895584    0.222799
  14 C     6.0000    0    12.011   10.521995    3.793814   -0.160627
  15 C     6.0000    0    12.011   12.906641    4.117524   -1.245330
  16 C     6.0000    0    12.011   13.781395    6.531838   -1.727021
  17 C     6.0000    0    12.011   12.315534    8.619797   -1.145552
  18 C     6.0000    0    12.011    9.938070    8.323110   -0.036850
  19 C     6.0000    0    12.011    9.056324    5.895379    0.459203
  20 H     1.0000    0     1.008   14.043500    2.491604   -1.715493
  21 H     1.0000    0     1.008   15.617264    6.793754   -2.576075
  22 H     1.0000    0     1.008   13.010575   10.480610   -1.603433
  23 H     1.0000    0     1.008    7.264485    5.602093    1.384035
  24 C     6.0000    0    12.011    8.379991   10.553743    0.536304
  25 C     6.0000    0    12.011    9.453733   12.856185    1.267817
  26 C     6.0000    0    12.011    7.916252   14.932049    1.687525
  27 C     6.0000    0    12.011    5.327138   14.677503    1.409736
  28 N     7.0000    0    14.007    4.292135   12.468224    0.768552
  29 C     6.0000    0    12.011    5.755350   10.465303    0.328434
  30 H     1.0000    0     1.008   11.469693   13.012276    1.525387
  31 H     1.0000    0     1.008    8.716740   16.724643    2.231200
  32 H     1.0000    0     1.008    4.043258   16.255991    1.701131
  33 H     1.0000    0     1.008    4.786487    8.747542   -0.250578
  34 C     6.0000    0    12.011    0.857936    4.700316    9.803332
  35 C     6.0000    0    12.011    0.666317    6.834950    9.015316
  36 C     6.0000    0    12.011    0.465062    9.297075    8.020943
  37 C     6.0000    0    12.011    0.122265   11.419615    9.567683
  38 C     6.0000    0    12.011   -0.063684   13.779505    8.457469
  39 C     6.0000    0    12.011    0.094864   13.990398    5.850025
  40 N     7.0000    0    14.007    0.434637   11.965368    4.385298
  41 C     6.0000    0    12.011    0.616996    9.673508    5.413498
  42 H     1.0000    0     1.008    0.000945   11.198328   11.590824
  43 H     1.0000    0     1.008   -0.332781   15.445677    9.598297
  44 H     1.0000    0     1.008   -0.055180   15.802835    4.898737
  45 H     1.0000    0     1.008    0.904234    8.090862    4.126217
  46 C     6.0000    0    12.011    1.168418    2.196051   10.666748
  47 C     6.0000    0    12.011    2.268805    1.730422   13.020591
  48 C     6.0000    0    12.011    2.652987   -0.735481   13.793489
  49 C     6.0000    0    12.011    1.954355   -2.734623   12.257142
  50 C     6.0000    0    12.011    0.826944   -2.295072    9.910291
  51 C     6.0000    0    12.011    0.434826    0.185193    9.127755
  52 H     1.0000    0     1.008    2.826652    3.288123   14.212063
  53 H     1.0000    0     1.008    3.515646   -1.107380   15.603658
  54 H     1.0000    0     1.008    2.335324   -4.640034   12.872814
  55 H     1.0000    0     1.008   -0.494730    0.590161    7.360105
  56 C     6.0000    0    12.011    0.130958   -4.443313    8.287205
  57 C     6.0000    0    12.011   -0.696364   -6.738385    9.305767
  58 C     6.0000    0    12.011   -1.207913   -8.755101    7.718775
  59 C     6.0000    0    12.011   -0.914627   -8.451044    5.137598
  60 N     7.0000    0    14.007   -0.188406   -6.243088    4.153240
  61 C     6.0000    0    12.011    0.328056   -4.292891    5.664076
  62 H     1.0000    0     1.008   -0.953367   -6.933783   11.318326
  63 H     1.0000    0     1.008   -1.826798  -10.542215    8.475611
  64 H     1.0000    0     1.008   -1.270274   -9.987770    3.819514
  65 H     1.0000    0     1.008    0.959981   -2.573618    4.734520
  66 C     6.0000    0    12.011   -8.863949    4.891178    1.045963
  67 C     6.0000    0    12.011   -8.004691    7.000301    0.877589
  68 C     6.0000    0    12.011   -6.923012    9.428411    0.732647
  69 C     6.0000    0    12.011   -8.393030   11.630697    0.690506
  70 C     6.0000    0    12.011   -7.194376   13.952793    0.586004
  71 C     6.0000    0    12.011   -4.576161   14.048035    0.535926
  72 N     7.0000    0    14.007   -3.183811   11.942880    0.575422
  73 C     6.0000    0    12.011   -4.297237    9.687870    0.663861
  74 H     1.0000    0     1.008  -10.427131   11.501251    0.740773
  75 H     1.0000    0     1.008   -8.276245   15.678491    0.549910
  76 H     1.0000    0     1.008   -3.554008   15.828913    0.459770
  77 H     1.0000    0     1.008   -3.070049    8.037383    0.694663
  78 C     6.0000    0    12.011   -9.811080    2.413747    1.318651
  79 C     6.0000    0    12.011  -12.209710    2.011236    2.345339
  80 C     6.0000    0    12.011  -13.071614   -0.432369    2.680010
  81 C     6.0000    0    12.011  -11.581565   -2.472896    2.000086
  82 C     6.0000    0    12.011   -9.188415   -2.095139    0.951477
  83 C     6.0000    0    12.011   -8.312905    0.361127    0.614539
  84 H     1.0000    0     1.008  -13.368868    3.600306    2.882210
  85 H     1.0000    0     1.008  -14.917687   -0.754568    3.484844
  86 H     1.0000    0     1.008  -12.269236   -4.362811    2.332678
  87 H     1.0000    0     1.008   -6.502359    0.715261   -0.250767
  88 C     6.0000    0    12.011   -7.621454   -4.283631    0.250389
  89 C     6.0000    0    12.011   -8.697276   -6.491209   -0.728867
  90 C     6.0000    0    12.011   -7.171889   -8.541562   -1.290305
  91 C     6.0000    0    12.011   -4.593546   -8.355613   -0.890628
  92 N     7.0000    0    14.007   -3.555520   -6.237230    0.003402
  93 C     6.0000    0    12.011   -5.006829   -4.253963    0.568808
  94 H     1.0000    0     1.008  -10.704921   -6.587774   -1.068073
  95 H     1.0000    0     1.008   -7.972188  -10.261024   -2.033723
  96 H     1.0000    0     1.008   -3.320438   -9.916527   -1.294273
  97 H     1.0000    0     1.008   -4.033620   -2.615003    1.340761
  98 C     6.0000    0    12.011   -0.189540    5.164433   -8.727322
  99 C     6.0000    0    12.011    0.066329    7.290563   -7.933637
 100 C     6.0000    0    12.011    0.297443    9.714704   -6.857438
 101 C     6.0000    0    12.011    0.325033   11.930408   -8.308370
 102 C     6.0000    0    12.011    0.500588   14.237953   -7.090630
 103 C     6.0000    0    12.011    0.626822   14.310140   -4.472415
 104 N     7.0000    0    14.007    0.602067   12.195726   -3.100096
 105 C     6.0000    0    12.011    0.455802    9.951298   -4.234120
 106 H     1.0000    0     1.008    0.207114   11.822316  -10.340959
 107 H     1.0000    0     1.008    0.528745   15.973477   -8.157003
 108 H     1.0000    0     1.008    0.753623   16.078735   -3.440057
 109 H     1.0000    0     1.008    0.448999    8.281725   -3.024507
 110 C     6.0000    0    12.011   -0.574666    2.682844   -9.622863
 111 C     6.0000    0    12.011   -1.678833    2.283923  -11.987478
 112 C     6.0000    0    12.011   -2.128021   -0.157036  -12.802706
 113 C     6.0000    0    12.011   -1.480600   -2.198696  -11.300373
 114 C     6.0000    0    12.011   -0.354324   -1.825286   -8.941806
 115 C     6.0000    0    12.011    0.091841    0.627956   -8.109382
 116 H     1.0000    0     1.008   -2.185657    3.875828  -13.156462
 117 H     1.0000    0     1.008   -2.994082   -0.475455  -14.621567
 118 H     1.0000    0     1.008   -1.897096   -4.085588  -11.950061
 119 H     1.0000    0     1.008    1.015728    0.970941   -6.325480
 120 C     6.0000    0    12.011    0.323521   -4.023794   -7.378247
 121 C     6.0000    0    12.011    1.240038   -6.245545   -8.477878
 122 C     6.0000    0    12.011    1.778232   -8.315551   -6.970633
 123 C     6.0000    0    12.011    1.413326   -8.132436   -4.388322
 124 N     7.0000    0    14.007    0.582981   -5.997046   -3.325540
 125 C     6.0000    0    12.011    0.044975   -3.995259   -4.758519
 126 H     1.0000    0     1.008    1.548442   -6.338330  -10.490626
 127 H     1.0000    0     1.008    2.473840  -10.046540   -7.788695
 128 H     1.0000    0     1.008    1.794862   -9.713948   -3.129009
 129 H     1.0000    0     1.008   -0.669530   -2.344772   -3.768114
* core charge reduced due to ECP

--------------------------------
INTERNAL COORDINATES (ANGSTROEM)
--------------------------------
 Pd     0   0   0     0.000000000000     0.00000000     0.00000000
 Pd     1   0   0     9.648204266598     0.00000000     0.00000000
 C      2   1   0     6.314526085939    50.61779214     0.00000000
 C      3   2   1     1.208426336191    28.96792295   165.90266877
 C      4   3   2     1.409270375052   179.00993691    52.48574275
 C      5   4   3     1.401670392781   121.79032401   124.71511532
 C      6   5   4     1.383639512301   119.03757148   180.42348534
 C      7   6   5     1.386573081377   119.34155324     0.27854182
 N      8   7   6     1.335215765335   121.41812075     0.00000000
 C      9   8   7     1.333079795061   120.30715069   359.66197505
 H      6   5   4     1.078943117129   119.97166429     0.52711307
 H      7   6   5     1.077993784769   120.66780592   180.20262246
 H      8   7   6     1.086631667126   121.83336477   180.38967533
 H     10   9   8     1.089790456923   116.85176338   179.85155081
 C      3   2   1     1.411387452119   148.95174416   342.66083763
 C     15   3   2     1.396857652018   120.28877048   216.20660874
 C     16  15   3     1.382574475390   119.44210987   177.26610359
 C     17  16  15     1.384627671975   120.58720825   359.95758626
 C     18  17  16     1.397025948220   120.54140368     0.69120967
 C     19  18  17     1.391788741153   119.00300737   359.56234550
 H     16  15   3     1.078940294919   120.04481730   357.79938631
 H     17  16  15     1.079301950336   119.78748395   180.39855769
 H     18  17  16     1.078712297140   119.17637819   182.26831698
 H     20  19  18     1.078277626588   120.88193296   177.42227958
 C     19  18  17     1.471439873050   120.06783303   180.95908696
 C     25  19  18     1.398998288062   121.87749468   326.38639153
 C     26  25  19     1.384909968193   119.77340053   177.36158121
 C     27  26  25     1.384531364758   119.15378378     0.95236622
 N     28  27  26     1.334876245200   121.21277672     0.59303163
 C     29  28  27     1.333105738492   120.16008255   358.54795357
 H     26  25  19     1.078639277052   120.22165786   356.67445757
 H     27  26  25     1.077984327344   120.65979542   180.70536927
 H     28  27  26     1.087698529005   121.89374760   180.58245234
 H     30  29  28     1.087668722544   116.09666424   182.12348456
 C     24  20  19     5.618796487683   154.51426781   275.14245650
 C     35  24  20     1.208373750129    72.39852630    97.78874856
 C     36  35  24     1.409176035845   178.20992926    25.98963240
 C     37  36  35     1.401579983447   122.18533435   189.53253285
 C     38  37  36     1.383596852410   118.98243039   180.10223062
 C     39  38  37     1.386845993613   119.39243085   359.94594908
 N     40  39  38     1.334703940955   121.42081078   359.69948797
 C     41  40  39     1.332756879555   120.21734418     0.35098289
 H     38  37  36     1.078896848638   120.01422670   359.89625921
 H     39  38  37     1.078019638040   120.65122070   179.83583209
 H     40  39  38     1.086088730261   121.85571650   179.53989792
 H     42  41  40     1.090203508525   117.00485409   180.33905920
 C     35  24  20     1.411349403939   105.43837040   278.39972322
 C     47  35  24     1.396891409523   120.18692210   113.83212621
 C     48  47  35     1.382525189644   119.44453755   182.61932458
 C     49  48  47     1.384485283418   120.54533829   359.92679104
 C     50  49  48     1.397265160948   120.58015093   359.37673062
 C     51  50  49     1.391830201569   119.01739797     0.54024540
 H     48  47  35     1.078954948086   120.02400490     2.07271200
 H     49  48  47     1.079210313146   119.79509274   179.52174450
 H     50  49  48     1.078636681186   119.14398476   177.79809815
 H     52  51  50     1.078361377276   120.89622578   182.36096016
 C     51  50  49     1.471620990609   119.80243774   179.11155665
 C     57  51  50     1.398999674768   121.60514566    33.84647609
 C     58  57  51     1.384723210609   119.77352515   183.33459564
 C     59  58  57     1.384073213381   119.14337826   359.31839443
 N     60  59  58     1.335732705297   121.25192878   358.92771369
 C     61  60  59     1.333760525732   120.13320938     1.58784754
 H     58  57  51     1.078616039191   120.20467042     3.93348028
 H     59  58  57     1.077963352809   120.67713505   179.31189853
 H     60  59  58     1.087759040413   121.76913847   179.19472884
 H     62  61  60     1.086979765221   116.06568525   178.28322930
 C     46  42  41     5.678329072007   106.35044815   272.65360261
 C     67  46  42     1.208457740262    53.36223859    54.87878887
 C     68  67  46     1.408720220626   177.85062775   353.49422435
 C     69  68  67     1.401350370179   122.26540442   211.95381701
 C     70  69  68     1.383959544206   118.98679496   178.99735699
 C     71  70  69     1.386669629003   119.40441545   359.74038745
 N     72  71  70     1.335779566396   121.36661632     0.29368952
 C     73  72  71     1.331657527294   120.25291403     0.00000000
 H     70  69  68     1.078905357295   120.04141591   359.04434344
 H     71  70  69     1.077986688229   120.62792881   179.94963732
 H     72  71  70     1.087342935784   121.95418631   180.19121375
 H     74  73  72     1.088491437725   117.10236367   180.06998709
 C     67  46  42     1.410937606700   124.82529856   236.07695153
 C     79  67  46     1.397020536714   120.27763109   131.85140157
 C     80  79  67     1.382569792090   119.48197155   182.24408663
 C     81  80  79     1.384614144807   120.54656584   359.81295815
 C     82  81  80     1.397012161722   120.52112285   359.63675044
 C     83  82  81     1.391372638800   119.10574737     0.43726044
 H     80  79  67     1.078927791838   120.00817801     1.82258275
 H     81  80  79     1.079256535769   119.79584436   179.55871753
 H     82  81  80     1.078702563268   119.24339547   178.09078755
 H     84  83  82     1.078307368054   120.83921659   182.19780018
 C     83  82  81     1.471872701697   119.88264768   179.68607253
 C     89  83  82     1.399044305946   121.40685064    35.71184575
 C     90  89  83     1.384581254387   119.77381588   182.09258888
 C     91  90  89     1.384197301688   119.08853593   359.39971687
 N     92  91  90     1.334988801451   121.29342826   359.46489125
 C     93  92  91     1.334464270784   120.20190424     1.01510143
 H     90  89  83     1.078668262257   120.13090102     2.87864950
 H     91  90  89     1.077976725166   120.71171832   179.57109512
 H     92  91  90     1.087093671217   121.79120256   179.71233292
 H     94  93  92     1.088258489514   116.01376337   178.22871200
 C     78  74  73     5.430838000714   112.22998927   275.42851230
 C     99  78  74     1.208545890730    56.75521664    52.84846544
 C    100  99  78     1.408851794903   176.25575808     1.65907948
 C    101 100  99     1.401601316352   122.76283607   205.49454429
 C    102 101 100     1.383823319647   118.93261539   178.52918666
 C    103 102 101     1.387635301511   119.50327381   359.54726098
 N    104 103 102     1.333969737288   121.33152750     0.52214254
 C    105 104 103     1.332944882581   120.18937454     0.04999607
 H    102 101 100     1.078925836191   120.07684144   358.63939104
 H    103 102 101     1.078014406212   120.59236897   179.90961596
 H    104 103 102     1.085750850794   121.94360717   180.40664644
 H    106 105 104     1.091014766170   117.23310292   179.78450441
 C     99  78  74     1.410889751185   121.89615415   234.55792825
 C    111  99  78     1.397040224904   120.12605267   131.02588336
 C    112 111  99     1.382424008761   119.51221098   182.30879368
 C    113 112 111     1.384436318507   120.49260489   359.67327225
 C    114 113 112     1.397145436238   120.54234547   359.74511048
 C    115 114 113     1.391081126319   119.16123459     0.51001121
 H    112 111  99     1.078997201109   119.96627884     1.89145490
 H    113 112 111     1.079276326990   119.81407400   179.51834928
 H    114 113 112     1.078784895148   119.25831689   178.24607285
 H    116 115 114     1.078471816971   120.74206068   182.09138348
 C    115 114 113     1.471990492496   119.62377628   180.13490820
 C    121 115 114     1.398607557537   120.99957352    36.72716939
 C    122 121 115     1.384621955625   119.78142080   182.28850838
 C    123 122 121     1.383473696895   119.00293226   359.49844173
 N    124 123 122     1.336512671096   121.38193109   359.23362534
 C    125 124 123     1.333487708980   120.16818049     1.14206945
 H    122 121 115     1.078648719463   120.10343854     3.04532446
 H    123 122 121     1.077940638440   120.74172410   179.58175129
 H    124 123 122     1.088693795335   121.65970699   179.47549878
 H    126 125 124     1.086493433022   116.01272984   178.36057301

---------------------------
INTERNAL COORDINATES (A.U.)
---------------------------
 Pd     0   0   0     0.000000000000     0.00000000     0.00000000
 Pd     1   0   0    18.232463748001     0.00000000     0.00000000
 C      2   1   0    11.932724967926    50.61779214     0.00000000
 C      3   2   1     2.283594828419    28.96792295   165.90266877
 C      4   3   2     2.663135057497   179.00993691    52.48574275
 C      5   4   3     2.648773172383   121.79032401   124.71511532
 C      6   5   4     2.614699746321   119.03757148   180.42348534
 C      7   6   5     2.620243388470   119.34155324     0.27854182
 N      8   7   6     2.523192126178   121.41812075     0.00000000
 C      9   8   7     2.519155727329   120.30715069   359.66197505
 H      6   5   4     2.038907005453   119.97166429     0.52711307
 H      7   6   5     2.037113027282   120.66780592   180.20262246
 H      8   7   6     2.053436259314   121.83336477   180.38967533
 H     10   9   8     2.059405506945   116.85176338   179.85155081
 C      3   2   1     2.667135753358   148.95174416   342.66083763
 C     15   3   2     2.639678410385   120.28877048   216.20660874
 C     16  15   3     2.612687118237   119.44210987   177.26610359
 C     17  16  15     2.616567097482   120.58720825   359.95758626
 C     18  17  16     2.639996444117   120.54140368     0.69120967
 C     19  18  17     2.630099557054   119.00300737   359.56234550
 H     16  15   3     2.038901672249   120.04481730   357.79938631
 H     17  16  15     2.039585101943   119.78748395   180.39855769
 H     18  17  16     2.038470818887   119.17637819   182.26831698
 H     20  19  18     2.037649410586   120.88193296   177.42227958
 C     19  18  17     2.780618382595   120.06783303   180.95908696
 C     25  19  18     2.643723626262   121.87749468   326.38639153
 C     26  25  19     2.617100560022   119.77340053   177.36158121
 C     27  26  25     2.616385103218   119.15378378     0.95236622
 N     28  27  26     2.522550526106   121.21277672     0.59303163
 C     29  28  27     2.519204753309   120.16008255   358.54795357
 H     26  25  19     2.038332830920   120.22165786   356.67445757
 H     27  26  25     2.037095155340   120.65979542   180.70536927
 H     28  27  26     2.055452336089   121.89374760   180.58245234
 H     30  29  28     2.055396010040   116.09666424   182.12348456
 C     24  20  19    10.617986563960   154.51426781   275.14245650
 C     35  24  20     2.283495455163    72.39852630    97.78874856
 C     36  35  24     2.662956782232   178.20992926    25.98963240
 C     37  36  35     2.648602323501   122.18533435   189.53253285
 C     38  37  36     2.614619130811   118.98243039   180.10223062
 C     39  38  37     2.620759117854   119.39243085   359.94594908
 N     40  39  38     2.522224918270   121.42081078   359.69948797
 C     41  40  39     2.518545505458   120.21734418     0.35098289
 H     38  37  36     2.038819570676   120.01422670   359.89625921
 H     39  38  37     2.037161882885   120.65122070   179.83583209
 H     40  39  38     2.052410257332   121.85571650   179.53989792
 H     42  41  40     2.060186061352   117.00485409   180.33905920
 C     35  24  20     2.667063852718   105.43837040   278.39972322
 C     47  35  24     2.639742202826   120.18692210   113.83212621
 C     48  47  35     2.612593981675   119.44453755   182.61932458
 C     49  48  47     2.616298022104   120.54533829   359.92679104
 C     50  49  48     2.640448490662   120.58015093   359.37673062
 C     51  50  49     2.630177905886   119.01739797     0.54024540
 H     48  47  35     2.038929362722   120.02400490     2.07271200
 H     49  48  47     2.039411932749   119.79509274   179.52174450
 H     50  49  48     2.038327925443   119.14398476   177.79809815
 H     52  51  50     2.037807676449   120.89622578   182.36096016
 C     51  50  49     2.780960645180   119.80243774   179.11155665
 C     57  51  50     2.643726246756   121.60514566    33.84647609
 C     58  57  51     2.616747639336   119.77352515   183.33459564
 C     59  58  57     2.615519322587   119.14337826   359.31839443
 N     60  59  58     2.524169001133   121.25192878   358.92771369
 C     61  60  59     2.520442121868   120.13320938     1.58784754
 H     58  57  51     2.038288917726   120.20467042     3.93348028
 H     59  58  57     2.037055519213   120.67713505   179.31189853
 H     60  59  58     2.055566686077   121.76913847   179.19472884
 H     62  61  60     2.054094069382   116.06568525   178.28322930
 C     46  42  41    10.730486844376   106.35044815   272.65360261
 C     67  46  42     2.283654173513    53.36223859    54.87878887
 C     68  67  46     2.662095416300   177.85062775   353.49422435
 C     69  68  67     2.648168417307   122.26540442   211.95381701
 C     70  69  68     2.615304518977   118.98679496   178.99735699
 C     71  70  69     2.620425837042   119.40441545   359.74038745
 N     72  71  70     2.524257555776   121.36661632     0.29368952
 C     73  72  71     2.516468030761   120.25291403     0.00000000
 H     70  69  68     2.038835649708   120.04141591   359.04434344
 H     71  70  69     2.037099616767   120.62792881   179.94963732
 H     72  71  70     2.054780362286   121.95418631   180.19121375
 H     74  73  72     2.056950716418   117.10236367   180.06998709
 C     67  46  42     2.666285668713   124.82529856   236.07695153
 C     79  67  46     2.639986217853   120.27763109   131.85140157
 C     80  79  67     2.612678268083   119.48197155   182.24408663
 C     81  80  79     2.616541534839   120.54656584   359.81295815
 C     82  81  80     2.639970391412   120.52112285   359.63675044
 C     83  82  81     2.629313237562   119.10574737     0.43726044
 H     80  79  67     2.038878044850   120.00817801     1.82258275
 H     81  80  79     2.039499280848   119.79584436   179.55871753
 H     82  81  80     2.038452424535   119.24339547   178.09078755
 H     84  83  82     2.037705613812   120.83921659   182.19780018
 C     83  82  81     2.781436310202   119.88264768   179.68607253
 C     89  83  82     2.643810587460   121.40685064    35.71184575
 C     90  89  83     2.616479380953   119.77381588   182.09258888
 C     91  90  89     2.615753815503   119.08853593   359.39971687
 N     92  91  90     2.522763226594   121.29342826   359.46489125
 C     93  92  91     2.521772007285   120.20190424     1.01510143
 H     90  89  83     2.038387605018   120.13090102     2.87864950
 H     91  90  89     2.037080789305   120.71171832   179.57109512
 H     92  91  90     2.054309320519   121.79120256   179.71233292
 H     94  93  92     2.056510508097   116.01376337   178.22871200
 C     78  74  73    10.262796499042   112.22998927   275.42851230
 C     99  78  74     2.283820753755    56.75521664    52.84846544
 C    100  99  78     2.662344055649   176.25575808     1.65907948
 C    101 100  99     2.648642636849   122.76283607   205.49454429
 C    102 101 100     2.615047091867   118.93261539   178.52918666
 C    103 102 101     2.622250693617   119.50327381   359.54726098
 N    104 103 102     2.520837474413   121.33152750     0.52214254
 C    105 104 103     2.518900779691   120.18937454     0.04999607
 H    102 101 100     2.038874349213   120.07684144   358.63939104
 H    103 102 101     2.037151996162   120.59236897   179.90961596
 H    104 103 102     2.051771757673   121.94360717   180.40664644
 H    106 105 104     2.061719116125   117.23310292   179.78450441
 C     99  78  74     2.666195234897   121.89615415   234.55792825
 C    111  99  78     2.640023423140   120.12605267   131.02588336
 C    112 111  99     2.612402777517   119.51221098   182.30879368
 C    113 112 111     2.616205491832   120.49260489   359.67327225
 C    114 113 112     2.640222243747   120.54234547   359.74511048
 C    115 114 113     2.628762358809   119.16123459     0.51001121
 H    112 111  99     2.039009209363   119.96627884     1.89145490
 H    113 112 111     2.039536680835   119.81407400   179.51834928
 H    114 113 112     2.038608009241   119.25831689   178.24607285
 H    116 115 114     2.038016377227   120.74206068   182.09138348
 C    115 114 113     2.781658902554   119.62377628   180.13490820
 C    121 115 114     2.642985252578   120.99957352    36.72716939
 C    122 121 115     2.616556295147   119.78142080   182.28850838
 C    123 122 121     2.614386400615   119.00293226   359.49844173
 N    124 123 122     2.525642922887   121.38193109   359.23362534
 C    125 124 123     2.519926572922   120.16818049     1.14206945
 H    122 121 115     2.038350674491   120.10343854     3.04532446
 H    123 122 121     2.037012595275   120.74172410   179.58175129
 H    124 123 122     2.057333116882   121.65970699   179.47549878
 H    126 125 124     2.053175034716   116.01272984   178.36057301

---------------------
BASIS SET INFORMATION
---------------------
There are 4 groups of distinct atoms

 Group   1 Type Pd  : 7s7p6d contracted to 6s4p3d pattern {211111/4111/411}
 Group   2 Type C   : 11s6p1d contracted to 5s3p1d pattern {62111/411/1}
 Group   3 Type N   : 11s6p1d contracted to 5s3p1d pattern {62111/411/1}
 Group   4 Type H   : 5s contracted to 3s pattern {311}

Atom   0Pd   basis set group =>   1
Atom   1Pd   basis set group =>   1
Atom   2C    basis set group =>   2
Atom   3C    basis set group =>   2
Atom   4C    basis set group =>   2
Atom   5C    basis set group =>   2
Atom   6C    basis set group =>   2
Atom   7C    basis set group =>   2
Atom   8N    basis set group =>   3
Atom   9C    basis set group =>   2
Atom  10H    basis set group =>   4
Atom  11H    basis set group =>   4
Atom  12H    basis set group =>   4
Atom  13H    basis set group =>   4
Atom  14C    basis set group =>   2
Atom  15C    basis set group =>   2
Atom  16C    basis set group =>   2
Atom  17C    basis set group =>   2
Atom  18C    basis set group =>   2
Atom  19C    basis set group =>   2
Atom  20H    basis set group =>   4
Atom  21H    basis set group =>   4
Atom  22H    basis set group =>   4
Atom  23H    basis set group =>   4
Atom  24C    basis set group =>   2
Atom  25C    basis set group =>   2
Atom  26C    basis set group =>   2
Atom  27C    basis set group =>   2
Atom  28N    basis set group =>   3
Atom  29C    basis set group =>   2
Atom  30H    basis set group =>   4
Atom  31H    basis set group =>   4
Atom  32H    basis set group =>   4
Atom  33H    basis set group =>   4
Atom  34C    basis set group =>   2
Atom  35C    basis set group =>   2
Atom  36C    basis set group =>   2
Atom  37C    basis set group =>   2
Atom  38C    basis set group =>   2
Atom  39C    basis set group =>   2
Atom  40N    basis set group =>   3
Atom  41C    basis set group =>   2
Atom  42H    basis set group =>   4
Atom  43H    basis set group =>   4
Atom  44H    basis set group =>   4
Atom  45H    basis set group =>   4
Atom  46C    basis set group =>   2
Atom  47C    basis set group =>   2
Atom  48C    basis set group =>   2
Atom  49C    basis set group =>   2
Atom  50C    basis set group =>   2
Atom  51C    basis set group =>   2
Atom  52H    basis set group =>   4
Atom  53H    basis set group =>   4
Atom  54H    basis set group =>   4
Atom  55H    basis set group =>   4
Atom  56C    basis set group =>   2
Atom  57C    basis set group =>   2
Atom  58C    basis set group =>   2
Atom  59C    basis set group =>   2
Atom  60N    basis set group =>   3
Atom  61C    basis set group =>   2
Atom  62H    basis set group =>   4
Atom  63H    basis set group =>   4
Atom  64H    basis set group =>   4
Atom  65H    basis set group =>   4
Atom  66C    basis set group =>   2
Atom  67C    basis set group =>   2
Atom  68C    basis set group =>   2
Atom  69C    basis set group =>   2
Atom  70C    basis set group =>   2
Atom  71C    basis set group =>   2
Atom  72N    basis set group =>   3
Atom  73C    basis set group =>   2
Atom  74H    basis set group =>   4
Atom  75H    basis set group =>   4
Atom  76H    basis set group =>   4
Atom  77H    basis set group =>   4
Atom  78C    basis set group =>   2
Atom  79C    basis set group =>   2
Atom  80C    basis set group =>   2
Atom  81C    basis set group =>   2
Atom  82C    basis set group =>   2
Atom  83C    basis set group =>   2
Atom  84H    basis set group =>   4
Atom  85H    basis set group =>   4
Atom  86H    basis set group =>   4
Atom  87H    basis set group =>   4
Atom  88C    basis set group =>   2
Atom  89C    basis set group =>   2
Atom  90C    basis set group =>   2
Atom  91C    basis set group =>   2
Atom  92N    basis set group =>   3
Atom  93C    basis set group =>   2
Atom  94H    basis set group =>   4
Atom  95H    basis set group =>   4
Atom  96H    basis set group =>   4
Atom  97H    basis set group =>   4
Atom  98C    basis set group =>   2
Atom  99C    basis set group =>   2
Atom 100C    basis set group =>   2
Atom 101C    basis set group =>   2
Atom 102C    basis set group =>   2
Atom 103C    basis set group =>   2
Atom 104N    basis set group =>   3
Atom 105C    basis set group =>   2
Atom 106H    basis set group =>   4
Atom 107H    basis set group =>   4
Atom 108H    basis set group =>   4
Atom 109H    basis set group =>   4
Atom 110C    basis set group =>   2
Atom 111C    basis set group =>   2
Atom 112C    basis set group =>   2
Atom 113C    basis set group =>   2
Atom 114C    basis set group =>   2
Atom 115C    basis set group =>   2
Atom 116H    basis set group =>   4
Atom 117H    basis set group =>   4
Atom 118H    basis set group =>   4
Atom 119H    basis set group =>   4
Atom 120C    basis set group =>   2
Atom 121C    basis set group =>   2
Atom 122C    basis set group =>   2
Atom 123C    basis set group =>   2
Atom 124N    basis set group =>   3
Atom 125C    basis set group =>   2
Atom 126H    basis set group =>   4
Atom 127H    basis set group =>   4
Atom 128H    basis set group =>   4
Atom 129H    basis set group =>   4

-------------------------
BASIS SET IN INPUT FORMAT
-------------------------

 # Basis set for element : H 
 NewGTO H 
 S 3 
   1      34.0613410000      0.0254393072
   2       5.1235746000      0.1900859489
   3       1.1646626000      0.8524411301
 S 1 
   1       0.3272304100      1.0000000000
 S 1 
   1       0.1030724100      1.0000000000
  end;

 # Basis set for element : C 
 NewGTO C 
 S 6 
   1   13575.3496820000      0.0006064549
   2    2035.2333680000      0.0046979088
   3     463.2256235900      0.0243324776
   4     131.2001959800      0.0973999683
   5      42.8530158910      0.3019558425
   6      15.5841857660      0.6623360915
 S 2 
   1       6.2067138508      0.6559530854
   2       2.5764896527      0.3758563329
 S 1 
   1       0.5769633942      1.0000000000
 S 1 
   1       0.2297283136      1.0000000000
 S 1 
   1       0.0951644400      1.0000000000
 P 4 
   1      34.6972322440      0.0113272200
   2       7.9582622826      0.0761696592
   3       2.3780826883      0.3019225220
   4       0.8143320818      0.7278502735
 P 1 
   1       0.2888754725      1.0000000000
 P 1 
   1       0.1005682367      1.0000000000
 D 1 
   1       0.8000000000      1.0000000000
  end;

 # Basis set for element : N 
 NewGTO N 
 S 6 
   1   19730.8006470000      0.0005862639
   2    2957.8958745000      0.0045428821
   3     673.2213359500      0.0235584136
   4     190.6824949400      0.0947091933
   5      62.2954418980      0.2971978492
   6      22.6541611820      0.6691624689
 S 2 
   1       8.9791477428      0.6459668363
   2       3.6863002370      0.3870057440
 S 1 
   1       0.8466007680      1.0000000000
 S 1 
   1       0.3364713377      1.0000000000
 S 1 
   1       0.1364765367      1.0000000000
 P 4 
   1      49.2003805100      0.0114488252
   2      11.3467905370      0.0784223379
   3       3.4273972411      0.3081809474
   4       1.1785525134      0.7202719637
 P 1 
   1       0.4164220497      1.0000000000
 P 1 
   1       0.1426082601      1.0000000000
 D 1 
   1       0.8000000000      1.0000000000
  end;

 # Basis set for element : Pd
 NewGTO Pd
 S 2 
   1      18.0000000000     -0.8955869481
   2      14.6621343080      1.8822771923
 S 1 
   1       5.6388709265      1.0000000000
 S 1 
   1       1.3198953252      1.0000000000
 S 1 
   1       0.5781790851      1.0000000000
 S 1 
   1       0.1035216624      1.0000000000
 S 1 
   1       0.0375484427      1.0000000000
 P 4 
   1      12.5528993000      0.0701895210
   2       7.2444496380     -0.2749252830
   3       1.8905941078      0.5623121361
   4       0.9073716876      0.5736959368
 P 1 
   1       0.4087721081      1.0000000000
 P 1 
   1       0.1150000000      1.0000000000
 P 1 
   1       0.0370000000      1.0000000000
 D 4 
   1      22.3574575750      0.0063445039
   2      10.6825263820     -0.0225156052
   3       2.4858232550      0.3884291800
   4       1.0735333903      0.6828976806
 D 1 
   1       0.4261384285      1.0000000000
 D 1 
   1       0.1504635538      1.0000000000
  end;

---------------------------------
AUXILIARY/J BASIS SET INFORMATION
---------------------------------
There are 4 groups of distinct atoms

 Group   1 Type Pd  : 11s5p5d3f3g contracted to 8s5p5d2f3g pattern {41111111/11111/11111/21/111}
 Group   2 Type C   : 8s3p3d contracted to 6s3p3d pattern {311111/111/111}
 Group   3 Type N   : 8s3p3d contracted to 6s3p3d pattern {311111/111/111}
 Group   4 Type H   : 5s2p contracted to 3s1p pattern {311/2}

Atom   0Pd   basis set group =>   1
Atom   1Pd   basis set group =>   1
Atom   2C    basis set group =>   2
Atom   3C    basis set group =>   2
Atom   4C    basis set group =>   2
Atom   5C    basis set group =>   2
Atom   6C    basis set group =>   2
Atom   7C    basis set group =>   2
Atom   8N    basis set group =>   3
Atom   9C    basis set group =>   2
Atom  10H    basis set group =>   4
Atom  11H    basis set group =>   4
Atom  12H    basis set group =>   4
Atom  13H    basis set group =>   4
Atom  14C    basis set group =>   2
Atom  15C    basis set group =>   2
Atom  16C    basis set group =>   2
Atom  17C    basis set group =>   2
Atom  18C    basis set group =>   2
Atom  19C    basis set group =>   2
Atom  20H    basis set group =>   4
Atom  21H    basis set group =>   4
Atom  22H    basis set group =>   4
Atom  23H    basis set group =>   4
Atom  24C    basis set group =>   2
Atom  25C    basis set group =>   2
Atom  26C    basis set group =>   2
Atom  27C    basis set group =>   2
Atom  28N    basis set group =>   3
Atom  29C    basis set group =>   2
Atom  30H    basis set group =>   4
Atom  31H    basis set group =>   4
Atom  32H    basis set group =>   4
Atom  33H    basis set group =>   4
Atom  34C    basis set group =>   2
Atom  35C    basis set group =>   2
Atom  36C    basis set group =>   2
Atom  37C    basis set group =>   2
Atom  38C    basis set group =>   2
Atom  39C    basis set group =>   2
Atom  40N    basis set group =>   3
Atom  41C    basis set group =>   2
Atom  42H    basis set group =>   4
Atom  43H    basis set group =>   4
Atom  44H    basis set group =>   4
Atom  45H    basis set group =>   4
Atom  46C    basis set group =>   2
Atom  47C    basis set group =>   2
Atom  48C    basis set group =>   2
Atom  49C    basis set group =>   2
Atom  50C    basis set group =>   2
Atom  51C    basis set group =>   2
Atom  52H    basis set group =>   4
Atom  53H    basis set group =>   4
Atom  54H    basis set group =>   4
Atom  55H    basis set group =>   4
Atom  56C    basis set group =>   2
Atom  57C    basis set group =>   2
Atom  58C    basis set group =>   2
Atom  59C    basis set group =>   2
Atom  60N    basis set group =>   3
Atom  61C    basis set group =>   2
Atom  62H    basis set group =>   4
Atom  63H    basis set group =>   4
Atom  64H    basis set group =>   4
Atom  65H    basis set group =>   4
Atom  66C    basis set group =>   2
Atom  67C    basis set group =>   2
Atom  68C    basis set group =>   2
Atom  69C    basis set group =>   2
Atom  70C    basis set group =>   2
Atom  71C    basis set group =>   2
Atom  72N    basis set group =>   3
Atom  73C    basis set group =>   2
Atom  74H    basis set group =>   4
Atom  75H    basis set group =>   4
Atom  76H    basis set group =>   4
Atom  77H    basis set group =>   4
Atom  78C    basis set group =>   2
Atom  79C    basis set group =>   2
Atom  80C    basis set group =>   2
Atom  81C    basis set group =>   2
Atom  82C    basis set group =>   2
Atom  83C    basis set group =>   2
Atom  84H    basis set group =>   4
Atom  85H    basis set group =>   4
Atom  86H    basis set group =>   4
Atom  87H    basis set group =>   4
Atom  88C    basis set group =>   2
Atom  89C    basis set group =>   2
Atom  90C    basis set group =>   2
Atom  91C    basis set group =>   2
Atom  92N    basis set group =>   3
Atom  93C    basis set group =>   2
Atom  94H    basis set group =>   4
Atom  95H    basis set group =>   4
Atom  96H    basis set group =>   4
Atom  97H    basis set group =>   4
Atom  98C    basis set group =>   2
Atom  99C    basis set group =>   2
Atom 100C    basis set group =>   2
Atom 101C    basis set group =>   2
Atom 102C    basis set group =>   2
Atom 103C    basis set group =>   2
Atom 104N    basis set group =>   3
Atom 105C    basis set group =>   2
Atom 106H    basis set group =>   4
Atom 107H    basis set group =>   4
Atom 108H    basis set group =>   4
Atom 109H    basis set group =>   4
Atom 110C    basis set group =>   2
Atom 111C    basis set group =>   2
Atom 112C    basis set group =>   2
Atom 113C    basis set group =>   2
Atom 114C    basis set group =>   2
Atom 115C    basis set group =>   2
Atom 116H    basis set group =>   4
Atom 117H    basis set group =>   4
Atom 118H    basis set group =>   4
Atom 119H    basis set group =>   4
Atom 120C    basis set group =>   2
Atom 121C    basis set group =>   2
Atom 122C    basis set group =>   2
Atom 123C    basis set group =>   2
Atom 124N    basis set group =>   3
Atom 125C    basis set group =>   2
Atom 126H    basis set group =>   4
Atom 127H    basis set group =>   4
Atom 128H    basis set group =>   4
Atom 129H    basis set group =>   4

-------------------------------------
AUXILIARY/J BASIS SET IN INPUT FORMAT
-------------------------------------

 # Auxiliary/J basis set for element : H 
 NewAuxJGTO H 
 S 3 
   1      15.6752927000      0.1007184237
   2       3.6063578000      0.3404257499
   3       1.2080016000      0.6491996172
 S 1 
   1       0.4726794000      1.0000000000
 S 1 
   1       0.2018100000      1.0000000000
 P 2 
   1       2.0281365000      0.5596620919
   2       0.5358730000      0.5596620919
  end;

 # Auxiliary/J basis set for element : C 
 NewAuxJGTO C 
 S 3 
   1     459.7023860000      0.1098751775
   2     132.9577920000      0.2844848472
   3      41.5658170000      0.6964707648
 S 1 
   1      13.9155610000      1.0000000000
 S 1 
   1       4.9305290000     -1.0000000000
 S 1 
   1       1.8229480000      1.0000000000
 S 1 
   1       0.6920510000      1.0000000000
 S 1 
   1       0.2650930000      1.0000000000
 P 1 
   1       0.3278473579      1.0000000000
 P 1 
   1       0.7868336591      1.0000000000
 P 1 
   1       1.9710183160      1.0000000000
 D 1 
   1       4.0133010000      1.0000000000
 D 1 
   1       1.2475050000      1.0000000000
 D 1 
   1       0.4081480000      1.0000000000
  end;

 # Auxiliary/J basis set for element : N 
 NewAuxJGTO N 
 S 3 
   1     680.5425300000      0.1043830093
   2     196.7562140000      0.2751518961
   3      61.2707930000      0.7090825511
 S 1 
   1      20.3644630000      1.0000000000
 S 1 
   1       7.1424770000     -1.0000000000
 S 1 
   1       2.6080260000      1.0000000000
 S 1 
   1       0.9763730000      1.0000000000
 S 1 
   1       0.3686330000      1.0000000000
 P 1 
   1       0.4707391941      1.0000000000
 P 1 
   1       1.1297740658     -1.0000000000
 P 1 
   1       2.8300840347      1.0000000000
 D 1 
   1       5.8329865000      1.0000000000
 D 1 
   1       1.7326865000      1.0000000000
 D 1 
   1       0.5452425000      1.0000000000
  end;

 # Auxiliary/J basis set for element : Pd
 NewAuxJGTO Pd
 S 4 
   1      51.0211803000      0.0154414011
   2      17.6543867000     -0.3899991562
   3      10.3849330000      1.7000917225
   4       6.2315704000     -2.2542519748
 S 1 
   1       3.6656295000     -1.0000000000
 S 1 
   1       2.1995933000      1.0000000000
 S 1 
   1       1.2683839000      1.0000000000
 S 1 
   1       0.7461081000      1.0000000000
 S 1 
   1       0.4477087000      1.0000000000
 S 1 
   1       0.2581689000      1.0000000000
 S 1 
   1       0.1518640000      1.0000000000
 P 1 
   1       5.6999676000      1.0000000000
 P 1 
   1       2.5155374000     -1.0000000000
 P 1 
   1       1.1229524000      1.0000000000
 P 1 
   1       0.5047808000     -1.0000000000
 P 1 
   1       0.2274325000     -1.0000000000
 D 1 
   1       3.8006002000      1.0000000000
 D 1 
   1       1.5882692000     -1.0000000000
 D 1 
   1       0.6550157000     -1.0000000000
 D 1 
   1       0.2680210000      1.0000000000
 D 1 
   1       0.1093843000     -1.0000000000
 F 2 
   1       2.0106185000     -1.3134732431
   2       0.8268460000      0.9210621264
 F 1 
   1       0.3451253000      1.0000000000
 G 1 
   1       7.5375072000      1.0000000000
 G 1 
   1       2.7664349000      1.0000000000
 G 1 
   1       1.0133462000      1.0000000000
  end;

-------------------------
ECP PARAMETER INFORMATION
-------------------------

 Group 1, Type Pd ECP Def2-ECP (replacing 28 core electrons, lmax=3)

Atom   0Pd   ECP group =>   1
Atom   1Pd   ECP group =>   1


-------------------------
ECP BASIS IN INPUT FORMAT
-------------------------

 #ECP Def2-ECP
 NewECP Pd
   N_core 28
   lmax f
   s 4
     1      12.4300000000    240.2290403000  2
     2       6.1707594000     35.1719435000  2
     3      13.2700000000     31.9295543000  2
     4       6.6300000000      5.3982169000  2
   p 4
     1      11.0800000000    170.4172760000  2
     2       5.8295541000     28.4721329000  2
     3      13.2700000000     31.9295543000  2
     4       6.6300000000      5.3982169000  2
   d 4
     1       9.5100000000     69.0138449000  2
     2       4.1397811000     11.7508616000  2
     3      13.2700000000     31.9295543000  2
     4       6.6300000000      5.3982169000  2
   f 2
     1      13.2700000000    -31.9295543000  2
     2       6.6300000000     -5.3982169000  2
 End




           ************************************************************
           *        Program running with 32 parallel MPI-processes    *
           *              working on a common directory               *
           ************************************************************
------------------------------------------------------------------------------
                           ORCA GTO INTEGRAL CALCULATION
                           -- RI-GTO INTEGRALS CHOSEN --
------------------------------------------------------------------------------

                         BASIS SET STATISTICS AND STARTUP INFO

Gaussian basis set:
 # of primitive gaussian shells          ... 1720
 # of primitive gaussian functions       ... 3076
 # of contracted shells                  ...  890
 # of contracted basis functions         ... 1730
 Highest angular momentum                ...    2
 Maximum contraction depth               ...    6
Auxiliary gaussian basis set:
 # of primitive gaussian shells          ... 1510
 # of primitive gaussian functions       ... 3286
 # of contracted shells                  ... 1198
 # of contracted aux-basis functions     ... 2866
 Highest angular momentum                ...    4
 Maximum contraction depth               ...    4
Ratio of auxiliary to basis functions    ...  1.66
Integral package used                  ... LIBINT
 One Electron integrals                  
   ECP integrals                         ... done
 Ordering auxiliary basis shells         ... done
 Integral threshhold             Thresh  ...  2.500e-11
 Primitive cut-off               TCut    ...  2.500e-12
 Pre-screening matrix                    ... done
 Shell pair data                         ... 
 Ordering of the shell pairs             ... done (   0.037 sec) 162540 of 396495 pairs
 Determination of significant pairs      ... done (   0.001 sec)
 Creation of shell pair data             ... done (   0.015 sec)
 Storage of shell pair data              ... done (   0.090 sec)
 Shell pair data done in (   0.144 sec)
 Computing two index integrals           ... done
 Cholesky decomposition of the V-matrix  ... done


Timings:
 Total evaluation time                   ...   6.665 sec (  0.111 min)
 One electron matrix time                ...   4.218 sec (  0.070 min) = 63.3%
 Schwartz matrix evaluation time         ...   1.565 sec (  0.026 min) = 23.5%
 Two index repulsion integral time       ...   0.154 sec (  0.003 min) =  2.3%
 Cholesky decomposition of V             ...   0.537 sec (  0.009 min) =  8.1%
 Three index repulsion integral time     ...   0.001 sec (  0.000 min) =  0.0%



           ************************************************************
           *        Program running with 32 parallel MPI-processes    *
           *              working on a common directory               *
           ************************************************************
-------------------------------------------------------------------------------
                                 ORCA SCF
-------------------------------------------------------------------------------

------------
SCF SETTINGS
------------
Hamiltonian:
 Density Functional     Method          .... DFT(GTOs)
 Exchange Functional    Exchange        .... B973C
 Correlation Functional Correlation     .... B973C
 Gradients option       PostSCFGGA      .... off
   Density functional embedding theory  .... OFF
 RI-approximation to the Coulomb term is turned on
   Number of auxiliary basis functions  .... 2866


General Settings:
 Integral files         IntName         .... _s_3d1_b_B97-3c
 Hartree-Fock type      HFTyp           .... RHF
 Total Charge           Charge          ....    4
 Multiplicity           Mult            ....    1
 Number of Electrons    NEL             ....  568
 Basis Dimension        Dim             .... 1730
 Nuclear Repulsion      ENuc            ....  13805.8819686207 Eh

Convergence Acceleration:
 DIIS                   CNVDIIS         .... on
   Start iteration      DIISMaxIt       ....     0
   Startup error        DIISStart       ....  0.200000
   # of expansion vecs  DIISMaxEq       ....     5
   Bias factor          DIISBfac        ....   1.050
   Max. coefficient     DIISMaxC        ....  10.000
 Newton-Raphson         CNVNR           .... off
 SOSCF                  CNVSOSCF        .... off
 Level Shifting         CNVShift        .... on
   Level shift para.    LevelShift      ....    0.2500
   Turn off err/grad.   ShiftErr        ....    0.0000
 Zerner damping         CNVZerner       .... off
 Static damping         CNVDamp         .... on
   Fraction old density DampFac         ....    0.8500
   Max. Damping (<1)    DampMax         ....    0.9800
   Min. Damping (>=0)   DampMin         ....    0.0000
   Turn off err/grad.   DampErr         ....    0.0300
 Fernandez-Rico         CNVRico         .... off

SCF Procedure:
 Maximum # iterations   MaxIter         ....  2000
 SCF integral mode      SCFMode         .... Direct
   Integral package                     .... LIBINT
 Reset frequency        DirectResetFreq ....    20
 Integral Threshold     Thresh          ....  2.500e-11 Eh
 Primitive CutOff       TCut            ....  2.500e-12 Eh

Convergence Tolerance:
 Convergence Check Mode ConvCheckMode   .... Total+1el-Energy
 Convergence forced     ConvForced      .... 0
 Energy Change          TolE            ....  1.000e-08 Eh
 1-El. energy change                    ....  1.000e-05 Eh
 DIIS Error             TolErr          ....  5.000e-07


Diagonalization of the overlap matrix:
Smallest eigenvalue                        ... 7.424e-06
Time for diagonalization                   ...    0.540 sec
Threshold for overlap eigenvalues          ... 1.000e-08
Number of eigenvalues below threshold      ... 0
Time for construction of square roots      ...    0.358 sec
Total time needed                          ...    0.904 sec

--------------------------------
INITIAL GUESS: MINIMAL BASIS EHT
--------------------------------
The minimal basis has 474 functions
EHT matrix was diagonalized
Basis set overlap was calculated now projecting the orbitals
Using GuessMode=FMatrix for the initial guess
C*T matrix was formed
Effective Fockian was calculated
Effective Fockian was diagonalized
Initial density was built
                      ------------------
                      INITIAL GUESS DONE
                      ------------------
-------------------
DFT GRID GENERATION
-------------------

General Integration Accuracy     IntAcc      ...  5.340
Radial Grid Type                 RadialGrid  ... Gauss-Chebyshev
Angular Grid (max. acc.)         AngularGrid ... Lebedev-590
Angular grid pruning method      GridPruning ... 3 (G Style)
Weight generation scheme         WeightScheme... Becke
Basis function cutoff            BFCut       ...    1.0000e-11
Integration weight cutoff        WCut        ...    1.0000e-14
Grids for H and He will be reduced by one unit

# of grid points (after initial pruning)     ... 1898500 (   0.0 sec)
# of grid points (after weights+screening)   ... 1564298 (   7.5 sec)
nearest neighbour list constructed           ...    0.0 sec
Grid point re-assignment to atoms done       ...    0.2 sec
Grid point division into batches done        ...   16.2 sec
Reduced shell lists constructed in   17.3 sec

Total number of grid points                  ...  1564298
Total number of batches                      ...    24507
Average number of points per batch           ...       63
Average number of grid points per atom       ...    12033
Average number of shells per batch           ...   222.90 (25.04%)
Average number of basis functions per batch  ...   440.71 (25.47%)
Average number of large shells per batch     ...   119.60 (53.66%)
Average number of large basis fcns per batch ...   239.27 (54.29%)
Maximum spatial batch extension              ...  10.61,  5.01, 12.73 au
Average spatial batch extension              ...   0.03,  0.03,  0.03 au

Time for grid setup =   25.249 sec

--------------
SCF ITERATIONS
--------------
ITER       Energy         Delta-E        Max-DP      RMS-DP      [F,P]     Damp
               ***  Starting incremental Fock matrix formation  ***
  0  -3419.9808176263   0.00000000000015.25068694  0.06786240  5.1892922 0.8500
  1  -3430.6391249726 -10.658307346273 2.17691375  0.01025241  4.4999471 0.8500
                               ***Turning on DIIS***
  2  -3437.2445555207  -6.605430548052 1.83948870  0.00855937  3.8602327 0.8500
  3  -3441.5758622802  -4.331306759523 1.74684297  0.00800790  3.3025203 0.8500
  4  -3444.6627966047  -3.086934324472 1.42459394  0.00711045  2.8074438 0.8500
  5  -3446.1437957925  -1.480999187799 5.41797597  0.01923502  2.3725548 0.8500
  6  -3444.1125102769   2.031285515568 1.41065131  0.00601982  2.0240469 0.8500
  7  -3445.9619774150  -1.849467138090 1.34878181  0.00536823  1.7326466 0.8500
  8  -3449.1369165892  -3.174939174227 6.15591711  0.00818504  1.4834741 0.8500
  9  -3451.5725177437  -2.435601154482 1.10453480  0.00466998  1.2455766 0.8500
 10  -3453.0599620533  -1.487444309654 0.94402467  0.00393626  1.0532323 0.8500
 11  -3453.9717077332  -0.911745679841 0.78732883  0.00312180  0.8937982 0.8500
 12  -3454.9850980637  -1.013390330510 0.64356525  0.00271052  0.7641476 0.8500
 13  -3456.0260902507  -1.040992186990 0.71771988  0.00262424  0.6546929 0.8500
 14  -3456.8170615944  -0.790971343706 0.48519442  0.00199327  0.5611251 0.8500
 15  -3457.8029604941  -0.985898899748 0.42085796  0.00187084  0.4755540 0.8500
 16  -3458.3482482417  -0.545287747562 0.37349807  0.00154263  0.3989924 0.8500
 17  -3459.0494663632  -0.701218121545 0.32408100  0.00137636  0.3432609 0.8500
 18  -3459.5932557981  -0.543789434816 0.38655322  0.00130975  0.2959941 0.8500
 19  -3460.1889382420  -0.595682443911 0.33164094  0.00114234  0.2463554 0.8500
               *** Restarting incremental Fock matrix formation ***
                                   *** Resetting DIIS ***
 20  -3460.6727293290  -0.483791087059 0.26610890  0.00095522  0.2075006 0.8500
 21  -3461.0680165422  -0.395287213207 0.20350275  0.00081071  0.1767509 0.8500
 22  -3461.3987489231  -0.330732380868 0.17019563  0.00069454  0.1498823 0.8500
 23  -3461.6776802166  -0.278931293476 0.15335838  0.00059924  0.1267771 0.8500
 24  -3461.9136570987  -0.235976882150 0.13487657  0.00051225  0.1074625 0.8500
 25  -3462.1139581282  -0.200301029423 0.11880360  0.00043616  0.0912829 0.8500
 26  -3462.2844042161  -0.170446087935 0.09943574  0.00037003  0.0777525 0.8500
 27  -3462.4291580080  -0.144753791918 0.08257834  0.00031433  0.0661551 0.8500
 28  -3462.5520039648  -0.122845956826 0.07046317  0.00026753  0.0561494 0.8500
 29  -3462.6562781324  -0.104274167601 0.06098472  0.00022761  0.0476345 0.8500
 30  -3462.7448620736  -0.088583941142 0.05227640  0.00019350  0.0404776 0.8500
 31  -3462.8201343493  -0.075272275684 0.04389279  0.00016450  0.0344406 0.8500
 32  -3462.8840821522  -0.063947802922 0.24567182  0.00093303  0.0292828 0.0000
 33  -3463.2458249552  -0.361742803057 0.00578848  0.00001939  0.0014951 0.0000
 34  -3463.2458158495   0.000009105735 0.00253648  0.00000744  0.0024034 0.0000
 35  -3463.2458373053  -0.000021455806 0.00066476  0.00000395  0.0003049 0.0000
 36  -3463.2458396221  -0.000002316818 0.00094522  0.00000456  0.0002113 0.0000
 37  -3463.2458399439  -0.000000321788 0.00071630  0.00000367  0.0000307 0.0000
 38  -3463.2458399776  -0.000000033646 0.00070712  0.00000300  0.0000118 0.0000
 39  -3463.2458399085   0.000000069080 0.00267001  0.00001260  0.0000046 0.0000
               *** Restarting incremental Fock matrix formation ***
                                   *** Resetting DIIS ***
 40  -3463.2458407148  -0.000000806289 0.00127997  0.00000671  0.0000034 0.0000
 41  -3463.2458406020   0.000000112763 0.00035384  0.00000142  0.0000059 0.0000
                            ***DIIS convergence achieved***

               *****************************************************
               *                     SUCCESS                       *
               *           SCF CONVERGED AFTER  42 CYCLES          *
               *****************************************************


----------------
TOTAL SCF ENERGY
----------------

Total Energy       :        -3463.24584043 Eh          -94239.71037 eV

Components:
Nuclear Repulsion  :        13805.88196862 Eh          375677.14742 eV
Electronic Energy  :       -17269.12780905 Eh         -469916.85780 eV
One Electron Energy:       -32146.83551631 Eh         -874759.86633 eV
Two Electron Energy:        14877.70770725 Eh          404843.00854 eV

Virial components:
Potential Energy   :        -6755.51854285 Eh         -183827.00514 eV
Kinetic Energy     :         3292.27270242 Eh           89587.29476 eV
Virial Ratio       :            2.05193165


DFT components:
N(Alpha)           :      284.000056951123 electrons
N(Beta)            :      284.000056951123 electrons
N(Total)           :      568.000113902246 electrons
E(XC)              :     -486.523132598848 Eh       
DFET-embed. en.    :        0.000000000000 Eh       

---------------
SCF CONVERGENCE
---------------

  Last Energy change         ...    1.7125e-07  Tolerance :   1.0000e-08
  Last MAX-Density change    ...    5.9768e-04  Tolerance :   1.0000e-07
  Last RMS-Density change    ...    1.8491e-06  Tolerance :   5.0000e-09
  Last DIIS Error            ...    7.0671e-07  Tolerance :   5.0000e-07

             **** THE GBW FILE WAS UPDATED (_s_3d1_b_B97-3c.gbw) ****
             **** DENSITY FILE WAS UPDATED (_s_3d1_b_B97-3c.scfp) ****
             **** ENERGY FILE WAS UPDATED (_s_3d1_b_B97-3c.en.tmp) ****
             **** THE GBW FILE WAS UPDATED (_s_3d1_b_B97-3c.gbw) ****
             **** DENSITY FILE WAS UPDATED (_s_3d1_b_B97-3c.scfp) ****
----------------
ORBITAL ENERGIES
----------------

  NO   OCC          E(Eh)            E(eV) 
   0   2.0000     -14.366282      -390.9264 
   1   2.0000     -14.364179      -390.8692 
   2   2.0000     -14.364045      -390.8655 
   3   2.0000     -14.363865      -390.8606 
   4   2.0000     -14.363709      -390.8564 
   5   2.0000     -14.363575      -390.8527 
   6   2.0000     -14.363541      -390.8518 
   7   2.0000     -14.361220      -390.7887 
   8   2.0000     -10.261934      -279.2414 
   9   2.0000     -10.260065      -279.1906 
  10   2.0000     -10.259758      -279.1822 
  11   2.0000     -10.259254      -279.1685 
  12   2.0000     -10.257234      -279.1135 
  13   2.0000     -10.256730      -279.0998 
  14   2.0000     -10.256151      -279.0841 
  15   2.0000     -10.254894      -279.0499 
  16   2.0000     -10.254104      -279.0284 
  17   2.0000     -10.253584      -279.0142 
  18   2.0000     -10.253216      -279.0042 
  19   2.0000     -10.252828      -278.9936 
  20   2.0000     -10.252756      -278.9917 
  21   2.0000     -10.252141      -278.9750 
  22   2.0000     -10.251533      -278.9584 
  23   2.0000     -10.250190      -278.9219 
  24   2.0000     -10.244047      -278.7547 
  25   2.0000     -10.242068      -278.7008 
  26   2.0000     -10.241764      -278.6926 
  27   2.0000     -10.241028      -278.6725 
  28   2.0000     -10.229966      -278.3715 
  29   2.0000     -10.229742      -278.3654 
  30   2.0000     -10.229321      -278.3540 
  31   2.0000     -10.227234      -278.2972 
  32   2.0000     -10.223491      -278.1953 
  33   2.0000     -10.221690      -278.1463 
  34   2.0000     -10.221283      -278.1353 
  35   2.0000     -10.220474      -278.1132 
  36   2.0000     -10.219663      -278.0912 
  37   2.0000     -10.219556      -278.0882 
  38   2.0000     -10.218850      -278.0690 
  39   2.0000     -10.217389      -278.0293 
  40   2.0000     -10.216786      -278.0129 
  41   2.0000     -10.215429      -277.9760 
  42   2.0000     -10.215420      -277.9757 
  43   2.0000     -10.215164      -277.9687 
  44   2.0000     -10.214973      -277.9635 
  45   2.0000     -10.214323      -277.9458 
  46   2.0000     -10.214080      -277.9393 
  47   2.0000     -10.212184      -277.8876 
  48   2.0000     -10.206306      -277.7277 
  49   2.0000     -10.206123      -277.7227 
  50   2.0000     -10.206003      -277.7195 
  51   2.0000     -10.205653      -277.7099 
  52   2.0000     -10.201963      -277.6095 
  53   2.0000     -10.201838      -277.6061 
  54   2.0000     -10.201701      -277.6024 
  55   2.0000     -10.200646      -277.5737 
  56   2.0000     -10.195473      -277.4329 
  57   2.0000     -10.194291      -277.4007 
  58   2.0000     -10.194199      -277.3983 
  59   2.0000     -10.194159      -277.3972 
  60   2.0000     -10.194072      -277.3948 
  61   2.0000     -10.193797      -277.3873 
  62   2.0000     -10.193640      -277.3831 
  63   2.0000     -10.193092      -277.3681 
  64   2.0000     -10.188268      -277.2369 
  65   2.0000     -10.187515      -277.2164 
  66   2.0000     -10.187489      -277.2157 
  67   2.0000     -10.187089      -277.2048 
  68   2.0000     -10.183002      -277.0936 
  69   2.0000     -10.182897      -277.0907 
  70   2.0000     -10.182594      -277.0825 
  71   2.0000     -10.181746      -277.0594 
  72   2.0000     -10.181150      -277.0432 
  73   2.0000     -10.180919      -277.0369 
  74   2.0000     -10.180850      -277.0350 
  75   2.0000     -10.180465      -277.0245 
  76   2.0000     -10.173107      -276.8243 
  77   2.0000     -10.172997      -276.8213 
  78   2.0000     -10.172750      -276.8146 
  79   2.0000     -10.172046      -276.7954 
  80   2.0000      -3.674771       -99.9956 
  81   2.0000      -3.673855       -99.9707 
  82   2.0000      -2.405406       -65.4544 
  83   2.0000      -2.405050       -65.4447 
  84   2.0000      -2.404565       -65.4315 
  85   2.0000      -2.404265       -65.4234 
  86   2.0000      -2.363027       -64.3012 
  87   2.0000      -2.362138       -64.2770 
  88   2.0000      -1.228534       -33.4301 
  89   2.0000      -1.227941       -33.4140 
  90   2.0000      -1.222165       -33.2568 
  91   2.0000      -1.221363       -33.2350 
  92   2.0000      -1.220869       -33.2215 
  93   2.0000      -1.220277       -33.2054 
  94   2.0000      -1.219728       -33.1905 
  95   2.0000      -1.218517       -33.1575 
  96   2.0000      -1.095038       -29.7975 
  97   2.0000      -1.094707       -29.7885 
  98   2.0000      -1.094396       -29.7800 
  99   2.0000      -1.093551       -29.7570 
 100   2.0000      -1.074803       -29.2469 
 101   2.0000      -1.073836       -29.2206 
 102   2.0000      -1.072384       -29.1810 
 103   2.0000      -1.071687       -29.1621 
 104   2.0000      -1.061803       -28.8931 
 105   2.0000      -1.060508       -28.8579 
 106   2.0000      -1.059994       -28.8439 
 107   2.0000      -1.058849       -28.8128 
 108   2.0000      -1.038501       -28.2591 
 109   2.0000      -1.037471       -28.2310 
 110   2.0000      -1.036345       -28.2004 
 111   2.0000      -1.035547       -28.1787 
 112   2.0000      -1.034269       -28.1439 
 113   2.0000      -1.033411       -28.1205 
 114   2.0000      -1.032817       -28.1044 
 115   2.0000      -1.031325       -28.0638 
 116   2.0000      -1.004657       -27.3381 
 117   2.0000      -1.004168       -27.3248 
 118   2.0000      -1.004066       -27.3220 
 119   2.0000      -1.003659       -27.3109 
 120   2.0000      -0.974974       -26.5304 
 121   2.0000      -0.974486       -26.5171 
 122   2.0000      -0.974076       -26.5059 
 123   2.0000      -0.973223       -26.4828 
 124   2.0000      -0.963519       -26.2187 
 125   2.0000      -0.963119       -26.2078 
 126   2.0000      -0.962573       -26.1930 
 127   2.0000      -0.961848       -26.1732 
 128   2.0000      -0.917085       -24.9552 
 129   2.0000      -0.916428       -24.9373 
 130   2.0000      -0.915635       -24.9157 
 131   2.0000      -0.913653       -24.8618 
 132   2.0000      -0.906584       -24.6694 
 133   2.0000      -0.905875       -24.6501 
 134   2.0000      -0.904900       -24.6236 
 135   2.0000      -0.903289       -24.5797 
 136   2.0000      -0.900587       -24.5062 
 137   2.0000      -0.899350       -24.4726 
 138   2.0000      -0.898452       -24.4481 
 139   2.0000      -0.897282       -24.4163 
 140   2.0000      -0.896519       -24.3955 
 141   2.0000      -0.896270       -24.3887 
 142   2.0000      -0.894773       -24.3480 
 143   2.0000      -0.894187       -24.3321 
 144   2.0000      -0.855545       -23.2806 
 145   2.0000      -0.854741       -23.2587 
 146   2.0000      -0.853756       -23.2319 
 147   2.0000      -0.853502       -23.2250 
 148   2.0000      -0.842497       -22.9255 
 149   2.0000      -0.841013       -22.8851 
 150   2.0000      -0.840031       -22.8584 
 151   2.0000      -0.839956       -22.8564 
 152   2.0000      -0.828135       -22.5347 
 153   2.0000      -0.823249       -22.4017 
 154   2.0000      -0.819330       -22.2951 
 155   2.0000      -0.814144       -22.1540 
 156   2.0000      -0.813521       -22.1370 
[...]
      px      :     1.244657
      py      :     1.237685
      dz2     :     0.016662  d :     0.099285
      dxz     :     0.012369
      dyz     :     0.033794
      dx2y2   :     0.017559
      dxy     :     0.018901
125 C s       :     2.872154  s :     2.872154
      pz      :     1.054136  p :     3.044261
      px      :     0.975443
      py      :     1.014683
      dz2     :     0.030004  d :     0.111837
      dxz     :     0.015966
      dyz     :     0.041030
      dx2y2   :     0.012878
      dxy     :     0.011959
126 H s       :     0.796396  s :     0.796396
127 H s       :     0.794826  s :     0.794826
128 H s       :     0.810447  s :     0.810447
129 H s       :     0.816457  s :     0.816457


                      *****************************
                      * MAYER POPULATION ANALYSIS *
                      *****************************

  NA   - Mulliken gross atomic population
  ZA   - Total nuclear charge
  QA   - Mulliken gross atomic charge
  VA   - Mayer's total valence
  BVA  - Mayer's bonded valence
  FA   - Mayer's free valence

  ATOM       NA         ZA         QA         VA         BVA        FA
  0 Pd    18.0224    18.0000    -0.0224     3.0110     3.0110    -0.0000
  1 Pd    17.9890    18.0000     0.0110     2.9373     2.9373    -0.0000
  2 C      5.9592     6.0000     0.0408     3.1400     3.1400    -0.0000
  3 C      5.9993     6.0000     0.0007     3.1515     3.1515    -0.0000
  4 C      5.9433     6.0000     0.0567     3.7943     3.7943    -0.0000
  5 C      6.1881     6.0000    -0.1881     3.9348     3.9348    -0.0000
  6 C      6.0201     6.0000    -0.0201     3.8522     3.8522    -0.0000
  7 C      6.1328     6.0000    -0.1328     3.9416     3.9416    -0.0000
  8 N      7.0584     7.0000    -0.0584     3.2757     3.2757    -0.0000
  9 C      6.1817     6.0000    -0.1817     3.7767     3.7767    -0.0000
 10 H      0.7394     1.0000     0.2606     0.8972     0.8972    -0.0000
 11 H      0.7441     1.0000     0.2559     0.9070     0.9070    -0.0000
 12 H      0.7910     1.0000     0.2090     0.9476     0.9476    -0.0000
 13 H      0.8185     1.0000     0.1815     0.9551     0.9551    -0.0000
 14 C      6.1660     6.0000    -0.1660     4.0973     4.0973    -0.0000
 15 C      6.1181     6.0000    -0.1181     3.8463     3.8463    -0.0000
 16 C      6.1665     6.0000    -0.1665     4.2154     4.2154    -0.0000
 17 C      6.1382     6.0000    -0.1382     3.9350     3.9350    -0.0000
 18 C      6.0504     6.0000    -0.0504     3.7413     3.7413    -0.0000
 19 C      6.1213     6.0000    -0.1213     3.6437     3.6437    -0.0000
 20 H      0.7556     1.0000     0.2444     0.9015     0.9015    -0.0000
 21 H      0.7696     1.0000     0.2304     0.9226     0.9226    -0.0000
 22 H      0.7509     1.0000     0.2491     0.8995     0.8995    -0.0000
 23 H      0.7747     1.0000     0.2253     0.8858     0.8858    -0.0000
 24 C      5.9598     6.0000     0.0402     3.7125     3.7125    -0.0000
 25 C      6.1683     6.0000    -0.1683     4.0044     4.0044    -0.0000
 26 C      6.0500     6.0000    -0.0500     3.9277     3.9277    -0.0000
 27 C      6.1290     6.0000    -0.1290     3.9589     3.9589    -0.0000
 28 N      7.0602     7.0000    -0.0602     3.3162     3.3162    -0.0000
 29 C      6.1463     6.0000    -0.1463     3.8653     3.8653    -0.0000
 30 H      0.7336     1.0000     0.2664     0.8926     0.8926    -0.0000
 31 H      0.7465     1.0000     0.2535     0.9092     0.9092    -0.0000
 32 H      0.8043     1.0000     0.1957     0.9515     0.9515    -0.0000
 33 H      0.8132     1.0000     0.1868     0.9515     0.9515    -0.0000
 34 C      5.9647     6.0000     0.0353     3.1351     3.1351    -0.0000
 35 C      5.9858     6.0000     0.0142     3.1389     3.1389    -0.0000
 36 C      5.9429     6.0000     0.0571     3.8142     3.8142    -0.0000
 37 C      6.1884     6.0000    -0.1884     3.9225     3.9225    -0.0000
 38 C      6.0247     6.0000    -0.0247     3.8655     3.8655    -0.0000
 39 C      6.1303     6.0000    -0.1303     3.9560     3.9560    -0.0000
 40 N      7.0538     7.0000    -0.0538     3.2871     3.2871    -0.0000
 41 C      6.1651     6.0000    -0.1651     3.7708     3.7708    -0.0000
 42 H      0.7398     1.0000     0.2602     0.8970     0.8970    -0.0000
 43 H      0.7443     1.0000     0.2557     0.9071     0.9071    -0.0000
 44 H      0.7932     1.0000     0.2068     0.9453     0.9453    -0.0000
 45 H      0.8207     1.0000     0.1793     0.9501     0.9501    -0.0000
 46 C      6.1680     6.0000    -0.1680     4.0825     4.0825    -0.0000
 47 C      6.1197     6.0000    -0.1197     3.8507     3.8507    -0.0000
 48 C      6.1660     6.0000    -0.1660     4.2158     4.2158    -0.0000
 49 C      6.1455     6.0000    -0.1455     3.9395     3.9395    -0.0000
 50 C      6.0480     6.0000    -0.0480     3.7407     3.7407    -0.0000
 51 C      6.1217     6.0000    -0.1217     3.6409     3.6409    -0.0000
 52 H      0.7544     1.0000     0.2456     0.9010     0.9010    -0.0000
 53 H      0.7697     1.0000     0.2303     0.9226     0.9226    -0.0000
 54 H      0.7519     1.0000     0.2481     0.9002     0.9002    -0.0000
 55 H      0.7782     1.0000     0.2218     0.8897     0.8897    -0.0000
 56 C      5.9559     6.0000     0.0441     3.6983     3.6983    -0.0000
 57 C      6.1715     6.0000    -0.1715     4.0081     4.0081    -0.0000
 58 C      6.0424     6.0000    -0.0424     3.9142     3.9142    -0.0000
 59 C      6.1274     6.0000    -0.1274     3.9457     3.9457    -0.0000
 60 N      7.0776     7.0000    -0.0776     3.2920     3.2920    -0.0000
 61 C      6.1514     6.0000    -0.1514     3.8618     3.8618    -0.0000
 62 H      0.7322     1.0000     0.2678     0.8923     0.8923    -0.0000
 63 H      0.7461     1.0000     0.2539     0.9088     0.9088    -0.0000
 64 H      0.8052     1.0000     0.1948     0.9564     0.9564    -0.0000
 65 H      0.8101     1.0000     0.1899     0.9573     0.9573    -0.0000
 66 C      5.9707     6.0000     0.0293     3.1366     3.1366    -0.0000
 67 C      5.9857     6.0000     0.0143     3.1356     3.1356    -0.0000
 68 C      5.9448     6.0000     0.0552     3.8424     3.8424    -0.0000
 69 C      6.1956     6.0000    -0.1956     3.9160     3.9160    -0.0000
 70 C      6.0110     6.0000    -0.0110     3.8362     3.8362    -0.0000
 71 C      6.1318     6.0000    -0.1318     3.9377     3.9377    -0.0000
 72 N      7.0491     7.0000    -0.0491     3.2772     3.2772    -0.0000
 73 C      6.1577     6.0000    -0.1577     3.7912     3.7912    -0.0000
 74 H      0.7409     1.0000     0.2591     0.8978     0.8978    -0.0000
 75 H      0.7446     1.0000     0.2554     0.9068     0.9068    -0.0000
 76 H      0.7942     1.0000     0.2058     0.9464     0.9464    -0.0000
 77 H      0.8252     1.0000     0.1748     0.9507     0.9507    -0.0000
 78 C      6.1587     6.0000    -0.1587     4.0596     4.0596    -0.0000
 79 C      6.1204     6.0000    -0.1204     3.8440     3.8440    -0.0000
 80 C      6.1647     6.0000    -0.1647     4.2080     4.2080    -0.0000
 81 C      6.1417     6.0000    -0.1417     3.9385     3.9385    -0.0000
 82 C      6.0433     6.0000    -0.0433     3.7317     3.7317    -0.0000
 83 C      6.1382     6.0000    -0.1382     3.6498     3.6498    -0.0000
 84 H      0.7546     1.0000     0.2454     0.9014     0.9014    -0.0000
 85 H      0.7694     1.0000     0.2306     0.9225     0.9225    -0.0000
 86 H      0.7499     1.0000     0.2501     0.8987     0.8987    -0.0000
 87 H      0.7790     1.0000     0.2210     0.8888     0.8888    -0.0000
 88 C      5.9447     6.0000     0.0553     3.6590     3.6590    -0.0000
 89 C      6.1735     6.0000    -0.1735     4.0213     4.0213    -0.0000
 90 C      6.0502     6.0000    -0.0502     3.9280     3.9280    -0.0000
 91 C      6.1333     6.0000    -0.1333     3.9511     3.9511    -0.0000
 92 N      7.0795     7.0000    -0.0795     3.2968     3.2968    -0.0000
 93 C      6.1614     6.0000    -0.1614     3.8563     3.8563    -0.0000
 94 H      0.7313     1.0000     0.2687     0.8920     0.8920    -0.0000
 95 H      0.7457     1.0000     0.2543     0.9090     0.9090    -0.0000
 96 H      0.8000     1.0000     0.2000     0.9550     0.9550    -0.0000
 97 H      0.8048     1.0000     0.1952     0.9485     0.9485    -0.0000
 98 C      5.9704     6.0000     0.0296     3.1413     3.1413    -0.0000
 99 C      5.9788     6.0000     0.0212     3.1391     3.1391    -0.0000
100 C      5.9337     6.0000     0.0663     3.8125     3.8125    -0.0000
101 C      6.1877     6.0000    -0.1877     3.9130     3.9130    -0.0000
102 C      6.0194     6.0000    -0.0194     3.8416     3.8416    -0.0000
103 C      6.1253     6.0000    -0.1253     3.9460     3.9460    -0.0000
104 N      7.0444     7.0000    -0.0444     3.2984     3.2984    -0.0000
105 C      6.1917     6.0000    -0.1917     3.7993     3.7993    -0.0000
106 H      0.7407     1.0000     0.2593     0.8974     0.8974    -0.0000
107 H      0.7443     1.0000     0.2557     0.9071     0.9071    -0.0000
108 H      0.7927     1.0000     0.2073     0.9471     0.9471    -0.0000
109 H      0.8219     1.0000     0.1781     0.9488     0.9488    -0.0000
110 C      6.1530     6.0000    -0.1530     4.0457     4.0457    -0.0000
111 C      6.1238     6.0000    -0.1238     3.8524     3.8524    -0.0000
112 C      6.1632     6.0000    -0.1632     4.2041     4.2041    -0.0000
113 C      6.1475     6.0000    -0.1475     3.9429     3.9429    -0.0000
114 C      6.0369     6.0000    -0.0369     3.7316     3.7316    -0.0000
115 C      6.1487     6.0000    -0.1487     3.6598     3.6598    -0.0000
116 H      0.7542     1.0000     0.2458     0.9012     0.9012    -0.0000
117 H      0.7696     1.0000     0.2304     0.9225     0.9225    -0.0000
118 H      0.7498     1.0000     0.2502     0.8991     0.8991    -0.0000
119 H      0.7786     1.0000     0.2214     0.8908     0.8908    -0.0000
120 C      5.9594     6.0000     0.0406     3.6947     3.6947    -0.0000
121 C      6.1758     6.0000    -0.1758     4.0208     4.0208    -0.0000
122 C      6.0445     6.0000    -0.0445     3.9237     3.9237    -0.0000
123 C      6.1404     6.0000    -0.1404     3.9534     3.9534    -0.0000
124 N      7.0810     7.0000    -0.0810     3.2924     3.2924    -0.0000
125 C      6.1394     6.0000    -0.1394     3.8591     3.8591    -0.0000
126 H      0.7296     1.0000     0.2704     0.8917     0.8917    -0.0000
127 H      0.7455     1.0000     0.2545     0.9088     0.9088    -0.0000
128 H      0.8027     1.0000     0.1973     0.9552     0.9552    -0.0000
129 H      0.8033     1.0000     0.1967     0.9476     0.9476    -0.0000

  Mayer bond orders larger than 0.100000
B(  0-Pd, 28-N ) :   0.5322 B(  0-Pd, 40-N ) :   0.5295 B(  0-Pd, 72-N ) :   0.5298 
B(  0-Pd,104-N ) :   0.5316 B(  1-Pd,  8-N ) :   0.5210 B(  1-Pd, 60-N ) :   0.5195 
B(  1-Pd, 92-N ) :   0.5159 B(  1-Pd,124-N ) :   0.5188 B(  2-C ,  3-C ) :   1.8611 
B(  2-C ,  4-C ) :  -0.3057 B(  2-C , 14-C ) :   1.4925 B(  3-C ,  4-C ) :   1.4267 
B(  3-C , 14-C ) :  -0.3855 B(  4-C ,  5-C ) :   1.3631 B(  4-C ,  9-C ) :   1.3054 
B(  5-C ,  6-C ) :   1.4863 B(  5-C , 10-H ) :   0.9061 B(  6-C ,  7-C ) :   1.4242 
B(  6-C , 11-H ) :   0.8676 B(  7-C ,  8-N ) :   1.3540 B(  7-C , 12-H ) :   0.9170 
B(  8-N ,  9-C ) :   1.3682 B(  9-C , 13-H ) :   0.9563 B( 14-C , 15-C ) :   1.3654 
B( 14-C , 19-C ) :   1.4181 B( 15-C , 16-C ) :   1.5445 B( 15-C , 20-H ) :   0.8787 
B( 16-C , 17-C ) :   1.5890 B( 16-C , 21-H ) :   0.8676 B( 17-C , 18-C ) :   1.3632 
B( 17-C , 22-H ) :   0.8418 B( 18-C , 19-C ) :   1.3415 B( 18-C , 24-C ) :   0.9218 
B( 19-C , 23-H ) :   0.8644 B( 24-C , 25-C ) :   1.4350 B( 24-C , 29-C ) :   1.3862 
B( 25-C , 26-C ) :   1.5176 B( 25-C , 30-H ) :   0.8687 B( 26-C , 27-C ) :   1.4472 
B( 26-C , 31-H ) :   0.8632 B( 27-C , 28-N ) :   1.3537 B( 27-C , 32-H ) :   0.9211 
B( 28-N , 29-C ) :   1.3754 B( 29-C , 33-H ) :   0.9116 B( 34-C , 35-C ) :   1.8546 
B( 34-C , 36-C ) :  -0.3012 B( 34-C , 46-C ) :   1.4938 B( 34-C , 51-C ) :  -0.1007 
B( 35-C , 36-C ) :   1.4190 B( 35-C , 46-C ) :  -0.3963 B( 36-C , 37-C ) :   1.3605 
B( 36-C , 41-C ) :   1.3137 B( 37-C , 38-C ) :   1.4824 B( 37-C , 42-H ) :   0.9067 
B( 38-C , 39-C ) :   1.4286 B( 38-C , 43-H ) :   0.8676 B( 39-C , 40-N ) :   1.3640 
B( 39-C , 44-H ) :   0.9156 B( 40-N , 41-C ) :   1.3590 B( 41-C , 45-H ) :   0.9533 
B( 46-C , 47-C ) :   1.3674 B( 46-C , 51-C ) :   1.4139 B( 47-C , 48-C ) :   1.5448 
B( 47-C , 52-H ) :   0.8784 B( 48-C , 49-C ) :   1.5908 B( 48-C , 53-H ) :   0.8677 
B( 49-C , 50-C ) :   1.3625 B( 49-C , 54-H ) :   0.8419 B( 50-C , 51-C ) :   1.3440 
B( 50-C , 56-C ) :   0.9252 B( 51-C , 55-H ) :   0.8669 B( 56-C , 57-C ) :   1.4289 
B( 56-C , 61-C ) :   1.3849 B( 57-C , 58-C ) :   1.5180 B( 57-C , 62-H ) :   0.8680 
B( 58-C , 59-C ) :   1.4466 B( 58-C , 63-H ) :   0.8628 B( 59-C , 60-N ) :   1.3412 
B( 59-C , 64-H ) :   0.9227 B( 60-N , 61-C ) :   1.3823 B( 61-C , 65-H ) :   0.9104 
B( 66-C , 67-C ) :   1.8490 B( 66-C , 68-C ) :  -0.3030 B( 66-C , 78-C ) :   1.4926 
B( 67-C , 68-C ) :   1.4228 B( 67-C , 78-C ) :  -0.4017 B( 68-C , 69-C ) :   1.3525 
B( 68-C , 73-C ) :   1.3357 B( 69-C , 70-C ) :   1.4759 B( 69-C , 74-H ) :   0.9082 
B( 70-C , 71-C ) :   1.4172 B( 70-C , 75-H ) :   0.8678 B( 71-C , 72-N ) :   1.3500 
B( 71-C , 76-H ) :   0.9208 B( 72-N , 73-C ) :   1.3678 B( 73-C , 77-H ) :   0.9465 
B( 78-C , 79-C ) :   1.3606 B( 78-C , 83-C ) :   1.4113 B( 79-C , 80-C ) :   1.5421 
B( 79-C , 84-H ) :   0.8797 B( 80-C , 81-C ) :   1.5861 B( 80-C , 85-H ) :   0.8676 
B( 81-C , 82-C ) :   1.3639 B( 81-C , 86-H ) :   0.8422 B( 82-C , 83-C ) :   1.3453 
B( 82-C , 88-C ) :   0.9172 B( 83-C , 87-H ) :   0.8732 B( 88-C , 89-C ) :   1.4371 
B( 88-C , 93-C ) :   1.3596 B( 89-C , 90-C ) :   1.5231 B( 89-C , 94-H ) :   0.8677 
B( 90-C , 91-C ) :   1.4510 B( 90-C , 95-H ) :   0.8629 B( 91-C , 92-N ) :   1.3510 
B( 91-C , 96-H ) :   0.9178 B( 92-N , 93-C ) :   1.3762 B( 93-C , 97-H ) :   0.9210 
B( 98-C , 99-C ) :   1.8554 B( 98-C ,100-C ) :  -0.3036 B( 98-C ,110-C ) :   1.4890 
B( 99-C ,100-C ) :   1.4203 B( 99-C ,110-C ) :  -0.4025 B(100-C ,101-C ) :   1.3541 
B(100-C ,105-C ) :   1.3216 B(101-C ,102-C ) :   1.4784 B(101-C ,106-H ) :   0.9081 
B(102-C ,103-C ) :   1.4175 B(102-C ,107-H ) :   0.8683 B(103-C ,104-N ) :   1.3699 
B(103-C ,108-H ) :   0.9181 B(104-N ,105-C ) :   1.3550 B(105-C ,109-H ) :   0.9533 
B(110-C ,111-C ) :   1.3640 B(110-C ,115-C ) :   1.4055 B(111-C ,112-C ) :   1.5428 
B(111-C ,116-H ) :   0.8800 B(112-C ,113-C ) :   1.5846 B(112-C ,117-H ) :   0.8678 
B(113-C ,114-C ) :   1.3659 B(113-C ,118-H ) :   0.8419 B(114-C ,115-C ) :   1.3516 
B(114-C ,120-C ) :   0.9132 B(115-C ,119-H ) :   0.8745 B(120-C ,121-C ) :   1.4341 
B(120-C ,125-C ) :   1.3778 B(121-C ,122-C ) :   1.5185 B(121-C ,126-H ) :   0.8670 
B(122-C ,123-C ) :   1.4541 B(122-C ,127-H ) :   0.8617 B(123-C ,124-N ) :   1.3370 
B(123-C ,128-H ) :   0.9196 B(124-N ,125-C ) :   1.3890 B(125-C ,129-H ) :   0.9149 


-------
TIMINGS
-------

Total SCF time: 0 days 0 hours 5 min 14 sec 

Total time                  ....     314.568 sec
Sum of individual times     ....     306.849 sec  ( 97.5%)

Fock matrix formation       ....     140.980 sec  ( 44.8%)
  Split-RI-J                ....      59.210 sec  ( 42.0% of F)
  XC integration            ....      73.441 sec  ( 52.1% of F)
    Basis function eval.    ....      13.707 sec  ( 18.7% of XC)
    Density eval.           ....      30.349 sec  ( 41.3% of XC)
    XC-Functional eval.     ....       4.475 sec  (  6.1% of XC)
    XC-Potential eval.      ....      12.815 sec  ( 17.4% of XC)
Diagonalization             ....      28.514 sec  (  9.1%)
Density matrix formation    ....       1.270 sec  (  0.4%)
Population analysis         ....       4.344 sec  (  1.4%)
Initial guess               ....       4.562 sec  (  1.5%)
Orbital Transformation      ....       0.000 sec  (  0.0%)
Orbital Orthonormalization  ....       0.000 sec  (  0.0%)
DIIS solution               ....     101.931 sec  ( 32.4%)
Grid generation             ....      25.249 sec  (  8.0%)


-------------------------------------------------------------------------------
                          DFT DISPERSION CORRECTION                            
                                                                               
                              DFTD3 V3.1  Rev 1                                
                          USING Becke-Johnson damping                          
-------------------------------------------------------------------------------
The B97-3c composite method is recognized
Using three-body term ABC
Active option DFTDOPT                   ...         4   

molecular C6(AA) [au] = 260906.649298 


            DFT-D V3
 parameters
 s6 scaling factor         :     1.0000 
 a1 scaling factor         :     0.3700 
 s8 scaling factor         :     1.5000 
 a2 scaling factor         :     4.1000 
 Damping factor alpha9(ATM):    16.0000 
 ad hoc parameters k1-k3   :    16.0000     1.3333    -4.0000 

 Edisp/kcal,au: -304.426781908361  -0.485134905556 
 E6   /kcal   : -149.793607988 
 E8   /kcal   : -155.434962632 
 E6(ABC)      :   0.801788711 
 % E8         :  51.058241873 
 % E6(ABC)    :  -0.263376535 

-------------------------   ----------------
Dispersion correction           -0.485134906
-------------------------   ----------------

------------------   -----------------
SRB correction            -0.505476634
------------------   -----------------

-------------------------   --------------------
FINAL SINGLE POINT ENERGY     -3464.236451970616
-------------------------   --------------------


                            ***************************************
                            *     ORCA property calculations      *
                            ***************************************

                                    ---------------------
                                    Active property flags
                                    ---------------------
   (+) Dipole Moment


------------------------------------------------------------------------------
                       ORCA ELECTRIC PROPERTIES CALCULATION
------------------------------------------------------------------------------

Dipole Moment Calculation                       ... on
Quadrupole Moment Calculation                   ... off
Polarizability Calculation                      ... off
GBWName                                         ... _s_3d1_b_B97-3c.gbw
Electron density file                           ... _s_3d1_b_B97-3c.scfp
The origin for moment calculation is the CENTER OF MASS  = ( 0.334305,  2.754183  0.539287)

-------------
DIPOLE MOMENT
-------------
                                X             Y             Z
Electronic contribution:      2.46236      29.69634      -0.55744
Nuclear contribution   :     -2.50576     -29.77772       0.58353
                        -----------------------------------------
Total Dipole Moment    :     -0.04340      -0.08137       0.02610
                        -----------------------------------------
Magnitude (a.u.)       :      0.09585
Magnitude (Debye)      :      0.24362



--------------------
Rotational spectrum 
--------------------
 
Rotational constants in cm-1:     0.000827     0.000529     0.000525 
Rotational constants in MHz :    24.800545    15.873873    15.728468 

 Dipole components along the rotational axes: 
x,y,z [a.u.] :     0.086783    -0.009384    -0.039586 
x,y,z [Debye]:     0.220584    -0.023851    -0.100621 

 

Timings for individual modules:

Sum of individual times         ...      343.948 sec (=   5.732 min)
GTO integral calculation        ...       18.980 sec (=   0.316 min)   5.5 %
SCF iterations                  ...      324.968 sec (=   5.416 min)  94.5 %
                             ****ORCA TERMINATED NORMALLY****
TOTAL RUN TIME: 0 days 0 hours 5 minutes 53 seconds 945 msec
