Job execution start: Tue Jun 22 09:46:30 BST 2021
Shared library path: /work/e05/e05/atarzia/orca_4_2_1_linux_x86-64_openmpi314:/work/e05/e05/atarzia/openmpi-3.1.4/lib:/opt/cray/pe/papi/6.0.0.4/lib64:/opt/cray/libfabric/1.11.0.0.233/lib64
Slurm Job ID is: 344306
Slurm Job name is: s_4b1_c_PBE0
nid001905

                                 *****************
                                 * O   R   C   A *
                                 *****************

           --- An Ab Initio, DFT and Semiempirical electronic structure package ---

                  #######################################################
                  #                        -***-                        #
                  #          Department of theory and spectroscopy      #
                  #               Directorship: Frank Neese             #
                  #        Max Planck Institute fuer Kohlenforschung    #
                  #                Kaiser Wilhelm Platz 1               #
                  #                 D-45470 Muelheim/Ruhr               #
                  #                      Germany                        #
                  #                                                     #
                  #                  All rights reserved                #
                  #                        -***-                        #
                  #######################################################


                         Program Version 4.2.1 -  RELEASE  -


 With contributions from (in alphabetic order):
   Daniel Aravena         : Magnetic Suceptibility
   Michael Atanasov       : Ab Initio Ligand Field Theory (pilot matlab implementation)
   Alexander A. Auer      : GIAO ZORA, VPT2
   Ute Becker             : Parallelization
   Giovanni Bistoni       : ED, misc. LED, open-shell LED, HFLD
   Martin Brehm           : Molecular dynamics
   Dmytro Bykov           : SCF Hessian
   Vijay G. Chilkuri      : MRCI spin determinant printing, contributions to CSF-ICE
   Dipayan Datta          : RHF DLPNO-CCSD density
   Achintya Kumar Dutta   : EOM-CC, STEOM-CC
   Dmitry Ganyushin       : Spin-Orbit,Spin-Spin,Magnetic field MRCI
   Miquel Garcia          : C-PCM Hessian, Gaussian charge scheme
   Yang Guo               : DLPNO-NEVPT2, CIM, IAO-localization
   Andreas Hansen         : Spin unrestricted coupled pair/coupled cluster methods
   Benjamin Helmich-Paris : CASSCF linear response (MC-RPA)
   Lee Huntington         : MR-EOM, pCC
   Robert Izsak           : Overlap fitted RIJCOSX, COSX-SCS-MP3, EOM
   Christian Kollmar      : KDIIS, OOCD, Brueckner-CCSD(T), CCSD density
   Simone Kossmann        : Meta GGA functionals, TD-DFT gradient, OOMP2, MP2 Hessian
   Martin Krupicka        : AUTO-CI
   Lucas Lang             : DCDCAS
   Dagmar Lenk            : GEPOL surface, SMD
   Dimitrios Liakos       : Extrapolation schemes; Compound Job, initial MDCI parallelization
   Dimitrios Manganas     : Further ROCIS development; embedding schemes
   Dimitrios Pantazis     : SARC Basis sets
   Taras Petrenko         : DFT Hessian,TD-DFT gradient, ASA, ECA, R-Raman, ABS, FL, XAS/XES, NRVS
   Peter Pinski           : DLPNO-MP2, DLPNO-MP2 Gradient
   Christoph Reimann      : Effective Core Potentials
   Marius Retegan         : Local ZFS, SOC
   Christoph Riplinger    : Optimizer, TS searches, QM/MM, DLPNO-CCSD(T), (RO)-DLPNO pert. Triples
   Tobias Risthaus        : Range-separated hybrids, TD-DFT gradient, RPA, STAB
   Michael Roemelt        : Original ROCIS implementation
   Masaaki Saitow         : Open-shell DLPNO-CCSD energy and density
   Barbara Sandhoefer     : DKH picture change effects
   Avijit Sen             : IP-ROCIS
   Kantharuban Sivalingam : CASSCF convergence, NEVPT2, FIC-MRCI
   Bernardo de Souza      : ESD, SOC TD-DFT
   Georgi Stoychev        : AutoAux, RI-MP2 NMR
   Willem Van den Heuvel  : Paramagnetic NMR
   Boris Wezisla          : Elementary symmetry handling
   Frank Wennmohs         : Technical directorship


 We gratefully acknowledge several colleagues who have allowed us to
 interface, adapt or use parts of their codes:
   Stefan Grimme, W. Hujo, H. Kruse,             : VdW corrections, initial TS optimization,
                  C. Bannwarth                     DFT functionals, gCP, sTDA/sTD-DF
   Ed Valeev, F. Pavosevic, A. Kumar             : LibInt (2-el integral package), F12 methods
   Garnet Chan, S. Sharma, J. Yang, R. Olivares  : DMRG
   Ulf Ekstrom                                   : XCFun DFT Library
   Mihaly Kallay                                 : mrcc  (arbitrary order and MRCC methods)
   Andreas Klamt, Michael Diedenhofen            : otool_cosmo (COSMO solvation model)
   Jiri Pittner, Ondrej Demel                    : Mk-CCSD
   Frank Weinhold                                : gennbo (NPA and NBO analysis)
   Christopher J. Cramer and Donald G. Truhlar   : smd solvation model
   Lars Goerigk                                  : TD-DFT with DH, B97 family of functionals
   V. Asgeirsson, H. Jonsson                     : NEB implementation
   FAccTs GmbH                                   : IRC, NEB, NEB-TS, Multilevel, MM, QM/MM, CI optimization
   S Lehtola, MJT Oliveira, MAL Marques          : LibXC Library


 Your calculation uses the libint2 library for the computation of 2-el integrals
 For citations please refer to: http://libint.valeyev.net

 Your ORCA version has been built with support for libXC version: 4.2.3
 For citations please refer to: https://tddft.org/programs/libxc/

 This ORCA versions uses:
   CBLAS   interface :  Fast vector & matrix operations
   LAPACKE interface :  Fast linear algebra routines
   SCALAPACK package :  Parallel linear algebra routines




***************************************
The coordinates will be read from file: s_4b1_c.xyz
***************************************


Your calculation utilizes the atom-pairwise dispersion correction
with the Becke-Johnson damping scheme (D3BJ)
Cite in your paper:
S.Grimme, S.Ehrlich, L.Goerigk, J Comput Chem, (2011), 32, 1456–1465 
S.Grimme, J.Antony, S.Ehrlich and H.Krieg, J.Chem.Phys., 132, (2010), 154104 
   

----- Orbital basis set information -----
Your calculation utilizes the basis: def2-SVP
   F. Weigend and R. Ahlrichs, Phys. Chem. Chem. Phys. 7, 3297 (2005).

cite the ECPs for Pd [Def2-ECP] as follows:
Ce-Yb(ecp-28): M. Dolg, H. Stoll, H.Preuss, J. Chem. Phys., 1989, 90, 1730-1734.
Y-Cd(ecp-28), Hf-Hg(ecp-46): D. Andrae,U. Haeussermann, M. Dolg, H. Stoll, H. Preuss, Theor. Chim. Acta, 1990, 77, 123-141.
In-Sb(ecp-28), Tl-Bi(ecp-46): B. Metz, H. Stoll, M. Dolg, J. Chem. Phys., 2000, 113, 2563-2569.
Te-Xe(ecp-28), Po-Rn(ecp-46): K. A. Peterson, D. Figgen, E. Goll, H. Stoll, M. Dolg, J. Chem. Phys., 2003, 119, 11113-11123.
Rb(ecp-28), Cs(ecp-46): T. Leininger, A. Nicklass, W. Kuechle, H. Stoll, M. Dolg, A. Bergner, Chem. Phys. Lett., 1996, 255, 274-280.
Sr(ecp-28), Ba(ecp-46): M. Kaupp, P. V. Schleyer, H. Stoll and H. Preuss, J. Chem. Phys., 1991, 94, 1360-1366.
La(ecp-46): M. Dolg, H. Stoll, A. Savin, H. Preuss, Theor. Chim. Acta, 1989, 75, 173-194.
Lu(ecp-28): X. Cao, M. Dolg, J. Chem. Phys., 2001, 115, 7348-7355.

ECP parameters for Pd [Def2-ECP] have been obtained from:
TURBOMOLE (7.0.2)

================================================================================
                                        WARNINGS
                       Please study these warnings very carefully!
================================================================================


INFO   : the flag for use of LIBINT has been found!

================================================================================
                                       INPUT FILE
================================================================================
NAME = s_4b1_c_PBE0.in
|  1> ! DFT SP RKS PBE0 def2-SVP D3BJ Grid6 NOFINALGRID SlowConv TightSCF printbasis 
|  2> 
|  3> %base "_s_4b1_c_PBE0"
|  4> %maxcore 3000
|  5> %scf
|  6>    MaxIter 2000
|  7> end
|  8> %pal
|  9>    nprocs 32
| 10> end
| 11> 
| 12> * xyzfile 4 1 s_4b1_c.xyz
| 13> 
| 14>                          ****END OF INPUT****
================================================================================

                       ****************************
                       * Single Point Calculation *
                       ****************************

---------------------------------
CARTESIAN COORDINATES (ANGSTROEM)
---------------------------------
  Pd    -0.379200    4.463500    0.546700
  Pd    -0.066700   -6.845800    1.250600
  C      4.578400   -3.065300    1.687900
  C      4.822100   -4.249800    1.716600
  C      5.166200   -5.614900    1.709400
  C      6.494800   -5.993200    1.773400
  C      6.863200   -7.342200    1.729400
  C      5.917700   -8.329100    1.602800
  C      4.553800   -7.991200    1.530300
  C      3.532800   -8.955700    1.374900
  C      2.228300   -8.560200    1.308400
  N      1.865600   -7.258000    1.410500
  C      2.789300   -6.327100    1.548900
  C      4.160700   -6.623000    1.601000
  H      7.258500   -5.235200    1.857300
  H      7.909300   -7.601500    1.787000
  H      6.206400   -9.367300    1.554200
  H      3.796500   -9.998800    1.303600
  H      1.420500   -9.276000    1.169100
  H      2.448700   -5.296800    1.627400
  C      4.256700   -1.694700    1.615000
  C      5.179500   -0.782200    1.094800
  C      4.847100    0.552500    0.987500
  C      3.589700    1.005900    1.390400
  C      2.677400    0.093500    1.926700
  C      3.004500   -1.240500    2.039900
  H      6.148700   -1.128500    0.770800
  H      5.558100    1.243100    0.561100
  H      1.720000    0.438100    2.285900
  H      2.301800   -1.939900    2.463000
  C      3.224300    2.422100    1.256400
  C      4.126100    3.453100    1.539000
  C      3.716700    4.770700    1.423400
  C      2.411000    5.041700    1.048800
  N      1.551800    4.059000    0.772400
  C      1.940700    2.785700    0.854700
  H      5.128100    3.220900    1.864900
  H      4.396500    5.579800    1.636200
  H      2.035400    6.057900    0.962900
  H      1.200900    2.038800    0.569600
  C     -0.624300   -2.882600    5.815300
  C     -0.621900   -4.066100    6.064400
  C     -0.676900   -5.425400    6.434400
  C     -0.836000   -5.765400    7.764600
  C     -0.949400   -7.103400    8.158700
  C     -0.917600   -8.116500    7.233800
  C     -0.746700   -7.817600    5.869700
  C     -0.713700   -8.813200    4.867400
  C     -0.527400   -8.458200    3.563100
  N     -0.348100   -7.167600    3.187300
  C     -0.391200   -6.207300    4.089900
  C     -0.605400   -6.461100    5.454900
  H     -0.884300   -4.985400    8.509000
  H     -1.074000   -7.331900    9.206100
  H     -1.021800   -9.146000    7.538300
  H     -0.838100   -9.847700    5.144700
  H     -0.513400   -9.199300    2.765800
  H     -0.245400   -5.187700    3.739200
  C     -0.627500   -1.512400    5.475900
  C      0.322300   -0.645200    6.022400
  C      0.333400    0.685600    5.657700
  C     -0.595100    1.176600    4.738100
  C     -1.561200    0.313300    4.217600
  C     -1.582000   -1.016300    4.582900
  H      1.051000   -1.023100    6.722600
  H      1.086700    1.341700    6.065400
  H     -2.318700    0.695600    3.552500
  H     -2.340600   -1.676400    4.193700
  C     -0.531300    2.578300    4.300700
  C     -0.281100    3.626600    5.191500
  C     -0.195700    4.923400    4.713400
  C     -0.330900    5.152100    3.354000
  N     -0.562200    4.151300    2.502000
  C     -0.678900    2.901700    2.953900
  H     -0.172300    3.425100    6.245800
  H     -0.017000    5.747600    5.384600
  H     -0.255000    6.148800    2.927300
  H     -0.884000    2.137500    2.205100
  C     -5.023400    0.683400    0.105000
  C     -5.268300    1.867900    0.084700
  C     -5.613300    3.232700    0.102300
  C     -6.942100    3.610700    0.044400
  C     -7.311200    4.959100    0.099500
  C     -6.366000    5.945700    0.231100
  C     -5.001600    5.608000    0.297400
  C     -3.980700    6.572000    0.456800
  C     -2.675800    6.176800    0.516200
  N     -2.312800    4.875600    0.403700
  C     -3.236400    3.945200    0.261400
  C     -4.608000    4.240600    0.215500
  H     -7.705700    2.853000   -0.043200
  H     -8.357500    5.218300    0.046600
  H     -6.655100    6.983300    0.288300
  H     -4.244800    7.614400    0.536500
  H     -1.867700    6.891900    0.658000
  H     -2.895400    2.915600    0.174200
  C     -4.700800   -0.687300    0.170300
  C     -3.445000   -1.137500   -0.248400
  C     -3.116900   -2.471700   -0.140500
  C     -4.031900   -3.388300    0.383700
  C     -5.293100   -2.939100    0.779500
  C     -5.626300   -1.604200    0.677800
  H     -2.740200   -0.434800   -0.662300
  H     -2.156500   -2.813000   -0.494700
  H     -6.006400   -3.633200    1.196200
  H     -6.598500   -1.261100    0.996600
  C     -3.665500   -4.804700    0.513400
  C     -4.562800   -5.835400    0.216000
  C     -4.152700   -7.153000    0.329200
  C     -2.850700   -7.424000    0.716300
  N     -1.995800   -6.441500    1.006600
  C     -2.385600   -5.168300    0.926500
  H     -5.561600   -5.602800   -0.119000
  H     -4.829000   -7.961900    0.105100
  H     -2.474500   -8.440100    0.801300
  H     -1.649900   -4.421900    1.223100
  C      0.132800    0.498400   -4.020400
  C      0.118100    1.681500   -4.271200
  C      0.157300    3.040600   -4.643800
  C      0.287300    3.380000   -5.977400
  C      0.384500    4.718200   -6.375100
  C      0.365400    5.732200   -5.450800
  C      0.223800    5.433900   -4.083200
  C      0.204700    6.430400   -3.081400
  C      0.045200    6.076000   -1.773400
  N     -0.119800    4.784900   -1.393100
  C     -0.088100    3.823700   -2.295300
  C      0.098800    4.077000   -3.664300
  H      0.325400    2.599500   -6.721800
  H      0.486300    4.946300   -7.425100
  H      0.457300    6.762000   -5.758400
  H      0.317900    7.465400   -3.362100
  H      0.042300    6.817800   -0.976700
  H     -0.221000    2.803800   -1.940700
  C      0.149200   -0.871400   -3.679900
  C     -0.795000   -1.746900   -4.223000
  C     -0.793600   -3.077500   -3.857700
  C      0.141700   -3.560000   -2.940600
  C      1.101900   -2.688300   -2.423100
  C      1.110500   -1.358900   -2.789500
  H     -1.529100   -1.375600   -4.921000
  H     -1.542300   -3.740400   -4.262900
  H      1.864200   -3.064000   -1.759600
  H      1.864900   -0.692300   -2.403200
  C      0.090700   -4.962100   -2.502600
  C     -0.149900   -6.012800   -3.393300
  C     -0.224600   -7.310100   -2.914900
  C     -0.089600   -7.537000   -1.555200
  N      0.132300   -6.534000   -0.703300
  C      0.240000   -5.283700   -1.155600
  H     -0.259800   -5.812400   -4.447700
  H     -0.395400   -8.136000   -3.586100
  H     -0.157800   -8.534100   -1.128100
  H      0.438900   -4.517800   -0.406900

----------------------------
CARTESIAN COORDINATES (A.U.)
----------------------------
  NO LB      ZA    FRAG     MASS         X           Y           Z
   0 Pd   18.0000*   0   106.400   -0.716584    8.434793    1.033113
   1 Pd   18.0000*   0   106.400   -0.126045  -12.936687    2.363292
   2 C     6.0000    0    12.011    8.651922   -5.792578    3.189669
   3 C     6.0000    0    12.011    9.112448   -8.030958    3.243904
   4 C     6.0000    0    12.011    9.762703  -10.610623    3.230298
   5 C     6.0000    0    12.011   12.273393  -11.325507    3.351240
   6 C     6.0000    0    12.011   12.969568  -13.874747    3.268092
   7 C     6.0000    0    12.011   11.182832  -15.739718    3.028853
   8 C     6.0000    0    12.011    8.605435  -15.101179    2.891848
   9 C     6.0000    0    12.011    6.676024  -16.923820    2.598184
  10 C     6.0000    0    12.011    4.210877  -16.176434    2.472518
  11 N     7.0000    0    14.007    3.525473  -13.715632    2.665459
  12 C     6.0000    0    12.011    5.271013  -11.956486    2.926997
  13 C     6.0000    0    12.011    7.862584  -12.515656    3.025452
  14 H     1.0000    0     1.008   13.716577   -9.893094    3.509788
  15 H     1.0000    0     1.008   14.946411  -14.364753    3.376941
  16 H     1.0000    0     1.008   11.728396  -17.701632    2.937012
  17 H     1.0000    0     1.008    7.174345  -18.894994    2.463447
  18 H     1.0000    0     1.008    2.684356  -17.529100    2.209279
  19 H     1.0000    0     1.008    4.627372  -10.009501    3.075340
  20 C     6.0000    0    12.011    8.043997   -3.202519    3.051908
  21 C     6.0000    0    12.011    9.787837   -1.478144    2.068872
  22 C     6.0000    0    12.011    9.159692    1.044074    1.866105
  23 C     6.0000    0    12.011    6.783550    1.900876    2.627475
  24 C     6.0000    0    12.011    5.059553    0.176689    3.640935
  25 C     6.0000    0    12.011    5.677682   -2.344205    3.854852
  26 H     1.0000    0     1.008   11.619359   -2.132556    1.456601
  27 H     1.0000    0     1.008   10.503287    2.349119    1.060325
  28 H     1.0000    0     1.008    3.250329    0.827889    4.319725
  29 H     1.0000    0     1.008    4.349772   -3.665880    4.654395
  30 C     6.0000    0    12.011    6.093044    4.577106    2.374252
  31 C     6.0000    0    12.011    7.797199    6.525413    2.908289
  32 C     6.0000    0    12.011    7.023545    9.015316    2.689836
  33 C     6.0000    0    12.011    4.556130    9.527432    1.981945
  34 N     7.0000    0    14.007    2.932477    7.670398    1.459624
  35 C     6.0000    0    12.011    3.667392    5.264210    1.615149
  36 H     1.0000    0     1.008    9.690705    6.086619    3.524150
  37 H     1.0000    0     1.008    8.308181   10.544294    3.091970
  38 H     1.0000    0     1.008    3.846349   11.447772    1.819617
  39 H     1.0000    0     1.008    2.269372    3.852774    1.076388
  40 C     6.0000    0    12.011   -1.179756   -5.447325   10.989324
  41 C     6.0000    0    12.011   -1.175221   -7.683815   11.460055
  42 C     6.0000    0    12.011   -1.279156  -10.252520   12.159254
  43 C     6.0000    0    12.011   -1.579811  -10.895027   14.672968
  44 C     6.0000    0    12.011   -1.794106  -13.423481   15.417709
  45 C     6.0000    0    12.011   -1.734013  -15.337962   13.669901
  46 C     6.0000    0    12.011   -1.411059  -14.773123   11.092125
  47 C     6.0000    0    12.011   -1.348698  -16.654534    9.198053
  48 C     6.0000    0    12.011   -0.996642  -15.983682    6.733283
  49 N     7.0000    0    14.007   -0.657814  -13.544801    6.023124
  50 C     6.0000    0    12.011   -0.739261  -11.730097    7.728791
  51 C     6.0000    0    12.011   -1.144040  -12.209710   10.308267
  52 H     1.0000    0     1.008   -1.671085   -9.421041   16.079680
  53 H     1.0000    0     1.008   -2.029566  -13.855283   17.397008
  54 H     1.0000    0     1.008   -1.930922  -17.283435   14.245323
  55 H     1.0000    0     1.008   -1.583779  -18.609456    9.722074
  56 H     1.0000    0     1.008   -0.970185  -17.384158    5.226605
  57 H     1.0000    0     1.008   -0.463739   -9.803332    7.066064
  58 C     6.0000    0    12.011   -1.185803   -2.858022   10.347951
  59 C     6.0000    0    12.011    0.609059   -1.219251   11.380687
  60 C     6.0000    0    12.011    0.630035    1.295596   10.691504
  61 C     6.0000    0    12.011   -1.124576    2.223452    8.953711
  62 C     6.0000    0    12.011   -2.950240    0.592051    7.970109
  63 C     6.0000    0    12.011   -2.989547   -1.920529    8.660426
  64 H     1.0000    0     1.008    1.986102   -1.933379   12.703873
  65 H     1.0000    0     1.008    2.053565    2.535446   11.461945
  66 H     1.0000    0     1.008   -4.381708    1.314493    6.713252
  67 H     1.0000    0     1.008   -4.423093   -3.167937    7.924944
  68 C     6.0000    0    12.011   -1.004011    4.872281    8.127145
  69 C     6.0000    0    12.011   -0.531202    6.853281    9.810513
  70 C     6.0000    0    12.011   -0.369819    9.303878    8.907035
  71 C     6.0000    0    12.011   -0.625310    9.736058    6.338141
  72 N     7.0000    0    14.007   -1.062404    7.844820    4.728095
  73 C     6.0000    0    12.011   -1.282935    5.483418    5.582062
  74 H     1.0000    0     1.008   -0.325600    6.472501   11.802851
  75 H     1.0000    0     1.008   -0.032125   10.861390   10.175419
  76 H     1.0000    0     1.008   -0.481880   11.619548    5.531795
  77 H     1.0000    0     1.008   -1.670518    4.039290    4.167035
  78 C     6.0000    0    12.011   -9.492850    1.291439    0.198421
  79 C     6.0000    0    12.011   -9.955644    3.529819    0.160060
  80 C     6.0000    0    12.011  -10.607600    6.108918    0.193319
  81 C     6.0000    0    12.011  -13.118668    6.823234    0.083904
  82 C     6.0000    0    12.011  -13.816166    9.371341    0.188028
  83 C     6.0000    0    12.011  -12.029997   11.235745    0.436716
  84 C     6.0000    0    12.011   -9.451654   10.597584    0.562005
  85 C     6.0000    0    12.011   -7.522433   12.419280    0.863227
  86 C     6.0000    0    12.011   -5.056529   11.672460    0.975477
  87 N     7.0000    0    14.007   -4.370559    9.213549    0.762882
  88 C     6.0000    0    12.011   -6.115910    7.455348    0.493974
  89 C     6.0000    0    12.011   -8.707858    8.013573    0.407236
  90 H     1.0000    0     1.008  -14.561663    5.391389   -0.081636
  91 H     1.0000    0     1.008  -15.793386    9.861158    0.088061
  92 H     1.0000    0     1.008  -12.576316   13.196525    0.544808
  93 H     1.0000    0     1.008   -8.021509   14.389131    1.013838
  94 H     1.0000    0     1.008   -3.529442   13.023804    1.243440
  95 H     1.0000    0     1.008   -5.471513    5.509686    0.329190
  96 C     6.0000    0    12.011   -8.883225   -1.298809    0.321820
  97 C     6.0000    0    12.011   -6.510107   -2.149563   -0.469408
  98 C     6.0000    0    12.011   -5.890087   -4.670836   -0.265507
  99 C     6.0000    0    12.011   -7.619187   -6.402959    0.725088
 100 C     6.0000    0    12.011  -10.002509   -5.554094    1.473042
 101 C     6.0000    0    12.011  -10.632166   -3.031499    1.280856
 102 H     1.0000    0     1.008   -5.178228   -0.821653   -1.251566
 103 H     1.0000    0     1.008   -4.075194   -5.315800   -0.934848
 104 H     1.0000    0     1.008  -11.350451   -6.865753    2.260490
 105 H     1.0000    0     1.008  -12.469358   -2.383134    1.883301
 106 C     6.0000    0    12.011   -6.926791   -9.079567    0.970185
 107 C     6.0000    0    12.011   -8.622442  -11.027308    0.408181
 108 C     6.0000    0    12.011   -7.847466  -13.517211    0.622098
 109 C     6.0000    0    12.011   -5.387042  -14.029327    1.353611
 110 N     7.0000    0    14.007   -3.771515  -12.172671    1.902198
 111 C     6.0000    0    12.011   -4.508131   -9.766672    1.750831
 112 H     1.0000    0     1.008  -10.509901  -10.587758   -0.224877
 113 H     1.0000    0     1.008   -9.125488  -15.045811    0.198610
 114 H     1.0000    0     1.008   -4.676127  -15.949478    1.514238
 115 H     1.0000    0     1.008   -3.117859   -8.356180    2.311324
 116 C     6.0000    0    12.011    0.250956    0.941840   -7.597455
 117 C     6.0000    0    12.011    0.223177    3.177574   -8.071398
 118 C     6.0000    0    12.011    0.297254    5.745901   -8.775510
 119 C     6.0000    0    12.011    0.542918    6.387274  -11.295649
 120 C     6.0000    0    12.011    0.726600    8.916106  -12.047193
 121 C     6.0000    0    12.011    0.690506   10.832288  -10.300519
 122 C     6.0000    0    12.011    0.422921   10.268583   -7.716130
 123 C     6.0000    0    12.011    0.386827   12.151695   -5.823002
 124 C     6.0000    0    12.011    0.085416   11.481976   -3.351240
 125 N     7.0000    0    14.007   -0.226389    9.042151   -2.632577
 126 C     6.0000    0    12.011   -0.166485    7.225746   -4.337488
 127 C     6.0000    0    12.011    0.186705    7.704413   -6.924523
 128 H     1.0000    0     1.008    0.614917    4.912343  -12.702361
 129 H     1.0000    0     1.008    0.918974    9.347152  -14.031406
 130 H     1.0000    0     1.008    0.864172   12.778328  -10.881799
 131 H     1.0000    0     1.008    0.600744   14.107561   -6.353448
 132 H     1.0000    0     1.008    0.079935   12.883775   -1.845696
 133 H     1.0000    0     1.008   -0.417629    5.298414   -3.667392
 134 C     6.0000    0    12.011    0.281947   -1.646707   -6.954003
 135 C     6.0000    0    12.011   -1.502332   -3.301163   -7.980313
 136 C     6.0000    0    12.011   -1.499687   -5.815632   -7.289997
 137 C     6.0000    0    12.011    0.267774   -6.727425   -5.556929
 138 C     6.0000    0    12.011    2.082289   -5.080151   -4.578995
 139 C     6.0000    0    12.011    2.098541   -2.567949   -5.271391
 140 H     1.0000    0     1.008   -2.889580   -2.599507   -9.299342
 141 H     1.0000    0     1.008   -2.914525   -7.068332   -8.055714
 142 H     1.0000    0     1.008    3.522827   -5.790121   -3.325162
 143 H     1.0000    0     1.008    3.524150   -1.308257   -4.541390
 144 C     6.0000    0    12.011    0.171398   -9.377010   -4.729229
 145 C     6.0000    0    12.011   -0.283270  -11.362545   -6.412408
 146 C     6.0000    0    12.011   -0.424432  -13.814087   -5.508363
 147 C     6.0000    0    12.011   -0.169319  -14.242866   -2.938902
 148 N     7.0000    0    14.007    0.250011  -12.347471   -1.329044
 149 C     6.0000    0    12.011    0.453534   -9.984746   -2.183768
 150 H     1.0000    0     1.008   -0.490951  -10.983844   -8.404935
 151 H     1.0000    0     1.008   -0.747198  -15.374812   -6.776747
 152 H     1.0000    0     1.008   -0.298199  -16.127112   -2.131800
 153 H     1.0000    0     1.008    0.829401   -8.537405   -0.768930
* core charge reduced due to ECP

--------------------------------
INTERNAL COORDINATES (ANGSTROEM)
--------------------------------
 Pd     0   0   0     0.000000000000     0.00000000     0.00000000
 Pd     1   0   0    11.335492841072     0.00000000     0.00000000
 C      2   1   0     6.005028355470    52.96850438     0.00000000
 C      3   2   1     1.209650209771    62.68386228   183.95006814
 C      4   3   2     1.407819114801   176.98502776   141.37233893
 C      5   4   3     1.382890035397   119.98974718    36.47579656
 C      6   5   4     1.399090976313   121.01647924   181.83240818
 C      7   6   5     1.372577655362   120.98319850     0.90824826
 C      8   7   6     1.407002441362   119.98843467   359.28438890
 C      9   8   7     1.413099575402   122.82951835   178.79790874
 C     10   9   8     1.364757396023   119.87999640   180.15228090
 N     11  10   9     1.355618139448   122.03558772   358.81685464
 C     12  11  10     1.318692936206   119.90754188     1.54951497
 C     13  12  11     1.403926344222   122.63922138   359.80598210
 H      6   5   4     1.079277953078   119.42578078     1.75336380
 H      7   6   5     1.079295816725   119.02455739   180.32041592
 H      8   7   6     1.078688504620   120.78487042   179.06806586
 H     10   9   8     1.078275934073   119.39640432   359.75153784
 H     11  10   9     1.088262362668   121.67741067   178.75864324
 H     13  12  11     1.087974586100   117.18015746   180.04025869
 C      3   2   1     1.409733896876   115.58144184     2.34354124
 C     21   3   2     1.398150253013   120.20901580   209.70185297
 C     22  21   3     1.379647469465   120.08630622   178.05688883
 C     23  22  21     1.396049687511   120.58061637   359.76643138
 C     24  23  22     1.397276901691   119.12825023     1.10286792
 C     25  24  23     1.378174390271   120.57168794   359.07140260
 H     22  21   3     1.079003396658   119.67684988   358.55018439
 H     23  22  21     1.079011733022   119.41649804   181.55893224
 H     25  24  23     1.079068375961   119.90277932   177.06400920
 H     26  25  24     1.077943068998   120.36784883   179.40112385
 C     24  23  22     1.468705416345   120.72471901   181.04623219
 C     31  24  23     1.398594651784   122.13812897   319.65848713
 C     32  31  24     1.384572670538   119.60284017   181.43357955
 C     33  32  31     1.385142104623   119.17587790     0.99832724
 N     34  33  32     1.334286659605   121.26089994   358.64064147
 C     35  34  33     1.333907564264   120.16643946     0.06854434
 H     32  31  24     1.078949326892   120.07887670     0.16013862
 H     33  32  31     1.077986405295   120.75132220   180.02708935
 H     34  33  32     1.086791889002   122.01208983   178.77808242
 H     36  35  34     1.089240864088   116.12844468   182.78795524
 C     30  26  25     4.548478843526   147.47181673   313.23238904
 C     41  30  26     1.209433263971   110.69139106   214.09604344
 C     42  41  30     1.409830305391   175.91629002   171.63689686
 C     43  42  41     1.382152252829   119.61999832   331.25335753
 C     44  43  42     1.399435018141   121.03423579   177.35347322
 C     45  44  43     1.372159925082   120.94492692   359.42442482
 C     46  45  44     1.406881953115   119.96715997     1.06664459
 C     47  46  45     1.413121951567   122.74257241   180.40796505
 C     48  47  46     1.364525990958   119.85904748   180.84573839
 N     49  48  47     1.356105633791   122.04155899     1.10532132
 C     50  49  48     1.318605498244   119.93912281   357.93513885
 C     51  50  49     1.404820657593   122.58295095     0.65905244
 H     44  43  42     1.079288770441   119.41692857   358.03306673
 H     45  44  43     1.079251671298   119.01797422   180.08589965
 H     46  45  44     1.078632532422   120.80849820   181.03418524
 H     48  47  46     1.078221173971   119.39722785     0.93613820
 H     49  48  47     1.088628724589   121.64868752   181.01958326
 H     51  50  49     1.088040573692   117.22242514   180.22652460
 C     41  30  26     1.411612779766    67.85689410    35.61460836
 C     59  41  30     1.397432692476   120.45041297   276.22713005
 C     60  59  41     1.379912294314   120.03900732   178.29208276
 C     61  60  59     1.396014831583   120.52706056   359.67108820
 C     62  61  60     1.396265143159   119.22882733     1.76234821
 C     63  62  61     1.379026065744   120.51871587   358.56091567
 H     60  59  41     1.078931017257   119.70192755   358.85317998
 H     61  60  59     1.078956621000   119.48491789   181.58813180
 H     63  62  61     1.078108320161   119.79378705   176.35318222
 H     64  63  62     1.078277612677   120.34705656   178.84274784
 C     62  61  60     1.469745586828   120.17221188   183.27778841
 C     69  62  61     1.398233732249   122.22117827   317.93610398
 C     70  69  62     1.384760993818   119.55002292   178.19772079
 C     71  70  69     1.385117717019   119.17326337   358.57464978
 N     72  71  70     1.334542741916   121.30969137     1.06719997
 C     73  72  71     1.333916286729   120.09256259     0.55293276
 H     70  69  62     1.078882838866   120.03924042   357.17625069
 H     71  70  69     1.077844501772   120.75217683   179.15590654
 H     72  71  70     1.086850767125   121.99957440   181.05840946
 H     74  73  72     1.089389319757   116.15258178   178.99994797
 C     67  63  62     4.381872565468   156.64533861   140.62320047
 C     79  67  63     1.209722426840    97.78370722   197.07096158
 C     80  79  67     1.407840118763   176.98530816   266.17152797
 C     81  80  79     1.382731300723   119.99928836   323.00062121
 C     82  81  80     1.399090197235   121.02038581   178.13190508
 C     83  82  81     1.372625644522   120.98664265   359.10029671
 C     84  83  82     1.407133376763   119.98107542     0.72260114
 C     85  84  83     1.413131688839   122.82652558   181.17160845
 C     86  85  84     1.364725397287   119.87656365   179.87931546
 N     87  86  85     1.355561392929   122.03273547     1.15734607
 C     88  87  86     1.318685106460   119.91118056   358.46907829
 C     89  88  87     1.403800032056   122.64206723     0.19443163
 H     82  81  80     1.079290512327   119.43189633   358.22211301
 H     83  82  81     1.079225064572   119.03253021   179.69084738
 H     84  83  82     1.078640074353   120.79331232   180.93442392
 H     86  85  84     1.078285055076   119.39737525     0.26461741
 H     87  86  85     1.088347766112   121.69203120   181.22208892
 H     89  88  87     1.088099719695   117.17884967   179.94157644
 C     79  67  63     1.409664264994    79.92166385    16.86638693
 C     97  79  67     1.398221502481   120.31460022   285.66898183
 C     98  97  79     1.378180561465   120.13764132   177.78495318
 C     99  98  97     1.397199413112   120.56788313     0.13863179
 C    100  99  98     1.396088722109   119.13654334     0.94955398
 C    101 100  99     1.379609778162   120.57142079   358.85676218
 H     98  97  79     1.077888463618   119.49508498   357.32181458
 H     99  98  97     1.079032664010   119.49856293   178.12860157
 H    101 100  99     1.078985908156   119.98129493   180.67404153
 H    102 101 100     1.079131081009   120.22820582   180.74797876
 C    100  99  98     1.468761386339   120.15902448   180.92292625
 C    107 100  99     1.398548011332   122.13215705   220.51373061
 C    108 107 100     1.384581528838   119.59765300   178.61221966
 C    109 108 107     1.385096173556   119.17374278   359.00684335
 N    110 109 108     1.334329176028   121.26501607     1.34342792
 C    111 110 109     1.333940886996   120.16620853   359.93725272
 H    108 107 100     1.078855504690   120.07438603   359.86940337
 H    109 108 107     1.077924723717   120.74981749   179.97292347
 H    110 109 108     1.086835153094   122.01587990   181.20381619
 H    112 111 110     1.089191906874   116.12580558   177.20971283
 C    103  98  97     4.516838147421   146.72821942   228.60653756
 C    117 103  98     1.209480194133   110.39763949   144.37608970
 C    118 117 103     1.409794385717   175.93228787   188.83429596
 C    119 118 117     1.382237794303   119.62515072    28.92978585
 C    120 119 118     1.399425728647   121.03233259   182.64589860
 C    121 120 119     1.372184863639   120.94681212     0.58102226
 C    122 121 120     1.406898436277   119.96706051   358.91621944
 C    123 122 121     1.413145533907   122.74899541   179.61367446
 C    124 123 122     1.364515888511   119.86667265   179.07331217
 N    125 124 123     1.356020759428   122.02920966   358.90964229
 C    126 125 124     1.318664161187   119.94822107     2.09014702
 C    127 126 125     1.404725418009   122.58408681   359.31960117
 H    120 119 118     1.079241965455   119.42063950     1.95717806
 H    121 120 119     1.079302019826   119.02019028   179.92184056
 H    122 121 120     1.078680402158   120.81115600   178.95392062
 H    124 123 122     1.078346757773   119.39745729   359.01130398
 H    125 124 123     1.088580056771   121.66032228   178.99356220
 H    127 126 125     1.087933628490   117.21946380   179.73644530
 C    117 103  98     1.411581117046    68.13402425   322.93466629
 C    135 117 103     1.397487567029   120.42065591    84.14240092
 C    136 135 117     1.379834196561   120.03683567   181.70095980
 C    137 136 135     1.395945826313   120.52532440     0.34961323
 C    138 137 136     1.396299101196   119.23918937   358.23999924
 C    139 138 137     1.378995025372   120.50773286     1.40977315
 H    136 135 117     1.078874645174   119.70603523     1.14158785
 H    137 136 135     1.078969480569   119.49413269   178.43616204
 H    139 138 137     1.078185526707   119.78442675   183.61673037
 H    140 139 138     1.078286886686   120.34093648   181.19695207
 C    138 137 136     1.469805908955   120.14902105   176.71619478
 C    145 138 137     1.398286572917   122.20520190    42.23538060
 C    146 145 138     1.384714389324   119.55070535   181.85402975
 C    147 146 145     1.385096639228   119.16771494     1.48008697
 N    148 147 146     1.334534458154   121.31430666   358.88843567
 C    149 148 147     1.333950774954   120.09420058   359.42568516
 H    146 145 138     1.078887172043   120.03241493     2.86364629
 H    147 146 145     1.077864968352   120.74883222   180.86748793
 H    148 147 146     1.086864324559   122.00071696   178.91368188
 H    150 149 148     1.089364819516   116.14776613   181.06909838

---------------------------
INTERNAL COORDINATES (A.U.)
---------------------------
 Pd     0   0   0     0.000000000000     0.00000000     0.00000000
 Pd     1   0   0    21.420977062651     0.00000000     0.00000000
 C      2   1   0    11.347859018270    52.96850438     0.00000000
 C      3   2   1     2.285907614308    62.68386228   183.95006814
 C      4   3   2     2.660392573074   176.98502776   141.37233893
 C      5   4   3     2.613283440229   119.98974718    36.47579656
 C      6   5   4     2.643898781672   121.01647924   181.83240818
 C      7   6   5     2.593795866175   120.98319850     0.90824826
 C      8   7   6     2.658849283934   119.98843467   359.28438890
 C      9   8   7     2.670371197469   122.82951835   178.79790874
 C     10   9   8     2.579017717727   119.87999640   180.15228090
 N     11  10   9     2.561747025732   122.03558772   358.81685464
 C     12  11  10     2.491968504166   119.90754188     1.54951497
 C     13  12  11     2.653036302776   122.63922138   359.80598210
 H      6   5   4     2.039539753696   119.42578078     1.75336380
 H      7   6   5     2.039573511097   119.02455739   180.32041592
 H      8   7   6     2.038425857541   120.78487042   179.06806586
 H     10   9   8     2.037646212195   119.39640432   359.75153784
 H     11  10   9     2.056517827297   121.67741067   178.75864324
 H     13  12  11     2.055974008396   117.18015746   180.04025869
 C      3   2   1     2.664010986800   115.58144184     2.34354124
 C     21   3   2     2.642121072267   120.20901580   209.70185297
 C     22  21   3     2.607155878646   120.08630622   178.05688883
 C     23  22  21     2.638151578742   120.58061637   359.76643138
 C     24  23  22     2.640470677451   119.12825023     1.10286792
 C     25  24  23     2.604372162397   120.57168794   359.07140260
 H     22  21   3     2.039020917255   119.67684988   358.55018439
 H     23  22  21     2.039036670700   119.41649804   181.55893224
 H     25  24  23     2.039143710342   119.90277932   177.06400920
 H     26  25  24     2.037017188364   120.36784883   179.40112385
 C     24  23  22     2.775451008298   120.72471901   181.04623219
 C     31  24  23     2.642960864240   122.13812897   319.65848713
 C     32  31  24     2.616463159828   119.60284017   181.43357955
 C     33  32  31     2.617539234301   119.17587790     0.99832724
 N     34  33  32     2.521436370798   121.26089994   358.64064147
 C     35  34  33     2.520719984424   120.16643946     0.06854434
 H     32  31  24     2.038918740204   120.07887670     0.16013862
 H     33  32  31     2.037099082097   120.75132220   180.02708935
 H     34  33  32     2.053739034780   122.01208983   178.77808242
 H     36  35  34     2.058366927003   116.12844468   182.78795524
 C     30  26  25     8.595379340198   147.47181673   313.23238904
 C     41  30  26     2.285497646160   110.69139106   214.09604344
 C     42  41  30     2.664193172492   175.91629002   171.63689686
 C     43  42  41     2.611889233229   119.61999832   331.25335753
 C     44  43  42     2.644548926506   121.03423579   177.35347322
 C     45  44  43     2.593006470346   120.94492692   359.42442482
 C     46  45  44     2.658621594143   119.96715997     1.06664459
 C     47  46  45     2.670413482294   122.74257241   180.40796505
 C     48  47  46     2.578580425528   119.85904748   180.84573839
 N     49  48  47     2.562668256533   122.04155899     1.10532132
 C     50  49  48     2.491803270364   119.93912281   357.93513885
 C     51  50  49     2.654726310126   122.58295095     0.65905244
 H     44  43  42     2.039560195550   119.41692857   358.03306673
 H     45  44  43     2.039490088330   119.01797422   180.08589965
 H     46  45  44     2.038320085416   120.80849820   181.03418524
 H     48  47  46     2.037542730601   119.39722785     0.93613820
 H     49  48  47     2.057210150993   121.64868752   181.01958326
 H     51  50  49     2.056098706872   117.22242514   180.22652460
 C     41  30  26     2.667561560902    67.85689410    35.61460836
 C     59  41  30     2.640765079367   120.45041297   276.22713005
 C     60  59  41     2.607656325085   120.03900732   178.29208276
 C     61  60  59     2.638085710584   120.52706056   359.67108820
 C     62  61  60     2.638558730910   119.22882733     1.76234821
 C     63  62  61     2.605981595794   120.51871587   358.56091567
 H     60  59  41     2.038884140009   119.70192755   358.85317998
 H     61  60  59     2.038932524071   119.48491789   181.58813180
 H     63  62  61     2.037329467806   119.79378705   176.35318222
 H     64  63  62     2.037649384298   120.34705656   178.84274784
 C     62  61  60     2.777416645644   120.17221188   183.27778841
 C     69  62  61     2.642278825162   122.22117827   317.93610398
 C     70  69  62     2.616819039253   119.55002292   178.19772079
 C     71  70  69     2.617493148408   119.17326337   358.57464978
 N     72  71  70     2.521920296233   121.30969137     1.06719997
 C     73  72  71     2.520736467494   120.09256259     0.55293276
 H     70  69  62     2.038793096045   120.03924042   357.17625069
 H     71  70  69     2.036830923302   120.75217683   179.15590654
 H     72  71  70     2.053850298308   121.99957440   181.05840946
 H     74  73  72     2.058647467559   116.15258178   178.99994797
 C     67  63  62     8.280539102477   156.64533861   140.62320047
 C     79  67  63     2.286044084790    97.78370722   197.07096158
 C     80  79  67     2.660432264810   176.98530816   266.17152797
 C     81  80  79     2.612983475168   119.99928836   323.00062121
 C     82  81  80     2.643897309429   121.02038581   178.13190508
 C     83  82  81     2.593886552544   120.98664265   359.10029671
 C     84  83  82     2.659096715982   119.98107542     0.72260114
 C     85  84  83     2.670431883071   122.82652558   181.17160845
 C     86  85  84     2.578957248879   119.87656365   179.87931546
 N     87  86  85     2.561639790353   122.03273547     1.15734607
 C     88  87  86     2.491953708091   119.91118056   358.46907829
 C     89  88  87     2.652797607375   122.64206723     0.19443163
 H     82  81  80     2.039563487238   119.43189633   358.22211301
 H     83  82  81     2.039439808904   119.03253021   179.69084738
 H     84  83  82     2.038334337599   120.79331232   180.93442392
 H     86  85  84     2.037663448394   119.39737525     0.26461741
 H     87  86  85     2.056679216416   121.69203120   181.22208892
 H     89  88  87     2.056210476620   117.17884967   179.94157644
 C     79  67  63     2.663879401613    79.92166385    16.86638693
 C     97  79  67     2.642255714249   120.31460022   285.66898183
 C     98  97  79     2.604383824263   120.13764132   177.78495318
 C     99  98  97     2.640324245257   120.56788313     0.13863179
 C    100  99  98     2.638225343442   119.13654334     0.94955398
 C    101 100  99     2.607084652406   120.57142079   358.85676218
 H     98  97  79     2.036913999150   119.49508498   357.32181458
 H     99  98  97     2.039076224534   119.49856293   178.12860157
 H    101 100  99     2.038987868776   119.98129493   180.67404153
 H    102 101 100     2.039262205710   120.22820582   180.74797876
 C    100  99  98     2.775556776259   120.15902448   180.92292625
 C    107 100  99     2.642872726557   122.13215705   220.51373061
 C    108 107 100     2.616479899590   119.59765300   178.61221966
 C    109 108 107     2.617452437163   119.17374278   359.00684335
 N    110 109 108     2.521516715194   121.26501607     1.34342792
 C    111 110 109     2.520782955263   120.16620853   359.93725272
 H    108 107 100     2.038741441938   120.07438603   359.86940337
 H    109 108 107     2.036982520808   120.74981749   179.97292347
 H    110 109 108     2.053820792065   122.01587990   181.20381619
 H    112 111 110     2.058274411275   116.12580558   177.20971283
 C    103  98  97     8.535587089874   146.72821942   228.60653756
 C    117 103  98     2.285586331313   110.39763949   144.37608970
 C    118 117 103     2.664125294145   175.93228787   188.83429596
 C    119 118 117     2.612050883188   119.62515072    28.92978585
 C    120 119 118     2.644531371907   121.03233259   182.64589860
 C    121 120 119     2.593053597390   120.94681212     0.58102226
 C    122 121 120     2.658652742806   119.96706051   358.91621944
 C    123 122 121     2.670458046457   122.74899541   179.61367446
 C    124 123 122     2.578561334671   119.86667265   179.07331217
 N    125 124 123     2.562507867231   122.02920966   358.90964229
 C    126 125 124     2.491914127261   119.94822107     2.09014702
 C    127 126 125     2.654546333395   122.58408681   359.31960117
 H    120 119 118     2.039471746946   119.42063950     1.95717806
 H    121 120 119     2.039585233259   119.02019028   179.92184056
 H    122 121 120     2.038410546107   120.81115600   178.95392062
 H    124 123 122     2.037780049593   119.39745729   359.01130398
 H    125 124 123     2.057118182146   121.66032228   178.99356220
 H    127 126 125     2.055896609730   117.21946380   179.73644530
 C    117 103  98     2.667501727031    68.13402425   322.93466629
 C    135 117 103     2.640868777244   120.42065591    84.14240092
 C    136 135 117     2.607508741720   120.03683567   181.70095980
 C    137 136 135     2.637955309522   120.52532440     0.34961323
 C    138 137 136     2.638622902300   119.23918937   358.23999924
 C    139 138 137     2.605922937992   120.50773286     1.40977315
 H    136 135 117     2.038777612211   119.70603523     1.14158785
 H    137 136 135     2.038956825135   119.49413269   178.43616204
 H    139 138 137     2.037475367033   119.78442675   183.61673037
 H    140 139 138     2.037666909636   120.34093648   181.19695207
 C    138 137 136     2.777530637945   120.14902105   176.71619478
 C    145 138 137     2.642378679552   122.20520190    42.23538060
 C    146 145 138     2.616730969522   119.55070535   181.85402975
 C    147 146 145     2.617453317155   119.16771494     1.48008697
 N    148 147 146     2.521904642192   121.31430666   358.88843567
 C    149 148 147     2.520801640795   120.09420058   359.42568516
 H    146 145 138     2.038801284563   120.03241493     2.86364629
 H    147 146 145     2.036869599533   120.74883222   180.86748793
 H    148 147 146     2.053875918147   122.00071696   178.91368188
 H    150 149 148     2.058601168815   116.14776613   181.06909838

---------------------
BASIS SET INFORMATION
---------------------
There are 4 groups of distinct atoms

 Group   1 Type Pd  : 7s6p5d1f contracted to 5s3p2d1f pattern {31111/411/41/1}
 Group   2 Type C   : 7s4p1d contracted to 3s2p1d pattern {511/31/1}
 Group   3 Type N   : 7s4p1d contracted to 3s2p1d pattern {511/31/1}
 Group   4 Type H   : 4s1p contracted to 2s1p pattern {31/1}

Atom   0Pd   basis set group =>   1
Atom   1Pd   basis set group =>   1
Atom   2C    basis set group =>   2
Atom   3C    basis set group =>   2
Atom   4C    basis set group =>   2
Atom   5C    basis set group =>   2
Atom   6C    basis set group =>   2
Atom   7C    basis set group =>   2
Atom   8C    basis set group =>   2
Atom   9C    basis set group =>   2
Atom  10C    basis set group =>   2
Atom  11N    basis set group =>   3
Atom  12C    basis set group =>   2
Atom  13C    basis set group =>   2
Atom  14H    basis set group =>   4
Atom  15H    basis set group =>   4
Atom  16H    basis set group =>   4
Atom  17H    basis set group =>   4
Atom  18H    basis set group =>   4
Atom  19H    basis set group =>   4
Atom  20C    basis set group =>   2
Atom  21C    basis set group =>   2
Atom  22C    basis set group =>   2
Atom  23C    basis set group =>   2
Atom  24C    basis set group =>   2
Atom  25C    basis set group =>   2
Atom  26H    basis set group =>   4
Atom  27H    basis set group =>   4
Atom  28H    basis set group =>   4
Atom  29H    basis set group =>   4
Atom  30C    basis set group =>   2
Atom  31C    basis set group =>   2
Atom  32C    basis set group =>   2
Atom  33C    basis set group =>   2
Atom  34N    basis set group =>   3
Atom  35C    basis set group =>   2
Atom  36H    basis set group =>   4
Atom  37H    basis set group =>   4
Atom  38H    basis set group =>   4
Atom  39H    basis set group =>   4
Atom  40C    basis set group =>   2
Atom  41C    basis set group =>   2
Atom  42C    basis set group =>   2
Atom  43C    basis set group =>   2
Atom  44C    basis set group =>   2
Atom  45C    basis set group =>   2
Atom  46C    basis set group =>   2
Atom  47C    basis set group =>   2
Atom  48C    basis set group =>   2
Atom  49N    basis set group =>   3
Atom  50C    basis set group =>   2
Atom  51C    basis set group =>   2
Atom  52H    basis set group =>   4
Atom  53H    basis set group =>   4
Atom  54H    basis set group =>   4
Atom  55H    basis set group =>   4
Atom  56H    basis set group =>   4
Atom  57H    basis set group =>   4
Atom  58C    basis set group =>   2
Atom  59C    basis set group =>   2
Atom  60C    basis set group =>   2
Atom  61C    basis set group =>   2
Atom  62C    basis set group =>   2
Atom  63C    basis set group =>   2
Atom  64H    basis set group =>   4
Atom  65H    basis set group =>   4
Atom  66H    basis set group =>   4
Atom  67H    basis set group =>   4
Atom  68C    basis set group =>   2
Atom  69C    basis set group =>   2
Atom  70C    basis set group =>   2
Atom  71C    basis set group =>   2
Atom  72N    basis set group =>   3
Atom  73C    basis set group =>   2
Atom  74H    basis set group =>   4
Atom  75H    basis set group =>   4
Atom  76H    basis set group =>   4
Atom  77H    basis set group =>   4
Atom  78C    basis set group =>   2
Atom  79C    basis set group =>   2
Atom  80C    basis set group =>   2
Atom  81C    basis set group =>   2
Atom  82C    basis set group =>   2
Atom  83C    basis set group =>   2
Atom  84C    basis set group =>   2
Atom  85C    basis set group =>   2
Atom  86C    basis set group =>   2
Atom  87N    basis set group =>   3
Atom  88C    basis set group =>   2
Atom  89C    basis set group =>   2
Atom  90H    basis set group =>   4
Atom  91H    basis set group =>   4
Atom  92H    basis set group =>   4
Atom  93H    basis set group =>   4
Atom  94H    basis set group =>   4
Atom  95H    basis set group =>   4
Atom  96C    basis set group =>   2
Atom  97C    basis set group =>   2
Atom  98C    basis set group =>   2
Atom  99C    basis set group =>   2
Atom 100C    basis set group =>   2
Atom 101C    basis set group =>   2
Atom 102H    basis set group =>   4
Atom 103H    basis set group =>   4
Atom 104H    basis set group =>   4
Atom 105H    basis set group =>   4
Atom 106C    basis set group =>   2
Atom 107C    basis set group =>   2
Atom 108C    basis set group =>   2
Atom 109C    basis set group =>   2
Atom 110N    basis set group =>   3
Atom 111C    basis set group =>   2
Atom 112H    basis set group =>   4
Atom 113H    basis set group =>   4
Atom 114H    basis set group =>   4
Atom 115H    basis set group =>   4
Atom 116C    basis set group =>   2
Atom 117C    basis set group =>   2
Atom 118C    basis set group =>   2
Atom 119C    basis set group =>   2
Atom 120C    basis set group =>   2
Atom 121C    basis set group =>   2
Atom 122C    basis set group =>   2
Atom 123C    basis set group =>   2
Atom 124C    basis set group =>   2
Atom 125N    basis set group =>   3
Atom 126C    basis set group =>   2
Atom 127C    basis set group =>   2
Atom 128H    basis set group =>   4
Atom 129H    basis set group =>   4
Atom 130H    basis set group =>   4
Atom 131H    basis set group =>   4
Atom 132H    basis set group =>   4
Atom 133H    basis set group =>   4
Atom 134C    basis set group =>   2
Atom 135C    basis set group =>   2
Atom 136C    basis set group =>   2
Atom 137C    basis set group =>   2
Atom 138C    basis set group =>   2
Atom 139C    basis set group =>   2
Atom 140H    basis set group =>   4
Atom 141H    basis set group =>   4
Atom 142H    basis set group =>   4
Atom 143H    basis set group =>   4
Atom 144C    basis set group =>   2
Atom 145C    basis set group =>   2
Atom 146C    basis set group =>   2
Atom 147C    basis set group =>   2
Atom 148N    basis set group =>   3
Atom 149C    basis set group =>   2
Atom 150H    basis set group =>   4
Atom 151H    basis set group =>   4
Atom 152H    basis set group =>   4
Atom 153H    basis set group =>   4

-------------------------
BASIS SET IN INPUT FORMAT
-------------------------

 # Basis set for element : H 
 NewGTO H 
 S 3 
   1      13.0107010000      0.0334854848
   2       1.9622572000      0.2347218709
   3       0.4445379600      0.8137702853
 S 1 
   1       0.1219496200      1.0000000000
 P 1 
   1       0.8000000000      1.0000000000
  end;

 # Basis set for element : C 
 NewGTO C 
 S 5 
   1    1238.4016938000      0.0055173650
   2     186.2900499200      0.0410888285
   3      42.2511763460      0.1822538213
   4      11.6765579320      0.4682845944
   5       3.5930506482      0.4457581734
 S 1 
   1       0.4024514736      1.0000000000
 S 1 
   1       0.1309018267      1.0000000000
 P 3 
   1       9.4680970621      0.0568883320
   2       2.0103545142      0.3129405934
   3       0.5477100471      0.7606501651
 P 1 
   1       0.1526861379      1.0000000000
 D 1 
   1       0.8000000000      1.0000000000
  end;

 # Basis set for element : N 
 NewGTO N 
 S 5 
   1    1712.8415853000     -0.0054477995
   2     257.6481267700     -0.0406271746
   3      58.4582458530     -0.1811196225
   4      16.1983679050     -0.4684397556
   5       5.0052600809     -0.4461684629
 S 1 
   1       0.5873185657      1.0000000000
 S 1 
   1       0.1876459225      1.0000000000
 P 3 
   1      13.5714702330     -0.0588481170
   2       2.9257372874     -0.3202462476
   3       0.7992775075     -0.7532822652
 P 1 
   1       0.2195434803      1.0000000000
 D 1 
   1       1.0000000000      1.0000000000
  end;

 # Basis set for element : Pd
 NewGTO Pd
 S 3 
   1       8.4756400000      2.1727229431
   2       7.1657170000     -2.9039633126
   3       3.1821100000     -0.2310570076
 S 1 
   1       1.3973644196      1.0000000000
 S 1 
   1       0.6053295587      1.0000000000
 S 1 
   1       0.1022951421      1.0000000000
 S 1 
   1       0.0373389729      1.0000000000
 P 4 
   1       4.2460970000     -0.8346018694
   2       3.3925940000      0.8828643810
   3       1.1975891264      0.6438870170
   4       0.5267375059      0.2760105151
 P 1 
   1       0.2060709410      1.0000000000
 P 1 
   1       0.0370000000      1.0000000000
 D 4 
   1       7.3613290985     -0.0186922795
   2       2.6291037258      0.2533662423
   3       1.1292744634      0.4840070353
   4       0.4447165990      0.4270306822
 D 1 
   1       0.1554489384      1.0000000000
 F 1 
   1       1.2462900000      1.0000000000
  end;

-------------------------
ECP PARAMETER INFORMATION
-------------------------

 Group 1, Type Pd ECP Def2-ECP (replacing 28 core electrons, lmax=3)

Atom   0Pd   ECP group =>   1
Atom   1Pd   ECP group =>   1


-------------------------
ECP BASIS IN INPUT FORMAT
-------------------------

 #ECP Def2-ECP
 NewECP Pd
   N_core 28
   lmax f
   s 4
     1      12.4300000000    240.2290403000  2
     2       6.1707594000     35.1719435000  2
     3      13.2700000000     31.9295543000  2
     4       6.6300000000      5.3982169000  2
   p 4
     1      11.0800000000    170.4172760000  2
     2       5.8295541000     28.4721329000  2
     3      13.2700000000     31.9295543000  2
     4       6.6300000000      5.3982169000  2
   d 4
     1       9.5100000000     69.0138449000  2
     2       4.1397811000     11.7508616000  2
     3      13.2700000000     31.9295543000  2
     4       6.6300000000      5.3982169000  2
   f 2
     1      13.2700000000    -31.9295543000  2
     2       6.6300000000     -5.3982169000  2
 End




           ************************************************************
           *        Program running with 32 parallel MPI-processes    *
           *              working on a common directory               *
           ************************************************************
------------------------------------------------------------------------------
                           ORCA GTO INTEGRAL CALCULATION
------------------------------------------------------------------------------

                         BASIS SET STATISTICS AND STARTUP INFO

 # of primitive gaussian shells          ... 1470
 # of primitive gaussian functions       ... 2810
 # of contracted shells                  ...  766
 # of contracted basis functions         ... 1686
 Highest angular momentum                ...    3
 Maximum contraction depth               ...    5
 Integral package used                   ... LIBINT
 Integral threshhold            Thresh   ...  2.500e-11
 Primitive cut-off              TCut     ...  2.500e-12


------------------------------ INTEGRAL EVALUATION ----------------------------


 * One electron integrals 

   ECP integrals                         ... done
 Pre-screening matrix                    ... done
 Shell pair data                         ... done (   0.034 sec)



           ************************************************************
           *        Program running with 32 parallel MPI-processes    *
           *              working on a common directory               *
           ************************************************************
-------------------------------------------------------------------------------
                                 ORCA SCF
-------------------------------------------------------------------------------

------------
SCF SETTINGS
------------
Hamiltonian:
 Density Functional     Method          .... DFT(GTOs)
 Exchange Functional    Exchange        .... PBE
   PBE kappa parameter   XKappa         ....  0.804000
   PBE mue parameter    XMuePBE         ....  0.219520
 Correlation Functional Correlation     .... PBE
   PBE beta parameter  CBetaPBE         ....  0.066725
 LDA part of GGA corr.  LDAOpt          .... PW91-LDA
 Gradients option       PostSCFGGA      .... off
 Hybrid DFT is turned on
   Fraction HF Exchange ScalHFX         ....  0.250000
   Scaling of DF-GGA-X  ScalDFX         ....  0.750000
   Scaling of DF-GGA-C  ScalDFC         ....  1.000000
   Scaling of DF-LDA-C  ScalLDAC        ....  1.000000
   Perturbative correction              ....  0.000000
   Density functional embedding theory  .... OFF
   NL short-range parameter             ....  6.900000


General Settings:
 Integral files         IntName         .... _s_4b1_c_PBE0
 Hartree-Fock type      HFTyp           .... RHF
 Total Charge           Charge          ....    4
 Multiplicity           Mult            ....    1
 Number of Electrons    NEL             ....  672
 Basis Dimension        Dim             .... 1686
 Nuclear Repulsion      ENuc            ....  18191.9396402916 Eh

Convergence Acceleration:
 DIIS                   CNVDIIS         .... on
   Start iteration      DIISMaxIt       ....     0
   Startup error        DIISStart       ....  0.200000
   # of expansion vecs  DIISMaxEq       ....     5
   Bias factor          DIISBfac        ....   1.050
   Max. coefficient     DIISMaxC        ....  10.000
 Newton-Raphson         CNVNR           .... off
 SOSCF                  CNVSOSCF        .... off
 Level Shifting         CNVShift        .... on
   Level shift para.    LevelShift      ....    0.2500
   Turn off err/grad.   ShiftErr        ....    0.0000
 Zerner damping         CNVZerner       .... off
 Static damping         CNVDamp         .... on
   Fraction old density DampFac         ....    0.8500
   Max. Damping (<1)    DampMax         ....    0.9800
   Min. Damping (>=0)   DampMin         ....    0.0000
   Turn off err/grad.   DampErr         ....    0.0300
 Fernandez-Rico         CNVRico         .... off

SCF Procedure:
 Maximum # iterations   MaxIter         ....  2000
 SCF integral mode      SCFMode         .... Direct
   Integral package                     .... LIBINT
 Reset frequency        DirectResetFreq ....    20
 Integral Threshold     Thresh          ....  2.500e-11 Eh
 Primitive CutOff       TCut            ....  2.500e-12 Eh

Convergence Tolerance:
 Convergence Check Mode ConvCheckMode   .... Total+1el-Energy
 Convergence forced     ConvForced      .... 0
 Energy Change          TolE            ....  1.000e-08 Eh
 1-El. energy change                    ....  1.000e-05 Eh
 DIIS Error             TolErr          ....  5.000e-07


Diagonalization of the overlap matrix:
Smallest eigenvalue                        ... 2.458e-04
Time for diagonalization                   ...    0.372 sec
Threshold for overlap eigenvalues          ... 1.000e-08
Number of eigenvalues below threshold      ... 0
Time for construction of square roots      ...    0.316 sec
Total time needed                          ...    0.695 sec

-------------------
DFT GRID GENERATION
-------------------

General Integration Accuracy     IntAcc      ...  5.340
Radial Grid Type                 RadialGrid  ... Gauss-Chebyshev
Angular Grid (max. acc.)         AngularGrid ... Lebedev-590
Angular grid pruning method      GridPruning ... 3 (G Style)
Weight generation scheme         WeightScheme... Becke
Basis function cutoff            BFCut       ...    1.0000e-11
Integration weight cutoff        WCut        ...    1.0000e-14
Grids for H and He will be reduced by one unit

# of grid points (after initial pruning)     ... 2250644 (   0.0 sec)
# of grid points (after weights+screening)   ... 1837732 (   9.0 sec)
nearest neighbour list constructed           ...    0.0 sec
Grid point re-assignment to atoms done       ...    0.3 sec
Grid point division into batches done        ...   18.8 sec
Reduced shell lists constructed in   19.8 sec

Total number of grid points                  ...  1837732
Total number of batches                      ...    28795
Average number of points per batch           ...       63
Average number of grid points per atom       ...    11933
Average number of shells per batch           ...   164.73 (21.50%)
Average number of basis functions per batch  ...   331.82 (19.68%)
Average number of large shells per batch     ...    83.50 (50.69%)
Average number of large basis fcns per batch ...   171.04 (51.55%)
Maximum spatial batch extension              ...  15.96,  6.11, 13.03 au
Average spatial batch extension              ...   0.03,  0.03,  0.03 au

Time for grid setup =   29.448 sec

------------------------------
INITIAL GUESS: MODEL POTENTIAL
------------------------------
Loading Hartree-Fock densities                     ... done
  calling /work/e05/e05/atarzia/orca_4_2_1_linux_x86-64_openmpi314/orca _s_4b1_c_PBE0_atom46.inp > _s_4b1_c_PBE0_atom46.out in order to generate an atomic fitting density for atom 0 (Pd with ECP) on-the-fly... 
    atom 0 (Pd), assumed electronic state with S=3: 1s2 2s2 2p6 3s2 3p6 4s2 3d10 4p6 5s2 4d8           ... done
Calculating cut-offs                               ... done
Setting up the integral package                    ... done
Initializing the effective Hamiltonian             ... done
Starting the Coulomb interaction                   ... done (   0.7 sec)
Reading the grid                                   ... done
Mapping shells                                     ... done
Starting the XC term evaluation                    ... done (   1.0 sec)
  promolecular density results
     # of electrons  =    731.959477424
     EX              =   -796.605347607
     EC              =    -26.470747987
     EX+EC           =   -823.076095595
Transforming the Hamiltonian                       ... done (   0.2 sec)
Diagonalizing the Hamiltonian                      ... done (   0.4 sec)
Back transforming the eigenvectors                 ... done (   0.1 sec)
Now organizing SCF variables                       ... done
                      ------------------
                      INITIAL GUESS DONE (  33.0 sec)
                      ------------------
--------------
SCF ITERATIONS
--------------
ITER       Energy         Delta-E        Max-DP      RMS-DP      [F,P]     Damp
               ***  Starting incremental Fock matrix formation  ***
  0  -4071.3433260847   0.000000000000 0.03256715  0.00038255  0.4573759 0.8500
  1  -4071.6204260337  -0.277099948980 0.02762456  0.00035290  0.3869702 0.8500
                               ***Turning on DIIS***
  2  -4071.8225012478  -0.202075214140 0.02243678  0.00028192  0.3265572 0.8500
  3  -4071.9629128018  -0.140411553955 0.01723702  0.00019330  0.2756131 0.8500
  4  -4072.0681204886  -0.105207686760 0.01377920  0.00014569  0.2333108 0.8500
  5  -4072.1494420544  -0.081321565875 0.01136836  0.00011806  0.1979597 0.8500
  6  -4072.2150761195  -0.065634065108 0.00961526  0.00009906  0.1682212 0.8500
  7  -4072.2693810919  -0.054304972349 0.00824744  0.00008516  0.1430450 0.8500
  8  -4072.3149545501  -0.045573458243 0.00714957  0.00007323  0.1216376 0.8500
  9  -4072.3531238534  -0.038169303305 0.00612542  0.00006237  0.1033670 0.8500
 10  -4072.3850638553  -0.031940001907 0.00517091  0.00005283  0.0877999 0.8500
 11  -4072.4118479727  -0.026784117374 0.00435341  0.00004469  0.0745839 0.8500
 12  -4072.4343765625  -0.022528589816 0.00368865  0.00003790  0.0633786 0.8500
 13  -4072.4533660553  -0.018989492724 0.00314787  0.00003219  0.0538670 0.8500
 14  -4072.4693896601  -0.016023604832 0.00268497  0.00002734  0.0457772 0.8500
 15  -4072.4829229690  -0.013533308946 0.00227754  0.00002320  0.0388943 0.8500
 16  -4072.4943645825  -0.011441613471 0.00192643  0.00001967  0.0330453 0.8500
 17  -4072.5040473860  -0.009682803509 0.01088717  0.00011122  0.0280797 0.0000
 18  -4072.5582256194  -0.054178233349 0.00023027  0.00000250  0.0001965 0.0000
 19  -4072.5582288959  -0.000003276571 0.00012596  0.00000096  0.0000628 0.0000
               *** Restarting incremental Fock matrix formation ***
                                   *** Resetting DIIS ***
 20  -4072.5582289881  -0.000000092208 0.00009734  0.00000071  0.0000381 0.0000
 21  -4072.5582287810   0.000000207147 0.00004196  0.00000023  0.0000435 0.0000
 22  -4072.5582289397  -0.000000158721 0.00001475  0.00000012  0.0000114 0.0000
 23  -4072.5582290131  -0.000000073393 0.00001370  0.00000011  0.0000049 0.0000
 24  -4072.5582289745   0.000000038599 0.00000538  0.00000005  0.0000024 0.0000
                            ***DIIS convergence achieved***

               *****************************************************
               *                     SUCCESS                       *
               *           SCF CONVERGED AFTER  25 CYCLES          *
               *****************************************************


----------------
TOTAL SCF ENERGY
----------------

Total Energy       :        -4072.55822892 Eh         -110819.94339 eV

Components:
Nuclear Repulsion  :        18191.93964029 Eh          495027.84434 eV
Electronic Energy  :       -22264.49786922 Eh         -605847.78773 eV
One Electron Energy:       -41702.22146272 Eh        -1134775.13685 eV
Two Electron Energy:        19437.72359351 Eh          528927.34913 eV

Virial components:
Potential Energy   :        -7948.69191538 Eh         -216294.90324 eV
Kinetic Energy     :         3876.13368646 Eh          105474.95985 eV
Virial Ratio       :            2.05067538


DFT components:
N(Alpha)           :      335.999945148154 electrons
N(Beta)            :      335.999945148154 electrons
N(Total)           :      671.999890296308 electrons
E(X)               :     -412.570145295135 Eh       
E(C)               :      -23.059472801741 Eh       
E(XC)              :     -435.629618096876 Eh       
DFET-embed. en.    :        0.000000000000 Eh       

---------------
SCF CONVERGENCE
---------------

  Last Energy change         ...    5.0339e-08  Tolerance :   1.0000e-08
  Last MAX-Density change    ...    3.9780e-06  Tolerance :   1.0000e-07
  Last RMS-Density change    ...    3.6193e-08  Tolerance :   5.0000e-09
  Last DIIS Error            ...    5.8580e-07  Tolerance :   5.0000e-07

             **** THE GBW FILE WAS UPDATED (_s_4b1_c_PBE0.gbw) ****
             **** DENSITY FILE WAS UPDATED (_s_4b1_c_PBE0.scfp) ****
             **** ENERGY FILE WAS UPDATED (_s_4b1_c_PBE0.en.tmp) ****
             **** THE GBW FILE WAS UPDATED (_s_4b1_c_PBE0.gbw) ****
             **** DENSITY FILE WAS UPDATED (_s_4b1_c_PBE0.scfp) ****
----------------
ORBITAL ENERGIES
----------------

  NO   OCC          E(Eh)            E(eV) 
   0   2.0000     -14.759704      -401.6320 
   1   2.0000     -14.759646      -401.6304 
   2   2.0000     -14.759505      -401.6265 
   3   2.0000     -14.759479      -401.6258 
   4   2.0000     -14.748289      -401.3213 
   5   2.0000     -14.748231      -401.3198 
   6   2.0000     -14.748018      -401.3140 
   7   2.0000     -14.748008      -401.3137 
   8   2.0000     -10.592881      -288.2470 
   9   2.0000     -10.592839      -288.2458 
  10   2.0000     -10.592483      -288.2361 
  11   2.0000     -10.592401      -288.2339 
  12   2.0000     -10.588845      -288.1371 
  13   2.0000     -10.588768      -288.1350 
  14   2.0000     -10.588751      -288.1346 
  15   2.0000     -10.588717      -288.1336 
  16   2.0000     -10.585165      -288.0370 
  17   2.0000     -10.585072      -288.0344 
  18   2.0000     -10.584874      -288.0291 
  19   2.0000     -10.584867      -288.0289 
  20   2.0000     -10.569957      -287.6231 
  21   2.0000     -10.569862      -287.6206 
  22   2.0000     -10.569444      -287.6092 
  23   2.0000     -10.569420      -287.6085 
  24   2.0000     -10.561913      -287.4043 
  25   2.0000     -10.561888      -287.4036 
  26   2.0000     -10.561846      -287.4024 
  27   2.0000     -10.561843      -287.4024 
  28   2.0000     -10.555892      -287.2404 
  29   2.0000     -10.555790      -287.2377 
  30   2.0000     -10.555464      -287.2288 
  31   2.0000     -10.555410      -287.2273 
  32   2.0000     -10.548494      -287.0391 
  33   2.0000     -10.548388      -287.0362 
  34   2.0000     -10.548313      -287.0342 
  35   2.0000     -10.548279      -287.0333 
  36   2.0000     -10.545028      -286.9448 
  37   2.0000     -10.544925      -286.9420 
  38   2.0000     -10.544680      -286.9353 
  39   2.0000     -10.544578      -286.9325 
  40   2.0000     -10.544210      -286.9225 
  41   2.0000     -10.544190      -286.9220 
  42   2.0000     -10.543789      -286.9111 
  43   2.0000     -10.543755      -286.9101 
  44   2.0000     -10.541952      -286.8611 
  45   2.0000     -10.541830      -286.8578 
  46   2.0000     -10.541155      -286.8394 
  47   2.0000     -10.541123      -286.8385 
  48   2.0000     -10.540818      -286.8303 
  49   2.0000     -10.540746      -286.8283 
  50   2.0000     -10.539054      -286.7822 
  51   2.0000     -10.538978      -286.7802 
  52   2.0000     -10.537023      -286.7270 
  53   2.0000     -10.536967      -286.7255 
  54   2.0000     -10.536180      -286.7040 
  55   2.0000     -10.536120      -286.7024 
  56   2.0000     -10.534990      -286.6717 
  57   2.0000     -10.534893      -286.6690 
  58   2.0000     -10.534449      -286.6569 
  59   2.0000     -10.534444      -286.6568 
  60   2.0000     -10.526123      -286.4304 
  61   2.0000     -10.526078      -286.4292 
  62   2.0000     -10.524443      -286.3846 
  63   2.0000     -10.524359      -286.3824 
  64   2.0000     -10.522917      -286.3431 
  65   2.0000     -10.522837      -286.3410 
  66   2.0000     -10.521127      -286.2944 
  67   2.0000     -10.521031      -286.2918 
  68   2.0000     -10.519981      -286.2632 
  69   2.0000     -10.519921      -286.2616 
  70   2.0000     -10.519875      -286.2603 
  71   2.0000     -10.519821      -286.2589 
  72   2.0000     -10.518324      -286.2181 
  73   2.0000     -10.518227      -286.2155 
  74   2.0000     -10.517792      -286.2037 
  75   2.0000     -10.517723      -286.2018 
  76   2.0000     -10.517359      -286.1919 
  77   2.0000     -10.517300      -286.1903 
  78   2.0000     -10.517067      -286.1839 
  79   2.0000     -10.517015      -286.1825 
  80   2.0000     -10.514750      -286.1209 
  81   2.0000     -10.514631      -286.1177 
  82   2.0000     -10.513195      -286.0786 
  83   2.0000     -10.513085      -286.0756 
  84   2.0000     -10.513052      -286.0747 
  85   2.0000     -10.512980      -286.0727 
  86   2.0000     -10.512639      -286.0635 
  87   2.0000     -10.512527      -286.0604 
  88   2.0000     -10.512307      -286.0544 
  89   2.0000     -10.512290      -286.0540 
  90   2.0000     -10.512250      -286.0529 
  91   2.0000     -10.512187      -286.0511 
  92   2.0000     -10.511702      -286.0380 
  93   2.0000     -10.511660      -286.0368 
  94   2.0000     -10.510512      -286.0056 
  95   2.0000     -10.510437      -286.0035 
  96   2.0000      -3.853898      -104.8699 
  97   2.0000      -3.853892      -104.8697 
  98   2.0000      -2.531902       -68.8966 
  99   2.0000      -2.531895       -68.8964 
 100   2.0000      -2.530469       -68.8576 
 101   2.0000      -2.530451       -68.8571 
 102   2.0000      -2.494572       -67.8808 
 103   2.0000      -2.494565       -67.8806 
 104   2.0000      -1.312810       -35.7234 
 105   2.0000      -1.312743       -35.7216 
 106   2.0000      -1.305762       -35.5316 
 107   2.0000      -1.305743       -35.5311 
 108   2.0000      -1.295721       -35.2584 
 109   2.0000      -1.295630       -35.2559 
 110   2.0000      -1.292671       -35.1754 
 111   2.0000      -1.292646       -35.1747 
 112   2.0000      -1.181286       -32.1444 
 113   2.0000      -1.181095       -32.1392 
 114   2.0000      -1.179946       -32.1080 
 115   2.0000      -1.179839       -32.1051 
 116   2.0000      -1.176054       -32.0021 
 117   2.0000      -1.175781       -31.9946 
 118   2.0000      -1.174956       -31.9722 
 119   2.0000      -1.174836       -31.9689 
 120   2.0000      -1.143465       -31.1153 
 121   2.0000      -1.143211       -31.1083 
 122   2.0000      -1.141928       -31.0734 
 123   2.0000      -1.141849       -31.0713 
 124   2.0000      -1.115312       -30.3492 
 125   2.0000      -1.114406       -30.3245 
 126   2.0000      -1.113580       -30.3020 
 127   2.0000      -1.113312       -30.2948 
 128   2.0000      -1.111518       -30.2460 
 129   2.0000      -1.110625       -30.2216 
 130   2.0000      -1.109581       -30.1932 
 131   2.0000      -1.108980       -30.1769 
 132   2.0000      -1.080628       -29.4054 
 133   2.0000      -1.080298       -29.3964 
 134   2.0000      -1.079588       -29.3771 
 135   2.0000      -1.079026       -29.3618 
 136   2.0000      -1.078866       -29.3574 
 137   2.0000      -1.078799       -29.3556 
 138   2.0000      -1.077848       -29.3297 
 139   2.0000      -1.076936       -29.3049 
 140   2.0000      -1.060286       -28.8518 
 141   2.0000      -1.060122       -28.8474 
 142   2.0000      -1.059055       -28.8183 
 143   2.0000      -1.058140       -28.7935 
 144   2.0000      -1.053119       -28.6568 
 145   2.0000      -1.053053       -28.6550 
 146   2.0000      -1.051268       -28.6064 
 147   2.0000      -1.051183       -28.6042 
 148   2.0000      -1.017389       -27.6846 
 149   2.0000      -1.017288       -27.6818 
 150   2.0000      -1.016043       -27.6479 
 151   2.0000      -1.015498       -27.6331 
 152   2.0000      -0.977226       -26.5917 
 153   2.0000      -0.977138       -26.5893 
 154   2.0000      -0.974524       -26.5181 
 155   2.0000      -0.974451       -26.5162 
 156   2.0000      -0.968307       -26.3490 
 157   2.0000      -0.967710       -26.3327 
 158   2.0000      -0.965140       -26.2628 
 159   2.0000      -0.964536       -26.2464 
 160   2.0000      -0.963736       -26.2246 
 161   2.0000      -0.963669       -26.2228 
 162   2.0000      -0.961996       -26.1772 
 163   2.0000      -0.961850       -26.1733 
 164   2.0000      -0.944649       -25.7052 
 165   2.0000      -0.943211       -25.6661 
 166   2.0000      -0.942154       -25.6373 
 167   2.0000      -0.942084       -25.6354 
 168   2.0000      -0.926619       -25.2146 
 169   2.0000      -0.926531       -25.2122 
 170   2.0000      -0.925286       -25.1783 
 171   2.0000      -0.924831       -25.1659 
 172   2.0000      -0.909867       -24.7587 
 173   2.0000      -0.909772       -24.7562 
 174   2.0000      -0.908505       -24.7217 
 175   2.0000      -0.908384       -24.7184 
 176   2.0000      -0.907127       -24.6842 
 177   2.0000      -0.905099       -24.6290 
 178   2.0000      -0.904695       -24.6180 
 179   2.0000      -0.903813       -24.5940 
 180   2.0000      -0.873302       -23.7638 
 181   2.0000      -0.870994       -23.7010 
 182   2.0000      -0.864381       -23.5210 
 183   2.0000      -0.863630       -23.5006 
 184   2.0000      -0.856266       -23.3002 
 185   2.0000      -0.855203       -23.2712 
 186   2.0000      -0.854595       -23.2547 
 187   2.0000      -0.853979       -23.2379 
 188   2.0000      -0.837474       -22.7888 
 189   2.0000      -0.836126       -22.7521 
 190   2.0000      -0.834229       -22.7005 
 191   2.0000      -0.833939       -22.6926 
 192   2.0000      -0.833827       -22.6896 
 193   2.0000      -0.832845       -22.6629 
 194   2.0000      -0.832643       -22.6574 
 195   2.0000      -0.831350       -22.6222 
 196   2.0000      -0.825842       -22.4723 
 197   2.0000      -0.825699       -22.4684 
 198   2.0000      -0.824454       -22.4345 
 199   2.0000      -0.824269       -22.4295 
 200   2.0000      -0.819679       -22.3046 
 201   2.0000      -0.819429       -22.2978 
 202   2.0000      -0.818656       -22.2768 
 203   2.0000      -0.817949       -22.2575 
 204   2.0000      -0.796912       -21.6851 
 205   2.0000      -0.796316       -21.6688 
 206   2.0000      -0.794440       -21.6178 
 207   2.0000      -0.792616       -21.5682 
 208   2.0000      -0.789254       -21.4767 
 209   2.0000      -0.789138       -21.4735 
 210   2.0000      -0.782145       -21.2832 
 211   2.0000      -0.780960       -21.2510 
 212   2.0000      -0.779285       -21.2054 
 213   2.0000      -0.776654       -21.1338 
 214   2.0000      -0.769946       -20.9513 
 215   2.0000      -0.769148       -20.9296 
 216   2.0000      -0.767483       -20.8843 
 217   2.0000      -0.766527       -20.8583 
 218   2.0000      -0.765711       -20.8361 
 219   2.0000      -0.764923       -20.8146 
 220   2.0000      -0.764099       -20.7922 
 221   2.0000      -0.764003       -20.7896 
 222   2.0000      -0.762812       -20.7572 
 223   2.0000      -0.762739       -20.7552 
 224   2.0000      -0.760496       -20.6941 
 225   2.0000      -0.760433       -20.6924 
 226   2.0000      -0.759227       -20.6596 
 227   2.0000      -0.759032       -20.6543 
 228   2.0000      -0.756461       -20.5843 
 229   2.0000      -0.756366       -20.5818 
 230   2.0000      -0.750875       -20.4323 
 231   2.0000      -0.750457       -20.4210 
 232   2.0000      -0.747450       -20.3392 
 233   2.0000      -0.746906       -20.3244 
 234   2.0000      -0.738490       -20.0953 
 235   2.0000      -0.737394       -20.0655 
 236   2.0000      -0.737017       -20.0553 
 237   2.0000      -0.736514       -20.0416 
 238   2.0000      -0.735640       -20.0178 
 239   2.0000      -0.734546       -19.9880 
 240   2.0000      -0.734318       -19.9818 
 241   2.0000      -0.733062       -19.9476 
 242   2.0000      -0.732575       -19.9344 
 243   2.0000      -0.732349       -19.9282 
 244   2.0000      -0.731591       -19.9076 
 245   2.0000      -0.731103       -19.8943 
 246   2.0000      -0.729984       -19.8639 
 247   2.0000      -0.729828       -19.8596 
 248   2.0000      -0.721715       -19.6389 
 249   2.0000      -0.721642       -19.6369 
 250   2.0000      -0.719107       -19.5679 
[...]
 11 N      7.3070     7.0000    -0.3070     3.3728     3.3728    -0.0000
 12 C      5.8365     6.0000     0.1635     3.8286     3.8286    -0.0000
 13 C      6.0072     6.0000    -0.0072     3.9560     3.9560    -0.0000
 14 H      0.9437     1.0000     0.0563     0.9906     0.9906    -0.0000
 15 H      0.9202     1.0000     0.0798     0.9810     0.9810    -0.0000
 16 H      0.9426     1.0000     0.0574     0.9912     0.9912    -0.0000
 17 H      0.9350     1.0000     0.0650     0.9941     0.9941    -0.0000
 18 H      0.9302     1.0000     0.0698     0.9855     0.9855    -0.0000
 19 H      0.9522     1.0000     0.0478     1.0161     1.0161    -0.0000
 20 C      6.0545     6.0000    -0.0545     3.7423     3.7423    -0.0000
 21 C      5.9637     6.0000     0.0363     3.8803     3.8803    -0.0000
 22 C      6.0116     6.0000    -0.0116     3.8802     3.8802    -0.0000
 23 C      5.9724     6.0000     0.0276     3.8048     3.8048    -0.0000
 24 C      6.0222     6.0000    -0.0222     3.8734     3.8734    -0.0000
 25 C      5.9879     6.0000     0.0121     3.8783     3.8783    -0.0000
 26 H      0.9473     1.0000     0.0527     0.9901     0.9901    -0.0000
 27 H      0.9553     1.0000     0.0447     0.9889     0.9889    -0.0000
 28 H      0.9927     1.0000     0.0073     0.9940     0.9940    -0.0000
 29 H      0.9893     1.0000     0.0107     0.9924     0.9924    -0.0000
 30 C      6.0321     6.0000    -0.0321     3.8981     3.8981    -0.0000
 31 C      5.9288     6.0000     0.0712     3.8838     3.8838    -0.0000
 32 C      6.0181     6.0000    -0.0181     3.9259     3.9259    -0.0000
 33 C      5.8653     6.0000     0.1347     3.8707     3.8707    -0.0000
 34 N      7.3031     7.0000    -0.3031     3.3738     3.3738    -0.0000
 35 C      5.8670     6.0000     0.1330     3.8747     3.8747    -0.0000
 36 H      0.9252     1.0000     0.0748     0.9911     0.9911    -0.0000
 37 H      0.9148     1.0000     0.0852     0.9853     0.9853    -0.0000
 38 H      0.9087     1.0000     0.0913     0.9828     0.9828    -0.0000
 39 H      0.9465     1.0000     0.0535     1.0031     1.0031    -0.0000
 40 C      5.9898     6.0000     0.0102     3.7020     3.7020    -0.0000
 41 C      6.0497     6.0000    -0.0497     3.6930     3.6930    -0.0000
 42 C      6.0165     6.0000    -0.0165     3.7577     3.7577    -0.0000
 43 C      5.9676     6.0000     0.0324     3.8479     3.8479    -0.0000
 44 C      5.9680     6.0000     0.0320     3.8292     3.8292    -0.0000
 45 C      5.9759     6.0000     0.0241     3.8301     3.8301    -0.0000
 46 C      5.9743     6.0000     0.0257     3.8810     3.8810    -0.0000
 47 C      5.9966     6.0000     0.0034     3.9169     3.9169    -0.0000
 48 C      5.8772     6.0000     0.1228     3.8566     3.8566    -0.0000
 49 N      7.3072     7.0000    -0.3072     3.3737     3.3737    -0.0000
 50 C      5.8395     6.0000     0.1605     3.8340     3.8340    -0.0000
 51 C      6.0049     6.0000    -0.0049     3.9490     3.9490    -0.0000
 52 H      0.9425     1.0000     0.0575     0.9906     0.9906    -0.0000
 53 H      0.9203     1.0000     0.0797     0.9810     0.9810    -0.0000
 54 H      0.9431     1.0000     0.0569     0.9912     0.9912    -0.0000
 55 H      0.9354     1.0000     0.0646     0.9941     0.9941    -0.0000
 56 H      0.9303     1.0000     0.0697     0.9854     0.9854    -0.0000
 57 H      0.9471     1.0000     0.0529     1.0128     1.0128    -0.0000
 58 C      6.0733     6.0000    -0.0733     3.7466     3.7466    -0.0000
 59 C      5.9628     6.0000     0.0372     3.8777     3.8777    -0.0000
 60 C      6.0107     6.0000    -0.0107     3.8795     3.8795    -0.0000
 61 C      5.9915     6.0000     0.0085     3.8058     3.8058    -0.0000
 62 C      6.0215     6.0000    -0.0215     3.8697     3.8697    -0.0000
 63 C      5.9775     6.0000     0.0225     3.8742     3.8742    -0.0000
 64 H      0.9503     1.0000     0.0497     0.9905     0.9905    -0.0000
 65 H      0.9609     1.0000     0.0391     0.9895     0.9895    -0.0000
 66 H      0.9758     1.0000     0.0242     0.9913     0.9913    -0.0000
 67 H      0.9749     1.0000     0.0251     0.9928     0.9928    -0.0000
 68 C      6.0302     6.0000    -0.0302     3.8970     3.8970    -0.0000
 69 C      5.9273     6.0000     0.0727     3.8783     3.8783    -0.0000
 70 C      6.0185     6.0000    -0.0185     3.9225     3.9225    -0.0000
 71 C      5.8645     6.0000     0.1355     3.8682     3.8682    -0.0000
 72 N      7.3025     7.0000    -0.3025     3.3727     3.3727    -0.0000
 73 C      5.8670     6.0000     0.1330     3.8761     3.8761    -0.0000
 74 H      0.9237     1.0000     0.0763     0.9907     0.9907    -0.0000
 75 H      0.9146     1.0000     0.0854     0.9853     0.9853    -0.0000
 76 H      0.9091     1.0000     0.0909     0.9825     0.9825    -0.0000
 77 H      0.9491     1.0000     0.0509     1.0056     1.0056    -0.0000
 78 C      5.9987     6.0000     0.0013     3.7028     3.7028    -0.0000
 79 C      6.0454     6.0000    -0.0454     3.6951     3.6951    -0.0000
 80 C      6.0102     6.0000    -0.0102     3.7491     3.7491    -0.0000
 81 C      5.9707     6.0000     0.0293     3.8477     3.8477    -0.0000
 82 C      5.9674     6.0000     0.0326     3.8296     3.8296    -0.0000
 83 C      5.9755     6.0000     0.0245     3.8302     3.8302    -0.0000
 84 C      5.9735     6.0000     0.0265     3.8804     3.8804    -0.0000
 85 C      5.9972     6.0000     0.0028     3.9167     3.9167    -0.0000
 86 C      5.8764     6.0000     0.1236     3.8591     3.8591    -0.0000
 87 N      7.3072     7.0000    -0.3072     3.3722     3.3722    -0.0000
 88 C      5.8369     6.0000     0.1631     3.8287     3.8287    -0.0000
 89 C      6.0070     6.0000    -0.0070     3.9561     3.9561    -0.0000
 90 H      0.9437     1.0000     0.0563     0.9906     0.9906    -0.0000
 91 H      0.9202     1.0000     0.0798     0.9810     0.9810    -0.0000
 92 H      0.9426     1.0000     0.0574     0.9912     0.9912    -0.0000
 93 H      0.9350     1.0000     0.0650     0.9941     0.9941    -0.0000
 94 H      0.9300     1.0000     0.0700     0.9854     0.9854    -0.0000
 95 H      0.9522     1.0000     0.0478     1.0162     1.0162    -0.0000
 96 C      6.0542     6.0000    -0.0542     3.7423     3.7423    -0.0000
 97 C      5.9880     6.0000     0.0120     3.8784     3.8784    -0.0000
 98 C      6.0219     6.0000    -0.0219     3.8736     3.8736    -0.0000
 99 C      5.9727     6.0000     0.0273     3.8048     3.8048    -0.0000
100 C      6.0114     6.0000    -0.0114     3.8803     3.8803    -0.0000
101 C      5.9639     6.0000     0.0361     3.8804     3.8804    -0.0000
102 H      0.9896     1.0000     0.0104     0.9924     0.9924    -0.0000
103 H      0.9926     1.0000     0.0074     0.9939     0.9939    -0.0000
104 H      0.9553     1.0000     0.0447     0.9889     0.9889    -0.0000
105 H      0.9472     1.0000     0.0528     0.9901     0.9901    -0.0000
106 C      6.0325     6.0000    -0.0325     3.8981     3.8981    -0.0000
107 C      5.9287     6.0000     0.0713     3.8837     3.8837    -0.0000
108 C      6.0180     6.0000    -0.0180     3.9258     3.9258    -0.0000
109 C      5.8651     6.0000     0.1349     3.8706     3.8706    -0.0000
110 N      7.3033     7.0000    -0.3033     3.3732     3.3732    -0.0000
111 C      5.8668     6.0000     0.1332     3.8750     3.8750    -0.0000
112 H      0.9253     1.0000     0.0747     0.9911     0.9911    -0.0000
113 H      0.9149     1.0000     0.0851     0.9853     0.9853    -0.0000
114 H      0.9088     1.0000     0.0912     0.9828     0.9828    -0.0000
115 H      0.9463     1.0000     0.0537     1.0031     1.0031    -0.0000
116 C      5.9897     6.0000     0.0103     3.7017     3.7017    -0.0000
117 C      6.0497     6.0000    -0.0497     3.6928     3.6928    -0.0000
118 C      6.0165     6.0000    -0.0165     3.7575     3.7575    -0.0000
119 C      5.9676     6.0000     0.0324     3.8479     3.8479    -0.0000
120 C      5.9681     6.0000     0.0319     3.8292     3.8292    -0.0000
121 C      5.9759     6.0000     0.0241     3.8301     3.8301    -0.0000
122 C      5.9743     6.0000     0.0257     3.8810     3.8810    -0.0000
123 C      5.9968     6.0000     0.0032     3.9168     3.9168    -0.0000
124 C      5.8769     6.0000     0.1231     3.8566     3.8566    -0.0000
125 N      7.3073     7.0000    -0.3073     3.3737     3.3737    -0.0000
126 C      5.8394     6.0000     0.1606     3.8338     3.8338    -0.0000
127 C      6.0048     6.0000    -0.0048     3.9492     3.9492    -0.0000
128 H      0.9425     1.0000     0.0575     0.9906     0.9906    -0.0000
129 H      0.9202     1.0000     0.0798     0.9810     0.9810    -0.0000
130 H      0.9431     1.0000     0.0569     0.9912     0.9912    -0.0000
131 H      0.9353     1.0000     0.0647     0.9940     0.9940    -0.0000
132 H      0.9302     1.0000     0.0698     0.9855     0.9855    -0.0000
133 H      0.9473     1.0000     0.0527     1.0129     1.0129    -0.0000
134 C      6.0730     6.0000    -0.0730     3.7463     3.7463    -0.0000
135 C      5.9627     6.0000     0.0373     3.8778     3.8778    -0.0000
136 C      6.0105     6.0000    -0.0105     3.8796     3.8796    -0.0000
137 C      5.9923     6.0000     0.0077     3.8061     3.8061    -0.0000
138 C      6.0212     6.0000    -0.0212     3.8696     3.8696    -0.0000
139 C      5.9777     6.0000     0.0223     3.8739     3.8739    -0.0000
140 H      0.9504     1.0000     0.0496     0.9905     0.9905    -0.0000
141 H      0.9610     1.0000     0.0390     0.9895     0.9895    -0.0000
142 H      0.9757     1.0000     0.0243     0.9913     0.9913    -0.0000
143 H      0.9750     1.0000     0.0250     0.9928     0.9928    -0.0000
144 C      6.0307     6.0000    -0.0307     3.8971     3.8971    -0.0000
145 C      5.9270     6.0000     0.0730     3.8782     3.8782    -0.0000
146 C      6.0185     6.0000    -0.0185     3.9223     3.9223    -0.0000
147 C      5.8646     6.0000     0.1354     3.8679     3.8679    -0.0000
148 N      7.3027     7.0000    -0.3027     3.3726     3.3726    -0.0000
149 C      5.8663     6.0000     0.1337     3.8759     3.8759    -0.0000
150 H      0.9237     1.0000     0.0763     0.9907     0.9907    -0.0000
151 H      0.9146     1.0000     0.0854     0.9853     0.9853    -0.0000
152 H      0.9089     1.0000     0.0911     0.9825     0.9825    -0.0000
153 H      0.9490     1.0000     0.0510     1.0055     1.0055    -0.0000

  Mayer bond orders larger than 0.100000
B(  0-Pd, 34-N ) :   0.5365 B(  0-Pd, 72-N ) :   0.5364 B(  0-Pd, 87-N ) :   0.5618 
B(  0-Pd,125-N ) :   0.5626 B(  1-Pd, 11-N ) :   0.5622 B(  1-Pd, 49-N ) :   0.5626 
B(  1-Pd,110-N ) :   0.5363 B(  1-Pd,148-N ) :   0.5366 B(  2-C ,  3-C ) :   2.5909 
B(  2-C , 20-C ) :   1.0154 B(  3-C ,  4-C ) :   0.9995 B(  4-C ,  5-C ) :   1.4543 
B(  4-C , 13-C ) :   1.2123 B(  5-C ,  6-C ) :   1.2641 B(  5-C , 14-H ) :   0.9928 
B(  6-C ,  7-C ) :   1.4571 B(  6-C , 15-H ) :   0.9804 B(  7-C ,  8-C ) :   1.2657 
B(  7-C , 16-H ) :   0.9944 B(  8-C ,  9-C ) :   1.2514 B(  8-C , 13-C ) :   1.2199 
B(  9-C , 10-C ) :   1.5527 B(  9-C , 17-H ) :   0.9736 B( 10-C , 11-N ) :   1.1945 
B( 10-C , 18-H ) :   0.9484 B( 11-N , 12-C ) :   1.4054 B( 12-C , 13-C ) :   1.3324 
B( 12-C , 19-H ) :   0.9385 B( 20-C , 21-C ) :   1.3284 B( 20-C , 25-C ) :   1.3290 
B( 21-C , 22-C ) :   1.4045 B( 21-C , 26-H ) :   0.9944 B( 22-C , 23-C ) :   1.3542 
B( 22-C , 27-H ) :   0.9903 B( 23-C , 24-C ) :   1.3507 B( 23-C , 30-C ) :   1.0101 
B( 24-C , 25-C ) :   1.4050 B( 24-C , 28-H ) :   0.9868 B( 25-C , 29-H ) :   0.9941 
B( 30-C , 31-C ) :   1.3762 B( 30-C , 35-C ) :   1.4020 B( 31-C , 32-C ) :   1.4053 
B( 31-C , 36-H ) :   0.9808 B( 32-C , 33-C ) :   1.4216 B( 32-C , 37-H ) :   0.9727 
B( 33-C , 34-N ) :   1.3254 B( 33-C , 38-H ) :   0.9509 B( 34-N , 35-C ) :   1.3216 
B( 35-C , 39-H ) :   0.9605 B( 40-C , 41-C ) :   2.6025 B( 40-C , 58-C ) :   1.0052 
B( 41-C , 42-C ) :   0.9907 B( 42-C , 43-C ) :   1.4637 B( 42-C , 51-C ) :   1.2147 
B( 43-C , 44-C ) :   1.2615 B( 43-C , 52-H ) :   0.9925 B( 44-C , 45-C ) :   1.4586 
B( 44-C , 53-H ) :   0.9805 B( 45-C , 46-C ) :   1.2667 B( 45-C , 54-H ) :   0.9946 
B( 46-C , 47-C ) :   1.2514 B( 46-C , 51-C ) :   1.2188 B( 47-C , 48-C ) :   1.5538 
B( 47-C , 55-H ) :   0.9736 B( 48-C , 49-N ) :   1.1913 B( 48-C , 56-H ) :   0.9477 
B( 49-N , 50-C ) :   1.4092 B( 50-C , 51-C ) :   1.3300 B( 50-C , 57-H ) :   0.9384 
B( 58-C , 59-C ) :   1.3338 B( 58-C , 63-C ) :   1.3356 B( 59-C , 60-C ) :   1.4017 
B( 59-C , 64-H ) :   0.9944 B( 60-C , 61-C ) :   1.3580 B( 60-C , 65-H ) :   0.9897 
B( 61-C , 62-C ) :   1.3528 B( 61-C , 68-C ) :   1.0068 B( 62-C , 63-C ) :   1.4006 
B( 62-C , 66-H ) :   0.9879 B( 63-C , 67-H ) :   0.9942 B( 68-C , 69-C ) :   1.3740 
B( 68-C , 73-C ) :   1.4070 B( 69-C , 70-C ) :   1.4011 B( 69-C , 74-H ) :   0.9834 
B( 70-C , 71-C ) :   1.4215 B( 70-C , 75-H ) :   0.9730 B( 71-C , 72-N ) :   1.3242 
B( 71-C , 76-H ) :   0.9511 B( 72-N , 73-C ) :   1.3227 B( 73-C , 77-H ) :   0.9593 
B( 78-C , 79-C ) :   2.5907 B( 78-C , 96-C ) :   1.0157 B( 79-C , 80-C ) :   0.9996 
B( 80-C , 81-C ) :   1.4543 B( 80-C , 89-C ) :   1.2121 B( 81-C , 82-C ) :   1.2641 
B( 81-C , 90-H ) :   0.9928 B( 82-C , 83-C ) :   1.4572 B( 82-C , 91-H ) :   0.9804 
B( 83-C , 84-C ) :   1.2656 B( 83-C , 92-H ) :   0.9945 B( 84-C , 85-C ) :   1.2513 
B( 84-C , 89-C ) :   1.2200 B( 85-C , 86-C ) :   1.5526 B( 85-C , 93-H ) :   0.9736 
B( 86-C , 87-N ) :   1.1946 B( 86-C , 94-H ) :   0.9484 B( 87-N , 88-C ) :   1.4052 
B( 88-C , 89-C ) :   1.3326 B( 88-C , 95-H ) :   0.9384 B( 96-C , 97-C ) :   1.3289 
B( 96-C ,101-C ) :   1.3283 B( 97-C , 98-C ) :   1.4049 B( 97-C ,102-H ) :   0.9941 
B( 98-C , 99-C ) :   1.3509 B( 98-C ,103-H ) :   0.9869 B( 99-C ,100-C ) :   1.3542 
B( 99-C ,106-C ) :   1.0099 B(100-C ,101-C ) :   1.4046 B(100-C ,104-H ) :   0.9903 
B(101-C ,105-H ) :   0.9944 B(106-C ,107-C ) :   1.3763 B(106-C ,111-C ) :   1.4021 
B(107-C ,108-C ) :   1.4051 B(107-C ,112-H ) :   0.9809 B(108-C ,109-C ) :   1.4218 
B(108-C ,113-H ) :   0.9727 B(109-C ,110-N ) :   1.3253 B(109-C ,114-H ) :   0.9508 
B(110-N ,111-C ) :   1.3216 B(111-C ,115-H ) :   0.9605 B(116-C ,117-C ) :   2.6020 
B(116-C ,134-C ) :   1.0053 B(117-C ,118-C ) :   0.9909 B(118-C ,119-C ) :   1.4633 
B(118-C ,127-C ) :   1.2146 B(119-C ,120-C ) :   1.2616 B(119-C ,128-H ) :   0.9926 
B(120-C ,121-C ) :   1.4585 B(120-C ,129-H ) :   0.9804 B(121-C ,122-C ) :   1.2667 
B(121-C ,130-H ) :   0.9946 B(122-C ,123-C ) :   1.2514 B(122-C ,127-C ) :   1.2188 
B(123-C ,124-C ) :   1.5537 B(123-C ,131-H ) :   0.9736 B(124-C ,125-N ) :   1.1916 
B(124-C ,132-H ) :   0.9477 B(125-N ,126-C ) :   1.4089 B(126-C ,127-C ) :   1.3302 
B(126-C ,133-H ) :   0.9383 B(134-C ,135-C ) :   1.3337 B(134-C ,139-C ) :   1.3354 
B(135-C ,136-C ) :   1.4018 B(135-C ,140-H ) :   0.9944 B(136-C ,137-C ) :   1.3581 
B(136-C ,141-H ) :   0.9897 B(137-C ,138-C ) :   1.3529 B(137-C ,144-C ) :   1.0065 
B(138-C ,139-C ) :   1.4005 B(138-C ,142-H ) :   0.9879 B(139-C ,143-H ) :   0.9942 
B(144-C ,145-C ) :   1.3740 B(144-C ,149-C ) :   1.4073 B(145-C ,146-C ) :   1.4010 
B(145-C ,150-H ) :   0.9835 B(146-C ,147-C ) :   1.4214 B(146-C ,151-H ) :   0.9730 
B(147-C ,148-N ) :   1.3240 B(147-C ,152-H ) :   0.9511 B(148-N ,149-C ) :   1.3227 
B(149-C ,153-H ) :   0.9593 

-------
TIMINGS
-------

Total SCF time: 0 days 0 hours 14 min 19 sec 

Total time                  ....     859.120 sec
Sum of individual times     ....     853.991 sec  ( 99.4%)

Fock matrix formation       ....     743.013 sec  ( 86.5%)
  XC integration            ....      30.929 sec  (  4.2% of F)
    Basis function eval.    ....       7.406 sec  ( 23.9% of XC)
    Density eval.           ....      11.131 sec  ( 36.0% of XC)
    XC-Functional eval.     ....       0.835 sec  (  2.7% of XC)
    XC-Potential eval.      ....       4.228 sec  ( 13.7% of XC)
Diagonalization             ....      16.281 sec  (  1.9%)
Density matrix formation    ....       0.943 sec  (  0.1%)
Population analysis         ....       4.010 sec  (  0.5%)
Initial guess               ....       3.580 sec  (  0.4%)
Orbital Transformation      ....       0.000 sec  (  0.0%)
Orbital Orthonormalization  ....       0.000 sec  (  0.0%)
DIIS solution               ....      56.715 sec  (  6.6%)
Grid generation             ....      29.448 sec  (  3.4%)


-------------------------------------------------------------------------------
                          DFT DISPERSION CORRECTION                            
                                                                               
                              DFTD3 V3.1  Rev 1                                
                          USING Becke-Johnson damping                          
-------------------------------------------------------------------------------
The PBE0 functional is recognized
Active option DFTDOPT                   ...         4   

molecular C6(AA) [au] = 365602.275099 


            DFT-D V3
 parameters
 s6 scaling factor         :     1.0000 
 a1 scaling factor         :     0.4145 
 s8 scaling factor         :     1.2177 
 a2 scaling factor         :     4.8593 
 ad hoc parameters k1-k3   :    16.0000     1.3333    -4.0000 

 Edisp/kcal,au: -160.294663371000  -0.255445778746 
 E6   /kcal   : -99.955390241 
 E8   /kcal   : -60.339273130 
 % E8         :  37.642721137 

-------------------------   ----------------
Dispersion correction           -0.255445779
-------------------------   ----------------


-------------------------   --------------------
FINAL SINGLE POINT ENERGY     -4072.813674702914
-------------------------   --------------------


                            ***************************************
                            *     ORCA property calculations      *
                            ***************************************

                                    ---------------------
                                    Active property flags
                                    ---------------------
   (+) Dipole Moment


------------------------------------------------------------------------------
                       ORCA ELECTRIC PROPERTIES CALCULATION
------------------------------------------------------------------------------

Dipole Moment Calculation                       ... on
Quadrupole Moment Calculation                   ... off
Polarizability Calculation                      ... off
GBWName                                         ... _s_4b1_c_PBE0.gbw
Electron density file                           ... _s_4b1_c_PBE0.scfp
The origin for moment calculation is the CENTER OF MASS  = (-0.434414, -2.251705  1.695941)

-------------
DIPOLE MOMENT
-------------
                                X             Y             Z
Electronic contribution:      0.98112       0.06008       0.19141
Nuclear contribution   :     -0.99112      -0.06248      -0.19450
                        -----------------------------------------
Total Dipole Moment    :     -0.01001      -0.00241      -0.00309
                        -----------------------------------------
Magnitude (a.u.)       :      0.01075
Magnitude (Debye)      :      0.02731



--------------------
Rotational spectrum 
--------------------
 
Rotational constants in cm-1:     0.000767     0.000348     0.000342 
Rotational constants in MHz :    22.994053    10.447361    10.255492 

 Dipole components along the rotational axes: 
x,y,z [a.u.] :    -0.000093     0.005608     0.009166 
x,y,z [Debye]:    -0.000237     0.014254     0.023298 

 

Timings for individual modules:

Sum of individual times         ...      864.801 sec (=  14.413 min)
GTO integral calculation        ...        5.242 sec (=   0.087 min)   0.6 %
SCF iterations                  ...      859.559 sec (=  14.326 min)  99.4 %
                             ****ORCA TERMINATED NORMALLY****
TOTAL RUN TIME: 0 days 0 hours 14 minutes 27 seconds 122 msec
