Job execution start: Tue Jun 22 11:53:00 BST 2021
Shared library path: /work/e05/e05/atarzia/orca_4_2_1_linux_x86-64_openmpi314:/work/e05/e05/atarzia/openmpi-3.1.4/lib:/opt/cray/pe/papi/6.0.0.4/lib64:/opt/cray/libfabric/1.11.0.0.233/lib64
Slurm Job ID is: 344705
Slurm Job name is: s_4b1_d_B97-3c
nid002012

                                 *****************
                                 * O   R   C   A *
                                 *****************

           --- An Ab Initio, DFT and Semiempirical electronic structure package ---

                  #######################################################
                  #                        -***-                        #
                  #          Department of theory and spectroscopy      #
                  #               Directorship: Frank Neese             #
                  #        Max Planck Institute fuer Kohlenforschung    #
                  #                Kaiser Wilhelm Platz 1               #
                  #                 D-45470 Muelheim/Ruhr               #
                  #                      Germany                        #
                  #                                                     #
                  #                  All rights reserved                #
                  #                        -***-                        #
                  #######################################################


                         Program Version 4.2.1 -  RELEASE  -


 With contributions from (in alphabetic order):
   Daniel Aravena         : Magnetic Suceptibility
   Michael Atanasov       : Ab Initio Ligand Field Theory (pilot matlab implementation)
   Alexander A. Auer      : GIAO ZORA, VPT2
   Ute Becker             : Parallelization
   Giovanni Bistoni       : ED, misc. LED, open-shell LED, HFLD
   Martin Brehm           : Molecular dynamics
   Dmytro Bykov           : SCF Hessian
   Vijay G. Chilkuri      : MRCI spin determinant printing, contributions to CSF-ICE
   Dipayan Datta          : RHF DLPNO-CCSD density
   Achintya Kumar Dutta   : EOM-CC, STEOM-CC
   Dmitry Ganyushin       : Spin-Orbit,Spin-Spin,Magnetic field MRCI
   Miquel Garcia          : C-PCM Hessian, Gaussian charge scheme
   Yang Guo               : DLPNO-NEVPT2, CIM, IAO-localization
   Andreas Hansen         : Spin unrestricted coupled pair/coupled cluster methods
   Benjamin Helmich-Paris : CASSCF linear response (MC-RPA)
   Lee Huntington         : MR-EOM, pCC
   Robert Izsak           : Overlap fitted RIJCOSX, COSX-SCS-MP3, EOM
   Christian Kollmar      : KDIIS, OOCD, Brueckner-CCSD(T), CCSD density
   Simone Kossmann        : Meta GGA functionals, TD-DFT gradient, OOMP2, MP2 Hessian
   Martin Krupicka        : AUTO-CI
   Lucas Lang             : DCDCAS
   Dagmar Lenk            : GEPOL surface, SMD
   Dimitrios Liakos       : Extrapolation schemes; Compound Job, initial MDCI parallelization
   Dimitrios Manganas     : Further ROCIS development; embedding schemes
   Dimitrios Pantazis     : SARC Basis sets
   Taras Petrenko         : DFT Hessian,TD-DFT gradient, ASA, ECA, R-Raman, ABS, FL, XAS/XES, NRVS
   Peter Pinski           : DLPNO-MP2, DLPNO-MP2 Gradient
   Christoph Reimann      : Effective Core Potentials
   Marius Retegan         : Local ZFS, SOC
   Christoph Riplinger    : Optimizer, TS searches, QM/MM, DLPNO-CCSD(T), (RO)-DLPNO pert. Triples
   Tobias Risthaus        : Range-separated hybrids, TD-DFT gradient, RPA, STAB
   Michael Roemelt        : Original ROCIS implementation
   Masaaki Saitow         : Open-shell DLPNO-CCSD energy and density
   Barbara Sandhoefer     : DKH picture change effects
   Avijit Sen             : IP-ROCIS
   Kantharuban Sivalingam : CASSCF convergence, NEVPT2, FIC-MRCI
   Bernardo de Souza      : ESD, SOC TD-DFT
   Georgi Stoychev        : AutoAux, RI-MP2 NMR
   Willem Van den Heuvel  : Paramagnetic NMR
   Boris Wezisla          : Elementary symmetry handling
   Frank Wennmohs         : Technical directorship


 We gratefully acknowledge several colleagues who have allowed us to
 interface, adapt or use parts of their codes:
   Stefan Grimme, W. Hujo, H. Kruse,             : VdW corrections, initial TS optimization,
                  C. Bannwarth                     DFT functionals, gCP, sTDA/sTD-DF
   Ed Valeev, F. Pavosevic, A. Kumar             : LibInt (2-el integral package), F12 methods
   Garnet Chan, S. Sharma, J. Yang, R. Olivares  : DMRG
   Ulf Ekstrom                                   : XCFun DFT Library
   Mihaly Kallay                                 : mrcc  (arbitrary order and MRCC methods)
   Andreas Klamt, Michael Diedenhofen            : otool_cosmo (COSMO solvation model)
   Jiri Pittner, Ondrej Demel                    : Mk-CCSD
   Frank Weinhold                                : gennbo (NPA and NBO analysis)
   Christopher J. Cramer and Donald G. Truhlar   : smd solvation model
   Lars Goerigk                                  : TD-DFT with DH, B97 family of functionals
   V. Asgeirsson, H. Jonsson                     : NEB implementation
   FAccTs GmbH                                   : IRC, NEB, NEB-TS, Multilevel, MM, QM/MM, CI optimization
   S Lehtola, MJT Oliveira, MAL Marques          : LibXC Library


 Your calculation uses the libint2 library for the computation of 2-el integrals
 For citations please refer to: http://libint.valeyev.net

 Your ORCA version has been built with support for libXC version: 4.2.3
 For citations please refer to: https://tddft.org/programs/libxc/

 This ORCA versions uses:
   CBLAS   interface :  Fast vector & matrix operations
   LAPACKE interface :  Fast linear algebra routines
   SCALAPACK package :  Parallel linear algebra routines




***************************************
The coordinates will be read from file: s_4b1_d.xyz
***************************************


Your calculation utilizes the atom-pairwise dispersion correction
with the Becke-Johnson damping scheme (D3BJ)
Cite in your paper:
S.Grimme, S.Ehrlich, L.Goerigk, J Comput Chem, (2011), 32, 1456–1465 
S.Grimme, J.Antony, S.Ehrlich and H.Krieg, J.Chem.Phys., 132, (2010), 154104 
   

Your calculation employs the composite approach B97-3c by Grimme and coworkers.
For the correct reference, please check the publication list of the Grimme group:
http://www.thch.uni-bonn.de/tc/index.php?section=publikationen&subsection=grimme#2017
   

XCFun DFT library Copyright 2009-2010 Ulf Ekstrom and contributors.
See http://admol.org/xcfun for more information. This is free soft-
ware; see the source code for copying conditions. There is ABSOLUTELY
NO WARRANTY; not even for MERCHANTABILITY or FITNESS FOR A PARTICULAR
PURPOSE. For details see the documentation. Scientific users of this 
library should cite U. Ekstrom, L. Visscher, R. Bast, A. J. Thorvald-
sen and K. Ruud; J.Chem.Theor.Comp. 2010, DOI: 10.1021/ct100117s
XCFun Version 0.99 
----- Orbital basis set information -----
Your calculation utilizes the basis: def2-mTZVP
----- AuxJ basis set information -----
Your calculation utilizes the basis: def2-mTZVP/J
cite the ECPs for Pd [Def2-ECP] as follows:
Ce-Yb(ecp-28): M. Dolg, H. Stoll, H.Preuss, J. Chem. Phys., 1989, 90, 1730-1734.
Y-Cd(ecp-28), Hf-Hg(ecp-46): D. Andrae,U. Haeussermann, M. Dolg, H. Stoll, H. Preuss, Theor. Chim. Acta, 1990, 77, 123-141.
In-Sb(ecp-28), Tl-Bi(ecp-46): B. Metz, H. Stoll, M. Dolg, J. Chem. Phys., 2000, 113, 2563-2569.
Te-Xe(ecp-28), Po-Rn(ecp-46): K. A. Peterson, D. Figgen, E. Goll, H. Stoll, M. Dolg, J. Chem. Phys., 2003, 119, 11113-11123.
Rb(ecp-28), Cs(ecp-46): T. Leininger, A. Nicklass, W. Kuechle, H. Stoll, M. Dolg, A. Bergner, Chem. Phys. Lett., 1996, 255, 274-280.
Sr(ecp-28), Ba(ecp-46): M. Kaupp, P. V. Schleyer, H. Stoll and H. Preuss, J. Chem. Phys., 1991, 94, 1360-1366.
La(ecp-46): M. Dolg, H. Stoll, A. Savin, H. Preuss, Theor. Chim. Acta, 1989, 75, 173-194.
Lu(ecp-28): X. Cao, M. Dolg, J. Chem. Phys., 2001, 115, 7348-7355.

ECP parameters for Pd [Def2-ECP] have been obtained from:
TURBOMOLE (7.0.2)

================================================================================
                                        WARNINGS
                       Please study these warnings very carefully!
================================================================================


INFO   : the flag for use of LIBINT has been found!

================================================================================
                                       INPUT FILE
================================================================================
NAME = s_4b1_d_B97-3c.in
|  1> ! DFT SP B97-3c TightSCF printbasis  Grid6 NOFINALGRID SlowConv 
|  2> 
|  3> %base "_s_4b1_d_B97-3c"
|  4> %maxcore 3000
|  5> %scf
|  6>    MaxIter 2000
|  7> end
|  8> %pal
|  9>    nprocs 32
| 10> end
| 11> 
| 12> * xyzfile 4 1 s_4b1_d.xyz
| 13> 
| 14>                          ****END OF INPUT****
================================================================================

                       ****************************
                       * Single Point Calculation *
                       ****************************

---------------------------------
CARTESIAN COORDINATES (ANGSTROEM)
---------------------------------
  Pd     1.097000    6.339000   -0.843300
  Pd     0.562500   -4.927700   -0.688200
  C      5.606300   -1.228800   -1.333600
  C      5.692300   -2.434700   -1.375900
  C      5.896600   -3.827000   -1.439400
  C      7.170600   -4.317900   -1.662200
  C      7.414900   -5.693600   -1.719700
  C      6.394500   -6.597800   -1.560000
  C      5.081800   -6.143800   -1.340000
  C      3.988800   -7.025600   -1.177100
  C      2.735100   -6.525100   -0.978900
  N      2.496400   -5.189600   -0.931400
  C      3.487600   -4.335300   -1.070200
  C      4.815700   -4.744800   -1.277500
  H      7.989300   -3.625900   -1.787900
  H      8.422400   -6.040600   -1.891300
  H      6.584900   -7.658600   -1.603200
  H      4.159700   -8.089800   -1.214500
  H      1.873700   -7.187100   -0.850500
  H      3.242100   -3.279700   -1.019300
  C      5.425800    0.169000   -1.282200
  C      6.104100    1.008600   -2.170300
  C      5.879000    2.370300   -2.144300
  C      4.970200    2.921300   -1.239600
  C      4.321700    2.081900   -0.330300
  C      4.546300    0.722500   -0.346800
  H      6.794700    0.586100   -2.883900
  H      6.386800    3.005900   -2.853200
  H      3.661900    2.503000    0.411200
  H      4.053600    0.078600    0.363100
  C      4.668700    4.359600   -1.254500
  C      5.655400    5.336600   -1.425900
  C      5.298500    6.673800   -1.426800
  C      3.966400    7.020400   -1.257900
  N      3.027600    6.090800   -1.104000
  C      3.354000    4.796700   -1.103200
  H      6.688800    5.047300   -1.538100
  H      6.043100    7.443100   -1.551900
  H      3.640200    8.054100   -1.246800
  H      2.531900    4.080900   -0.996500
  C      1.525900    2.439200    4.069600
  C      1.656200    3.635400    4.194300
  C      1.822200    5.011800    4.442500
  C      2.093900    5.443200    5.728600
  C      2.253300    6.802400    6.016200
  C      2.147800    7.749000    5.027700
  C      1.881000    7.355600    3.704100
  C      1.769200    8.282600    2.642500
  C      1.521900    7.839300    1.376000
  N      1.377600    6.519100    1.094800
  C      1.465600    5.624600    2.056000
  C      1.715500    5.974200    3.393900
  H      2.178100    4.717300    6.522800
  H      2.460800    7.102600    7.031900
  H      2.269300    8.797100    5.251500
  H      1.884100    9.335100    2.847200
  H      1.431000    8.537000    0.538300
  H      1.337300    4.584000    1.777200
  C      1.375000    1.055200    3.844200
  C      0.415300    0.598800    2.935600
  C      0.304100   -0.748000    2.666900
  C      1.140600   -1.671200    3.299400
  C      2.068900   -1.216000    4.237100
  C      2.189800    0.132400    4.506400
  H     -0.238700    1.307600    2.454700
  H     -0.455700   -1.093300    1.984200
  H      2.722100   -1.917100    4.733100
  H      2.921600    0.480100    5.219100
  C      1.056600   -3.096500    2.951400
  C      1.142600   -4.113900    3.907900
  C      1.053600   -5.435900    3.507600
  C      0.881400   -5.727100    2.162800
  N      0.808800   -4.759700    1.252800
  C      0.894600   -3.479800    1.621300
  H      1.259300   -3.866300    4.951500
  H      1.111800   -6.235300    4.228300
  H      0.801700   -6.746500    1.802800
  H      0.851900   -2.732500    0.821800
  C     -4.108200   -0.751900   -0.154000
  C     -4.308000   -1.942600   -0.079500
  C     -4.643200   -3.307100    0.021000
  C     -5.958000   -3.669000    0.253400
  C     -6.331400   -5.013400    0.347600
  C     -5.401100   -6.014100    0.215600
  C     -4.051200   -5.692500   -0.013000
  C     -3.046500   -6.677800   -0.148700
  C     -1.751100   -6.303800   -0.357200
  N     -1.387100   -4.998600   -0.440700
  C     -2.293000   -4.050900   -0.327900
  C     -3.654000   -4.327100   -0.112800
  H     -6.707600   -2.899500    0.357700
  H     -7.367200   -5.258700    0.525600
  H     -5.691000   -7.050500    0.287200
  H     -3.317300   -7.719600   -0.082500
  H     -0.956200   -7.047600   -0.465200
  H     -1.948800   -3.025000   -0.406900
  C     -3.796100    0.620600   -0.242800
  C     -2.869400    1.062900   -1.191700
  C     -2.517100    2.394000   -1.244700
  C     -3.081900    3.315300   -0.359100
  C     -4.037400    2.877400    0.559200
  C     -4.390500    1.544300    0.621700
  H     -2.440900    0.356300   -1.883500
  H     -1.821400    2.730500   -1.996500
  H     -4.481700    3.577100    1.250000
  H     -5.116900    1.208600    1.345600
  C     -2.645400    4.718400   -0.382900
  C     -3.535000    5.788700   -0.239000
  C     -3.053100    7.085700   -0.274000
  C     -1.694500    7.299900   -0.450800
  N     -0.848100    6.281800   -0.578400
  C     -1.295500    5.024900   -0.544500
  H     -4.591000    5.601700   -0.120100
  H     -3.721400    7.925100   -0.170600
  H     -1.271900    8.297300   -0.489600
  H     -0.545100    4.231800   -0.630800
  C      0.294400    2.363800   -5.648200
  C      0.277900    3.563000   -5.805700
  C      0.242600    4.941700   -6.091700
  C      0.011300    5.361400   -7.389500
  C     -0.019100    6.721200   -7.714500
  C      0.176900    7.680300   -6.752200
  C      0.407000    7.299900   -5.417900
  C      0.607400    8.240900   -4.382000
  C      0.813100    7.811100   -3.103500
  N      0.832200    6.491400   -2.786000
  C      0.658700    5.583300   -3.722400
  C      0.441400    5.918100   -5.069800
  H     -0.142400    4.625300   -8.163600
  H     -0.198600    7.011800   -8.738300
  H      0.154800    8.728700   -7.004800
  H      0.592300    9.293600   -4.615700
  H      0.970700    8.519800   -2.285200
  H      0.688400    4.543200   -3.414900
  C      0.313900    0.978400   -5.384700
  C     -0.585200    0.119000   -6.022500
  C     -0.592100   -1.227000   -5.716000
  C      0.290000   -1.741900   -4.764800
  C      1.210800   -0.885000   -4.156700
  C      1.227200    0.458500   -4.462500
  H     -1.281700    0.514500   -6.745600
  H     -1.309300   -1.876500   -6.193600
  H      1.935200   -1.281600   -3.463600
  H      1.945800    1.115200   -4.000300
  C      0.239300   -3.158600   -4.377600
  C      0.056600   -4.189400   -5.305900
  C      0.021000   -5.502300   -4.869200
  C      0.166300   -5.771400   -3.516700
  N      0.330800   -4.790400   -2.633600
  C      0.365700   -3.518800   -3.037200
  H     -0.037200   -3.960700   -6.356100
  H     -0.113200   -6.312200   -5.567800
  H      0.149800   -6.783400   -3.128700
  H      0.479600   -2.757100   -2.258500

----------------------------
CARTESIAN COORDINATES (A.U.)
----------------------------
  NO LB      ZA    FRAG     MASS         X           Y           Z
   0 Pd   18.0000*   0   106.400    2.073030   11.978974   -1.593606
   1 Pd   18.0000*   0   106.400    1.062971   -9.312003   -1.300510
   2 C     6.0000    0    12.011   10.594372   -2.322095   -2.520139
   3 C     6.0000    0    12.011   10.756888   -4.600916   -2.600074
   4 C     6.0000    0    12.011   11.142959   -7.231982   -2.720072
   5 C     6.0000    0    12.011   13.550470   -8.159648   -3.141103
   6 C     6.0000    0    12.011   14.012130  -10.759345   -3.249762
   7 C     6.0000    0    12.011   12.083854  -12.468035   -2.947973
   8 C     6.0000    0    12.011    9.603210  -11.610099   -2.532233
   9 C     6.0000    0    12.011    7.537740  -13.276460   -2.224397
  10 C     6.0000    0    12.011    5.168590  -12.330652   -1.849853
  11 N     7.0000    0    14.007    4.717512   -9.806923   -1.760091
  12 C     6.0000    0    12.011    6.590609   -8.192530   -2.022385
  13 C     6.0000    0    12.011    9.100354   -8.966373   -2.414125
  14 H     1.0000    0     1.008   15.097589   -6.851958   -3.378641
  15 H     1.0000    0     1.008   15.916029  -11.415080   -3.574039
  16 H     1.0000    0     1.008   12.443658  -14.472657   -3.029609
  17 H     1.0000    0     1.008    7.860694  -15.287506   -2.295072
  18 H     1.0000    0     1.008    3.540780  -13.581651   -1.607212
  19 H     1.0000    0     1.008    6.126681   -6.197735   -1.926198
  20 C     6.0000    0    12.011   10.253276    0.319364   -2.423007
  21 C     6.0000    0    12.011   11.535077    1.905978   -4.101273
  22 C     6.0000    0    12.011   11.109700    4.479218   -4.052140
  23 C     6.0000    0    12.011    9.392317    5.520457   -2.342505
  24 C     6.0000    0    12.011    8.166829    3.934221   -0.624177
  25 C     6.0000    0    12.011    8.591262    1.365327   -0.655357
  26 H     1.0000    0     1.008   12.840122    1.107568   -5.449781
  27 H     1.0000    0     1.008   12.069303    5.680328   -5.391767
  28 H     1.0000    0     1.008    6.919988    4.729985    0.777055
  29 H     1.0000    0     1.008    7.660194    0.148532    0.686160
  30 C     6.0000    0    12.011    8.822564    8.238450   -2.370661
  31 C     6.0000    0    12.011   10.687157   10.084712   -2.694560
  32 C     6.0000    0    12.011   10.012714   12.611654   -2.696261
  33 C     6.0000    0    12.011    7.495410   13.266633   -2.377087
  34 N     7.0000    0    14.007    5.721335   11.509944   -2.086258
  35 C     6.0000    0    12.011    6.338141    9.064449   -2.084746
  36 H     1.0000    0     1.008   12.640000    9.538015   -2.906588
  37 H     1.0000    0     1.008   11.419804   14.065421   -2.932666
  38 H     1.0000    0     1.008    6.878981   15.220043   -2.356111
  39 H     1.0000    0     1.008    4.784598    7.711783   -1.883112
  40 C     6.0000    0    12.011    2.883533    4.609420    7.690429
  41 C     6.0000    0    12.011    3.129764    6.869910    7.926078
  42 C     6.0000    0    12.011    3.443459    9.470929    8.395108
  43 C     6.0000    0    12.011    3.956898   10.286157   10.825485
  44 C     6.0000    0    12.011    4.258120   12.854673   11.368970
  45 C     6.0000    0    12.011    4.058754   14.643488    9.500976
  46 C     6.0000    0    12.011    3.554575   13.900070    6.999735
  47 C     6.0000    0    12.011    3.343303   15.651846    4.993601
  48 C     6.0000    0    12.011    2.875974   14.814130    2.600263
  49 N     7.0000    0    14.007    2.603287   12.319314    2.068872
  50 C     6.0000    0    12.011    2.769583   10.628954    3.885277
  51 C     6.0000    0    12.011    3.241825   11.289602    6.413542
  52 H     1.0000    0     1.008    4.116012    8.914405   12.326306
  53 H     1.0000    0     1.008    4.650238   13.421969   13.288365
  54 H     1.0000    0     1.008    4.288356   16.624110    9.923897
  55 H     1.0000    0     1.008    3.560433   17.640782    5.380428
  56 H     1.0000    0     1.008    2.704198   16.132592    1.017240
  57 H     1.0000    0     1.008    2.527131    8.662505    3.358421
  58 C     6.0000    0    12.011    2.598373    1.994039    7.264485
  59 C     6.0000    0    12.011    0.784803    1.131568    5.547480
  60 C     6.0000    0    12.011    0.574666   -1.413515    5.039711
  61 C     6.0000    0    12.011    2.155422   -3.158110    6.234962
  62 C     6.0000    0    12.011    3.909654   -2.297907    8.006959
  63 C     6.0000    0    12.011    4.138122    0.250200    8.515862
  64 H     1.0000    0     1.008   -0.451078    2.471006    4.638711
  65 H     1.0000    0     1.008   -0.861148   -2.066038    3.749595
  66 H     1.0000    0     1.008    5.144024   -3.622794    8.944263
  67 H     1.0000    0     1.008    5.521024    0.907258    9.862670
  68 C     6.0000    0    12.011    1.996685   -5.851537    5.577338
  69 C     6.0000    0    12.011    2.159201   -7.774144    7.384861
  70 C     6.0000    0    12.011    1.991015  -10.272362    6.628403
  71 C     6.0000    0    12.011    1.665605  -10.822651    4.087100
  72 N     7.0000    0    14.007    1.528410   -8.994529    2.367449
  73 C     6.0000    0    12.011    1.690549   -6.575869    3.063813
  74 H     1.0000    0     1.008    2.379732   -7.306248    9.356979
  75 H     1.0000    0     1.008    2.100998  -11.783009    7.990329
  76 H     1.0000    0     1.008    1.514993  -12.749037    3.406798
  77 H     1.0000    0     1.008    1.609858   -5.163677    1.552977
  78 C     6.0000    0    12.011   -7.763373   -1.420885   -0.291018
  79 C     6.0000    0    12.011   -8.140940   -3.670982   -0.150233
  80 C     6.0000    0    12.011   -8.774376   -6.249513    0.039684
  81 C     6.0000    0    12.011  -11.258988   -6.933405    0.478857
  82 C     6.0000    0    12.011  -11.964612   -9.473953    0.656869
  83 C     6.0000    0    12.011  -10.206600  -11.365002    0.407425
  84 C     6.0000    0    12.011   -7.655659  -10.757266   -0.024566
  85 C     6.0000    0    12.011   -5.757051  -12.619213   -0.281002
  86 C     6.0000    0    12.011   -3.309099  -11.912456   -0.675010
  87 N     7.0000    0    14.007   -2.621239   -9.445985   -0.832802
  88 C     6.0000    0    12.011   -4.333142   -7.655092   -0.619641
  89 C     6.0000    0    12.011   -6.905059   -8.177034   -0.213161
  90 H     1.0000    0     1.008  -12.675527   -5.479261    0.675955
  91 H     1.0000    0     1.008  -13.921990   -9.937503    0.993240
  92 H     1.0000    0     1.008  -10.754431  -13.323514    0.542729
  93 H     1.0000    0     1.008   -6.268789  -14.587930   -0.155902
  94 H     1.0000    0     1.008   -1.806956  -13.318034   -0.879101
  95 H     1.0000    0     1.008   -3.682698   -5.716422   -0.768930
  96 C     6.0000    0    12.011   -7.173589    1.172764   -0.458826
  97 C     6.0000    0    12.011   -5.422380    2.008590   -2.251987
  98 C     6.0000    0    12.011   -4.756630    4.524004   -2.352142
  99 C     6.0000    0    12.011   -5.823947    6.265009   -0.678601
 100 C     6.0000    0    12.011   -7.629580    5.437498    1.056735
 101 C     6.0000    0    12.011   -8.296843    2.918304    1.174843
 102 H     1.0000    0     1.008   -4.612633    0.673309   -3.559299
 103 H     1.0000    0     1.008   -3.441947    5.159897   -3.772838
 104 H     1.0000    0     1.008   -8.469186    6.759739    2.362158
 105 H     1.0000    0     1.008   -9.669540    2.283923    2.542815
 106 C     6.0000    0    12.011   -4.999082    8.916484   -0.723576
 107 C     6.0000    0    12.011   -6.680182   10.939058   -0.451645
 108 C     6.0000    0    12.011   -5.769523   13.390032   -0.517785
 109 C     6.0000    0    12.011   -3.202141   13.794812   -0.851889
 110 N     7.0000    0    14.007   -1.602677   11.870882   -1.093018
 111 C     6.0000    0    12.011   -2.448140    9.495685   -1.028956
 112 H     1.0000    0     1.008   -8.675733   10.585679   -0.226956
 113 H     1.0000    0     1.008   -7.032427   14.976269   -0.322387
 114 H     1.0000    0     1.008   -2.403543   15.679625   -0.925210
 115 H     1.0000    0     1.008   -1.030090    7.996943   -1.192039
 116 C     6.0000    0    12.011    0.556335    4.466935  -10.673551
 117 C     6.0000    0    12.011    0.525155    6.733094  -10.971183
 118 C     6.0000    0    12.011    0.458448    9.338460  -11.511645
 119 C     6.0000    0    12.011    0.021354   10.131578  -13.964131
 120 C     6.0000    0    12.011   -0.036094   12.701227  -14.578292
 121 C     6.0000    0    12.011    0.334293   14.513664  -12.759809
 122 C     6.0000    0    12.011    0.769119   13.794812  -10.238347
 123 C     6.0000    0    12.011    1.147820   15.573044   -8.280780
 124 C     6.0000    0    12.011    1.536536   14.760840   -5.864765
 125 N     7.0000    0    14.007    1.572630   12.266968   -5.264777
 126 C     6.0000    0    12.011    1.244763   10.550908   -7.034317
 127 C     6.0000    0    12.011    0.834125   11.183588   -9.580534
 128 H     1.0000    0     1.008   -0.269097    8.740550  -15.426968
 129 H     1.0000    0     1.008   -0.375300   13.250382  -16.512994
 130 H     1.0000    0     1.008    0.292530   16.494853  -13.237154
 131 H     1.0000    0     1.008    1.119285   17.562359   -8.722409
 132 H     1.0000    0     1.008    1.834357   16.100089   -4.318402
 133 H     1.0000    0     1.008    1.300887    8.585404   -6.453226
 134 C     6.0000    0    12.011    0.593185    1.848908  -10.175608
 135 C     6.0000    0    12.011   -1.105868    0.224877  -11.380876
 136 C     6.0000    0    12.011   -1.118907   -2.318694  -10.801675
 137 C     6.0000    0    12.011    0.548021   -3.291714   -9.004167
 138 C     6.0000    0    12.011    2.288080   -1.672408   -7.855025
 139 C     6.0000    0    12.011    2.319072    0.866439   -8.432903
 140 H     1.0000    0     1.008   -2.422062    0.972264  -12.747337
 141 H     1.0000    0     1.008   -2.474218   -3.546071  -11.704208
 142 H     1.0000    0     1.008    3.656998   -2.421873   -6.545255
 143 H     1.0000    0     1.008    3.677029    2.107423   -7.559471
 144 C     6.0000    0    12.011    0.452211   -5.968889   -8.272465
 145 C     6.0000    0    12.011    0.106958   -7.916819  -10.026698
 146 C     6.0000    0    12.011    0.039684  -10.397840   -9.201454
 147 C     6.0000    0    12.011    0.314261  -10.906365   -6.645600
 148 N     7.0000    0    14.007    0.625121   -9.052544   -4.976783
 149 C     6.0000    0    12.011    0.691073   -6.649568   -5.739476
 150 H     1.0000    0     1.008   -0.070298   -7.484638  -12.011288
 151 H     1.0000    0     1.008   -0.213917  -11.928329  -10.521617
 152 H     1.0000    0     1.008    0.283081  -12.818768   -5.912386
 153 H     1.0000    0     1.008    0.906313   -5.210164   -4.267946
* core charge reduced due to ECP

--------------------------------
INTERNAL COORDINATES (ANGSTROEM)
--------------------------------
 Pd     0   0   0     0.000000000000     0.00000000     0.00000000
 Pd     1   0   0    11.280437719787     0.00000000     0.00000000
 C      2   1   0     6.287950445893    51.17420898     0.00000000
 C      3   2   1     1.209702484084    58.27865874   182.28948418
 C      4   3   2     1.408641199880   175.69565109   180.36141952
 C      5   4   3     1.383364973534   119.44385472   358.46534470
 C      6   5   4     1.398405960371   121.10496706   179.41867578
 C      7   6   5     1.372697304580   120.88795804     0.18176409
 C      8   7   6     1.406306257541   119.96196129     0.23260546
 C      9   8   7     1.413773903423   122.56916127   179.57565698
 C     10   9   8     1.364385275500   119.88940885   180.62097443
 N     11  10   9     1.357495558004   121.83971454     0.00000000
 C     12  11  10     1.315891853459   120.16927451   359.59885332
 C     13  12  11     1.405173708123   122.56809478     0.34127947
 H      6   5   4     1.079321166289   119.32783233   359.77040546
 H      7   6   5     1.079310803244   119.07107070   180.24658831
 H      8   7   6     1.078617188812   120.79341646   180.09002017
 H     10   9   8     1.078483755093   119.27191871     0.44609592
 H     11  10   9     1.093956361104   121.23857466   179.98608756
 H     13  12  11     1.084966552480   117.14570835   180.29060529
 C      3   2   1     1.410342883841   118.46486295     1.85822321
 C     21   3   2     1.397762733800   120.66841776   221.68405186
 C     22  21   3     1.380424898356   120.09448010   177.45991020
 C     23  22  21     1.395707895657   120.51832443   359.66204917
 C     24  23  22     1.397129593130   119.13849403     2.03054271
 C     25  24  23     1.377928071417   120.61541351   358.26354035
 H     22  21   3     1.079193944572   119.70319236   358.21972741
 H     23  22  21     1.079067843094   119.46725458   181.74328621
 H     25  24  23     1.078185280923   119.80135645   176.40562951
 H     26  25  24     1.077644890490   120.46827616   179.28514457
 C     24  23  22     1.469636400611   120.88891025   183.41734037
 C     31  24  23     1.399101086412   122.68202230   318.40183817
 C     32  31  24     1.384009486962   119.53167724   180.12180370
 C     33  32  31     1.386776542922   119.28187400   359.97505202
 N     34  33  32     1.330107818938   121.15776590   359.56781822
 C     35  34  33     1.334628191670   120.33952209     0.30891377
 H     32  31  24     1.078980486385   120.06310174   358.99910599
 H     33  32  31     1.077915423398   120.76352776   179.66706655
 H     34  33  32     1.084004308110   121.91346083   179.69591604
 H     36  35  34     1.095263867751   116.75563109   181.43826902
 C     29  25  24     4.236797965445   153.69922177   200.77140242
 C     41  29  25     1.209720058526    91.13545188   147.45016054
 C     42  41  29     1.408416202690   175.71645948   218.71275880
 C     43  42  41     1.383466681926   119.45289429     1.60245673
 C     44  43  42     1.398408652719   121.10823536   180.57473832
 C     45  44  43     1.372703194431   120.89010835   359.83401281
 C     46  45  44     1.406365087735   119.96137246   359.75833492
 C     47  46  45     1.413797298059   122.56696660   180.39057145
 C     48  47  46     1.364439236463   119.88706342   179.35873846
 N     49  48  47     1.357506526688   121.83727025     0.00000000
 C     50  49  48     1.315971006520   120.17463884     0.47661579
 C     51  50  49     1.405221185437   122.56147243   359.62374279
 H     44  43  42     1.079247001386   119.31964708     0.21266824
 H     45  44  43     1.079269558544   119.06595085   179.76705615
 H     46  45  44     1.078592740565   120.79831246   179.89172246
 H     48  47  46     1.078360028005   119.27450170   359.52664448
 H     49  48  47     1.093978697233   121.24013389   179.98825905
 H     51  50  49     1.084914139460   117.15208853   179.68784386
 C     41  29  25     1.410330447094    86.02723154   325.80306716
 C     59  41  29     1.398169878806   119.84357190   281.71475377
 C     60  59  41     1.377837207365   120.07949187   177.09597958
 C     61  60  59     1.397170977368   120.61562145     0.26206012
 C     62  61  60     1.395789819421   119.13185401     1.73980663
 C     63  62  61     1.380333966836   120.52395160   357.96036552
 H     60  59  41     1.077672607984   119.46175592   356.66501242
 H     61  60  59     1.078242746324   119.56274996   178.42439980
 H     63  62  61     1.078993721020   119.96924619   180.04709207
 H     64  63  62     1.079058765777   120.20064905   181.11807705
 C     62  61  60     1.469571396700   119.96262016   183.13284044
 C     69  62  61     1.399067907573   122.67562415   220.17841774
 C     70  69  62     1.384140560059   119.52993162   179.91987926
 C     71  70  69     1.386700155044   119.27607145     0.04359185
 N     72  71  70     1.330125377549   121.16622344     0.41697545
 C     73  72  71     1.334652726367   120.33535993   359.67154724
 H     70  69  62     1.078900185374   120.07033042     1.03457305
 H     71  70  69     1.077885007781   120.76385163   180.34393981
 H     72  71  70     1.084033417382   121.91515927   180.29897237
 H     74  73  72     1.095208121774   116.76188914   178.57194516
 C     66  61  60     4.246081658423   154.05939652   338.75460834
 C     79  66  61     1.209643244928    91.82941199   213.65910644
 C     80  79  66     1.408658773444   175.69652639   141.93338386
 C     81  80  79     1.383358380898   119.44305301   358.53160667
 C     82  81  80     1.398467933133   121.10347638   179.43120203
 C     83  82  81     1.372691727956   120.88974996     0.18666052
 C     84  83  82     1.406383493219   119.96219208     0.22287699
 C     85  84  83     1.413737129031   122.57190474   179.58007156
 C     86  85  84     1.364334786627   119.89284280   180.60743837
 N     87  86  85     1.357576992292   121.83852219     0.00000000
 C     88  87  86     1.315870031576   120.16955144   359.60659613
 C     89  88  87     1.405302618655   122.56859201     0.34158097
 H     82  81  80     1.079309455161   119.32852825   359.79333141
 H     83  82  81     1.079230156176   119.06984541   180.25027150
 H     84  83  82     1.078560860592   120.79480465   180.08299543
 H     86  85  84     1.078453670771   119.26951605     0.42926432
 H     87  86  85     1.093969126621   121.23923967   179.99440493
 H     89  88  87     1.084981774040   117.15159640   180.27929399
 C     79  66  61     1.410336165600    85.38811527    35.39875519
 C     97  79  66     1.398146412219   119.81945073    79.13792863
 C     98  97  79     1.377951922238   120.07641525   182.81603166
 C     99  98  97     1.397168597557   120.61397628   359.75796515
 C    100  99  98     1.395711843469   119.13699061   358.26755406
 C    101 100  99     1.380485954293   120.52210323     2.02141419
 H     98  97  79     1.077721230189   119.45723913     3.28713029
 H     99  98  97     1.078162316166   119.55689858   181.60404768
 H    101 100  99     1.078975078489   119.97902503   179.94252848
 H    102 101 100     1.079065642118   120.19738149   178.90463069
 C    100  99  98     1.469621822103   119.94874398   176.88935810
 C    107 100  99     1.399155981297   122.67166912   139.80547128
 C    108 107 100     1.384074279076   119.52884803   180.12290067
 C    109 108 107     1.386698900266   119.28103046   359.96927566
 N    110 109 108     1.330113653039   121.16071051   359.56701280
 C    111 110 109     1.334583672911   120.33865100     0.31258765
 H    108 107 100     1.079000560704   120.06734258   358.99439559
 H    109 108 107     1.077918739980   120.75986966   179.66216618
 H    110 109 108     1.083929407296   121.91617546   179.69579910
 H    112 111 110     1.095242192394   116.76261699   181.43997835
 C    104  99  98     4.236270933262   153.68059805    18.88242832
 C    117 104  99     1.209611152396    91.12363166   147.49194810
 C    118 117 104     1.408494153342   175.71348896   218.81077726
 C    119 118 117     1.383449536485   119.44761809     1.50950359
 C    120 119 118     1.398429547743   121.10726036   180.57595404
 C    121 120 119     1.372701752020   120.88854914   359.83882695
 C    122 121 120     1.406416247062   119.96436066   359.75447621
 C    123 122 121     1.413764467654   122.56911153   180.39572169
 C    124 123 122     1.364405650824   119.88703502   179.35017823
 N    125 124 123     1.357490018380   121.83820832     0.00000000
 C    126 125 124     1.315900003800   120.17193140     0.46678954
 C    127 126 125     1.405274738263   122.56615323   359.63166489
 H    120 119 118     1.079211615023   119.32515567     0.22264179
 H    121 120 119     1.079275242929   119.07082412   179.76984547
 H    122 121 120     1.078627706857   120.79836519   179.89611170
 H    124 123 122     1.078434508906   119.27142104   359.52949864
 H    125 124 123     1.093941652923   121.23675179   179.98780512
 H    127 126 125     1.085009838665   117.14545026   179.68424124
 C    117 104  99     1.410370752675    86.03687720   325.83564363
 C    135 117 104     1.397761785856   120.65116715   100.78023223
 C    136 135 117     1.380473056601   120.09207785   182.61535483
 C    137 136 135     1.395709088600   120.52132630     0.33445549
 C    138 137 136     1.397116981502   119.13719012   357.95898726
 C    139 138 137     1.377960394932   120.61373048     1.74284162
 H    136 135 117     1.079076507946   119.70994215     1.83451768
 H    137 136 135     1.079040244847   119.46836430   178.26018243
 H    139 138 137     1.078162571229   119.80235177   183.57591050
 H    140 139 138     1.077622239006   120.45820431   180.69366386
 C    138 137 136     1.469535035309   120.89171824   176.55732673
 C    145 138 137     1.399167188009   122.67873503    41.60357583
 C    146 145 138     1.384081160915   119.52871472   179.90566333
 C    147 146 145     1.386644565128   119.28386564     0.05429626
 N    148 147 146     1.330145428139   121.15782085     0.40998732
 C    149 148 147     1.334570166758   120.34254994   359.67709447
 H    146 145 138     1.078898591157   120.06638533     1.03539016
 H    147 146 145     1.077956218963   120.75795945   180.34319658
 H    148 147 146     1.083955833971   121.91914996   180.29192752
 H    150 149 148     1.095232299560   116.76653556   178.57434591

---------------------------
INTERNAL COORDINATES (A.U.)
---------------------------
 Pd     0   0   0     0.000000000000     0.00000000     0.00000000
 Pd     1   0   0    21.316937961153     0.00000000     0.00000000
 C      2   1   0    11.882504286405    51.17420898     0.00000000
 C      3   2   1     2.286006398444    58.27865874   182.28948418
 C      4   3   2     2.661946088732   175.69565109   180.36141952
 C      5   4   3     2.614180943238   119.44385472   358.46534470
 C      6   5   4     2.642604289144   121.10496706   179.41867578
 C      7   6   5     2.594021970427   120.88795804     0.18176409
 C      8   7   6     2.657533687173   119.96196129     0.23260546
 C      9   8   7     2.671645492754   122.56916127   179.57565698
 C     10   9   8     2.578314511849   119.88940885   180.62097443
 N     11  10   9     2.565294832642   121.83971454     0.00000000
 C     12  11  10     2.486675224896   120.16927451   359.59885332
 C     13  12  11     2.655393478939   122.56809478     0.34127947
 H      6   5   4     2.039621414831   119.32783233   359.77040546
 H      7   6   5     2.039601831514   119.07107070   180.24658831
 H      8   7   6     2.038291090194   120.79341646   180.09002017
 H     10   9   8     2.038038937009   119.27191871     0.44609592
 H     11  10   9     2.067277924948   121.23857466   179.98608756
 H     13  12  11     2.050289648652   117.14570835   180.29060529
 C      3   2   1     2.665161805384   118.46486295     1.85822321
 C     21   3   2     2.641388767083   120.66841776   221.68405186
 C     22  21   3     2.608625006338   120.09448010   177.45991020
 C     23  22  21     2.637505685744   120.51832443   359.66204917
 C     24  23  22     2.640192304613   119.13849403     2.03054271
 C     25  24  23     2.603906687221   120.61541351   358.26354035
 H     22  21   3     2.039381000627   119.70319236   358.21972741
 H     23  22  21     2.039142703369   119.46725458   181.74328621
 H     25  24  23     2.037474902570   119.80135645   176.40562951
 H     26  25  24     2.036453712646   120.46827616   179.28514457
 C     24  23  22     2.777210313596   120.88891025   183.41734037
 C     31  24  23     2.643917886991   122.68202230   318.40183817
 C     32  31  24     2.615398897106   119.53167724   180.12180370
 C     33  32  31     2.620627875070   119.28187400   359.97505202
 N     34  33  32     2.513539506380   121.15776590   359.56781822
 C     35  34  33     2.522081772867   120.33952209     0.30891377
 H     32  31  24     2.038977623113   120.06310174   358.99910599
 H     33  32  31     2.036964945753   120.76352776   179.66706655
 H     34  33  32     2.048471270318   121.91346083   179.69591604
 H     36  35  34     2.069748754428   116.75563109   181.43826902
 C     29  25  24     8.006387839446   153.69922177   200.77140242
 C     41  29  25     2.286039609325    91.13545188   147.45016054
 C     42  41  29     2.661520905662   175.71645948   218.71275880
 C     43  42  41     2.614373144245   119.45289429     1.60245673
 C     44  43  42     2.642609376945   121.10823536   180.57473832
 C     45  44  43     2.594033100633   120.89010835   359.83401281
 C     46  45  44     2.657644860127   119.96137246   359.75833492
 C     47  46  45     2.671689702210   122.56696660   180.39057145
 C     48  47  46     2.578416483292   119.88706342   179.35873846
 N     49  48  47     2.565315560451   121.83727025     0.00000000
 C     50  49  48     2.486824802503   120.17463884     0.47661579
 C     51  50  49     2.655483198059   122.56147243   359.62374279
 H     44  43  42     2.039481263475   119.31964708     0.21266824
 H     45  44  43     2.039523890326   119.06595085   179.76705615
 H     46  45  44     2.038244889704   120.79831246   179.89172246
 H     48  47  46     2.037805126698   119.27450170   359.52664448
 H     49  48  47     2.067320134115   121.24013389   179.98825905
 H     51  50  49     2.050190602398   117.15208853   179.68784386
 C     41  29  25     2.665138303338    86.02723154   325.80306716
 C     59  41  29     2.642158159641   119.84357190   281.71475377
 C     60  59  41     2.603734979047   120.07949187   177.09597958
 C     61  60  59     2.640270509489   120.61562145     0.26206012
 C     62  61  60     2.637660499222   119.13185401     1.73980663
 C     63  62  61     2.608453170668   120.52395160   357.96036552
 H     60  59  41     2.036506091119   119.46175592   356.66501242
 H     61  60  59     2.037583496439   119.56274996   178.42439980
 H     63  62  61     2.039002632948   119.96924619   180.04709207
 H     64  63  62     2.039125549725   120.20064905   181.11807705
 C     62  61  60     2.777087474008   119.96262016   183.13284044
 C     69  62  61     2.643855188071   122.67562415   220.17841774
 C     70  69  62     2.615646589364   119.52993162   179.91987926
 C     71  70  69     2.620483522900   119.27607145     0.04359185
 N     72  71  70     2.513572687346   121.16622344     0.41697545
 C     73  72  71     2.522128136726   120.33535993   359.67154724
 H     70  69  62     2.038825876194   120.07033042     1.03457305
 H     71  70  69     2.036907468567   120.76385163   180.34393981
 H     72  71  70     2.048526278870   121.91515927   180.29897237
 H     74  73  72     2.069643409799   116.76188914   178.57194516
 C     66  61  60     8.023931476686   154.05939652   338.75460834
 C     79  66  61     2.285894452662    91.82941199   213.65910644
 C     80  79  66     2.661979297954   175.69652639   141.93338386
 C     81  80  79     2.614168484961   119.44305301   358.53160667
 C     82  81  80     2.642721400691   121.10347638   179.43120203
 C     83  82  81     2.594011432137   120.88974996     0.18666052
 C     84  83  82     2.657679641452   119.96219208     0.22287699
 C     85  84  83     2.671575999224   122.57190474   179.58007156
 C     86  85  84     2.578219101707   119.89284280   180.60743837
 N     87  86  85     2.565448721144   121.83852219     0.00000000
 C     88  87  86     2.486633987513   120.16955144   359.60659613
 C     89  88  87     2.655637084541   122.56859201     0.34158097
 H     82  81  80     2.039599284006   119.32852825   359.79333141
 H     83  82  81     2.039449430642   119.06984541   180.25027150
 H     84  83  82     2.038184645284   120.79480465   180.08299543
 H     86  85  84     2.037982085880   119.26951605     0.42926432
 H     87  86  85     2.067302048279   121.23923967   179.99440493
 H     89  88  87     2.050318413233   117.15159640   180.27929399
 C     79  66  61     2.665149109749    85.38811527    35.39875519
 C     97  79  66     2.642113814218   119.81945073    79.13792863
 C     98  97  79     2.603951758741   120.07641525   182.81603166
 C     99  98  97     2.640266012298   120.61397628   359.75796515
 C    100  99  98     2.637513146027   119.13699061   358.26755406
 C    101 100  99     2.608740385339   120.52210323     2.02141419
 H     98  97  79     2.036597973770   119.45723913     3.28713029
 H     99  98  97     2.037431505468   119.55689858   181.60404768
 H    101 100  99     2.038967403670   119.97902503   179.94252848
 H    102 101 100     2.039138544127   120.19738149   178.90463069
 C    100  99  98     2.777182764208   119.94874398   176.88935810
 C    107 100  99     2.644021623290   122.67166912   139.80547128
 C    108 107 100     2.615521336458   119.52884803   180.12290067
 C    109 108 107     2.620481151713   119.28103046   359.96927566
 N    110 109 108     2.513550531233   121.16071051   359.56701280
 C    111 110 109     2.521997644604   120.33865100     0.31258765
 H    108 107 100     2.039015558078   120.06734258   358.99439559
 H    109 108 107     2.036971213184   120.75986966   179.66216618
 H    110 109 108     2.048329728292   121.91617546   179.69579910
 H    112 111 110     2.069707793940   116.76261699   181.43997835
 C    104  99  98     8.005391892956   153.68059805    18.88242832
 C    117 104  99     2.285833806565    91.12363166   147.49194810
 C    118 117 104     2.661668211047   175.71348896   218.81077726
 C    119 118 117     2.614340744057   119.44761809     1.50950359
 C    120 119 118     2.642648862817   121.10726036   180.57595404
 C    121 120 119     2.594030374873   120.88854914   359.83882695
 C    122 121 120     2.657741537245   119.96436066   359.75447621
 C    123 122 121     2.671627661734   122.56911153   180.39572169
 C    124 123 122     2.578353015632   119.88703502   179.35017823
 N    125 124 123     2.565284364269   121.83820832     0.00000000
 C    126 125 124     2.486690626807   120.17193140     0.46678954
 C    127 126 125     2.655584398235   122.56615323   359.63166489
 H    120 119 118     2.039414392940   119.32515567     0.22264179
 H    121 120 119     2.039534632258   119.07082412   179.76984547
 H    122 121 120     2.038310966420   120.79836519   179.89611170
 H    124 123 122     2.037945875203   119.27142104   359.52949864
 H    125 124 123     2.067250130514   121.23675179   179.98780512
 H    127 126 125     2.050371447687   117.14545026   179.68424124
 C    117 104  99     2.665214469847    86.03687720   325.83564363
 C    135 117 104     2.641386975729   120.65116715   100.78023223
 C    136 135 117     2.608716012232   120.09207785   182.61535483
 C    137 136 135     2.637507940078   120.52132630     0.33445549
 C    138 137 136     2.640168472089   119.13719012   357.95898726
 C    139 138 137     2.603967769811   120.61373048     1.74284162
 H    136 135 117     2.039159077565   119.70994215     1.83451768
 H    137 136 135     2.039090550241   119.46836430   178.26018243
 H    139 138 137     2.037431987468   119.80235177   183.57591050
 H    140 139 138     2.036410907544   120.45820431   180.69366386
 C    138 137 136     2.777018760936   120.89171824   176.55732673
 C    145 138 137     2.644042800905   122.67873503    41.60357583
 C    146 145 138     2.615534341249   119.52871472   179.90566333
 C    147 146 145     2.620378473183   119.28386564     0.05429626
 N    148 147 146     2.513610577471   121.15782085     0.40998732
 C    149 148 147     2.521972121674   120.34254994   359.67709447
 H    146 145 138     2.038822863560   120.06638533     1.03539016
 H    147 146 145     2.037042038196   120.75795945   180.34319658
 H    148 147 146     2.048379667472   121.91914996   180.29192752
 H    150 149 148     2.069689099194   116.76653556   178.57434591

---------------------
BASIS SET INFORMATION
---------------------
There are 4 groups of distinct atoms

 Group   1 Type Pd  : 7s7p6d contracted to 6s4p3d pattern {211111/4111/411}
 Group   2 Type C   : 11s6p1d contracted to 5s3p1d pattern {62111/411/1}
 Group   3 Type N   : 11s6p1d contracted to 5s3p1d pattern {62111/411/1}
 Group   4 Type H   : 5s contracted to 3s pattern {311}

Atom   0Pd   basis set group =>   1
Atom   1Pd   basis set group =>   1
Atom   2C    basis set group =>   2
Atom   3C    basis set group =>   2
Atom   4C    basis set group =>   2
Atom   5C    basis set group =>   2
Atom   6C    basis set group =>   2
Atom   7C    basis set group =>   2
Atom   8C    basis set group =>   2
Atom   9C    basis set group =>   2
Atom  10C    basis set group =>   2
Atom  11N    basis set group =>   3
Atom  12C    basis set group =>   2
Atom  13C    basis set group =>   2
Atom  14H    basis set group =>   4
Atom  15H    basis set group =>   4
Atom  16H    basis set group =>   4
Atom  17H    basis set group =>   4
Atom  18H    basis set group =>   4
Atom  19H    basis set group =>   4
Atom  20C    basis set group =>   2
Atom  21C    basis set group =>   2
Atom  22C    basis set group =>   2
Atom  23C    basis set group =>   2
Atom  24C    basis set group =>   2
Atom  25C    basis set group =>   2
Atom  26H    basis set group =>   4
Atom  27H    basis set group =>   4
Atom  28H    basis set group =>   4
Atom  29H    basis set group =>   4
Atom  30C    basis set group =>   2
Atom  31C    basis set group =>   2
Atom  32C    basis set group =>   2
Atom  33C    basis set group =>   2
Atom  34N    basis set group =>   3
Atom  35C    basis set group =>   2
Atom  36H    basis set group =>   4
Atom  37H    basis set group =>   4
Atom  38H    basis set group =>   4
Atom  39H    basis set group =>   4
Atom  40C    basis set group =>   2
Atom  41C    basis set group =>   2
Atom  42C    basis set group =>   2
Atom  43C    basis set group =>   2
Atom  44C    basis set group =>   2
Atom  45C    basis set group =>   2
Atom  46C    basis set group =>   2
Atom  47C    basis set group =>   2
Atom  48C    basis set group =>   2
Atom  49N    basis set group =>   3
Atom  50C    basis set group =>   2
Atom  51C    basis set group =>   2
Atom  52H    basis set group =>   4
Atom  53H    basis set group =>   4
Atom  54H    basis set group =>   4
Atom  55H    basis set group =>   4
Atom  56H    basis set group =>   4
Atom  57H    basis set group =>   4
Atom  58C    basis set group =>   2
Atom  59C    basis set group =>   2
Atom  60C    basis set group =>   2
Atom  61C    basis set group =>   2
Atom  62C    basis set group =>   2
Atom  63C    basis set group =>   2
Atom  64H    basis set group =>   4
Atom  65H    basis set group =>   4
Atom  66H    basis set group =>   4
Atom  67H    basis set group =>   4
Atom  68C    basis set group =>   2
Atom  69C    basis set group =>   2
Atom  70C    basis set group =>   2
Atom  71C    basis set group =>   2
Atom  72N    basis set group =>   3
Atom  73C    basis set group =>   2
Atom  74H    basis set group =>   4
Atom  75H    basis set group =>   4
Atom  76H    basis set group =>   4
Atom  77H    basis set group =>   4
Atom  78C    basis set group =>   2
Atom  79C    basis set group =>   2
Atom  80C    basis set group =>   2
Atom  81C    basis set group =>   2
Atom  82C    basis set group =>   2
Atom  83C    basis set group =>   2
Atom  84C    basis set group =>   2
Atom  85C    basis set group =>   2
Atom  86C    basis set group =>   2
Atom  87N    basis set group =>   3
Atom  88C    basis set group =>   2
Atom  89C    basis set group =>   2
Atom  90H    basis set group =>   4
Atom  91H    basis set group =>   4
Atom  92H    basis set group =>   4
Atom  93H    basis set group =>   4
Atom  94H    basis set group =>   4
Atom  95H    basis set group =>   4
Atom  96C    basis set group =>   2
Atom  97C    basis set group =>   2
Atom  98C    basis set group =>   2
Atom  99C    basis set group =>   2
Atom 100C    basis set group =>   2
Atom 101C    basis set group =>   2
Atom 102H    basis set group =>   4
Atom 103H    basis set group =>   4
Atom 104H    basis set group =>   4
Atom 105H    basis set group =>   4
Atom 106C    basis set group =>   2
Atom 107C    basis set group =>   2
Atom 108C    basis set group =>   2
Atom 109C    basis set group =>   2
Atom 110N    basis set group =>   3
Atom 111C    basis set group =>   2
Atom 112H    basis set group =>   4
Atom 113H    basis set group =>   4
Atom 114H    basis set group =>   4
Atom 115H    basis set group =>   4
Atom 116C    basis set group =>   2
Atom 117C    basis set group =>   2
Atom 118C    basis set group =>   2
Atom 119C    basis set group =>   2
Atom 120C    basis set group =>   2
Atom 121C    basis set group =>   2
Atom 122C    basis set group =>   2
Atom 123C    basis set group =>   2
Atom 124C    basis set group =>   2
Atom 125N    basis set group =>   3
Atom 126C    basis set group =>   2
Atom 127C    basis set group =>   2
Atom 128H    basis set group =>   4
Atom 129H    basis set group =>   4
Atom 130H    basis set group =>   4
Atom 131H    basis set group =>   4
Atom 132H    basis set group =>   4
Atom 133H    basis set group =>   4
Atom 134C    basis set group =>   2
Atom 135C    basis set group =>   2
Atom 136C    basis set group =>   2
Atom 137C    basis set group =>   2
Atom 138C    basis set group =>   2
Atom 139C    basis set group =>   2
Atom 140H    basis set group =>   4
Atom 141H    basis set group =>   4
Atom 142H    basis set group =>   4
Atom 143H    basis set group =>   4
Atom 144C    basis set group =>   2
Atom 145C    basis set group =>   2
Atom 146C    basis set group =>   2
Atom 147C    basis set group =>   2
Atom 148N    basis set group =>   3
Atom 149C    basis set group =>   2
Atom 150H    basis set group =>   4
Atom 151H    basis set group =>   4
Atom 152H    basis set group =>   4
Atom 153H    basis set group =>   4

-------------------------
BASIS SET IN INPUT FORMAT
-------------------------

 # Basis set for element : H 
 NewGTO H 
 S 3 
   1      34.0613410000      0.0254393072
   2       5.1235746000      0.1900859489
   3       1.1646626000      0.8524411301
 S 1 
   1       0.3272304100      1.0000000000
 S 1 
   1       0.1030724100      1.0000000000
  end;

 # Basis set for element : C 
 NewGTO C 
 S 6 
   1   13575.3496820000      0.0006064549
   2    2035.2333680000      0.0046979088
   3     463.2256235900      0.0243324776
   4     131.2001959800      0.0973999683
   5      42.8530158910      0.3019558425
   6      15.5841857660      0.6623360915
 S 2 
   1       6.2067138508      0.6559530854
   2       2.5764896527      0.3758563329
 S 1 
   1       0.5769633942      1.0000000000
 S 1 
   1       0.2297283136      1.0000000000
 S 1 
   1       0.0951644400      1.0000000000
 P 4 
   1      34.6972322440      0.0113272200
   2       7.9582622826      0.0761696592
   3       2.3780826883      0.3019225220
   4       0.8143320818      0.7278502735
 P 1 
   1       0.2888754725      1.0000000000
 P 1 
   1       0.1005682367      1.0000000000
 D 1 
   1       0.8000000000      1.0000000000
  end;

 # Basis set for element : N 
 NewGTO N 
 S 6 
   1   19730.8006470000      0.0005862639
   2    2957.8958745000      0.0045428821
   3     673.2213359500      0.0235584136
   4     190.6824949400      0.0947091933
   5      62.2954418980      0.2971978492
   6      22.6541611820      0.6691624689
 S 2 
   1       8.9791477428      0.6459668363
   2       3.6863002370      0.3870057440
 S 1 
   1       0.8466007680      1.0000000000
 S 1 
   1       0.3364713377      1.0000000000
 S 1 
   1       0.1364765367      1.0000000000
 P 4 
   1      49.2003805100      0.0114488252
   2      11.3467905370      0.0784223379
   3       3.4273972411      0.3081809474
   4       1.1785525134      0.7202719637
 P 1 
   1       0.4164220497      1.0000000000
 P 1 
   1       0.1426082601      1.0000000000
 D 1 
   1       0.8000000000      1.0000000000
  end;

 # Basis set for element : Pd
 NewGTO Pd
 S 2 
   1      18.0000000000     -0.8955869481
   2      14.6621343080      1.8822771923
 S 1 
   1       5.6388709265      1.0000000000
 S 1 
   1       1.3198953252      1.0000000000
 S 1 
   1       0.5781790851      1.0000000000
 S 1 
   1       0.1035216624      1.0000000000
 S 1 
   1       0.0375484427      1.0000000000
 P 4 
   1      12.5528993000      0.0701895210
   2       7.2444496380     -0.2749252830
   3       1.8905941078      0.5623121361
   4       0.9073716876      0.5736959368
 P 1 
   1       0.4087721081      1.0000000000
 P 1 
   1       0.1150000000      1.0000000000
 P 1 
   1       0.0370000000      1.0000000000
 D 4 
   1      22.3574575750      0.0063445039
   2      10.6825263820     -0.0225156052
   3       2.4858232550      0.3884291800
   4       1.0735333903      0.6828976806
 D 1 
   1       0.4261384285      1.0000000000
 D 1 
   1       0.1504635538      1.0000000000
  end;

---------------------------------
AUXILIARY/J BASIS SET INFORMATION
---------------------------------
There are 4 groups of distinct atoms

 Group   1 Type Pd  : 11s5p5d3f3g contracted to 8s5p5d2f3g pattern {41111111/11111/11111/21/111}
 Group   2 Type C   : 8s3p3d contracted to 6s3p3d pattern {311111/111/111}
 Group   3 Type N   : 8s3p3d contracted to 6s3p3d pattern {311111/111/111}
 Group   4 Type H   : 5s2p contracted to 3s1p pattern {311/2}

Atom   0Pd   basis set group =>   1
Atom   1Pd   basis set group =>   1
Atom   2C    basis set group =>   2
Atom   3C    basis set group =>   2
Atom   4C    basis set group =>   2
Atom   5C    basis set group =>   2
Atom   6C    basis set group =>   2
Atom   7C    basis set group =>   2
Atom   8C    basis set group =>   2
Atom   9C    basis set group =>   2
Atom  10C    basis set group =>   2
Atom  11N    basis set group =>   3
Atom  12C    basis set group =>   2
Atom  13C    basis set group =>   2
Atom  14H    basis set group =>   4
Atom  15H    basis set group =>   4
Atom  16H    basis set group =>   4
Atom  17H    basis set group =>   4
Atom  18H    basis set group =>   4
Atom  19H    basis set group =>   4
Atom  20C    basis set group =>   2
Atom  21C    basis set group =>   2
Atom  22C    basis set group =>   2
Atom  23C    basis set group =>   2
Atom  24C    basis set group =>   2
Atom  25C    basis set group =>   2
Atom  26H    basis set group =>   4
Atom  27H    basis set group =>   4
Atom  28H    basis set group =>   4
Atom  29H    basis set group =>   4
Atom  30C    basis set group =>   2
Atom  31C    basis set group =>   2
Atom  32C    basis set group =>   2
Atom  33C    basis set group =>   2
Atom  34N    basis set group =>   3
Atom  35C    basis set group =>   2
Atom  36H    basis set group =>   4
Atom  37H    basis set group =>   4
Atom  38H    basis set group =>   4
Atom  39H    basis set group =>   4
Atom  40C    basis set group =>   2
Atom  41C    basis set group =>   2
Atom  42C    basis set group =>   2
Atom  43C    basis set group =>   2
Atom  44C    basis set group =>   2
Atom  45C    basis set group =>   2
Atom  46C    basis set group =>   2
Atom  47C    basis set group =>   2
Atom  48C    basis set group =>   2
Atom  49N    basis set group =>   3
Atom  50C    basis set group =>   2
Atom  51C    basis set group =>   2
Atom  52H    basis set group =>   4
Atom  53H    basis set group =>   4
Atom  54H    basis set group =>   4
Atom  55H    basis set group =>   4
Atom  56H    basis set group =>   4
Atom  57H    basis set group =>   4
Atom  58C    basis set group =>   2
Atom  59C    basis set group =>   2
Atom  60C    basis set group =>   2
Atom  61C    basis set group =>   2
Atom  62C    basis set group =>   2
Atom  63C    basis set group =>   2
Atom  64H    basis set group =>   4
Atom  65H    basis set group =>   4
Atom  66H    basis set group =>   4
Atom  67H    basis set group =>   4
Atom  68C    basis set group =>   2
Atom  69C    basis set group =>   2
Atom  70C    basis set group =>   2
Atom  71C    basis set group =>   2
Atom  72N    basis set group =>   3
Atom  73C    basis set group =>   2
Atom  74H    basis set group =>   4
Atom  75H    basis set group =>   4
Atom  76H    basis set group =>   4
Atom  77H    basis set group =>   4
Atom  78C    basis set group =>   2
Atom  79C    basis set group =>   2
Atom  80C    basis set group =>   2
Atom  81C    basis set group =>   2
Atom  82C    basis set group =>   2
Atom  83C    basis set group =>   2
Atom  84C    basis set group =>   2
Atom  85C    basis set group =>   2
Atom  86C    basis set group =>   2
Atom  87N    basis set group =>   3
Atom  88C    basis set group =>   2
Atom  89C    basis set group =>   2
Atom  90H    basis set group =>   4
Atom  91H    basis set group =>   4
Atom  92H    basis set group =>   4
Atom  93H    basis set group =>   4
Atom  94H    basis set group =>   4
Atom  95H    basis set group =>   4
Atom  96C    basis set group =>   2
Atom  97C    basis set group =>   2
Atom  98C    basis set group =>   2
Atom  99C    basis set group =>   2
Atom 100C    basis set group =>   2
Atom 101C    basis set group =>   2
Atom 102H    basis set group =>   4
Atom 103H    basis set group =>   4
Atom 104H    basis set group =>   4
Atom 105H    basis set group =>   4
Atom 106C    basis set group =>   2
Atom 107C    basis set group =>   2
Atom 108C    basis set group =>   2
Atom 109C    basis set group =>   2
Atom 110N    basis set group =>   3
Atom 111C    basis set group =>   2
Atom 112H    basis set group =>   4
Atom 113H    basis set group =>   4
Atom 114H    basis set group =>   4
Atom 115H    basis set group =>   4
Atom 116C    basis set group =>   2
Atom 117C    basis set group =>   2
Atom 118C    basis set group =>   2
Atom 119C    basis set group =>   2
Atom 120C    basis set group =>   2
Atom 121C    basis set group =>   2
Atom 122C    basis set group =>   2
Atom 123C    basis set group =>   2
Atom 124C    basis set group =>   2
Atom 125N    basis set group =>   3
Atom 126C    basis set group =>   2
Atom 127C    basis set group =>   2
Atom 128H    basis set group =>   4
Atom 129H    basis set group =>   4
Atom 130H    basis set group =>   4
Atom 131H    basis set group =>   4
Atom 132H    basis set group =>   4
Atom 133H    basis set group =>   4
Atom 134C    basis set group =>   2
Atom 135C    basis set group =>   2
Atom 136C    basis set group =>   2
Atom 137C    basis set group =>   2
Atom 138C    basis set group =>   2
Atom 139C    basis set group =>   2
Atom 140H    basis set group =>   4
Atom 141H    basis set group =>   4
Atom 142H    basis set group =>   4
Atom 143H    basis set group =>   4
Atom 144C    basis set group =>   2
Atom 145C    basis set group =>   2
Atom 146C    basis set group =>   2
Atom 147C    basis set group =>   2
Atom 148N    basis set group =>   3
Atom 149C    basis set group =>   2
Atom 150H    basis set group =>   4
Atom 151H    basis set group =>   4
Atom 152H    basis set group =>   4
Atom 153H    basis set group =>   4

-------------------------------------
AUXILIARY/J BASIS SET IN INPUT FORMAT
-------------------------------------

 # Auxiliary/J basis set for element : H 
 NewAuxJGTO H 
 S 3 
   1      15.6752927000      0.1007184237
   2       3.6063578000      0.3404257499
   3       1.2080016000      0.6491996172
 S 1 
   1       0.4726794000      1.0000000000
 S 1 
   1       0.2018100000      1.0000000000
 P 2 
   1       2.0281365000      0.5596620919
   2       0.5358730000      0.5596620919
  end;

 # Auxiliary/J basis set for element : C 
 NewAuxJGTO C 
 S 3 
   1     459.7023860000      0.1098751775
   2     132.9577920000      0.2844848472
   3      41.5658170000      0.6964707648
 S 1 
   1      13.9155610000      1.0000000000
 S 1 
   1       4.9305290000     -1.0000000000
 S 1 
   1       1.8229480000      1.0000000000
 S 1 
   1       0.6920510000      1.0000000000
 S 1 
   1       0.2650930000      1.0000000000
 P 1 
   1       0.3278473579      1.0000000000
 P 1 
   1       0.7868336591      1.0000000000
 P 1 
   1       1.9710183160      1.0000000000
 D 1 
   1       4.0133010000      1.0000000000
 D 1 
   1       1.2475050000      1.0000000000
 D 1 
   1       0.4081480000      1.0000000000
  end;

 # Auxiliary/J basis set for element : N 
 NewAuxJGTO N 
 S 3 
   1     680.5425300000      0.1043830093
   2     196.7562140000      0.2751518961
   3      61.2707930000      0.7090825511
 S 1 
   1      20.3644630000      1.0000000000
 S 1 
   1       7.1424770000     -1.0000000000
 S 1 
   1       2.6080260000      1.0000000000
 S 1 
   1       0.9763730000      1.0000000000
 S 1 
   1       0.3686330000      1.0000000000
 P 1 
   1       0.4707391941      1.0000000000
 P 1 
   1       1.1297740658     -1.0000000000
 P 1 
   1       2.8300840347      1.0000000000
 D 1 
   1       5.8329865000      1.0000000000
 D 1 
   1       1.7326865000      1.0000000000
 D 1 
   1       0.5452425000      1.0000000000
  end;

 # Auxiliary/J basis set for element : Pd
 NewAuxJGTO Pd
 S 4 
   1      51.0211803000      0.0154414011
   2      17.6543867000     -0.3899991562
   3      10.3849330000      1.7000917225
   4       6.2315704000     -2.2542519748
 S 1 
   1       3.6656295000     -1.0000000000
 S 1 
   1       2.1995933000      1.0000000000
 S 1 
   1       1.2683839000      1.0000000000
 S 1 
   1       0.7461081000      1.0000000000
 S 1 
   1       0.4477087000      1.0000000000
 S 1 
   1       0.2581689000      1.0000000000
 S 1 
   1       0.1518640000      1.0000000000
 P 1 
   1       5.6999676000      1.0000000000
 P 1 
   1       2.5155374000     -1.0000000000
 P 1 
   1       1.1229524000      1.0000000000
 P 1 
   1       0.5047808000     -1.0000000000
 P 1 
   1       0.2274325000     -1.0000000000
 D 1 
   1       3.8006002000      1.0000000000
 D 1 
   1       1.5882692000     -1.0000000000
 D 1 
   1       0.6550157000     -1.0000000000
 D 1 
   1       0.2680210000      1.0000000000
 D 1 
   1       0.1093843000     -1.0000000000
 F 2 
   1       2.0106185000     -1.3134732431
   2       0.8268460000      0.9210621264
 F 1 
   1       0.3451253000      1.0000000000
 G 1 
   1       7.5375072000      1.0000000000
 G 1 
   1       2.7664349000      1.0000000000
 G 1 
   1       1.0133462000      1.0000000000
  end;

-------------------------
ECP PARAMETER INFORMATION
-------------------------

 Group 1, Type Pd ECP Def2-ECP (replacing 28 core electrons, lmax=3)

Atom   0Pd   ECP group =>   1
Atom   1Pd   ECP group =>   1


-------------------------
ECP BASIS IN INPUT FORMAT
-------------------------

 #ECP Def2-ECP
 NewECP Pd
   N_core 28
   lmax f
   s 4
     1      12.4300000000    240.2290403000  2
     2       6.1707594000     35.1719435000  2
     3      13.2700000000     31.9295543000  2
     4       6.6300000000      5.3982169000  2
   p 4
     1      11.0800000000    170.4172760000  2
     2       5.8295541000     28.4721329000  2
     3      13.2700000000     31.9295543000  2
     4       6.6300000000      5.3982169000  2
   d 4
     1       9.5100000000     69.0138449000  2
     2       4.1397811000     11.7508616000  2
     3      13.2700000000     31.9295543000  2
     4       6.6300000000      5.3982169000  2
   f 2
     1      13.2700000000    -31.9295543000  2
     2       6.6300000000     -5.3982169000  2
 End




           ************************************************************
           *        Program running with 32 parallel MPI-processes    *
           *              working on a common directory               *
           ************************************************************
------------------------------------------------------------------------------
                           ORCA GTO INTEGRAL CALCULATION
                           -- RI-GTO INTEGRALS CHOSEN --
------------------------------------------------------------------------------

                         BASIS SET STATISTICS AND STARTUP INFO

Gaussian basis set:
 # of primitive gaussian shells          ... 2048
 # of primitive gaussian functions       ... 3660
 # of contracted shells                  ... 1058
 # of contracted basis functions         ... 2058
 Highest angular momentum                ...    2
 Maximum contraction depth               ...    6
Auxiliary gaussian basis set:
 # of primitive gaussian shells          ... 1790
 # of primitive gaussian functions       ... 3886
 # of contracted shells                  ... 1422
 # of contracted aux-basis functions     ... 3394
 Highest angular momentum                ...    4
 Maximum contraction depth               ...    4
Ratio of auxiliary to basis functions    ...  1.65
Integral package used                  ... LIBINT
 One Electron integrals                  
   ECP integrals                         ... done
 Ordering auxiliary basis shells         ... done
 Integral threshhold             Thresh  ...  2.500e-11
 Primitive cut-off               TCut    ...  2.500e-12
 Pre-screening matrix                    ... done
 Shell pair data                         ... 
 Ordering of the shell pairs             ... done (   0.050 sec) 211886 of 560211 pairs
 Determination of significant pairs      ... done (   0.001 sec)
 Creation of shell pair data             ... done (   0.022 sec)
 Storage of shell pair data              ... done (   0.039 sec)
 Shell pair data done in (   0.111 sec)
 Computing two index integrals           ... done
 Cholesky decomposition of the V-matrix  ... done


Timings:
 Total evaluation time                   ...   8.837 sec (  0.147 min)
 One electron matrix time                ...   5.469 sec (  0.091 min) = 61.9%
 Schwartz matrix evaluation time         ...   2.187 sec (  0.036 min) = 24.7%
 Two index repulsion integral time       ...   0.442 sec (  0.007 min) =  5.0%
 Cholesky decomposition of V             ...   0.576 sec (  0.010 min) =  6.5%
 Three index repulsion integral time     ...   0.004 sec (  0.000 min) =  0.0%



           ************************************************************
           *        Program running with 32 parallel MPI-processes    *
           *              working on a common directory               *
           ************************************************************
-------------------------------------------------------------------------------
                                 ORCA SCF
-------------------------------------------------------------------------------

------------
SCF SETTINGS
------------
Hamiltonian:
 Density Functional     Method          .... DFT(GTOs)
 Exchange Functional    Exchange        .... B973C
 Correlation Functional Correlation     .... B973C
 Gradients option       PostSCFGGA      .... off
   Density functional embedding theory  .... OFF
 RI-approximation to the Coulomb term is turned on
   Number of auxiliary basis functions  .... 3394


General Settings:
 Integral files         IntName         .... _s_4b1_d_B97-3c
 Hartree-Fock type      HFTyp           .... RHF
 Total Charge           Charge          ....    4
 Multiplicity           Mult            ....    1
 Number of Electrons    NEL             ....  672
 Basis Dimension        Dim             .... 2058
 Nuclear Repulsion      ENuc            ....  18153.3426439301 Eh

Convergence Acceleration:
 DIIS                   CNVDIIS         .... on
   Start iteration      DIISMaxIt       ....     0
   Startup error        DIISStart       ....  0.200000
   # of expansion vecs  DIISMaxEq       ....     5
   Bias factor          DIISBfac        ....   1.050
   Max. coefficient     DIISMaxC        ....  10.000
 Newton-Raphson         CNVNR           .... off
 SOSCF                  CNVSOSCF        .... off
 Level Shifting         CNVShift        .... on
   Level shift para.    LevelShift      ....    0.2500
   Turn off err/grad.   ShiftErr        ....    0.0000
 Zerner damping         CNVZerner       .... off
 Static damping         CNVDamp         .... on
   Fraction old density DampFac         ....    0.8500
   Max. Damping (<1)    DampMax         ....    0.9800
   Min. Damping (>=0)   DampMin         ....    0.0000
   Turn off err/grad.   DampErr         ....    0.0300
 Fernandez-Rico         CNVRico         .... off

SCF Procedure:
 Maximum # iterations   MaxIter         ....  2000
 SCF integral mode      SCFMode         .... Direct
   Integral package                     .... LIBINT
 Reset frequency        DirectResetFreq ....    20
 Integral Threshold     Thresh          ....  2.500e-11 Eh
 Primitive CutOff       TCut            ....  2.500e-12 Eh

Convergence Tolerance:
 Convergence Check Mode ConvCheckMode   .... Total+1el-Energy
 Convergence forced     ConvForced      .... 0
 Energy Change          TolE            ....  1.000e-08 Eh
 1-El. energy change                    ....  1.000e-05 Eh
 DIIS Error             TolErr          ....  5.000e-07


Diagonalization of the overlap matrix:
Smallest eigenvalue                        ... 5.753e-06
Time for diagonalization                   ...    0.613 sec
Threshold for overlap eigenvalues          ... 1.000e-08
Number of eigenvalues below threshold      ... 0
Time for construction of square roots      ...    0.534 sec
Total time needed                          ...    1.156 sec

--------------------------------
INITIAL GUESS: MINIMAL BASIS EHT
--------------------------------
The minimal basis has 562 functions
EHT matrix was diagonalized
Basis set overlap was calculated now projecting the orbitals
Using GuessMode=FMatrix for the initial guess
C*T matrix was formed
Effective Fockian was calculated
Effective Fockian was diagonalized
Initial density was built
                      ------------------
                      INITIAL GUESS DONE
                      ------------------
-------------------
DFT GRID GENERATION
-------------------

General Integration Accuracy     IntAcc      ...  5.340
Radial Grid Type                 RadialGrid  ... Gauss-Chebyshev
Angular Grid (max. acc.)         AngularGrid ... Lebedev-590
Angular grid pruning method      GridPruning ... 3 (G Style)
Weight generation scheme         WeightScheme... Becke
Basis function cutoff            BFCut       ...    1.0000e-11
Integration weight cutoff        WCut        ...    1.0000e-14
Grids for H and He will be reduced by one unit

# of grid points (after initial pruning)     ... 2250644 (   0.0 sec)
# of grid points (after weights+screening)   ... 1839339 (   9.0 sec)
nearest neighbour list constructed           ...    0.0 sec
Grid point re-assignment to atoms done       ...    0.2 sec
Grid point division into batches done        ...   18.7 sec
Reduced shell lists constructed in   20.0 sec

Total number of grid points                  ...  1839339
Total number of batches                      ...    28816
Average number of points per batch           ...       63
Average number of grid points per atom       ...    11944
Average number of shells per batch           ...   232.01 (21.93%)
Average number of basis functions per batch  ...   452.44 (21.98%)
Average number of large shells per batch     ...   122.95 (52.99%)
Average number of large basis fcns per batch ...   247.32 (54.66%)
Maximum spatial batch extension              ...  20.18,  5.95, 11.93 au
Average spatial batch extension              ...   0.03,  0.03,  0.03 au

Time for grid setup =   31.246 sec

--------------
SCF ITERATIONS
--------------
ITER       Energy         Delta-E        Max-DP      RMS-DP      [F,P]     Damp
               ***  Starting incremental Fock matrix formation  ***
  0  -4032.7332821070   0.00000000000014.22524946  0.08024335  5.2077826 0.8500
  1  -4043.0777085481 -10.344426441068 1.64454084  0.01090483  4.5147592 0.8500
                               ***Turning on DIIS***
  2  -4050.1692752046  -7.091566656563 1.63026803  0.00980697  3.8734411 0.8500
  3  -4054.7833047673  -4.614029562643 1.75472534  0.00959326  3.3139442 0.8500
  4  -4058.3205381979  -3.537233430674 1.46327409  0.00826667  2.8131526 0.8500
  5  -4061.0259070690  -2.705368871088 1.25178086  0.00703691  2.3822991 0.8500
  6  -4063.4830400769  -2.457133007887 1.08057375  0.00599111  2.0231820 0.8500
  7  -4065.6328861707  -2.149846093809 0.93503753  0.00507215  1.7195640 0.8500
  8  -4067.4891891289  -1.856302958215 0.79347840  0.00435186  1.4644115 0.8500
  9  -4069.0055157426  -1.516326613670 0.66747229  0.00370604  1.2443659 0.8500
 10  -4070.2585925253  -1.253076782719 0.56559540  0.00313876  1.0559392 0.8500
 11  -4071.3297314322  -1.071138906857 0.48320099  0.00266184  0.8972249 0.8500
 12  -4072.2473320156  -0.917600583442 0.41336576  0.00226545  0.7630642 0.8500
 13  -4073.0246761966  -0.777344181013 0.35116079  0.00193228  0.6490020 0.8500
 14  -4073.6782905925  -0.653614395833 0.29730730  0.00164295  0.5514093 0.8500
 15  -4074.2302933489  -0.552002756449 0.25231794  0.00139303  0.4683603 0.8500
 16  -4074.6996054095  -0.469312060552 0.21485591  0.00118256  0.3980807 0.8500
 17  -4075.0986602702  -0.399054860773 0.18304057  0.00100653  0.3385011 0.8500
 18  -4075.4370931629  -0.338432892651 0.15558342  0.00085702  0.2877692 0.8500
 19  -4075.7238733741  -0.286780211216 0.13208654  0.00072982  0.2445220 0.8500
               *** Restarting incremental Fock matrix formation ***
                                   *** Resetting DIIS ***
 20  -4075.9672265019  -0.243353127818 0.11401918  0.00061193  0.2077746 0.8500
 21  -4076.1746400787  -0.207413576813 0.09595530  0.00052622  0.1770749 0.8500
 22  -4076.3501232073  -0.175483128558 0.08028142  0.00045040  0.1503523 0.8500
 23  -4076.4988090128  -0.148685805507 0.06822797  0.00038157  0.1274752 0.8500
 24  -4076.6253479848  -0.126538971945 0.05827049  0.00032397  0.1082940 0.8500
 25  -4076.7329694609  -0.107621476138 0.04994747  0.00027531  0.0920802 0.8500
 26  -4076.8244660683  -0.091496607456 0.04240397  0.00023521  0.0783713 0.8500
 27  -4076.9021704015  -0.077704333191 0.03583886  0.00020051  0.0666085 0.8500
 28  -4076.9681742492  -0.066003847616 0.03042452  0.00017011  0.0565541 0.8500
 29  -4077.0242843298  -0.056110080623 0.02595903  0.00014438  0.0480542 0.8500
 30  -4077.0719851440  -0.047700814201 0.02213874  0.00012298  0.0408655 0.8500
 31  -4077.1125259153  -0.040540771326 0.01882497  0.00010512  0.0347522 0.8500
 32  -4077.1469767860  -0.034450870655 0.10642474  0.00059732  0.0295309 0.0000
 33  -4077.3421443450  -0.195167558999 0.00460507  0.00002246  0.0008901 0.0000
 34  -4077.3421377698   0.000006575145 0.00150013  0.00000575  0.0015584 0.0000
 35  -4077.3421467734  -0.000009003623 0.00112028  0.00000376  0.0004040 0.0000
 36  -4077.3421480343  -0.000001260880 0.00123884  0.00000631  0.0001201 0.0000
 37  -4077.3421480637  -0.000000029391 0.00090102  0.00000466  0.0000253 0.0000
 38  -4077.3421479953   0.000000068430 0.00058276  0.00000274  0.0000077 0.0000
 39  -4077.3421480283  -0.000000033004 0.00606642  0.00003007  0.0000025 0.0000
               *** Restarting incremental Fock matrix formation ***
                                   *** Resetting DIIS ***
 40  -4077.3421479897   0.000000038614 0.00263406  0.00001357  0.0000033 0.0000
 41  -4077.3421481800  -0.000000190339 0.00051912  0.00000220  0.0000056 0.0000
                            ***DIIS convergence achieved***

               *****************************************************
               *                     SUCCESS                       *
               *           SCF CONVERGED AFTER  42 CYCLES          *
               *****************************************************


----------------
TOTAL SCF ENERGY
----------------

Total Energy       :        -4077.34214826 Eh         -110950.12045 eV

Components:
Nuclear Repulsion  :        18153.34264393 Eh          493977.56668 eV
Electronic Energy  :       -22230.68479219 Eh         -604927.68712 eV
One Electron Energy:       -41637.66930301 Eh        -1133018.58329 eV
Two Electron Energy:        19406.98451082 Eh          528090.89616 eV

Virial components:
Potential Energy   :        -7981.84097748 Eh         -217196.93508 eV
Kinetic Energy     :         3904.49882922 Eh          106246.81463 eV
Virial Ratio       :            2.04426773


DFT components:
N(Alpha)           :      335.999946251163 electrons
N(Beta)            :      335.999946251163 electrons
N(Total)           :      671.999892502326 electrons
E(XC)              :     -576.051229739710 Eh       
DFET-embed. en.    :        0.000000000000 Eh       

---------------
SCF CONVERGENCE
---------------

  Last Energy change         ...   -8.4638e-08  Tolerance :   1.0000e-08
  Last MAX-Density change    ...    3.2563e-04  Tolerance :   1.0000e-07
[...]
 34 N      7.0719     7.0000    -0.0719     3.3225     3.3225    -0.0000
 35 C      6.1771     6.0000    -0.1771     3.8328     3.8328    -0.0000
 36 H      0.7396     1.0000     0.2604     0.8963     0.8963    -0.0000
 37 H      0.7513     1.0000     0.2487     0.9120     0.9120    -0.0000
 38 H      0.7976     1.0000     0.2024     0.9496     0.9496    -0.0000
 39 H      0.8090     1.0000     0.1910     0.9449     0.9449    -0.0000
 40 C      5.9618     6.0000     0.0382     3.3529     3.3529    -0.0000
 41 C      5.9482     6.0000     0.0518     2.9916     2.9916    -0.0000
 42 C      6.2186     6.0000    -0.2186     3.7190     3.7190    -0.0000
 43 C      6.0721     6.0000    -0.0721     3.8317     3.8317    -0.0000
 44 C      6.1830     6.0000    -0.1830     4.1759     4.1759    -0.0000
 45 C      6.2110     6.0000    -0.2110     3.9270     3.9270    -0.0000
 46 C      6.0657     6.0000    -0.0657     3.7390     3.7390    -0.0000
 47 C      6.0787     6.0000    -0.0787     3.6973     3.6973    -0.0000
 48 C      6.1783     6.0000    -0.1783     4.0062     4.0062    -0.0000
 49 N      7.0611     7.0000    -0.0611     3.2721     3.2721    -0.0000
 50 C      6.1180     6.0000    -0.1180     3.7661     3.7661    -0.0000
 51 C      5.6147     6.0000     0.3853     3.1770     3.1770    -0.0000
 52 H      0.7468     1.0000     0.2532     0.8970     0.8970    -0.0000
 53 H      0.7688     1.0000     0.2312     0.9240     0.9240    -0.0000
 54 H      0.7517     1.0000     0.2483     0.8971     0.8971    -0.0000
 55 H      0.7446     1.0000     0.2554     0.8894     0.8894    -0.0000
 56 H      0.8364     1.0000     0.1636     0.9581     0.9581    -0.0000
 57 H      0.8312     1.0000     0.1688     0.9719     0.9719    -0.0000
 58 C      6.2213     6.0000    -0.2213     3.9695     3.9695    -0.0000
 59 C      6.1746     6.0000    -0.1746     3.9103     3.9103    -0.0000
 60 C      6.1469     6.0000    -0.1469     3.9219     3.9219    -0.0000
 61 C      6.0628     6.0000    -0.0628     3.6977     3.6977    -0.0000
 62 C      6.1354     6.0000    -0.1354     3.9654     3.9654    -0.0000
 63 C      6.1321     6.0000    -0.1321     3.9140     3.9140    -0.0000
 64 H      0.7911     1.0000     0.2089     0.9109     0.9109    -0.0000
 65 H      0.7769     1.0000     0.2231     0.8952     0.8952    -0.0000
 66 H      0.7575     1.0000     0.2425     0.9017     0.9017    -0.0000
 67 H      0.7592     1.0000     0.2408     0.9056     0.9056    -0.0000
 68 C      5.9179     6.0000     0.0821     3.6706     3.6706    -0.0000
 69 C      6.1682     6.0000    -0.1682     4.0183     4.0183    -0.0000
 70 C      6.0661     6.0000    -0.0661     3.9410     3.9410    -0.0000
 71 C      6.1021     6.0000    -0.1021     3.9780     3.9780    -0.0000
 72 N      7.0718     7.0000    -0.0718     3.3225     3.3225    -0.0000
 73 C      6.1768     6.0000    -0.1768     3.8331     3.8331    -0.0000
 74 H      0.7397     1.0000     0.2603     0.8963     0.8963    -0.0000
 75 H      0.7512     1.0000     0.2488     0.9119     0.9119    -0.0000
 76 H      0.7979     1.0000     0.2021     0.9497     0.9497    -0.0000
 77 H      0.8091     1.0000     0.1909     0.9450     0.9450    -0.0000
 78 C      5.9609     6.0000     0.0391     3.3504     3.3504    -0.0000
 79 C      5.9462     6.0000     0.0538     2.9888     2.9888    -0.0000
 80 C      6.2217     6.0000    -0.2217     3.7263     3.7263    -0.0000
 81 C      6.0708     6.0000    -0.0708     3.8313     3.8313    -0.0000
 82 C      6.1833     6.0000    -0.1833     4.1761     4.1761    -0.0000
 83 C      6.2109     6.0000    -0.2109     3.9271     3.9271    -0.0000
 84 C      6.0656     6.0000    -0.0656     3.7396     3.7396    -0.0000
 85 C      6.0787     6.0000    -0.0787     3.6974     3.6974    -0.0000
 86 C      6.1788     6.0000    -0.1788     4.0063     4.0063    -0.0000
 87 N      7.0612     7.0000    -0.0612     3.2726     3.2726    -0.0000
 88 C      6.1181     6.0000    -0.1181     3.7665     3.7665    -0.0000
 89 C      5.6132     6.0000     0.3868     3.1758     3.1758    -0.0000
 90 H      0.7467     1.0000     0.2533     0.8969     0.8969    -0.0000
 91 H      0.7688     1.0000     0.2312     0.9240     0.9240    -0.0000
 92 H      0.7517     1.0000     0.2483     0.8971     0.8971    -0.0000
 93 H      0.7447     1.0000     0.2553     0.8894     0.8894    -0.0000
 94 H      0.8361     1.0000     0.1639     0.9580     0.9580    -0.0000
 95 H      0.8312     1.0000     0.1688     0.9717     0.9717    -0.0000
 96 C      6.2242     6.0000    -0.2242     3.9718     3.9718    -0.0000
 97 C      6.1746     6.0000    -0.1746     3.9108     3.9108    -0.0000
 98 C      6.1469     6.0000    -0.1469     3.9212     3.9212    -0.0000
 99 C      6.0633     6.0000    -0.0633     3.6967     3.6967    -0.0000
100 C      6.1350     6.0000    -0.1350     3.9642     3.9642    -0.0000
101 C      6.1321     6.0000    -0.1321     3.9139     3.9139    -0.0000
102 H      0.7902     1.0000     0.2098     0.9109     0.9109    -0.0000
103 H      0.7770     1.0000     0.2230     0.8954     0.8954    -0.0000
104 H      0.7576     1.0000     0.2424     0.9017     0.9017    -0.0000
105 H      0.7591     1.0000     0.2409     0.9055     0.9055    -0.0000
106 C      5.9179     6.0000     0.0821     3.6713     3.6713    -0.0000
107 C      6.1686     6.0000    -0.1686     4.0189     4.0189    -0.0000
108 C      6.0659     6.0000    -0.0659     3.9405     3.9405    -0.0000
109 C      6.1025     6.0000    -0.1025     3.9784     3.9784    -0.0000
110 N      7.0715     7.0000    -0.0715     3.3224     3.3224    -0.0000
111 C      6.1773     6.0000    -0.1773     3.8333     3.8333    -0.0000
112 H      0.7397     1.0000     0.2603     0.8963     0.8963    -0.0000
113 H      0.7513     1.0000     0.2487     0.9120     0.9120    -0.0000
114 H      0.7977     1.0000     0.2023     0.9496     0.9496    -0.0000
115 H      0.8086     1.0000     0.1914     0.9447     0.9447    -0.0000
116 C      5.9620     6.0000     0.0380     3.3532     3.3532    -0.0000
117 C      5.9483     6.0000     0.0517     2.9919     2.9919    -0.0000
118 C      6.2185     6.0000    -0.2185     3.7194     3.7194    -0.0000
119 C      6.0722     6.0000    -0.0722     3.8319     3.8319    -0.0000
120 C      6.1829     6.0000    -0.1829     4.1758     4.1758    -0.0000
121 C      6.2111     6.0000    -0.2111     3.9273     3.9273    -0.0000
122 C      6.0656     6.0000    -0.0656     3.7390     3.7390    -0.0000
123 C      6.0788     6.0000    -0.0788     3.6978     3.6978    -0.0000
124 C      6.1786     6.0000    -0.1786     4.0060     4.0060    -0.0000
125 N      7.0612     7.0000    -0.0612     3.2722     3.2722    -0.0000
126 C      6.1180     6.0000    -0.1180     3.7667     3.7667    -0.0000
127 C      5.6149     6.0000     0.3851     3.1776     3.1776    -0.0000
128 H      0.7468     1.0000     0.2532     0.8970     0.8970    -0.0000
129 H      0.7688     1.0000     0.2312     0.9240     0.9240    -0.0000
130 H      0.7517     1.0000     0.2483     0.8971     0.8971    -0.0000
131 H      0.7447     1.0000     0.2553     0.8894     0.8894    -0.0000
132 H      0.8360     1.0000     0.1640     0.9579     0.9579    -0.0000
133 H      0.8313     1.0000     0.1687     0.9719     0.9719    -0.0000
134 C      6.2215     6.0000    -0.2215     3.9704     3.9704    -0.0000
135 C      6.1319     6.0000    -0.1319     3.9135     3.9135    -0.0000
136 C      6.1353     6.0000    -0.1353     3.9648     3.9648    -0.0000
137 C      6.0631     6.0000    -0.0631     3.6980     3.6980    -0.0000
138 C      6.1469     6.0000    -0.1469     3.9217     3.9217    -0.0000
139 C      6.1743     6.0000    -0.1743     3.9102     3.9102    -0.0000
140 H      0.7592     1.0000     0.2408     0.9056     0.9056    -0.0000
141 H      0.7575     1.0000     0.2425     0.9017     0.9017    -0.0000
142 H      0.7768     1.0000     0.2232     0.8952     0.8952    -0.0000
143 H      0.7914     1.0000     0.2086     0.9110     0.9110    -0.0000
144 C      5.9181     6.0000     0.0819     3.6718     3.6718    -0.0000
145 C      6.1684     6.0000    -0.1684     4.0186     4.0186    -0.0000
146 C      6.0660     6.0000    -0.0660     3.9412     3.9412    -0.0000
147 C      6.1023     6.0000    -0.1023     3.9782     3.9782    -0.0000
148 N      7.0717     7.0000    -0.0717     3.3223     3.3223    -0.0000
149 C      6.1770     6.0000    -0.1770     3.8339     3.8339    -0.0000
150 H      0.7397     1.0000     0.2603     0.8963     0.8963    -0.0000
151 H      0.7513     1.0000     0.2487     0.9120     0.9120    -0.0000
152 H      0.7977     1.0000     0.2023     0.9496     0.9496    -0.0000
153 H      0.8088     1.0000     0.1912     0.9447     0.9447    -0.0000

  Mayer bond orders larger than 0.100000
B(  0-Pd, 34-N ) :   0.5316 B(  0-Pd, 49-N ) :   0.5370 B(  0-Pd,110-N ) :   0.5317 
B(  0-Pd,125-N ) :   0.5370 B(  1-Pd, 11-N ) :   0.5371 B(  1-Pd, 72-N ) :   0.5319 
B(  1-Pd, 87-N ) :   0.5372 B(  1-Pd,148-N ) :   0.5318 B(  2-C ,  3-C ) :   1.8635 
B(  2-C ,  4-C ) :  -0.2896 B(  2-C , 13-C ) :   0.1020 B(  2-C , 20-C ) :   1.6314 
B(  2-C , 21-C ) :  -0.1070 B(  3-C ,  4-C ) :   1.4728 B(  3-C ,  5-C ) :  -0.1018 
B(  3-C ,  8-C ) :   0.1043 B(  3-C , 13-C ) :  -0.2444 B(  3-C , 20-C ) :  -0.4186 
B(  4-C ,  5-C ) :   1.5593 B(  4-C , 12-C ) :  -0.1095 B(  4-C , 13-C ) :   1.0233 
B(  5-C ,  6-C ) :   1.4176 B(  5-C , 14-H ) :   0.8511 B(  6-C ,  7-C ) :   1.6275 
B(  6-C , 15-H ) :   0.8702 B(  7-C ,  8-C ) :   1.3700 B(  7-C , 13-C ) :  -0.1300 
B(  7-C , 16-H ) :   0.8585 B(  8-C ,  9-C ) :   1.2550 B(  8-C , 10-C ) :   0.1086 
B(  8-C , 12-C ) :  -0.1207 B(  8-C , 13-C ) :   1.0432 B(  9-C , 10-C ) :   1.5610 
B(  9-C , 17-H ) :   0.8700 B( 10-C , 11-N ) :   1.1942 B( 10-C , 18-H ) :   0.9271 
B( 11-N , 12-C ) :   1.4820 B( 12-C , 13-C ) :   1.4073 B( 12-C , 19-H ) :   0.8769 
B( 20-C , 21-C ) :   1.3566 B( 20-C , 23-C ) :   0.1074 B( 20-C , 25-C ) :   1.3309 
B( 21-C , 22-C ) :   1.5977 B( 21-C , 26-H ) :   0.8800 B( 22-C , 23-C ) :   1.3766 
B( 22-C , 27-H ) :   0.8535 B( 23-C , 24-C ) :   1.3313 B( 23-C , 30-C ) :   0.9262 
B( 24-C , 25-C ) :   1.5837 B( 24-C , 28-H ) :   0.8626 B( 25-C , 29-H ) :   0.8980 
B( 30-C , 31-C ) :   1.4470 B( 30-C , 35-C ) :   1.3258 B( 31-C , 32-C ) :   1.5212 
B( 31-C , 36-H ) :   0.8761 B( 32-C , 33-C ) :   1.4401 B( 32-C , 37-H ) :   0.8649 
B( 33-C , 34-N ) :   1.4036 B( 33-C , 38-H ) :   0.9078 B( 34-N , 35-C ) :   1.3376 
B( 35-C , 39-H ) :   0.9314 B( 40-C , 41-C ) :   1.8643 B( 40-C , 42-C ) :  -0.2904 
B( 40-C , 51-C ) :   0.1025 B( 40-C , 58-C ) :   1.6316 B( 40-C , 63-C ) :  -0.1062 
B( 41-C , 42-C ) :   1.4716 B( 41-C , 43-C ) :  -0.1010 B( 41-C , 46-C ) :   0.1041 
B( 41-C , 51-C ) :  -0.2434 B( 41-C , 58-C ) :  -0.4174 B( 42-C , 43-C ) :   1.5575 
B( 42-C , 50-C ) :  -0.1101 B( 42-C , 51-C ) :   1.0223 B( 43-C , 44-C ) :   1.4178 
B( 43-C , 52-H ) :   0.8514 B( 44-C , 45-C ) :   1.6275 B( 44-C , 53-H ) :   0.8702 
B( 45-C , 46-C ) :   1.3699 B( 45-C , 51-C ) :  -0.1301 B( 45-C , 54-H ) :   0.8585 
B( 46-C , 47-C ) :   1.2552 B( 46-C , 48-C ) :   0.1086 B( 46-C , 50-C ) :  -0.1207 
B( 46-C , 51-C ) :   1.0430 B( 47-C , 48-C ) :   1.5609 B( 47-C , 55-H ) :   0.8700 
B( 48-C , 49-N ) :   1.1943 B( 48-C , 56-H ) :   0.9271 B( 49-N , 50-C ) :   1.4816 
B( 50-C , 51-C ) :   1.4072 B( 50-C , 57-H ) :   0.8774 B( 58-C , 59-C ) :   1.3293 
B( 58-C , 61-C ) :   0.1076 B( 58-C , 63-C ) :   1.3558 B( 59-C , 60-C ) :   1.5838 
B( 59-C , 64-H ) :   0.8988 B( 60-C , 61-C ) :   1.3319 B( 60-C , 65-H ) :   0.8622 
B( 61-C , 62-C ) :   1.3770 B( 61-C , 68-C ) :   0.9259 B( 62-C , 63-C ) :   1.5982 
B( 62-C , 66-H ) :   0.8532 B( 63-C , 67-H ) :   0.8803 B( 68-C , 69-C ) :   1.4467 
B( 68-C , 73-C ) :   1.3261 B( 69-C , 70-C ) :   1.5212 B( 69-C , 74-H ) :   0.8762 
B( 70-C , 71-C ) :   1.4403 B( 70-C , 75-H ) :   0.8648 B( 71-C , 72-N ) :   1.4032 
B( 71-C , 76-H ) :   0.9079 B( 72-N , 73-C ) :   1.3377 B( 73-C , 77-H ) :   0.9313 
B( 78-C , 79-C ) :   1.8632 B( 78-C , 80-C ) :  -0.2898 B( 78-C , 89-C ) :   0.1020 
B( 78-C , 96-C ) :   1.6316 B( 78-C ,101-C ) :  -0.1072 B( 79-C , 80-C ) :   1.4736 
B( 79-C , 81-C ) :  -0.1019 B( 79-C , 84-C ) :   0.1044 B( 79-C , 89-C ) :  -0.2444 
B( 79-C , 96-C ) :  -0.4188 B( 80-C , 81-C ) :   1.5595 B( 80-C , 88-C ) :  -0.1094 
B( 80-C , 89-C ) :   1.0235 B( 81-C , 82-C ) :   1.4175 B( 81-C , 90-H ) :   0.8511 
B( 82-C , 83-C ) :   1.6276 B( 82-C , 91-H ) :   0.8702 B( 83-C , 84-C ) :   1.3701 
B( 83-C , 89-C ) :  -0.1300 B( 83-C , 92-H ) :   0.8585 B( 84-C , 85-C ) :   1.2550 
B( 84-C , 86-C ) :   0.1086 B( 84-C , 88-C ) :  -0.1206 B( 84-C , 89-C ) :   1.0432 
B( 85-C , 86-C ) :   1.5614 B( 85-C , 93-H ) :   0.8700 B( 86-C , 87-N ) :   1.1940 
B( 86-C , 94-H ) :   0.9270 B( 87-N , 88-C ) :   1.4820 B( 88-C , 89-C ) :   1.4062 
B( 88-C , 95-H ) :   0.8774 B( 96-C , 97-C ) :   1.3309 B( 96-C , 99-C ) :   0.1073 
B( 96-C ,101-C ) :   1.3566 B( 97-C , 98-C ) :   1.5839 B( 97-C ,102-H ) :   0.8979 
B( 98-C , 99-C ) :   1.3311 B( 98-C ,103-H ) :   0.8626 B( 99-C ,100-C ) :   1.3765 
B( 99-C ,106-C ) :   0.9260 B(100-C ,101-C ) :   1.5977 B(100-C ,104-H ) :   0.8535 
B(101-C ,105-H ) :   0.8800 B(106-C ,107-C ) :   1.4472 B(106-C ,111-C ) :   1.3262 
B(107-C ,108-C ) :   1.5210 B(107-C ,112-H ) :   0.8761 B(108-C ,109-C ) :   1.4402 
B(108-C ,113-H ) :   0.8649 B(109-C ,110-N ) :   1.4035 B(109-C ,114-H ) :   0.9078 
B(110-N ,111-C ) :   1.3376 B(111-C ,115-H ) :   0.9311 B(116-C ,117-C ) :   1.8642 
B(116-C ,118-C ) :  -0.2904 B(116-C ,127-C ) :   0.1024 B(116-C ,134-C ) :   1.6323 
B(116-C ,135-C ) :  -0.1063 B(117-C ,118-C ) :   1.4722 B(117-C ,119-C ) :  -0.1009 
B(117-C ,122-C ) :   0.1041 B(117-C ,127-C ) :  -0.2436 B(117-C ,134-C ) :  -0.4176 
B(118-C ,119-C ) :   1.5576 B(118-C ,126-C ) :  -0.1101 B(118-C ,127-C ) :   1.0223 
B(119-C ,120-C ) :   1.4178 B(119-C ,128-H ) :   0.8514 B(120-C ,121-C ) :   1.6276 
B(120-C ,129-H ) :   0.8702 B(121-C ,122-C ) :   1.3699 B(121-C ,127-C ) :  -0.1301 
B(121-C ,130-H ) :   0.8586 B(122-C ,123-C ) :   1.2552 B(122-C ,124-C ) :   0.1086 
B(122-C ,126-C ) :  -0.1207 B(122-C ,127-C ) :   1.0430 B(123-C ,124-C ) :   1.5613 
B(123-C ,131-H ) :   0.8700 B(124-C ,125-N ) :   1.1942 B(124-C ,132-H ) :   0.9269 
B(125-N ,126-C ) :   1.4819 B(126-C ,127-C ) :   1.4076 B(126-C ,133-H ) :   0.8771 
B(134-C ,135-C ) :   1.3558 B(134-C ,137-C ) :   0.1077 B(134-C ,139-C ) :   1.3296 
B(135-C ,136-C ) :   1.5977 B(135-C ,140-H ) :   0.8803 B(136-C ,137-C ) :   1.3769 
B(136-C ,141-H ) :   0.8533 B(137-C ,138-C ) :   1.3319 B(137-C ,144-C ) :   0.9260 
B(138-C ,139-C ) :   1.5834 B(138-C ,142-H ) :   0.8623 B(139-C ,143-H ) :   0.8989 
B(144-C ,145-C ) :   1.4468 B(144-C ,149-C ) :   1.3269 B(145-C ,146-C ) :   1.5213 
B(145-C ,150-H ) :   0.8762 B(146-C ,147-C ) :   1.4405 B(146-C ,151-H ) :   0.8648 
B(147-C ,148-N ) :   1.4032 B(147-C ,152-H ) :   0.9078 B(148-N ,149-C ) :   1.3377 
B(149-C ,153-H ) :   0.9310 

-------
TIMINGS
-------

Total SCF time: 0 days 0 hours 8 min 21 sec 

Total time                  ....     501.978 sec
Sum of individual times     ....     483.057 sec  ( 96.2%)

Fock matrix formation       ....     210.472 sec  ( 41.9%)
  Split-RI-J                ....      83.904 sec  ( 39.9% of F)
  XC integration            ....     103.033 sec  ( 49.0% of F)
    Basis function eval.    ....      17.894 sec  ( 17.4% of XC)
    Density eval.           ....      40.635 sec  ( 39.4% of XC)
    XC-Functional eval.     ....       6.142 sec  (  6.0% of XC)
    XC-Potential eval.      ....      14.781 sec  ( 14.3% of XC)
Diagonalization             ....      40.566 sec  (  8.1%)
Density matrix formation    ....       1.954 sec  (  0.4%)
Population analysis         ....       7.215 sec  (  1.4%)
Initial guess               ....       7.271 sec  (  1.4%)
Orbital Transformation      ....       0.000 sec  (  0.0%)
Orbital Orthonormalization  ....       0.000 sec  (  0.0%)
DIIS solution               ....     184.333 sec  ( 36.7%)
Grid generation             ....      31.246 sec  (  6.2%)


-------------------------------------------------------------------------------
                          DFT DISPERSION CORRECTION                            
                                                                               
                              DFTD3 V3.1  Rev 1                                
                          USING Becke-Johnson damping                          
-------------------------------------------------------------------------------
The B97-3c composite method is recognized
Using three-body term ABC
Active option DFTDOPT                   ...         4   

molecular C6(AA) [au] = 365019.316382 


            DFT-D V3
 parameters
 s6 scaling factor         :     1.0000 
 a1 scaling factor         :     0.3700 
 s8 scaling factor         :     1.5000 
 a2 scaling factor         :     4.1000 
 Damping factor alpha9(ATM):    16.0000 
 ad hoc parameters k1-k3   :    16.0000     1.3333    -4.0000 

 Edisp/kcal,au: -369.878951264467  -0.589439565612 
 E6   /kcal   : -183.206580040 
 E8   /kcal   : -187.860390752 
 E6(ABC)      :   1.188019528 
 % E8         :  50.789694874 
 % E6(ABC)    :  -0.321191439 

-------------------------   ----------------
Dispersion correction           -0.589439566
-------------------------   ----------------

------------------   -----------------
SRB correction            -0.607443854
------------------   -----------------

-------------------------   --------------------
FINAL SINGLE POINT ENERGY     -4078.539031684153
-------------------------   --------------------


                            ***************************************
                            *     ORCA property calculations      *
                            ***************************************

                                    ---------------------
                                    Active property flags
                                    ---------------------
   (+) Dipole Moment


------------------------------------------------------------------------------
                       ORCA ELECTRIC PROPERTIES CALCULATION
------------------------------------------------------------------------------

Dipole Moment Calculation                       ... on
Quadrupole Moment Calculation                   ... off
Polarizability Calculation                      ... off
GBWName                                         ... _s_4b1_d_B97-3c.gbw
Electron density file                           ... _s_4b1_d_B97-3c.scfp
The origin for moment calculation is the CENTER OF MASS  = ( 1.567919,  1.333016 -1.447956)

-------------
DIPOLE MOMENT
-------------
                                X             Y             Z
Electronic contribution:      0.00585       0.03526       0.06787
Nuclear contribution   :     -0.00581      -0.03983      -0.06884
                        -----------------------------------------
Total Dipole Moment    :      0.00004      -0.00457      -0.00097
                        -----------------------------------------
Magnitude (a.u.)       :      0.00467
Magnitude (Debye)      :      0.01188



--------------------
Rotational spectrum 
--------------------
 
Rotational constants in cm-1:     0.000707     0.000355     0.000354 
Rotational constants in MHz :    21.202377    10.655696    10.627341 

 Dipole components along the rotational axes: 
x,y,z [a.u.] :     0.004549    -0.000415     0.000984 
x,y,z [Debye]:     0.011562    -0.001054     0.002500 

 

Timings for individual modules:

Sum of individual times         ...      531.376 sec (=   8.856 min)
GTO integral calculation        ...       21.134 sec (=   0.352 min)   4.0 %
SCF iterations                  ...      510.242 sec (=   8.504 min)  96.0 %
                             ****ORCA TERMINATED NORMALLY****
TOTAL RUN TIME: 0 days 0 hours 8 minutes 56 seconds 975 msec
