Job execution start: Tue Jun 22 11:53:02 BST 2021
Shared library path: /work/e05/e05/atarzia/orca_4_2_1_linux_x86-64_openmpi314:/work/e05/e05/atarzia/openmpi-3.1.4/lib:/opt/cray/pe/papi/6.0.0.4/lib64:/opt/cray/libfabric/1.11.0.0.233/lib64
Slurm Job ID is: 344702
Slurm Job name is: s_4b1_a_B97-3c
nid001587

                                 *****************
                                 * O   R   C   A *
                                 *****************

           --- An Ab Initio, DFT and Semiempirical electronic structure package ---

                  #######################################################
                  #                        -***-                        #
                  #          Department of theory and spectroscopy      #
                  #               Directorship: Frank Neese             #
                  #        Max Planck Institute fuer Kohlenforschung    #
                  #                Kaiser Wilhelm Platz 1               #
                  #                 D-45470 Muelheim/Ruhr               #
                  #                      Germany                        #
                  #                                                     #
                  #                  All rights reserved                #
                  #                        -***-                        #
                  #######################################################


                         Program Version 4.2.1 -  RELEASE  -


 With contributions from (in alphabetic order):
   Daniel Aravena         : Magnetic Suceptibility
   Michael Atanasov       : Ab Initio Ligand Field Theory (pilot matlab implementation)
   Alexander A. Auer      : GIAO ZORA, VPT2
   Ute Becker             : Parallelization
   Giovanni Bistoni       : ED, misc. LED, open-shell LED, HFLD
   Martin Brehm           : Molecular dynamics
   Dmytro Bykov           : SCF Hessian
   Vijay G. Chilkuri      : MRCI spin determinant printing, contributions to CSF-ICE
   Dipayan Datta          : RHF DLPNO-CCSD density
   Achintya Kumar Dutta   : EOM-CC, STEOM-CC
   Dmitry Ganyushin       : Spin-Orbit,Spin-Spin,Magnetic field MRCI
   Miquel Garcia          : C-PCM Hessian, Gaussian charge scheme
   Yang Guo               : DLPNO-NEVPT2, CIM, IAO-localization
   Andreas Hansen         : Spin unrestricted coupled pair/coupled cluster methods
   Benjamin Helmich-Paris : CASSCF linear response (MC-RPA)
   Lee Huntington         : MR-EOM, pCC
   Robert Izsak           : Overlap fitted RIJCOSX, COSX-SCS-MP3, EOM
   Christian Kollmar      : KDIIS, OOCD, Brueckner-CCSD(T), CCSD density
   Simone Kossmann        : Meta GGA functionals, TD-DFT gradient, OOMP2, MP2 Hessian
   Martin Krupicka        : AUTO-CI
   Lucas Lang             : DCDCAS
   Dagmar Lenk            : GEPOL surface, SMD
   Dimitrios Liakos       : Extrapolation schemes; Compound Job, initial MDCI parallelization
   Dimitrios Manganas     : Further ROCIS development; embedding schemes
   Dimitrios Pantazis     : SARC Basis sets
   Taras Petrenko         : DFT Hessian,TD-DFT gradient, ASA, ECA, R-Raman, ABS, FL, XAS/XES, NRVS
   Peter Pinski           : DLPNO-MP2, DLPNO-MP2 Gradient
   Christoph Reimann      : Effective Core Potentials
   Marius Retegan         : Local ZFS, SOC
   Christoph Riplinger    : Optimizer, TS searches, QM/MM, DLPNO-CCSD(T), (RO)-DLPNO pert. Triples
   Tobias Risthaus        : Range-separated hybrids, TD-DFT gradient, RPA, STAB
   Michael Roemelt        : Original ROCIS implementation
   Masaaki Saitow         : Open-shell DLPNO-CCSD energy and density
   Barbara Sandhoefer     : DKH picture change effects
   Avijit Sen             : IP-ROCIS
   Kantharuban Sivalingam : CASSCF convergence, NEVPT2, FIC-MRCI
   Bernardo de Souza      : ESD, SOC TD-DFT
   Georgi Stoychev        : AutoAux, RI-MP2 NMR
   Willem Van den Heuvel  : Paramagnetic NMR
   Boris Wezisla          : Elementary symmetry handling
   Frank Wennmohs         : Technical directorship


 We gratefully acknowledge several colleagues who have allowed us to
 interface, adapt or use parts of their codes:
   Stefan Grimme, W. Hujo, H. Kruse,             : VdW corrections, initial TS optimization,
                  C. Bannwarth                     DFT functionals, gCP, sTDA/sTD-DF
   Ed Valeev, F. Pavosevic, A. Kumar             : LibInt (2-el integral package), F12 methods
   Garnet Chan, S. Sharma, J. Yang, R. Olivares  : DMRG
   Ulf Ekstrom                                   : XCFun DFT Library
   Mihaly Kallay                                 : mrcc  (arbitrary order and MRCC methods)
   Andreas Klamt, Michael Diedenhofen            : otool_cosmo (COSMO solvation model)
   Jiri Pittner, Ondrej Demel                    : Mk-CCSD
   Frank Weinhold                                : gennbo (NPA and NBO analysis)
   Christopher J. Cramer and Donald G. Truhlar   : smd solvation model
   Lars Goerigk                                  : TD-DFT with DH, B97 family of functionals
   V. Asgeirsson, H. Jonsson                     : NEB implementation
   FAccTs GmbH                                   : IRC, NEB, NEB-TS, Multilevel, MM, QM/MM, CI optimization
   S Lehtola, MJT Oliveira, MAL Marques          : LibXC Library


 Your calculation uses the libint2 library for the computation of 2-el integrals
 For citations please refer to: http://libint.valeyev.net

 Your ORCA version has been built with support for libXC version: 4.2.3
 For citations please refer to: https://tddft.org/programs/libxc/

 This ORCA versions uses:
   CBLAS   interface :  Fast vector & matrix operations
   LAPACKE interface :  Fast linear algebra routines
   SCALAPACK package :  Parallel linear algebra routines




***************************************
The coordinates will be read from file: s_4b1_a.xyz
***************************************


Your calculation utilizes the atom-pairwise dispersion correction
with the Becke-Johnson damping scheme (D3BJ)
Cite in your paper:
S.Grimme, S.Ehrlich, L.Goerigk, J Comput Chem, (2011), 32, 1456–1465 
S.Grimme, J.Antony, S.Ehrlich and H.Krieg, J.Chem.Phys., 132, (2010), 154104 
   

Your calculation employs the composite approach B97-3c by Grimme and coworkers.
For the correct reference, please check the publication list of the Grimme group:
http://www.thch.uni-bonn.de/tc/index.php?section=publikationen&subsection=grimme#2017
   

XCFun DFT library Copyright 2009-2010 Ulf Ekstrom and contributors.
See http://admol.org/xcfun for more information. This is free soft-
ware; see the source code for copying conditions. There is ABSOLUTELY
NO WARRANTY; not even for MERCHANTABILITY or FITNESS FOR A PARTICULAR
PURPOSE. For details see the documentation. Scientific users of this 
library should cite U. Ekstrom, L. Visscher, R. Bast, A. J. Thorvald-
sen and K. Ruud; J.Chem.Theor.Comp. 2010, DOI: 10.1021/ct100117s
XCFun Version 0.99 
----- Orbital basis set information -----
Your calculation utilizes the basis: def2-mTZVP
----- AuxJ basis set information -----
Your calculation utilizes the basis: def2-mTZVP/J
cite the ECPs for Pd [Def2-ECP] as follows:
Ce-Yb(ecp-28): M. Dolg, H. Stoll, H.Preuss, J. Chem. Phys., 1989, 90, 1730-1734.
Y-Cd(ecp-28), Hf-Hg(ecp-46): D. Andrae,U. Haeussermann, M. Dolg, H. Stoll, H. Preuss, Theor. Chim. Acta, 1990, 77, 123-141.
In-Sb(ecp-28), Tl-Bi(ecp-46): B. Metz, H. Stoll, M. Dolg, J. Chem. Phys., 2000, 113, 2563-2569.
Te-Xe(ecp-28), Po-Rn(ecp-46): K. A. Peterson, D. Figgen, E. Goll, H. Stoll, M. Dolg, J. Chem. Phys., 2003, 119, 11113-11123.
Rb(ecp-28), Cs(ecp-46): T. Leininger, A. Nicklass, W. Kuechle, H. Stoll, M. Dolg, A. Bergner, Chem. Phys. Lett., 1996, 255, 274-280.
Sr(ecp-28), Ba(ecp-46): M. Kaupp, P. V. Schleyer, H. Stoll and H. Preuss, J. Chem. Phys., 1991, 94, 1360-1366.
La(ecp-46): M. Dolg, H. Stoll, A. Savin, H. Preuss, Theor. Chim. Acta, 1989, 75, 173-194.
Lu(ecp-28): X. Cao, M. Dolg, J. Chem. Phys., 2001, 115, 7348-7355.

ECP parameters for Pd [Def2-ECP] have been obtained from:
TURBOMOLE (7.0.2)

================================================================================
                                        WARNINGS
                       Please study these warnings very carefully!
================================================================================


INFO   : the flag for use of LIBINT has been found!

================================================================================
                                       INPUT FILE
================================================================================
NAME = s_4b1_a_B97-3c.in
|  1> ! DFT SP B97-3c TightSCF printbasis  Grid6 NOFINALGRID SlowConv 
|  2> 
|  3> %base "_s_4b1_a_B97-3c"
|  4> %maxcore 3000
|  5> %scf
|  6>    MaxIter 2000
|  7> end
|  8> %pal
|  9>    nprocs 32
| 10> end
| 11> 
| 12> * xyzfile 4 1 s_4b1_a.xyz
| 13> 
| 14>                          ****END OF INPUT****
================================================================================

                       ****************************
                       * Single Point Calculation *
                       ****************************

---------------------------------
CARTESIAN COORDINATES (ANGSTROEM)
---------------------------------
  Pd     0.515800    5.842300    0.104800
  Pd     1.239200   -5.491100   -0.041000
  C      5.582500    2.011600   -0.336600
  C      5.582100    3.198300   -0.572400
  C      5.769800    4.555200   -0.899000
  C      7.042900    4.968600   -1.254100
  C      7.305800    6.296500   -1.601400
  C      6.300100    7.229900   -1.605600
  C      4.991400    6.853200   -1.254800
  C      3.919900    7.773000   -1.247200
  C      2.672200    7.357100   -0.890400
  N      2.406700    6.072400   -0.535700
  C      3.379900    5.181300   -0.539400
  C      4.704000    5.504600   -0.890400
  H      7.847000    4.248800   -1.258600
  H      8.311500    6.581300   -1.869400
  H      6.497400    8.255200   -1.876000
  H      4.100400    8.799700   -1.523000
  H      1.833100    8.051500   -0.885600
  H      3.118800    4.166600   -0.254100
  C      5.506400    0.621800   -0.113300
  C      4.576100    0.096100    0.788100
  C      4.438300   -1.269000    0.913500
  C      5.223000   -2.139600    0.151200
  C      6.204200   -1.611600   -0.688400
  C      6.344000   -0.244800   -0.823100
  H      3.965500    0.763300    1.374500
  H      3.729700   -1.669300    1.621800
  H      6.827700   -2.272100   -1.270800
  H      7.083600    0.159900   -1.496500
  C      4.933500   -3.580700    0.163800
  C      5.901000   -4.589900    0.163800
  C      5.494600   -5.914300    0.137300
  C      4.140900   -6.218800    0.098500
  N      3.218600   -5.257000    0.087400
  C      3.601200   -3.979200    0.122400
  H      6.949500   -4.338000    0.198900
  H      6.221400   -6.710500    0.144600
  H      3.779400   -7.240900    0.072200
  H      2.813800   -3.224100    0.095600
  C      1.197000    1.663200    4.861800
  C      1.374500    2.856700    4.950200
  C      1.636000    4.210000    5.239000
  C      1.987900    4.541700    6.536600
  C      2.271900    5.861400    6.898300
  C      2.214700    6.868600    5.968200
  C      1.865000    6.576400    4.637900
  C      1.795900    7.574500    3.641200
  C      1.444500    7.238000    2.368300
  N      1.153700    5.960700    2.006800
  C      1.215100    4.998700    2.907900
  C      1.565600    5.236900    4.250100
  H      2.039600    3.763300    7.282300
  H      2.539500    6.081200    7.920300
  H      2.435700    7.888200    6.241900
  H      2.020800    8.597200    3.898500
  H      1.392500    7.994000    1.586000
  H      0.978900    3.993700    2.571200
  C      1.043200    0.273600    4.681800
  C      1.812300   -0.615700    5.439600
  C      1.745900   -1.973000    5.196700
  C      0.916800   -2.468300    4.190000
  C      0.096100   -1.582000    3.485900
  C      0.153200   -0.226600    3.726900
  H      2.477500   -0.233400    6.198300
  H      2.373200   -2.647400    5.758800
  H     -0.603500   -1.964000    2.758900
  H     -0.478500    0.453100    3.178100
  C      0.973900   -3.881700    3.790400
  C      1.043000   -4.960300    4.677200
  C      1.132200   -6.246500    4.169900
  C      1.165300   -6.444400    2.796400
  N      1.110600   -5.415900    1.950700
  C      1.013900   -4.174700    2.430900
  H      1.012500   -4.791100    5.742400
  H      1.178500   -7.095100    4.833300
  H      1.239800   -7.433100    2.357000
  H      0.986900   -3.361600    1.703700
  C     -4.018800    1.384200    0.458000
  C     -4.167300    2.554400    0.727200
  C     -4.524100    3.866800    1.092300
  C     -5.836000    4.103400    1.467300
  C     -6.264000    5.377000    1.852000
  C     -5.386800    6.431900    1.873800
  C     -4.044300    6.236100    1.504000
  C     -3.100300    7.286400    1.513100
  C     -1.812900    7.043800    1.138000
  N     -1.387300    5.813000    0.749700
  C     -2.237700    4.804100    0.735900
  C     -3.589200    4.945500    1.102500
  H     -6.540800    3.286200    1.457800
  H     -7.295200    5.522800    2.134600
  H     -5.711700    7.416000    2.172600
  H     -3.409000    8.274200    1.816000
  H     -1.070600    7.840800    1.145100
  H     -1.850700    3.838900    0.423300
  C     -3.769200    0.021700    0.196600
  C     -2.788700   -0.358700   -0.724300
  C     -2.480200   -1.691700   -0.886300
  C     -3.140700   -2.673900   -0.142100
  C     -4.173000   -2.296200    0.717000
  C     -4.483600   -0.962100    0.888500
  H     -2.273200    0.395100   -1.297100
  H     -1.733500   -1.980800   -1.609500
  H     -4.702100   -3.045000    1.285800
  H     -5.262000   -0.671600    1.576800
  C     -2.669900   -4.065400   -0.192900
  C     -3.500500   -5.189900   -0.213700
  C     -2.927900   -6.451500   -0.221800
  C     -1.546100   -6.581200   -0.196100
  N     -0.754200   -5.509900   -0.165200
  C     -1.297300   -4.291100   -0.167400
  H     -4.572800   -5.073400   -0.237700
  H     -3.547000   -7.333900   -0.245800
  H     -1.056900   -7.549100   -0.196200
  H     -0.612900   -3.442200   -0.125700
  C      0.378300    1.732500   -4.758800
  C      0.050500    2.895700   -4.817700
  C     -0.380800    4.211600   -5.073500
  C     -0.768500    4.529400   -6.364400
  C     -1.217900    5.811000   -6.694000
  C     -1.292800    6.792500   -5.738100
  C     -0.912300    6.512800   -4.413600
  C     -0.974200    7.485200   -3.391400
  C     -0.585500    7.163500   -2.125500
  N     -0.133700    5.925100   -1.795200
  C     -0.069400    4.986900   -2.720800
  C     -0.444800    5.213000   -4.058300
  H     -0.718100    3.770500   -7.130100
  H     -1.508400    6.021400   -7.711800
  H     -1.641800    7.782300   -5.987000
  H     -1.327900    8.477000   -3.623800
  H     -0.633000    7.899300   -1.323900
  H      0.292800    4.012000   -2.408600
  C      0.708400    0.369800   -4.613600
  C      0.066000   -0.590100   -5.402600
  C      0.305100   -1.933700   -5.194600
  C      1.183800   -2.345400   -4.192300
  C      1.878400   -1.380300   -3.456800
  C      1.648800   -0.037500   -3.662800
  H     -0.637300   -0.276000   -6.158200
  H     -0.225800   -2.667600   -5.780900
  H      2.616400   -1.688800   -2.732700
  H      2.183600    0.702600   -3.089800
  C      1.306200   -3.764500   -3.829400
  C      1.383400   -4.819500   -4.743600
  C      1.457700   -6.119200   -4.269400
  C      1.441500   -6.355500   -2.901600
  N      1.356600   -5.351000   -2.030000
  C      1.294600   -4.095700   -2.478200
  H      1.399400   -4.620100   -5.803800
  H      1.525900   -6.949100   -4.954200
  H      1.492800   -7.356600   -2.488000
  H      1.209900   -3.305000   -1.730900

----------------------------
CARTESIAN COORDINATES (A.U.)
----------------------------
  NO LB      ZA    FRAG     MASS         X           Y           Z
   0 Pd   18.0000*   0   106.400    0.974721   11.040347    0.198043
   1 Pd   18.0000*   0   106.400    2.341749  -10.376675   -0.077479
   2 C     6.0000    0    12.011   10.549396    3.801373   -0.636082
   3 C     6.0000    0    12.011   10.548640    6.043911   -1.081679
   4 C     6.0000    0    12.011   10.903342    8.608080   -1.698864
   5 C     6.0000    0    12.011   13.309152    9.389293   -2.369906
   6 C     6.0000    0    12.011   13.805961   11.898661   -3.026207
   7 C     6.0000    0    12.011   11.905464   13.662531   -3.034144
   8 C     6.0000    0    12.011    9.432379   12.950671   -2.371228
   9 C     6.0000    0    12.011    7.407537   14.688841   -2.356866
  10 C     6.0000    0    12.011    5.049726   13.902904   -1.682612
  11 N     7.0000    0    14.007    4.548004   11.475173   -1.012326
  12 C     6.0000    0    12.011    6.387085    9.791238   -1.019318
  13 C     6.0000    0    12.011    8.889272   10.402186   -1.682612
  14 H     1.0000    0     1.008   14.828681    8.029068   -2.378409
  15 H     1.0000    0     1.008   15.706459   12.436855   -3.532654
  16 H     1.0000    0     1.008   12.278307   15.600067   -3.545126
  17 H     1.0000    0     1.008    7.748633   16.629023   -2.878053
  18 H     1.0000    0     1.008    3.464057   15.215130   -1.673541
  19 H     1.0000    0     1.008    5.893678    7.873733   -0.480179
  20 C     6.0000    0    12.011   10.405588    1.175032   -0.214106
  21 C     6.0000    0    12.011    8.647576    0.181603    1.489293
  22 C     6.0000    0    12.011    8.387172   -2.398062    1.726265
  23 C     6.0000    0    12.011    9.870040   -4.043258    0.285727
  24 C     6.0000    0    12.011   11.724239   -3.045483   -1.300887
  25 C     6.0000    0    12.011   11.988423   -0.462605   -1.555434
  26 H     1.0000    0     1.008    7.493709    1.442428    2.597429
  27 H     1.0000    0     1.008    7.048112   -3.154520    3.064758
  28 H     1.0000    0     1.008   12.902483   -4.293647   -2.401464
  29 H     1.0000    0     1.008   13.386064    0.302167   -2.827975
  30 C     6.0000    0    12.011    9.322964   -6.766542    0.309537
  31 C     6.0000    0    12.011   11.151274   -8.673654    0.309537
  32 C     6.0000    0    12.011   10.383289  -11.176407    0.259459
  33 C     6.0000    0    12.011    7.825167  -11.751829    0.186138
  34 N     7.0000    0    14.007    6.082273   -9.934290    0.165162
  35 C     6.0000    0    12.011    6.805282   -7.519598    0.231302
  36 H     1.0000    0     1.008   13.132652   -8.197632    0.375867
  37 H     1.0000    0     1.008   11.756742  -12.681007    0.273254
  38 H     1.0000    0     1.008    7.142031  -13.683318    0.136438
  39 H     1.0000    0     1.008    5.317311   -6.092666    0.180658
  40 C     6.0000    0    12.011    2.262002    3.142993    9.187471
  41 C     6.0000    0    12.011    2.597429    5.398381    9.354522
  42 C     6.0000    0    12.011    3.091592    7.955747    9.900275
  43 C     6.0000    0    12.011    3.756587    8.582569   12.352384
  44 C     6.0000    0    12.011    4.293269   11.076441   13.035898
  45 C     6.0000    0    12.011    4.185176   12.979773   11.278264
  46 C     6.0000    0    12.011    3.524339   12.427595    8.764361
  47 C     6.0000    0    12.011    3.393759   14.313731    6.880871
  48 C     6.0000    0    12.011    2.729709   13.677838    4.475438
  49 N     7.0000    0    14.007    2.180177   11.264091    3.792302
  50 C     6.0000    0    12.011    2.296206    9.446174    5.495135
  51 C     6.0000    0    12.011    2.958555    9.896307    8.031525
  52 H     1.0000    0     1.008    3.854285    7.111606   13.761553
  53 H     1.0000    0     1.008    4.798960   11.491803   14.967198
  54 H     1.0000    0     1.008    4.602806   14.906538   11.795482
  55 H     1.0000    0     1.008    3.818759   16.246354    7.367097
  56 H     1.0000    0     1.008    2.631444   15.106471    2.997106
  57 H     1.0000    0     1.008    1.849853    7.546999    4.858864
  58 C     6.0000    0    12.011    1.971362    0.517029    8.847320
  59 C     6.0000    0    12.011    3.424751   -1.163504   10.279354
  60 C     6.0000    0    12.011    3.299273   -3.728430    9.820340
  61 C     6.0000    0    12.011    1.732501   -4.664411    7.917953
  62 C     6.0000    0    12.011    0.181603   -2.989547    6.587396
  63 C     6.0000    0    12.011    0.289506   -0.428212    7.042820
  64 H     1.0000    0     1.008    4.681796   -0.441062   11.713089
  65 H     1.0000    0     1.008    4.484698   -5.002861   10.882555
  66 H     1.0000    0     1.008   -1.140450   -3.711422    5.213565
  67 H     1.0000    0     1.008   -0.904234    0.856235    6.005739
  68 C     6.0000    0    12.011    1.840404   -7.335350    7.162818
  69 C     6.0000    0    12.011    1.970984   -9.373609    8.838627
  70 C     6.0000    0    12.011    2.139548  -11.804174    7.879969
  71 C     6.0000    0    12.011    2.202098  -12.178151    5.284430
  72 N     7.0000    0    14.007    2.098730  -10.234568    3.686289
  73 C     6.0000    0    12.011    1.915993   -7.889040    4.593735
  74 H     1.0000    0     1.008    1.913348   -9.053867   10.851563
  75 H     1.0000    0     1.008    2.227042  -13.407796    9.133613
  76 H     1.0000    0     1.008    2.342882  -14.046523    4.454084
  77 H     1.0000    0     1.008    1.864971   -6.352503    3.219526
  78 C     6.0000    0    12.011   -7.594431    2.615759    0.865495
  79 C     6.0000    0    12.011   -7.875056    4.827116    1.374209
  80 C     6.0000    0    12.011   -8.549310    7.307193    2.064148
  81 C     6.0000    0    12.011  -11.028442    7.754302    2.772795
  82 C     6.0000    0    12.011  -11.837245   10.161057    3.499773
  83 C     6.0000    0    12.011  -10.179577   12.154530    3.540969
  84 C     6.0000    0    12.011   -7.642619   11.784521    2.842148
  85 C     6.0000    0    12.011   -5.858718   13.769301    2.859345
  86 C     6.0000    0    12.011   -3.425885   13.310853    2.150508
  87 N     7.0000    0    14.007   -2.621617   10.984978    1.416728
  88 C     6.0000    0    12.011   -4.228640    9.078433    1.390649
  89 C     6.0000    0    12.011   -6.782605    9.345641    2.083423
  90 H     1.0000    0     1.008  -12.360321    6.210018    2.754843
  91 H     1.0000    0     1.008  -13.785930   10.436579    4.033809
  92 H     1.0000    0     1.008  -10.793549   14.014209    4.105619
  93 H     1.0000    0     1.008   -6.442076   15.635972    3.431743
  94 H     1.0000    0     1.008   -2.023141   14.816965    2.163925
  95 H     1.0000    0     1.008   -3.497316    7.254470    0.799921
  96 C     6.0000    0    12.011   -7.122756    0.041007    0.371520
  97 C     6.0000    0    12.011   -5.269879   -0.677845   -1.368729
  98 C     6.0000    0    12.011   -4.686899   -3.196850   -1.674864
  99 C     6.0000    0    12.011   -5.935063   -5.052939   -0.268530
 100 C     6.0000    0    12.011   -7.885827   -4.339189    1.354934
 101 C     6.0000    0    12.011   -8.472776   -1.818106    1.679022
 102 H     1.0000    0     1.008   -4.295725    0.746631   -2.451164
 103 H     1.0000    0     1.008   -3.275840   -3.743170   -3.041514
 104 H     1.0000    0     1.008   -8.885681   -5.754216    2.429810
 105 H     1.0000    0     1.008   -9.943739   -1.269140    2.979720
 106 C     6.0000    0    12.011   -5.045380   -7.682493   -0.364528
 107 C     6.0000    0    12.011   -6.614986   -9.807490   -0.403834
 108 C     6.0000    0    12.011   -5.532929  -12.191568   -0.419141
 109 C     6.0000    0    12.011   -2.921706  -12.436666   -0.370575
 110 N     7.0000    0    14.007   -1.425231  -10.412202   -0.312183
 111 C     6.0000    0    12.011   -2.451542   -8.109004   -0.316340
 112 H     1.0000    0     1.008   -8.641340   -9.587337   -0.449188
 113 H     1.0000    0     1.008   -6.702859  -13.859062   -0.464495
 114 H     1.0000    0     1.008   -1.997252  -14.265732   -0.370764
 115 H     1.0000    0     1.008   -1.158213   -6.504815   -0.237539
 116 C     6.0000    0    12.011    0.714883    3.273951   -8.992829
 117 C     6.0000    0    12.011    0.095431    5.472080   -9.104134
 118 C     6.0000    0    12.011   -0.719608    7.958771   -9.587526
 119 C     6.0000    0    12.011   -1.452255    8.559326  -12.026973
 120 C     6.0000    0    12.011   -2.301497   10.981199  -12.649827
 121 C     6.0000    0    12.011   -2.443038   12.835965  -10.843438
 122 C     6.0000    0    12.011   -1.723997   12.307408   -8.340495
 123 C     6.0000    0    12.011   -1.840971   14.144978   -6.408817
 124 C     6.0000    0    12.011   -1.106435   13.537053   -4.016613
 125 N     7.0000    0    14.007   -0.252656   11.196816   -3.392436
 126 C     6.0000    0    12.011   -0.131147    9.423875   -5.141567
 127 C     6.0000    0    12.011   -0.840550    9.851142   -7.669076
 128 H     1.0000    0     1.008   -1.357012    7.125212  -13.473936
 129 H     1.0000    0     1.008   -2.850463   11.378797  -14.573190
 130 H     1.0000    0     1.008   -3.102552   14.706416  -11.313790
 131 H     1.0000    0     1.008   -2.509367   16.019208   -6.847990
 132 H     1.0000    0     1.008   -1.196197   14.927514   -2.501808
 133 H     1.0000    0     1.008    0.553312    7.581581   -4.551594
 134 C     6.0000    0    12.011    1.338682    0.698821   -8.718440
 135 C     6.0000    0    12.011    0.124722   -1.115127  -10.209434
 136 C     6.0000    0    12.011    0.576555   -3.654163   -9.816371
 137 C     6.0000    0    12.011    2.237058   -4.432164   -7.922299
 138 C     6.0000    0    12.011    3.549662   -2.608389   -6.532405
 139 C     6.0000    0    12.011    3.115780   -0.070865   -6.921689
 140 H     1.0000    0     1.008   -1.204322   -0.521564  -11.637311
 141 H     1.0000    0     1.008   -0.426700   -5.041033  -10.924318
 142 H     1.0000    0     1.008    4.944279   -3.191369   -5.164055
 143 H     1.0000    0     1.008    4.126406    1.327722   -5.838876
 144 C     6.0000    0    12.011    2.468360   -7.113874   -7.236517
 145 C     6.0000    0    12.011    2.614247   -9.107535   -8.964105
 146 C     6.0000    0    12.011    2.754654  -11.563612   -8.067997
 147 C     6.0000    0    12.011    2.724040  -12.010154   -5.483229
 148 N     7.0000    0    14.007    2.563602  -10.111925   -3.836144
 149 C     6.0000    0    12.011    2.446439   -7.739751   -4.683119
 150 H     1.0000    0     1.008    2.644483   -8.730724  -10.967593
 151 H     1.0000    0     1.008    2.883533  -13.131896   -9.362081
 152 H     1.0000    0     1.008    2.820983  -13.901959   -4.701639
 153 H     1.0000    0     1.008    2.286380   -6.245545   -3.270927
* core charge reduced due to ECP

--------------------------------
INTERNAL COORDINATES (ANGSTROEM)
--------------------------------
 Pd     0   0   0     0.000000000000     0.00000000     0.00000000
 Pd     1   0   0    11.357399383662     0.00000000     0.00000000
 C      1   2   0     6.367145776563    49.31204202     0.00000000
 C      3   1   2     1.209900281015    54.77063533   165.69904069
 C      4   3   1     1.408217476102   171.98768658   183.43478393
 C      5   4   3     1.384839044799   118.01121056   355.03129946
 C      6   5   4     1.397516407775   121.35317891   179.49258810
 C      7   6   5     1.372109940930   120.61428862   359.67957616
 C      8   7   6     1.406292722018   119.94105574     0.16051389
 C      9   8   7     1.412162189694   122.20693275   180.21306312
 C     10   9   8     1.362730472250   119.82410544   180.43715004
 N     11  10   9     1.358954167733   122.39401602   359.94581000
 C     12  11  10     1.319542019035   119.57663294   359.58676857
 C     13  12  11     1.407467477422   122.64426102     0.44030128
 H      6   5   4     1.079216892010   119.13878566   359.28896541
 H      7   6   5     1.079058631401   119.19858277   179.80756957
 H      8   7   6     1.078556229410   120.88815938   180.20096916
 H     10   9   8     1.078312932316   119.45753428     0.32139685
 H     11  10   9     1.089175472548   120.79351944   180.42153341
 H     13  12  11     1.085903029741   116.93362214   180.33543551
 C      3   1   2     1.409680155213   122.62996756   348.97566467
 C     21   3   1     1.397977303106   120.58405670   329.13845313
 C     22  21   3     1.377756150413   119.85679928   174.64250983
 C     23  22  21     1.398141530747   120.74408477     0.21573358
 C     24  23  22     1.395157912209   119.15509180     3.54044074
 C     25  24  23     1.380518152724   120.30673541   356.20874870
 H     22  21   3     1.077892926037   119.66863561   355.15195804
 H     23  22  21     1.078908216671   119.54169894   179.04984789
 H     25  24  23     1.078982048043   119.97108845   179.03653041
 H     26  25  24     1.079007789592   120.10896881   181.89292772
 C     24  23  22     1.469944971759   119.68664232   188.38451033
 C     31  24  23     1.398048958370   124.84819594   218.89341132
 C     32  31  24     1.385604045173   119.14373195   181.85318641
 C     33  32  31     1.388066777933   119.75250652     0.60756375
 N     34  33  32     1.332598866876   121.12278133   359.93719374
 C     35  34  33     1.334309034669   119.50554855   359.58552508
 H     32  31  24     1.078905867071   120.26460582     2.75710696
 H     33  32  31     1.078065846783   120.53452897   180.48593613
 H     34  33  32     1.084464084237   122.17612804   179.71257378
 H     36  35  34     1.091280445165   117.07119147   179.04968373
 C     27  22  21     4.542650498332   152.31234538   196.17483768
 C     41  27  22     1.209860760584    99.32882718   157.53708918
 C     42  41  27     1.408264385689   171.97279052   237.45927604
 C     43  42  41     1.384783109371   118.00408367   355.38132732
 C     44  43  42     1.397530314519   121.35590330   179.52741538
 C     45  44  43     1.372155126070   120.61345555   359.69876795
 C     46  45  44     1.406189539145   119.94021721     0.12972562
 C     47  46  45     1.412228490720   122.20720419   180.21965859
 C     48  47  46     1.362713697003   119.82444715   180.36277469
 N     49  48  47     1.358948924721   122.39547879   359.90363311
 C     50  49  48     1.319543546079   119.57894902   359.68156277
 C     51  50  49     1.407512106520   122.64336724     0.38956094
 H     44  43  42     1.079188556277   119.13590757   359.30861183
 H     45  44  43     1.079076364304   119.20056746   179.80773839
 H     46  45  44     1.078580942721   120.88649174   180.17238857
 H     48  47  46     1.078285022617   119.45290051     0.24206435
 H     49  48  47     1.089143374400   120.78648513   180.39526870
 H     51  50  49     1.085901620774   116.92761232   180.28988040
 C     41  27  22     1.409624985590    76.89014121   337.14337351
 C     59  41  27     1.398795960818   119.83876775    94.59714757
 C     60  59  41     1.380461031685   120.22011706   185.13369893
 C     61  60  59     1.395053328730   120.30767105     0.30953562
 C     62  61  60     1.398153421481   119.15646030   356.20894175
 C     63  62  61     1.377842723245   120.74196411     3.53543142
 H     60  59  41     1.079013447553   119.64596704     3.54924857
 H     61  60  59     1.079016709787   119.66327625   177.48317195
 H     63  62  61     1.078838801675   119.70589504   184.70967654
 H     64  63  62     1.078062345136   120.45689188   179.71806399
 C     62  61  60     1.469911606186   120.96262002   171.28502178
 C     69  62  61     1.398058299929   124.84226808    43.89810824
 C     70  69  62     1.385503652106   119.15236736   181.90689170
 C     71  70  69     1.388078625295   119.74829877     0.65201874
 N     72  71  70     1.332671313565   121.12560356   359.89536283
 C     73  72  71     1.334361409064   119.50366067   359.57499855
 H     70  69  62     1.078985602314   120.25339954     2.79175710
 H     71  70  69     1.078130423465   120.54092765   180.50569696
 H     72  71  70     1.084504633462   122.17596277   179.67657172
 H     74  73  72     1.091183050638   117.07087209   179.11510431
 C     68  64  63     4.560659525770   152.52329828    14.31652566
 C     79  68  64     1.209912777848    99.20875611   159.45110215
 C     80  79  68     1.408189621464   171.96016124   237.65462284
 C     81  80  79     1.384805462872   118.00034837   355.39080737
 C     82  81  80     1.397581858068   121.35625180   179.53732568
 C     83  82  81     1.372140331745   120.60998893   359.69936993
 C     84  83  82     1.406199107524   119.94099647     0.13287540
 C     85  84  83     1.412214183472   122.20311722   180.20743307
 C     86  85  84     1.362700821897   119.82402262   180.37051210
 N     87  86  85     1.358963167271   122.39576848   359.91018457
 C     88  87  86     1.319564250046   119.57892787   359.66972767
 C     89  88  87     1.407459331562   122.63571721     0.39990528
 H     82  81  80     1.079189107617   119.13962589   359.31289704
 H     83  82  81     1.079117157680   119.19969228   179.80630338
 H     84  83  82     1.078561199005   120.88329774   180.17333481
 H     86  85  84     1.078328771757   119.45470521     0.24819718
 H     87  86  85     1.089159630174   120.78419248   180.38434677
 H     89  88  87     1.085863158966   116.93233115   180.30389583
 C     79  68  64     1.409622775781    77.04498888   339.03022393
 C     97  79  68     1.397906012577   120.62279423   276.36211479
 C     98  97  79     1.377789987625   119.85352804   174.60203981
 C     99  98  97     1.398145460959   120.75062628     0.22229452
 C    100  99  98     1.395117697544   119.15261058     3.56180623
 C    101 100  99     1.380473621624   120.30606988   356.18251778
 H     98  97  79     1.077986331082   119.68141627   355.11568035
 H     99  98  97     1.078961509972   119.53797842   179.05122293
 H    101 100  99     1.078972515869   119.97264080   179.03117830
 H    102 101 100     1.078913203182   120.11844671   181.90328809
 C    100  99  98     1.469865820407   119.69204859   188.46733306
 C    107 100  99     1.398152084002   124.86388087   218.91700101
 C    108 107 100     1.385485810104   119.13880667   181.91173579
 C    109 108 107     1.388111602142   119.76070737     0.62448500
 N    110 109 108     1.332570489693   121.12290203   359.91904543
 C    111 110 109     1.334329753097   119.49921971   359.57664143
 H    108 107 100     1.078876980939   120.26044297     2.79853238
 H    109 108 107     1.078188559576   120.53406814   180.49408080
 H    110 109 108     1.084503139691   122.16908772   179.68095171
 H    112 111 110     1.091225668686   117.08017922   179.07193773
 C    103  98  97     4.560971157550   152.41701835   194.72540842
 C    117 103  98     1.209940614245    99.28511066   158.63230705
 C    118 117 103     1.408206710679   171.96067883   237.54773828
 C    119 118 117     1.384821627503   118.00321655   355.26267219
 C    120 119 118     1.397531781392   121.35418453   179.51385487
 C    121 120 119     1.372114087822   120.61255744   359.69065136
 C    122 121 120     1.406169474139   119.94350924     0.14531193
 C    123 122 121     1.412191987656   122.20664735   180.20674062
 C    124 123 122     1.362747735276   119.82450490   180.39785666
 N    125 124 123     1.358990761558   122.39282104   359.92104047
 C    126 125 124     1.319503349749   119.58011824   359.64422402
 C    127 126 125     1.407463186019   122.64195217     0.40761993
 H    120 119 118     1.079243188535   119.13802683   359.29611724
 H    121 120 119     1.079154877670   119.19560858   179.80300143
 H    122 121 120     1.078636291806   120.88457350   180.18478124
 H    124 123 122     1.078323091657   119.45240876     0.27731093
 H    125 124 123     1.089137479844   120.78163204   180.40706618
 H    127 126 125     1.085858043208   116.93241951   180.32076149
 C    117 103  98     1.409609995708    76.96706697   338.20679898
 C    135 117 103     1.398787607180   119.85127327    94.89834247
 C    136 135 117     1.380468677660   120.22366055   185.12457131
 C    137 136 135     1.395068410509   120.30317197     0.30960278
 C    138 137 136     1.398158581850   119.15362711   356.19073818
 C    139 138 137     1.377775017918   120.75050959     3.55430596
 H    136 135 117     1.078990759923   119.64225849     3.54597437
 H    137 136 135     1.078986427162   119.66415036   177.48744631
 H    139 138 137     1.078951833957   119.70152704   184.72919114
 H    140 139 138     1.078001878477   120.46239281   179.70868530
 C    138 137 136     1.469871756311   120.98072201   171.24051884
 C    145 138 137     1.398122483905   124.86744253    43.93109519
 C    146 145 138     1.385498545651   119.14493618   181.86186179
 C    147 146 145     1.388155960258   119.75545356     0.61910724
 N    148 147 146     1.332634541050   121.12348309   359.93863842
 C    149 148 147     1.334355773398   119.49739836   359.56982499
 H    146 145 138     1.078907039554   120.25827171     2.75541231
 H    147 146 145     1.078117011275   120.53700455   180.48760404
 H    148 147 146     1.084388242282   122.16907134   179.70053325
 H    150 149 148     1.091255180973   117.08002264   179.05176971

---------------------------
INTERNAL COORDINATES (A.U.)
---------------------------
 Pd     0   0   0     0.000000000000     0.00000000     0.00000000
 Pd     1   0   0    21.462374428687     0.00000000     0.00000000
 C      1   2   0    12.032161772457    49.31204202     0.00000000
 C      3   1   2     2.286380180473    54.77063533   165.69904069
 C      4   3   1     2.661145366835   171.98768658   183.43478393
 C      5   4   3     2.616966534231   118.01121056   355.03129946
 C      6   5   4     2.640923278356   121.35317891   179.49258810
 C      7   6   5     2.592912013989   120.61428862   359.67957616
 C      8   7   6     2.657508108740   119.94105574     0.16051389
 C      9   8   7     2.668599795199   122.20693275   180.21306312
 C     10   9   8     2.575187386903   119.82410544   180.43715004
 N     11  10   9     2.568051205567   122.39401602   359.94581000
 C     12  11  10     2.493573038178   119.57663294   359.58676857
 C     13  12  11     2.659728074728   122.64426102     0.44030128
 H      6   5   4     2.039424365001   119.13878566   359.28896541
 H      7   6   5     2.039125295791   119.19858277   179.80756957
 H      8   7   6     2.038175893620   120.88815938   180.20096916
 H     10   9   8     2.037716128743   119.45753428     0.32139685
 H     11  10   9     2.058243354900   120.79351944   180.42153341
 H     13  12  11     2.052059334205   116.93362214   180.33543551
 C      3   1   2     2.663909429775   122.62996756   348.97566467
 C     21   3   1     2.641794244308   120.58405670   329.13845313
 C     22  21   3     2.603581803606   119.85679928   174.64250983
 C     23  22  21     2.642104589574   120.74408477     0.21573358
 C     24  23  22     2.636466367649   119.15509180     3.54044074
 C     25  24  23     2.608801231555   120.30673541   356.20874870
 H     22  21   3     2.036922431900   119.66863561   355.15195804
 H     23  22  21     2.038841053145   119.54169894   179.04984789
 H     25  24  23     2.038980574220   119.97108845   179.03653041
 H     26  25  24     2.039029218696   120.10896881   181.89292772
 C     24  23  22     2.777793428559   119.68664232   188.38451033
 C     31  24  23     2.641929653134   124.84819594   218.89341132
 C     32  31  24     2.618412175431   119.14373195   181.85318641
 C     33  32  31     2.623066065887   119.75250652     0.60756375
 N     34  33  32     2.518246904770   121.12278133   359.93719374
 C     35  34  33     2.521478653542   119.50554855   359.58552508
 H     32  31  24     2.038836613045   120.26460582     2.75710696
 H     33  32  31     2.037249204754   120.53452897   180.48593613
 H     34  33  32     2.049340121282   122.17612804   179.71257378
 H     36  35  34     2.062221176666   117.07119147   179.04968373
 C     27  22  21     8.584365363969   152.31234538   196.17483768
 C     41  27  22     2.286305497681    99.32882718   157.53708918
 C     42  41  27     2.661234013107   171.97279052   237.45927604
 C     43  42  41     2.616860831592   118.00408367   355.38132732
 C     44  43  42     2.640949558294   121.35590330   179.52741538
 C     45  44  43     2.592997401528   120.61345555   359.69876795
 C     46  45  44     2.657313121368   119.94021721     0.12972562
 C     47  46  45     2.668725085981   122.20720419   180.21965859
 C     48  47  46     2.575155686279   119.82444715   180.36277469
 N     49  48  47     2.568041297709   122.39547879   359.90363311
 C     50  49  48     2.493575923874   119.57894902   359.68156277
 C     51  50  49     2.659812411501   122.64336724     0.38956094
 H     44  43  42     2.039370818226   119.13590757   359.30861183
 H     45  44  43     2.039158806122   119.20056746   179.80773839
 H     46  45  44     2.038222595008   120.88649174   180.17238857
 H     48  47  46     2.037663387055   119.45290051     0.24206435
 H     49  48  47     2.058182698191   120.78648513   180.39526870
 H     51  50  49     2.052056671644   116.92761232   180.28988040
 C     41  27  22     2.663805174298    76.89014121   337.14337351
 C     59  41  27     2.643341283181   119.83876775    94.59714757
 C     60  59  41     2.608693288434   120.22011706   185.13369893
 C     61  60  59     2.636268733514   120.30767105     0.30953562
 C     62  61  60     2.642127059805   119.15646030   356.20894175
 C     63  62  61     2.603745402550   120.74196411     3.53543142
 H     60  59  41     2.039039910693   119.64596704     3.54924857
 H     61  60  59     2.039046075423   119.66327625   177.48317195
 H     63  62  61     2.038709877814   119.70589504   184.70967654
 H     64  63  62     2.037242587600   120.45689188   179.71806399
 C     62  61  60     2.777730376764   120.96262002   171.28502178
 C     69  62  61     2.641947306121   124.84226808    43.89810824
 C     70  69  62     2.618222460029   119.15236736   181.90689170
 C     71  70  69     2.623088454157   119.74829877     0.65201874
 N     72  71  70     2.518383809172   121.12560356   359.89536283
 C     73  72  71     2.521577626805   119.50366067   359.57499855
 H     70  69  62     2.038987290817   120.25339954     2.79175710
 H     71  70  69     2.037371236997   120.54092765   180.50569696
 H     72  71  70     2.049416748211   122.17596277   179.67657172
 H     74  73  72     2.062037127683   117.07087209   179.11510431
 C     68  64  63     8.618397493765   152.52329828    14.31652566
 C     79  68  64     2.286403796065    99.20875611   159.45110215
 C     80  79  68     2.661092729198   171.96016124   237.65462284
 C     81  80  79     2.616903073586   118.00034837   355.39080737
 C     82  81  80     2.641046961485   121.35625180   179.53732568
 C     83  82  81     2.592969444305   120.60998893   359.69936993
 C     84  83  82     2.657331202984   119.94099647     0.13287540
 C     85  84  83     2.668698049202   122.20311722   180.20743307
 C     86  85  84     2.575131355856   119.82402262   180.37051210
 N     87  86  85     2.568068212229   122.39576848   359.91018457
 C     88  87  86     2.493615048701   119.57892787   359.66972767
 C     89  88  87     2.659712681283   122.63571721     0.39990528
 H     82  81  80     2.039371860108   119.13962589   359.31289704
 H     83  82  81     2.039235894431   119.19969228   179.80630338
 H     84  83  82     2.038185284794   120.88329774   180.17333481
 H     86  85  84     2.037746060949   119.45470521     0.24819718
 H     87  86  85     2.058213417151   120.78419248   180.38434677
 H     89  88  87     2.051983989361   116.93233115   180.30389583
 C     79  68  64     2.663800998364    77.04498888   339.03022393
 C     97  79  68     2.641659524733   120.62279423   276.36211479
 C     98  97  79     2.603645746670   119.85352804   174.60203981
 C     99  98  97     2.642112016597   120.75062628     0.22229452
 C    100  99  98     2.636390372945   119.15261058     3.56180623
 C    101 100  99     2.608717079972   120.30606988   356.18251778
 H     98  97  79     2.037098941856   119.68141627   355.11568035
 H     99  98  97     2.038941762888   119.53797842   179.05122293
 H    101 100  99     2.038962561020   119.97264080   179.03117830
 H    102 101 100     2.038850476285   120.11844671   181.90328809
 C    100  99  98     2.777643854180   119.69204859   188.46733306
 C    107 100  99     2.642124532336   124.86388087   218.91700101
 C    108 107 100     2.618188743531   119.13880667   181.91173579
 C    109 108 107     2.623150771366   119.76070737     0.62448500
 N    110 109 108     2.518193279665   121.12290203   359.91904543
 C    111 110 109     2.521517805696   119.49921971   359.57664143
 H    108 107 100     2.038782026166   120.26044297     2.79853238
 H    109 108 107     2.037481098325   120.53406814   180.49408080
 H    110 109 108     2.049413925394   122.16908772   179.68095171
 H    112 111 110     2.062117664122   117.08017922   179.07193773
 C    103  98  97     8.618986392483   152.41701835   194.72540842
 C    117 103  98     2.286456399232    99.28511066   158.63230705
 C    118 117 103     2.661125023132   171.96067883   237.54773828
 C    119 118 117     2.616933620312   118.00321655   355.26267219
 C    120 119 118     2.640952330282   121.35418453   179.51385487
 C    121 120 119     2.592919850479   120.61255744   359.69065136
 C    122 121 120     2.657275204003   119.94350924     0.14531193
 C    123 122 121     2.668656105188   122.20664735   180.20674062
 C    124 123 122     2.575220009293   119.82450490   180.39785666
 N    125 124 123     2.568120357874   122.39282104   359.92104047
 C    126 125 124     2.493499963818   119.58011824   359.64422402
 C    127 126 125     2.659719965153   122.64195217     0.40761993
 H    120 119 118     2.039474058232   119.13802683   359.29611724
 H    121 120 119     2.039307174883   119.19560858   179.80300143
 H    122 121 120     2.038327189621   120.88457350   180.18478124
 H    124 123 122     2.037735327114   119.45240876     0.27731093
 H    125 124 123     2.058171559094   120.78163204   180.40706618
 H    127 126 125     2.051974321979   116.93241951   180.32076149
 C    117 103  98     2.663776847526    76.96706697   338.20679898
 C    135 117 103     2.643325497093   119.85127327    94.89834247
 C    136 135 117     2.608707737234   120.22366055   185.12457131
 C    137 136 135     2.636297233947   120.30317197     0.30960278
 C    138 137 136     2.642136811488   119.15362711   356.19073818
 C    139 138 137     2.603617458024   120.75050959     3.55430596
 H    136 135 117     2.038997037287   119.64225849     3.54597437
 H    137 136 135     2.038988849555   119.66415036   177.48744631
 H    139 138 137     2.038923477872   119.70152704   184.72919114
 H    140 139 138     2.037128322174   120.46239281   179.70868530
 C    138 137 136     2.777655071413   120.98072201   171.24051884
 C    145 138 137     2.642068596258   124.86744253    43.93109519
 C    146 145 138     2.618212810226   119.14493618   181.86186179
 C    147 146 145     2.623234596058   119.75545356     0.61910724
 N    148 147 146     2.518314319189   121.12348309   359.93863842
 C    149 148 147     2.521566976938   119.49739836   359.56982499
 H    146 145 138     2.038838828718   120.25827171     2.75541231
 H    147 146 145     2.037345891631   120.53700455   180.48760404
 H    148 147 146     2.049196800758   122.16907134   179.70053325
 H    150 149 148     2.062173434261   117.08002264   179.05176971

---------------------
BASIS SET INFORMATION
---------------------
There are 4 groups of distinct atoms

 Group   1 Type Pd  : 7s7p6d contracted to 6s4p3d pattern {211111/4111/411}
 Group   2 Type C   : 11s6p1d contracted to 5s3p1d pattern {62111/411/1}
 Group   3 Type N   : 11s6p1d contracted to 5s3p1d pattern {62111/411/1}
 Group   4 Type H   : 5s contracted to 3s pattern {311}

Atom   0Pd   basis set group =>   1
Atom   1Pd   basis set group =>   1
Atom   2C    basis set group =>   2
Atom   3C    basis set group =>   2
Atom   4C    basis set group =>   2
Atom   5C    basis set group =>   2
Atom   6C    basis set group =>   2
Atom   7C    basis set group =>   2
Atom   8C    basis set group =>   2
Atom   9C    basis set group =>   2
Atom  10C    basis set group =>   2
Atom  11N    basis set group =>   3
Atom  12C    basis set group =>   2
Atom  13C    basis set group =>   2
Atom  14H    basis set group =>   4
Atom  15H    basis set group =>   4
Atom  16H    basis set group =>   4
Atom  17H    basis set group =>   4
Atom  18H    basis set group =>   4
Atom  19H    basis set group =>   4
Atom  20C    basis set group =>   2
Atom  21C    basis set group =>   2
Atom  22C    basis set group =>   2
Atom  23C    basis set group =>   2
Atom  24C    basis set group =>   2
Atom  25C    basis set group =>   2
Atom  26H    basis set group =>   4
Atom  27H    basis set group =>   4
Atom  28H    basis set group =>   4
Atom  29H    basis set group =>   4
Atom  30C    basis set group =>   2
Atom  31C    basis set group =>   2
Atom  32C    basis set group =>   2
Atom  33C    basis set group =>   2
Atom  34N    basis set group =>   3
Atom  35C    basis set group =>   2
Atom  36H    basis set group =>   4
Atom  37H    basis set group =>   4
Atom  38H    basis set group =>   4
Atom  39H    basis set group =>   4
Atom  40C    basis set group =>   2
Atom  41C    basis set group =>   2
Atom  42C    basis set group =>   2
Atom  43C    basis set group =>   2
Atom  44C    basis set group =>   2
Atom  45C    basis set group =>   2
Atom  46C    basis set group =>   2
Atom  47C    basis set group =>   2
Atom  48C    basis set group =>   2
Atom  49N    basis set group =>   3
Atom  50C    basis set group =>   2
Atom  51C    basis set group =>   2
Atom  52H    basis set group =>   4
Atom  53H    basis set group =>   4
Atom  54H    basis set group =>   4
Atom  55H    basis set group =>   4
Atom  56H    basis set group =>   4
Atom  57H    basis set group =>   4
Atom  58C    basis set group =>   2
Atom  59C    basis set group =>   2
Atom  60C    basis set group =>   2
Atom  61C    basis set group =>   2
Atom  62C    basis set group =>   2
Atom  63C    basis set group =>   2
Atom  64H    basis set group =>   4
Atom  65H    basis set group =>   4
Atom  66H    basis set group =>   4
Atom  67H    basis set group =>   4
Atom  68C    basis set group =>   2
Atom  69C    basis set group =>   2
Atom  70C    basis set group =>   2
Atom  71C    basis set group =>   2
Atom  72N    basis set group =>   3
Atom  73C    basis set group =>   2
Atom  74H    basis set group =>   4
Atom  75H    basis set group =>   4
Atom  76H    basis set group =>   4
Atom  77H    basis set group =>   4
Atom  78C    basis set group =>   2
Atom  79C    basis set group =>   2
Atom  80C    basis set group =>   2
Atom  81C    basis set group =>   2
Atom  82C    basis set group =>   2
Atom  83C    basis set group =>   2
Atom  84C    basis set group =>   2
Atom  85C    basis set group =>   2
Atom  86C    basis set group =>   2
Atom  87N    basis set group =>   3
Atom  88C    basis set group =>   2
Atom  89C    basis set group =>   2
Atom  90H    basis set group =>   4
Atom  91H    basis set group =>   4
Atom  92H    basis set group =>   4
Atom  93H    basis set group =>   4
Atom  94H    basis set group =>   4
Atom  95H    basis set group =>   4
Atom  96C    basis set group =>   2
Atom  97C    basis set group =>   2
Atom  98C    basis set group =>   2
Atom  99C    basis set group =>   2
Atom 100C    basis set group =>   2
Atom 101C    basis set group =>   2
Atom 102H    basis set group =>   4
Atom 103H    basis set group =>   4
Atom 104H    basis set group =>   4
Atom 105H    basis set group =>   4
Atom 106C    basis set group =>   2
Atom 107C    basis set group =>   2
Atom 108C    basis set group =>   2
Atom 109C    basis set group =>   2
Atom 110N    basis set group =>   3
Atom 111C    basis set group =>   2
Atom 112H    basis set group =>   4
Atom 113H    basis set group =>   4
Atom 114H    basis set group =>   4
Atom 115H    basis set group =>   4
Atom 116C    basis set group =>   2
Atom 117C    basis set group =>   2
Atom 118C    basis set group =>   2
Atom 119C    basis set group =>   2
Atom 120C    basis set group =>   2
Atom 121C    basis set group =>   2
Atom 122C    basis set group =>   2
Atom 123C    basis set group =>   2
Atom 124C    basis set group =>   2
Atom 125N    basis set group =>   3
Atom 126C    basis set group =>   2
Atom 127C    basis set group =>   2
Atom 128H    basis set group =>   4
Atom 129H    basis set group =>   4
Atom 130H    basis set group =>   4
Atom 131H    basis set group =>   4
Atom 132H    basis set group =>   4
Atom 133H    basis set group =>   4
Atom 134C    basis set group =>   2
Atom 135C    basis set group =>   2
Atom 136C    basis set group =>   2
Atom 137C    basis set group =>   2
Atom 138C    basis set group =>   2
Atom 139C    basis set group =>   2
Atom 140H    basis set group =>   4
Atom 141H    basis set group =>   4
Atom 142H    basis set group =>   4
Atom 143H    basis set group =>   4
Atom 144C    basis set group =>   2
Atom 145C    basis set group =>   2
Atom 146C    basis set group =>   2
Atom 147C    basis set group =>   2
Atom 148N    basis set group =>   3
Atom 149C    basis set group =>   2
Atom 150H    basis set group =>   4
Atom 151H    basis set group =>   4
Atom 152H    basis set group =>   4
Atom 153H    basis set group =>   4

-------------------------
BASIS SET IN INPUT FORMAT
-------------------------

 # Basis set for element : H 
 NewGTO H 
 S 3 
   1      34.0613410000      0.0254393072
   2       5.1235746000      0.1900859489
   3       1.1646626000      0.8524411301
 S 1 
   1       0.3272304100      1.0000000000
 S 1 
   1       0.1030724100      1.0000000000
  end;

 # Basis set for element : C 
 NewGTO C 
 S 6 
   1   13575.3496820000      0.0006064549
   2    2035.2333680000      0.0046979088
   3     463.2256235900      0.0243324776
   4     131.2001959800      0.0973999683
   5      42.8530158910      0.3019558425
   6      15.5841857660      0.6623360915
 S 2 
   1       6.2067138508      0.6559530854
   2       2.5764896527      0.3758563329
 S 1 
   1       0.5769633942      1.0000000000
 S 1 
   1       0.2297283136      1.0000000000
 S 1 
   1       0.0951644400      1.0000000000
 P 4 
   1      34.6972322440      0.0113272200
   2       7.9582622826      0.0761696592
   3       2.3780826883      0.3019225220
   4       0.8143320818      0.7278502735
 P 1 
   1       0.2888754725      1.0000000000
 P 1 
   1       0.1005682367      1.0000000000
 D 1 
   1       0.8000000000      1.0000000000
  end;

 # Basis set for element : N 
 NewGTO N 
 S 6 
   1   19730.8006470000      0.0005862639
   2    2957.8958745000      0.0045428821
   3     673.2213359500      0.0235584136
   4     190.6824949400      0.0947091933
   5      62.2954418980      0.2971978492
   6      22.6541611820      0.6691624689
 S 2 
   1       8.9791477428      0.6459668363
   2       3.6863002370      0.3870057440
 S 1 
   1       0.8466007680      1.0000000000
 S 1 
   1       0.3364713377      1.0000000000
 S 1 
   1       0.1364765367      1.0000000000
 P 4 
   1      49.2003805100      0.0114488252
   2      11.3467905370      0.0784223379
   3       3.4273972411      0.3081809474
   4       1.1785525134      0.7202719637
 P 1 
   1       0.4164220497      1.0000000000
 P 1 
   1       0.1426082601      1.0000000000
 D 1 
   1       0.8000000000      1.0000000000
  end;

 # Basis set for element : Pd
 NewGTO Pd
 S 2 
   1      18.0000000000     -0.8955869481
   2      14.6621343080      1.8822771923
 S 1 
   1       5.6388709265      1.0000000000
 S 1 
   1       1.3198953252      1.0000000000
 S 1 
   1       0.5781790851      1.0000000000
 S 1 
   1       0.1035216624      1.0000000000
 S 1 
   1       0.0375484427      1.0000000000
 P 4 
   1      12.5528993000      0.0701895210
   2       7.2444496380     -0.2749252830
   3       1.8905941078      0.5623121361
   4       0.9073716876      0.5736959368
 P 1 
   1       0.4087721081      1.0000000000
 P 1 
   1       0.1150000000      1.0000000000
 P 1 
   1       0.0370000000      1.0000000000
 D 4 
   1      22.3574575750      0.0063445039
   2      10.6825263820     -0.0225156052
   3       2.4858232550      0.3884291800
   4       1.0735333903      0.6828976806
 D 1 
   1       0.4261384285      1.0000000000
 D 1 
   1       0.1504635538      1.0000000000
  end;

---------------------------------
AUXILIARY/J BASIS SET INFORMATION
---------------------------------
There are 4 groups of distinct atoms

 Group   1 Type Pd  : 11s5p5d3f3g contracted to 8s5p5d2f3g pattern {41111111/11111/11111/21/111}
 Group   2 Type C   : 8s3p3d contracted to 6s3p3d pattern {311111/111/111}
 Group   3 Type N   : 8s3p3d contracted to 6s3p3d pattern {311111/111/111}
 Group   4 Type H   : 5s2p contracted to 3s1p pattern {311/2}

Atom   0Pd   basis set group =>   1
Atom   1Pd   basis set group =>   1
Atom   2C    basis set group =>   2
Atom   3C    basis set group =>   2
Atom   4C    basis set group =>   2
Atom   5C    basis set group =>   2
Atom   6C    basis set group =>   2
Atom   7C    basis set group =>   2
Atom   8C    basis set group =>   2
Atom   9C    basis set group =>   2
Atom  10C    basis set group =>   2
Atom  11N    basis set group =>   3
Atom  12C    basis set group =>   2
Atom  13C    basis set group =>   2
Atom  14H    basis set group =>   4
Atom  15H    basis set group =>   4
Atom  16H    basis set group =>   4
Atom  17H    basis set group =>   4
Atom  18H    basis set group =>   4
Atom  19H    basis set group =>   4
Atom  20C    basis set group =>   2
Atom  21C    basis set group =>   2
Atom  22C    basis set group =>   2
Atom  23C    basis set group =>   2
Atom  24C    basis set group =>   2
Atom  25C    basis set group =>   2
Atom  26H    basis set group =>   4
Atom  27H    basis set group =>   4
Atom  28H    basis set group =>   4
Atom  29H    basis set group =>   4
Atom  30C    basis set group =>   2
Atom  31C    basis set group =>   2
Atom  32C    basis set group =>   2
Atom  33C    basis set group =>   2
Atom  34N    basis set group =>   3
Atom  35C    basis set group =>   2
Atom  36H    basis set group =>   4
Atom  37H    basis set group =>   4
Atom  38H    basis set group =>   4
Atom  39H    basis set group =>   4
Atom  40C    basis set group =>   2
Atom  41C    basis set group =>   2
Atom  42C    basis set group =>   2
Atom  43C    basis set group =>   2
Atom  44C    basis set group =>   2
Atom  45C    basis set group =>   2
Atom  46C    basis set group =>   2
Atom  47C    basis set group =>   2
Atom  48C    basis set group =>   2
Atom  49N    basis set group =>   3
Atom  50C    basis set group =>   2
Atom  51C    basis set group =>   2
Atom  52H    basis set group =>   4
Atom  53H    basis set group =>   4
Atom  54H    basis set group =>   4
Atom  55H    basis set group =>   4
Atom  56H    basis set group =>   4
Atom  57H    basis set group =>   4
Atom  58C    basis set group =>   2
Atom  59C    basis set group =>   2
Atom  60C    basis set group =>   2
Atom  61C    basis set group =>   2
Atom  62C    basis set group =>   2
Atom  63C    basis set group =>   2
Atom  64H    basis set group =>   4
Atom  65H    basis set group =>   4
Atom  66H    basis set group =>   4
Atom  67H    basis set group =>   4
Atom  68C    basis set group =>   2
Atom  69C    basis set group =>   2
Atom  70C    basis set group =>   2
Atom  71C    basis set group =>   2
Atom  72N    basis set group =>   3
Atom  73C    basis set group =>   2
Atom  74H    basis set group =>   4
Atom  75H    basis set group =>   4
Atom  76H    basis set group =>   4
Atom  77H    basis set group =>   4
Atom  78C    basis set group =>   2
Atom  79C    basis set group =>   2
Atom  80C    basis set group =>   2
Atom  81C    basis set group =>   2
Atom  82C    basis set group =>   2
Atom  83C    basis set group =>   2
Atom  84C    basis set group =>   2
Atom  85C    basis set group =>   2
Atom  86C    basis set group =>   2
Atom  87N    basis set group =>   3
Atom  88C    basis set group =>   2
Atom  89C    basis set group =>   2
Atom  90H    basis set group =>   4
Atom  91H    basis set group =>   4
Atom  92H    basis set group =>   4
Atom  93H    basis set group =>   4
Atom  94H    basis set group =>   4
Atom  95H    basis set group =>   4
Atom  96C    basis set group =>   2
Atom  97C    basis set group =>   2
Atom  98C    basis set group =>   2
Atom  99C    basis set group =>   2
Atom 100C    basis set group =>   2
Atom 101C    basis set group =>   2
Atom 102H    basis set group =>   4
Atom 103H    basis set group =>   4
Atom 104H    basis set group =>   4
Atom 105H    basis set group =>   4
Atom 106C    basis set group =>   2
Atom 107C    basis set group =>   2
Atom 108C    basis set group =>   2
Atom 109C    basis set group =>   2
Atom 110N    basis set group =>   3
Atom 111C    basis set group =>   2
Atom 112H    basis set group =>   4
Atom 113H    basis set group =>   4
Atom 114H    basis set group =>   4
Atom 115H    basis set group =>   4
Atom 116C    basis set group =>   2
Atom 117C    basis set group =>   2
Atom 118C    basis set group =>   2
Atom 119C    basis set group =>   2
Atom 120C    basis set group =>   2
Atom 121C    basis set group =>   2
Atom 122C    basis set group =>   2
Atom 123C    basis set group =>   2
Atom 124C    basis set group =>   2
Atom 125N    basis set group =>   3
Atom 126C    basis set group =>   2
Atom 127C    basis set group =>   2
Atom 128H    basis set group =>   4
Atom 129H    basis set group =>   4
Atom 130H    basis set group =>   4
Atom 131H    basis set group =>   4
Atom 132H    basis set group =>   4
Atom 133H    basis set group =>   4
Atom 134C    basis set group =>   2
Atom 135C    basis set group =>   2
Atom 136C    basis set group =>   2
Atom 137C    basis set group =>   2
Atom 138C    basis set group =>   2
Atom 139C    basis set group =>   2
Atom 140H    basis set group =>   4
Atom 141H    basis set group =>   4
Atom 142H    basis set group =>   4
Atom 143H    basis set group =>   4
Atom 144C    basis set group =>   2
Atom 145C    basis set group =>   2
Atom 146C    basis set group =>   2
Atom 147C    basis set group =>   2
Atom 148N    basis set group =>   3
Atom 149C    basis set group =>   2
Atom 150H    basis set group =>   4
Atom 151H    basis set group =>   4
Atom 152H    basis set group =>   4
Atom 153H    basis set group =>   4

-------------------------------------
AUXILIARY/J BASIS SET IN INPUT FORMAT
-------------------------------------

 # Auxiliary/J basis set for element : H 
 NewAuxJGTO H 
 S 3 
   1      15.6752927000      0.1007184237
   2       3.6063578000      0.3404257499
   3       1.2080016000      0.6491996172
 S 1 
   1       0.4726794000      1.0000000000
 S 1 
   1       0.2018100000      1.0000000000
 P 2 
   1       2.0281365000      0.5596620919
   2       0.5358730000      0.5596620919
  end;

 # Auxiliary/J basis set for element : C 
 NewAuxJGTO C 
 S 3 
   1     459.7023860000      0.1098751775
   2     132.9577920000      0.2844848472
   3      41.5658170000      0.6964707648
 S 1 
   1      13.9155610000      1.0000000000
 S 1 
   1       4.9305290000     -1.0000000000
 S 1 
   1       1.8229480000      1.0000000000
 S 1 
   1       0.6920510000      1.0000000000
 S 1 
   1       0.2650930000      1.0000000000
 P 1 
   1       0.3278473579      1.0000000000
 P 1 
   1       0.7868336591      1.0000000000
 P 1 
   1       1.9710183160      1.0000000000
 D 1 
   1       4.0133010000      1.0000000000
 D 1 
   1       1.2475050000      1.0000000000
 D 1 
   1       0.4081480000      1.0000000000
  end;

 # Auxiliary/J basis set for element : N 
 NewAuxJGTO N 
 S 3 
   1     680.5425300000      0.1043830093
   2     196.7562140000      0.2751518961
   3      61.2707930000      0.7090825511
 S 1 
   1      20.3644630000      1.0000000000
 S 1 
   1       7.1424770000     -1.0000000000
 S 1 
   1       2.6080260000      1.0000000000
 S 1 
   1       0.9763730000      1.0000000000
 S 1 
   1       0.3686330000      1.0000000000
 P 1 
   1       0.4707391941      1.0000000000
 P 1 
   1       1.1297740658     -1.0000000000
 P 1 
   1       2.8300840347      1.0000000000
 D 1 
   1       5.8329865000      1.0000000000
 D 1 
   1       1.7326865000      1.0000000000
 D 1 
   1       0.5452425000      1.0000000000
  end;

 # Auxiliary/J basis set for element : Pd
 NewAuxJGTO Pd
 S 4 
   1      51.0211803000      0.0154414011
   2      17.6543867000     -0.3899991562
   3      10.3849330000      1.7000917225
   4       6.2315704000     -2.2542519748
 S 1 
   1       3.6656295000     -1.0000000000
 S 1 
   1       2.1995933000      1.0000000000
 S 1 
   1       1.2683839000      1.0000000000
 S 1 
   1       0.7461081000      1.0000000000
 S 1 
   1       0.4477087000      1.0000000000
 S 1 
   1       0.2581689000      1.0000000000
 S 1 
   1       0.1518640000      1.0000000000
 P 1 
   1       5.6999676000      1.0000000000
 P 1 
   1       2.5155374000     -1.0000000000
 P 1 
   1       1.1229524000      1.0000000000
 P 1 
   1       0.5047808000     -1.0000000000
 P 1 
   1       0.2274325000     -1.0000000000
 D 1 
   1       3.8006002000      1.0000000000
 D 1 
   1       1.5882692000     -1.0000000000
 D 1 
   1       0.6550157000     -1.0000000000
 D 1 
   1       0.2680210000      1.0000000000
 D 1 
   1       0.1093843000     -1.0000000000
 F 2 
   1       2.0106185000     -1.3134732431
   2       0.8268460000      0.9210621264
 F 1 
   1       0.3451253000      1.0000000000
 G 1 
   1       7.5375072000      1.0000000000
 G 1 
   1       2.7664349000      1.0000000000
 G 1 
   1       1.0133462000      1.0000000000
  end;

-------------------------
ECP PARAMETER INFORMATION
-------------------------

 Group 1, Type Pd ECP Def2-ECP (replacing 28 core electrons, lmax=3)

Atom   0Pd   ECP group =>   1
Atom   1Pd   ECP group =>   1


-------------------------
ECP BASIS IN INPUT FORMAT
-------------------------

 #ECP Def2-ECP
 NewECP Pd
   N_core 28
   lmax f
   s 4
     1      12.4300000000    240.2290403000  2
     2       6.1707594000     35.1719435000  2
     3      13.2700000000     31.9295543000  2
     4       6.6300000000      5.3982169000  2
   p 4
     1      11.0800000000    170.4172760000  2
     2       5.8295541000     28.4721329000  2
     3      13.2700000000     31.9295543000  2
     4       6.6300000000      5.3982169000  2
   d 4
     1       9.5100000000     69.0138449000  2
     2       4.1397811000     11.7508616000  2
     3      13.2700000000     31.9295543000  2
     4       6.6300000000      5.3982169000  2
   f 2
     1      13.2700000000    -31.9295543000  2
     2       6.6300000000     -5.3982169000  2
 End




           ************************************************************
           *        Program running with 32 parallel MPI-processes    *
           *              working on a common directory               *
           ************************************************************
------------------------------------------------------------------------------
                           ORCA GTO INTEGRAL CALCULATION
                           -- RI-GTO INTEGRALS CHOSEN --
------------------------------------------------------------------------------

                         BASIS SET STATISTICS AND STARTUP INFO

Gaussian basis set:
 # of primitive gaussian shells          ... 2048
 # of primitive gaussian functions       ... 3660
 # of contracted shells                  ... 1058
 # of contracted basis functions         ... 2058
 Highest angular momentum                ...    2
 Maximum contraction depth               ...    6
Auxiliary gaussian basis set:
 # of primitive gaussian shells          ... 1790
 # of primitive gaussian functions       ... 3886
 # of contracted shells                  ... 1422
 # of contracted aux-basis functions     ... 3394
 Highest angular momentum                ...    4
 Maximum contraction depth               ...    4
Ratio of auxiliary to basis functions    ...  1.65
Integral package used                  ... LIBINT
 One Electron integrals                  
   ECP integrals                         ... done
 Ordering auxiliary basis shells         ... done
 Integral threshhold             Thresh  ...  2.500e-11
 Primitive cut-off               TCut    ...  2.500e-12
 Pre-screening matrix                    ... done
 Shell pair data                         ... 
 Ordering of the shell pairs             ... done (   0.048 sec) 211044 of 560211 pairs
 Determination of significant pairs      ... done (   0.001 sec)
 Creation of shell pair data             ... done (   0.022 sec)
 Storage of shell pair data              ... done (   0.072 sec)
 Shell pair data done in (   0.142 sec)
 Computing two index integrals           ... done
 Cholesky decomposition of the V-matrix  ... done


Timings:
 Total evaluation time                   ...   8.752 sec (  0.146 min)
 One electron matrix time                ...   5.667 sec (  0.094 min) = 64.8%
 Schwartz matrix evaluation time         ...   2.174 sec (  0.036 min) = 24.8%
 Two index repulsion integral time       ...   0.215 sec (  0.004 min) =  2.5%
 Cholesky decomposition of V             ...   0.517 sec (  0.009 min) =  5.9%
 Three index repulsion integral time     ...   0.000 sec (  0.000 min) =  0.0%



           ************************************************************
           *        Program running with 32 parallel MPI-processes    *
           *              working on a common directory               *
           ************************************************************
-------------------------------------------------------------------------------
                                 ORCA SCF
-------------------------------------------------------------------------------

------------
SCF SETTINGS
------------
Hamiltonian:
 Density Functional     Method          .... DFT(GTOs)
 Exchange Functional    Exchange        .... B973C
 Correlation Functional Correlation     .... B973C
 Gradients option       PostSCFGGA      .... off
   Density functional embedding theory  .... OFF
 RI-approximation to the Coulomb term is turned on
   Number of auxiliary basis functions  .... 3394


General Settings:
 Integral files         IntName         .... _s_4b1_a_B97-3c
 Hartree-Fock type      HFTyp           .... RHF
 Total Charge           Charge          ....    4
 Multiplicity           Mult            ....    1
 Number of Electrons    NEL             ....  672
 Basis Dimension        Dim             .... 2058
 Nuclear Repulsion      ENuc            ....  18159.6452956638 Eh

Convergence Acceleration:
 DIIS                   CNVDIIS         .... on
   Start iteration      DIISMaxIt       ....     0
   Startup error        DIISStart       ....  0.200000
   # of expansion vecs  DIISMaxEq       ....     5
   Bias factor          DIISBfac        ....   1.050
   Max. coefficient     DIISMaxC        ....  10.000
 Newton-Raphson         CNVNR           .... off
 SOSCF                  CNVSOSCF        .... off
 Level Shifting         CNVShift        .... on
   Level shift para.    LevelShift      ....    0.2500
   Turn off err/grad.   ShiftErr        ....    0.0000
 Zerner damping         CNVZerner       .... off
 Static damping         CNVDamp         .... on
   Fraction old density DampFac         ....    0.8500
   Max. Damping (<1)    DampMax         ....    0.9800
   Min. Damping (>=0)   DampMin         ....    0.0000
   Turn off err/grad.   DampErr         ....    0.0300
 Fernandez-Rico         CNVRico         .... off

SCF Procedure:
 Maximum # iterations   MaxIter         ....  2000
 SCF integral mode      SCFMode         .... Direct
   Integral package                     .... LIBINT
 Reset frequency        DirectResetFreq ....    20
 Integral Threshold     Thresh          ....  2.500e-11 Eh
 Primitive CutOff       TCut            ....  2.500e-12 Eh

Convergence Tolerance:
 Convergence Check Mode ConvCheckMode   .... Total+1el-Energy
 Convergence forced     ConvForced      .... 0
 Energy Change          TolE            ....  1.000e-08 Eh
 1-El. energy change                    ....  1.000e-05 Eh
 DIIS Error             TolErr          ....  5.000e-07


Diagonalization of the overlap matrix:
Smallest eigenvalue                        ... 5.735e-06
Time for diagonalization                   ...    0.615 sec
Threshold for overlap eigenvalues          ... 1.000e-08
Number of eigenvalues below threshold      ... 0
Time for construction of square roots      ...    0.494 sec
Total time needed                          ...    1.116 sec

--------------------------------
INITIAL GUESS: MINIMAL BASIS EHT
--------------------------------
The minimal basis has 562 functions
EHT matrix was diagonalized
Basis set overlap was calculated now projecting the orbitals
Using GuessMode=FMatrix for the initial guess
C*T matrix was formed
Effective Fockian was calculated
Effective Fockian was diagonalized
Initial density was built
                      ------------------
                      INITIAL GUESS DONE
                      ------------------
-------------------
DFT GRID GENERATION
-------------------

General Integration Accuracy     IntAcc      ...  5.340
Radial Grid Type                 RadialGrid  ... Gauss-Chebyshev
Angular Grid (max. acc.)         AngularGrid ... Lebedev-590
Angular grid pruning method      GridPruning ... 3 (G Style)
Weight generation scheme         WeightScheme... Becke
Basis function cutoff            BFCut       ...    1.0000e-11
Integration weight cutoff        WCut        ...    1.0000e-14
Grids for H and He will be reduced by one unit

# of grid points (after initial pruning)     ... 2250644 (   0.0 sec)
# of grid points (after weights+screening)   ... 1839294 (   8.9 sec)
nearest neighbour list constructed           ...    0.0 sec
Grid point re-assignment to atoms done       ...    0.2 sec
Grid point division into batches done        ...   18.8 sec
Reduced shell lists constructed in   20.0 sec

Total number of grid points                  ...  1839294
Total number of batches                      ...    28822
Average number of points per batch           ...       63
Average number of grid points per atom       ...    11943
Average number of shells per batch           ...   233.39 (22.06%)
Average number of basis functions per batch  ...   457.12 (22.21%)
Average number of large shells per batch     ...   120.13 (51.47%)
Average number of large basis fcns per batch ...   241.24 (52.77%)
Maximum spatial batch extension              ...  17.68,  4.62, 12.17 au
Average spatial batch extension              ...   0.03,  0.03,  0.03 au

Time for grid setup =   31.352 sec

--------------
SCF ITERATIONS
--------------
ITER       Energy         Delta-E        Max-DP      RMS-DP      [F,P]     Damp
               ***  Starting incremental Fock matrix formation  ***
  0  -4032.0372745507   0.00000000000018.60230052  0.07881132  5.1883164 0.8500
  1  -4042.8836684607 -10.846393910004 2.35783164  0.01109874  4.4976766 0.8500
                               ***Turning on DIIS***
  2  -4049.9337826838  -7.050114223162 2.30260159  0.01008153  3.8606403 0.8500
  3  -4054.7015235374  -4.767740853535 2.15782277  0.00936729  3.3015045 0.8500
  4  -4058.3323338882  -3.630810350791 1.81692972  0.00811542  2.8050994 0.8500
  5  -4061.0003122180  -2.667978329820 1.57746431  0.00693287  2.3737437 0.8500
  6  -4063.4563387895  -2.456026571559 1.35828864  0.00590208  2.0149680 0.8500
  7  -4065.6209989570  -2.164660167429 1.16432080  0.00500524  1.7131329 0.8500
  8  -4067.4877076949  -1.866708737987 0.98849860  0.00428418  1.4594485 0.8500
  9  -4069.0108969411  -1.523189246196 0.83335478  0.00364583  1.2404438 0.8500
 10  -4070.2631043021  -1.252207360943 0.70742725  0.00308986  1.0523535 0.8500
 11  -4071.3353651398  -1.072260837751 0.60406959  0.00262121  0.8938207 0.8500
 12  -4072.2564807759  -0.921115636051 0.51599317  0.00223143  0.7602976 0.8500
 13  -4073.0363691859  -0.779888410016 0.43850395  0.00190301  0.6468543 0.8500
 14  -4073.6912780322  -0.654908846336 0.37129010  0.00161786  0.5496356 0.8500
 15  -4074.2437979462  -0.552519913930 0.31508044  0.00137168  0.4667233 0.8500
 16  -4074.7138466427  -0.470048696570 0.26836171  0.00116431  0.3966160 0.8500
 17  -4075.1137985304  -0.399951887703 0.22875520  0.00099112  0.3373076 0.8500
 18  -4075.4529024544  -0.339103923940 0.19445929  0.00084401  0.2868150 0.8500
 19  -4075.7401097929  -0.287207338530 0.16497399  0.00071834  0.2437064 0.8500
               *** Restarting incremental Fock matrix formation ***
                                   *** Resetting DIIS ***
 20  -4075.9837780724  -0.243668279472 0.14077242  0.00060378  0.2070429 0.8500
 21  -4076.1915490029  -0.207770930498 0.11975266  0.00051854  0.1764564 0.8500
 22  -4076.3672958073  -0.175746804380 0.10115708  0.00044303  0.1498335 0.8500
 23  -4076.5161782465  -0.148882439207 0.08572820  0.00037512  0.1270315 0.8500
 24  -4076.6428900389  -0.126711792462 0.07296945  0.00031852  0.1079149 0.8500
 25  -4076.7506643290  -0.107774290034 0.06228519  0.00027082  0.0917591 0.8500
 26  -4076.8422923346  -0.091628005666 0.05304046  0.00023138  0.0781014 0.8500
 27  -4076.9201044508  -0.077812116175 0.04500262  0.00019720  0.0663799 0.8500
 28  -4076.9861969602  -0.066092509423 0.03815927  0.00016727  0.0563579 0.8500
 29  -4077.0423833112  -0.056186350997 0.03244039  0.00014202  0.0478861 0.8500
 30  -4077.0901501854  -0.047766874137 0.02764333  0.00012104  0.0407235 0.8500
 31  -4077.1307468059  -0.040596620569 0.02352933  0.00010346  0.0346328 0.8500
 32  -4077.1652445793  -0.034497773409 0.13322823  0.00058816  0.0294296 0.0000
 33  -4077.3606752100  -0.195430630662 0.00504176  0.00002446  0.0009855 0.0000
 34  -4077.3606674815   0.000007728457 0.00149419  0.00000585  0.0017440 0.0000
 35  -4077.3606779782  -0.000010496682 0.00075539  0.00000427  0.0004707 0.0000
 36  -4077.3606793011  -0.000001322820 0.00157331  0.00000660  0.0001396 0.0000
 37  -4077.3606793818  -0.000000080749 0.00115136  0.00000532  0.0000304 0.0000
 38  -4077.3606793588   0.000000022952 0.00092681  0.00000422  0.0000082 0.0000
 39  -4077.3606793430   0.000000015873 0.00682779  0.00003300  0.0000036 0.0000
               *** Restarting incremental Fock matrix formation ***
                                   *** Resetting DIIS ***
 40  -4077.3606801822  -0.000000839267 0.00302422  0.00001498  0.0000048 0.0000
 41  -4077.3606802807  -0.000000098429 0.00046126  0.00000227  0.0000082 0.0000
                            ***DIIS convergence achieved***

               *****************************************************
               *                     SUCCESS                       *
               *           SCF CONVERGED AFTER  42 CYCLES          *
               *****************************************************


----------------
TOTAL SCF ENERGY
----------------

Total Energy       :        -4077.36068029 Eh         -110950.62473 eV

Components:
Nuclear Repulsion  :        18159.64529566 Eh          494149.07055 eV
Electronic Energy  :       -22237.00597596 Eh         -605099.69528 eV
One Electron Energy:       -41650.83341090 Eh        -1133376.79687 eV
Two Electron Energy:        19413.82743494 Eh          528277.10159 eV

Virial components:
Potential Energy   :        -7981.55762360 Eh         -217189.22462 eV
Kinetic Energy     :         3904.19694330 Eh          106238.59989 eV
Virial Ratio       :            2.04435323


DFT components:
N(Alpha)           :      335.999978173585 electrons
N(Beta)            :      335.999978173585 electrons
N(Total)           :      671.999956347170 electrons
E(XC)              :     -575.960240804563 Eh       
DFET-embed. en.    :        0.000000000000 Eh       

---------------
SCF CONVERGENCE
---------------

  Last Energy change         ...   -1.3992e-08  Tolerance :   1.0000e-08
  Last MAX-Density change    ...    1.6947e-04  Tolerance :   1.0000e-07
[...]
 31 C      6.1627     6.0000    -0.1627     4.0029     4.0029    -0.0000
 32 C      6.0559     6.0000    -0.0559     3.8918     3.8918    -0.0000
 33 C      6.1206     6.0000    -0.1206     3.9469     3.9469    -0.0000
 34 N      7.0693     7.0000    -0.0693     3.3347     3.3347    -0.0000
 35 C      6.2054     6.0000    -0.2054     3.9379     3.9379    -0.0000
 36 H      0.7422     1.0000     0.2578     0.8980     0.8980    -0.0000
 37 H      0.7496     1.0000     0.2504     0.9117     0.9117    -0.0000
 38 H      0.7856     1.0000     0.2144     0.9438     0.9438    -0.0000
 39 H      0.8218     1.0000     0.1782     0.9355     0.9355    -0.0000
 40 C      5.9768     6.0000     0.0232     3.4174     3.4174    -0.0000
 41 C      5.9774     6.0000     0.0226     3.0538     3.0538    -0.0000
 42 C      6.1899     6.0000    -0.1899     3.6998     3.6998    -0.0000
 43 C      6.0802     6.0000    -0.0802     3.8385     3.8385    -0.0000
 44 C      6.1967     6.0000    -0.1967     4.1882     4.1882    -0.0000
 45 C      6.2062     6.0000    -0.2062     3.9129     3.9129    -0.0000
 46 C      6.0632     6.0000    -0.0632     3.7567     3.7567    -0.0000
 47 C      6.1071     6.0000    -0.1071     3.7767     3.7767    -0.0000
 48 C      6.1813     6.0000    -0.1813     4.0044     4.0044    -0.0000
 49 N      7.0660     7.0000    -0.0660     3.2822     3.2822    -0.0000
 50 C      6.1231     6.0000    -0.1231     3.7271     3.7271    -0.0000
 51 C      5.6050     6.0000     0.3950     3.0858     3.0858    -0.0000
 52 H      0.7518     1.0000     0.2482     0.9000     0.9000    -0.0000
 53 H      0.7706     1.0000     0.2294     0.9245     0.9245    -0.0000
 54 H      0.7532     1.0000     0.2468     0.8976     0.8976    -0.0000
 55 H      0.7464     1.0000     0.2536     0.8908     0.8908    -0.0000
 56 H      0.8267     1.0000     0.1733     0.9659     0.9659    -0.0000
 57 H      0.8156     1.0000     0.1844     0.9602     0.9602    -0.0000
 58 C      6.1906     6.0000    -0.1906     3.9580     3.9580    -0.0000
 59 C      6.1439     6.0000    -0.1439     3.9178     3.9178    -0.0000
 60 C      6.1385     6.0000    -0.1385     3.9847     3.9847    -0.0000
 61 C      6.0515     6.0000    -0.0515     3.6917     3.6917    -0.0000
 62 C      6.1328     6.0000    -0.1328     3.8880     3.8880    -0.0000
 63 C      6.1744     6.0000    -0.1744     3.9073     3.9073    -0.0000
 64 H      0.7629     1.0000     0.2371     0.9075     0.9075    -0.0000
 65 H      0.7605     1.0000     0.2395     0.9038     0.9038    -0.0000
 66 H      0.7620     1.0000     0.2380     0.8821     0.8821    -0.0000
 67 H      0.7948     1.0000     0.2052     0.9169     0.9169    -0.0000
 68 C      5.9407     6.0000     0.0593     3.7824     3.7824    -0.0000
 69 C      6.1627     6.0000    -0.1627     4.0031     4.0031    -0.0000
 70 C      6.0560     6.0000    -0.0560     3.8919     3.8919    -0.0000
 71 C      6.1208     6.0000    -0.1208     3.9471     3.9471    -0.0000
 72 N      7.0691     7.0000    -0.0691     3.3351     3.3351    -0.0000
 73 C      6.2059     6.0000    -0.2059     3.9386     3.9386    -0.0000
 74 H      0.7423     1.0000     0.2577     0.8981     0.8981    -0.0000
 75 H      0.7496     1.0000     0.2504     0.9116     0.9116    -0.0000
 76 H      0.7856     1.0000     0.2144     0.9438     0.9438    -0.0000
 77 H      0.8215     1.0000     0.1785     0.9355     0.9355    -0.0000
 78 C      5.9770     6.0000     0.0230     3.4173     3.4173    -0.0000
 79 C      5.9769     6.0000     0.0231     3.0522     3.0522    -0.0000
 80 C      6.1890     6.0000    -0.1890     3.6983     3.6983    -0.0000
 81 C      6.0804     6.0000    -0.0804     3.8384     3.8384    -0.0000
 82 C      6.1968     6.0000    -0.1968     4.1885     4.1885    -0.0000
 83 C      6.2059     6.0000    -0.2059     3.9126     3.9126    -0.0000
 84 C      6.0633     6.0000    -0.0633     3.7569     3.7569    -0.0000
 85 C      6.1072     6.0000    -0.1072     3.7770     3.7770    -0.0000
 86 C      6.1811     6.0000    -0.1811     4.0048     4.0048    -0.0000
 87 N      7.0662     7.0000    -0.0662     3.2825     3.2825    -0.0000
 88 C      6.1229     6.0000    -0.1229     3.7270     3.7270    -0.0000
 89 C      5.6054     6.0000     0.3946     3.0851     3.0851    -0.0000
 90 H      0.7519     1.0000     0.2481     0.9000     0.9000    -0.0000
 91 H      0.7706     1.0000     0.2294     0.9245     0.9245    -0.0000
 92 H      0.7532     1.0000     0.2468     0.8976     0.8976    -0.0000
 93 H      0.7465     1.0000     0.2535     0.8908     0.8908    -0.0000
 94 H      0.8272     1.0000     0.1728     0.9661     0.9661    -0.0000
 95 H      0.8157     1.0000     0.1843     0.9603     0.9603    -0.0000
 96 C      6.1905     6.0000    -0.1905     3.9556     3.9556    -0.0000
 97 C      6.1746     6.0000    -0.1746     3.9074     3.9074    -0.0000
 98 C      6.1332     6.0000    -0.1332     3.8879     3.8879    -0.0000
 99 C      6.0509     6.0000    -0.0509     3.6908     3.6908    -0.0000
100 C      6.1387     6.0000    -0.1387     3.9850     3.9850    -0.0000
101 C      6.1439     6.0000    -0.1439     3.9174     3.9174    -0.0000
102 H      0.7949     1.0000     0.2051     0.9169     0.9169     0.0000
103 H      0.7622     1.0000     0.2378     0.8820     0.8820    -0.0000
104 H      0.7604     1.0000     0.2396     0.9038     0.9038    -0.0000
105 H      0.7628     1.0000     0.2372     0.9075     0.9075    -0.0000
106 C      5.9401     6.0000     0.0599     3.7806     3.7806    -0.0000
107 C      6.1623     6.0000    -0.1623     4.0023     4.0023    -0.0000
108 C      6.0560     6.0000    -0.0560     3.8918     3.8918    -0.0000
109 C      6.1206     6.0000    -0.1206     3.9473     3.9473    -0.0000
110 N      7.0688     7.0000    -0.0688     3.3359     3.3359    -0.0000
111 C      6.2072     6.0000    -0.2072     3.9399     3.9399    -0.0000
112 H      0.7423     1.0000     0.2577     0.8980     0.8980    -0.0000
113 H      0.7497     1.0000     0.2503     0.9117     0.9117    -0.0000
114 H      0.7857     1.0000     0.2143     0.9438     0.9438    -0.0000
115 H      0.8214     1.0000     0.1786     0.9347     0.9347    -0.0000
116 C      5.9765     6.0000     0.0235     3.4164     3.4164    -0.0000
117 C      5.9773     6.0000     0.0227     3.0527     3.0527    -0.0000
118 C      6.1890     6.0000    -0.1890     3.6989     3.6989    -0.0000
119 C      6.0803     6.0000    -0.0803     3.8384     3.8384    -0.0000
120 C      6.1968     6.0000    -0.1968     4.1884     4.1884    -0.0000
121 C      6.2058     6.0000    -0.2058     3.9124     3.9124    -0.0000
122 C      6.0629     6.0000    -0.0629     3.7571     3.7571    -0.0000
123 C      6.1072     6.0000    -0.1072     3.7765     3.7765    -0.0000
124 C      6.1811     6.0000    -0.1811     4.0042     4.0042    -0.0000
125 N      7.0657     7.0000    -0.0657     3.2832     3.2832    -0.0000
126 C      6.1223     6.0000    -0.1223     3.7272     3.7272    -0.0000
127 C      5.6064     6.0000     0.3936     3.0870     3.0870    -0.0000
128 H      0.7518     1.0000     0.2482     0.9000     0.9000    -0.0000
129 H      0.7706     1.0000     0.2294     0.9246     0.9246    -0.0000
130 H      0.7532     1.0000     0.2468     0.8977     0.8977    -0.0000
131 H      0.7465     1.0000     0.2535     0.8908     0.8908    -0.0000
132 H      0.8274     1.0000     0.1726     0.9663     0.9663    -0.0000
133 H      0.8157     1.0000     0.1843     0.9603     0.9603    -0.0000
134 C      6.1908     6.0000    -0.1908     3.9563     3.9563    -0.0000
135 C      6.1436     6.0000    -0.1436     3.9172     3.9172    -0.0000
136 C      6.1384     6.0000    -0.1384     3.9847     3.9847    -0.0000
137 C      6.0515     6.0000    -0.0515     3.6916     3.6916    -0.0000
138 C      6.1328     6.0000    -0.1328     3.8878     3.8878    -0.0000
139 C      6.1748     6.0000    -0.1748     3.9078     3.9078    -0.0000
140 H      0.7628     1.0000     0.2372     0.9075     0.9075    -0.0000
141 H      0.7604     1.0000     0.2396     0.9037     0.9037    -0.0000
142 H      0.7625     1.0000     0.2375     0.8821     0.8821    -0.0000
143 H      0.7950     1.0000     0.2050     0.9169     0.9169    -0.0000
144 C      5.9402     6.0000     0.0598     3.7821     3.7821    -0.0000
145 C      6.1629     6.0000    -0.1629     4.0035     4.0035    -0.0000
146 C      6.0556     6.0000    -0.0556     3.8913     3.8913    -0.0000
147 C      6.1208     6.0000    -0.1208     3.9472     3.9472    -0.0000
148 N      7.0681     7.0000    -0.0681     3.3343     3.3343    -0.0000
149 C      6.2081     6.0000    -0.2081     3.9417     3.9417    -0.0000
150 H      0.7423     1.0000     0.2577     0.8981     0.8981    -0.0000
151 H      0.7496     1.0000     0.2504     0.9116     0.9116    -0.0000
152 H      0.7856     1.0000     0.2144     0.9438     0.9438    -0.0000
153 H      0.8206     1.0000     0.1794     0.9341     0.9341    -0.0000

  Mayer bond orders larger than 0.100000
B(  0-Pd, 11-N ) :   0.5178 B(  0-Pd, 49-N ) :   0.5170 B(  0-Pd, 87-N ) :   0.5173 
B(  0-Pd,125-N ) :   0.5173 B(  1-Pd, 34-N ) :   0.5157 B(  1-Pd, 72-N ) :   0.5161 
B(  1-Pd,110-N ) :   0.5159 B(  1-Pd,148-N ) :   0.5156 B(  2-C ,  3-C ) :   1.9138 
B(  2-C ,  4-C ) :  -0.2669 B(  2-C , 13-C ) :   0.1148 B(  2-C , 20-C ) :   1.6134 
B(  3-C ,  4-C ) :   1.4472 B(  3-C ,  8-C ) :   0.1025 B(  3-C , 13-C ) :  -0.2326 
B(  3-C , 20-C ) :  -0.3897 B(  4-C ,  5-C ) :   1.5511 B(  4-C , 12-C ) :  -0.1217 
B(  4-C , 13-C ) :   1.0032 B(  5-C ,  6-C ) :   1.4242 B(  5-C , 14-H ) :   0.8572 
B(  6-C ,  7-C ) :   1.6221 B(  6-C , 15-H ) :   0.8715 B(  7-C ,  8-C ) :   1.3702 
B(  7-C , 13-C ) :  -0.1320 B(  7-C , 16-H ) :   0.8595 B(  8-C ,  9-C ) :   1.2676 
B(  8-C , 12-C ) :  -0.1048 B(  8-C , 13-C ) :   1.0360 B(  9-C , 10-C ) :   1.6027 
B(  9-C , 17-H ) :   0.8693 B( 10-C , 11-N ) :   1.2117 B( 10-C , 18-H ) :   0.9064 
B( 11-N , 12-C ) :   1.4872 B( 12-C , 13-C ) :   1.3737 B( 12-C , 19-H ) :   0.8971 
B( 20-C , 21-C ) :   1.3269 B( 20-C , 23-C ) :   0.1119 B( 20-C , 25-C ) :   1.3508 
B( 21-C , 22-C ) :   1.5699 B( 21-C , 26-H ) :   0.8979 B( 22-C , 23-C ) :   1.3269 
B( 22-C , 27-H ) :   0.8586 B( 22-C , 35-C ) :   0.1118 B( 23-C , 24-C ) :   1.3898 
B( 23-C , 30-C ) :   0.8964 B( 24-C , 25-C ) :   1.5980 B( 24-C , 28-H ) :   0.8580 
B( 25-C , 29-H ) :   0.8871 B( 30-C , 31-C ) :   1.4610 B( 30-C , 35-C ) :   1.3967 
B( 31-C , 32-C ) :   1.4989 B( 31-C , 36-H ) :   0.8809 B( 32-C , 33-C ) :   1.4240 
B( 32-C , 37-H ) :   0.8677 B( 33-C , 34-N ) :   1.4046 B( 33-C , 38-H ) :   0.9144 
B( 34-N , 35-C ) :   1.3433 B( 35-C , 39-H ) :   0.9178 B( 40-C , 41-C ) :   1.9153 
B( 40-C , 42-C ) :  -0.2666 B( 40-C , 51-C ) :   0.1147 B( 40-C , 58-C ) :   1.6124 
B( 41-C , 42-C ) :   1.4480 B( 41-C , 46-C ) :   0.1027 B( 41-C , 51-C ) :  -0.2332 
B( 41-C , 58-C ) :  -0.3880 B( 42-C , 43-C ) :   1.5513 B( 42-C , 50-C ) :  -0.1217 
B( 42-C , 51-C ) :   1.0033 B( 43-C , 44-C ) :   1.4241 B( 43-C , 52-H ) :   0.8573 
B( 44-C , 45-C ) :   1.6220 B( 44-C , 53-H ) :   0.8715 B( 45-C , 46-C ) :   1.3705 
B( 45-C , 51-C ) :  -0.1320 B( 45-C , 54-H ) :   0.8595 B( 46-C , 47-C ) :   1.2668 
B( 46-C , 50-C ) :  -0.1046 B( 46-C , 51-C ) :   1.0357 B( 47-C , 48-C ) :   1.6026 
B( 47-C , 55-H ) :   0.8693 B( 48-C , 49-N ) :   1.2113 B( 48-C , 56-H ) :   0.9064 
B( 49-N , 50-C ) :   1.4872 B( 50-C , 51-C ) :   1.3727 B( 50-C , 57-H ) :   0.8973 
B( 58-C , 59-C ) :   1.3511 B( 58-C , 61-C ) :   0.1118 B( 58-C , 63-C ) :   1.3263 
B( 59-C , 60-C ) :   1.5981 B( 59-C , 64-H ) :   0.8873 B( 60-C , 61-C ) :   1.3899 
B( 60-C , 65-H ) :   0.8583 B( 61-C , 62-C ) :   1.3283 B( 61-C , 68-C ) :   0.8957 
B( 62-C , 63-C ) :   1.5691 B( 62-C , 66-H ) :   0.8581 B( 62-C , 73-C ) :   0.1110 
B( 63-C , 67-H ) :   0.8979 B( 68-C , 69-C ) :   1.4609 B( 68-C , 73-C ) :   1.3978 
B( 69-C , 70-C ) :   1.4988 B( 69-C , 74-H ) :   0.8811 B( 70-C , 71-C ) :   1.4242 
B( 70-C , 75-H ) :   0.8677 B( 71-C , 72-N ) :   1.4044 B( 71-C , 76-H ) :   0.9144 
B( 72-N , 73-C ) :   1.3436 B( 73-C , 77-H ) :   0.9173 B( 78-C , 79-C ) :   1.9151 
B( 78-C , 80-C ) :  -0.2663 B( 78-C , 89-C ) :   0.1148 B( 78-C , 96-C ) :   1.6121 
B( 79-C , 80-C ) :   1.4466 B( 79-C , 84-C ) :   0.1026 B( 79-C , 89-C ) :  -0.2328 
B( 79-C , 96-C ) :  -0.3891 B( 80-C , 81-C ) :   1.5509 B( 80-C , 88-C ) :  -0.1217 
B( 80-C , 89-C ) :   1.0030 B( 81-C , 82-C ) :   1.4241 B( 81-C , 90-H ) :   0.8574 
B( 82-C , 83-C ) :   1.6220 B( 82-C , 91-H ) :   0.8715 B( 83-C , 84-C ) :   1.3702 
B( 83-C , 89-C ) :  -0.1321 B( 83-C , 92-H ) :   0.8595 B( 84-C , 85-C ) :   1.2670 
B( 84-C , 88-C ) :  -0.1046 B( 84-C , 89-C ) :   1.0355 B( 85-C , 86-C ) :   1.6026 
B( 85-C , 93-H ) :   0.8693 B( 86-C , 87-N ) :   1.2114 B( 86-C , 94-H ) :   0.9066 
B( 87-N , 88-C ) :   1.4871 B( 88-C , 89-C ) :   1.3726 B( 88-C , 95-H ) :   0.8974 
B( 96-C , 97-C ) :   1.3258 B( 96-C , 99-C ) :   0.1115 B( 96-C ,101-C ) :   1.3503 
B( 97-C , 98-C ) :   1.5691 B( 97-C ,102-H ) :   0.8980 B( 98-C , 99-C ) :   1.3275 
B( 98-C ,103-H ) :   0.8584 B( 98-C ,111-C ) :   0.1115 B( 99-C ,100-C ) :   1.3902 
B( 99-C ,106-C ) :   0.8962 B(100-C ,101-C ) :   1.5981 B(100-C ,104-H ) :   0.8582 
B(101-C ,105-H ) :   0.8874 B(106-C ,107-C ) :   1.4603 B(106-C ,111-C ) :   1.3970 
B(107-C ,108-C ) :   1.4991 B(107-C ,112-H ) :   0.8812 B(108-C ,109-C ) :   1.4239 
B(108-C ,113-H ) :   0.8678 B(109-C ,110-N ) :   1.4050 B(109-C ,114-H ) :   0.9144 
B(110-N ,111-C ) :   1.3434 B(111-C ,115-H ) :   0.9181 B(116-C ,117-C ) :   1.9148 
B(116-C ,118-C ) :  -0.2666 B(116-C ,127-C ) :   0.1147 B(116-C ,134-C ) :   1.6120 
B(117-C ,118-C ) :   1.4470 B(117-C ,122-C ) :   0.1026 B(117-C ,127-C ) :  -0.2326 
B(117-C ,134-C ) :  -0.3889 B(118-C ,119-C ) :   1.5510 B(118-C ,126-C ) :  -0.1216 
B(118-C ,127-C ) :   1.0033 B(119-C ,120-C ) :   1.4242 B(119-C ,128-H ) :   0.8573 
B(120-C ,121-C ) :   1.6219 B(120-C ,129-H ) :   0.8716 B(121-C ,122-C ) :   1.3700 
B(121-C ,127-C ) :  -0.1319 B(121-C ,130-H ) :   0.8596 B(122-C ,123-C ) :   1.2672 
B(122-C ,126-C ) :  -0.1047 B(122-C ,127-C ) :   1.0359 B(123-C ,124-C ) :   1.6021 
B(123-C ,131-H ) :   0.8693 B(124-C ,125-N ) :   1.2113 B(124-C ,132-H ) :   0.9068 
B(125-N ,126-C ) :   1.4874 B(126-C ,127-C ) :   1.3731 B(126-C ,133-H ) :   0.8972 
B(134-C ,135-C ) :   1.3504 B(134-C ,137-C ) :   0.1115 B(134-C ,139-C ) :   1.3262 
B(135-C ,136-C ) :   1.5979 B(135-C ,140-H ) :   0.8873 B(136-C ,137-C ) :   1.3902 
B(136-C ,141-H ) :   0.8582 B(137-C ,138-C ) :   1.3276 B(137-C ,144-C ) :   0.8960 
B(138-C ,139-C ) :   1.5692 B(138-C ,142-H ) :   0.8585 B(138-C ,149-C ) :   0.1118 
B(139-C ,143-H ) :   0.8979 B(144-C ,145-C ) :   1.4611 B(144-C ,149-C ) :   1.3979 
B(145-C ,146-C ) :   1.4991 B(145-C ,150-H ) :   0.8811 B(146-C ,147-C ) :   1.4238 
B(146-C ,151-H ) :   0.8678 B(147-C ,148-N ) :   1.4048 B(147-C ,152-H ) :   0.9144 
B(148-N ,149-C ) :   1.3430 B(149-C ,153-H ) :   0.9174 

-------
TIMINGS
-------

Total SCF time: 0 days 0 hours 8 min 0 sec 

Total time                  ....     480.048 sec
Sum of individual times     ....     451.062 sec  ( 94.0%)

Fock matrix formation       ....     195.064 sec  ( 40.6%)
  Split-RI-J                ....      83.753 sec  ( 42.9% of F)
  XC integration            ....     100.218 sec  ( 51.4% of F)
    Basis function eval.    ....      17.594 sec  ( 17.6% of XC)
    Density eval.           ....      39.218 sec  ( 39.1% of XC)
    XC-Functional eval.     ....       5.478 sec  (  5.5% of XC)
    XC-Potential eval.      ....      14.409 sec  ( 14.4% of XC)
Diagonalization             ....      40.456 sec  (  8.4%)
Density matrix formation    ....       1.949 sec  (  0.4%)
Population analysis         ....       7.206 sec  (  1.5%)
Initial guess               ....       7.278 sec  (  1.5%)
Orbital Transformation      ....       0.000 sec  (  0.0%)
Orbital Orthonormalization  ....       0.000 sec  (  0.0%)
DIIS solution               ....     167.758 sec  ( 34.9%)
Grid generation             ....      31.352 sec  (  6.5%)


-------------------------------------------------------------------------------
                          DFT DISPERSION CORRECTION                            
                                                                               
                              DFTD3 V3.1  Rev 1                                
                          USING Becke-Johnson damping                          
-------------------------------------------------------------------------------
The B97-3c composite method is recognized
Using three-body term ABC
Active option DFTDOPT                   ...         4   

molecular C6(AA) [au] = 365464.125221 


            DFT-D V3
 parameters
 s6 scaling factor         :     1.0000 
 a1 scaling factor         :     0.3700 
 s8 scaling factor         :     1.5000 
 a2 scaling factor         :     4.1000 
 Damping factor alpha9(ATM):    16.0000 
 ad hoc parameters k1-k3   :    16.0000     1.3333    -4.0000 

 Edisp/kcal,au: -369.872614206355  -0.589429466868 
 E6   /kcal   : -183.323971538 
 E8   /kcal   : -187.826500961 
 E6(ABC)      :   1.277858293 
 % E8         :  50.781402501 
 % E6(ABC)    :  -0.345486052 

-------------------------   ----------------
Dispersion correction           -0.589429467
-------------------------   ----------------

------------------   -----------------
SRB correction            -0.604924684
------------------   -----------------

-------------------------   --------------------
FINAL SINGLE POINT ENERGY     -4078.555034445932
-------------------------   --------------------


                            ***************************************
                            *     ORCA property calculations      *
                            ***************************************

                                    ---------------------
                                    Active property flags
                                    ---------------------
   (+) Dipole Moment


------------------------------------------------------------------------------
                       ORCA ELECTRIC PROPERTIES CALCULATION
------------------------------------------------------------------------------

Dipole Moment Calculation                       ... on
Quadrupole Moment Calculation                   ... off
Polarizability Calculation                      ... off
GBWName                                         ... _s_4b1_a_B97-3c.gbw
Electron density file                           ... _s_4b1_a_B97-3c.scfp
The origin for moment calculation is the CENTER OF MASS  = ( 1.571820,  1.779646  0.084820)

-------------
DIPOLE MOMENT
-------------
                                X             Y             Z
Electronic contribution:      5.74677     -97.34432      -1.71179
Nuclear contribution   :     -5.62017      95.52459       1.69365
                        -----------------------------------------
Total Dipole Moment    :      0.12660      -1.81973      -0.01815
                        -----------------------------------------
Magnitude (a.u.)       :      1.82422
Magnitude (Debye)      :      4.63679



--------------------
Rotational spectrum 
--------------------
 
Rotational constants in cm-1:     0.000693     0.000365     0.000364 
Rotational constants in MHz :    20.783774    10.936474    10.924861 

 Dipole components along the rotational axes: 
x,y,z [a.u.] :    -1.824173    -0.012317     0.002249 
x,y,z [Debye]:    -4.636680    -0.031308     0.005718 

 

Timings for individual modules:

Sum of individual times         ...      509.443 sec (=   8.491 min)
GTO integral calculation        ...       21.048 sec (=   0.351 min)   4.1 %
SCF iterations                  ...      488.395 sec (=   8.140 min)  95.9 %
                             ****ORCA TERMINATED NORMALLY****
TOTAL RUN TIME: 0 days 0 hours 8 minutes 34 seconds 815 msec
