Job execution start: Tue Jun 22 09:43:57 BST 2021
Shared library path: /work/e05/e05/atarzia/orca_4_2_1_linux_x86-64_openmpi314:/work/e05/e05/atarzia/openmpi-3.1.4/lib:/opt/cray/pe/papi/6.0.0.4/lib64:/opt/cray/libfabric/1.11.0.0.233/lib64
Slurm Job ID is: 344305
Slurm Job name is: s_4b1_b_PBE0
nid001337

                                 *****************
                                 * O   R   C   A *
                                 *****************

           --- An Ab Initio, DFT and Semiempirical electronic structure package ---

                  #######################################################
                  #                        -***-                        #
                  #          Department of theory and spectroscopy      #
                  #               Directorship: Frank Neese             #
                  #        Max Planck Institute fuer Kohlenforschung    #
                  #                Kaiser Wilhelm Platz 1               #
                  #                 D-45470 Muelheim/Ruhr               #
                  #                      Germany                        #
                  #                                                     #
                  #                  All rights reserved                #
                  #                        -***-                        #
                  #######################################################


                         Program Version 4.2.1 -  RELEASE  -


 With contributions from (in alphabetic order):
   Daniel Aravena         : Magnetic Suceptibility
   Michael Atanasov       : Ab Initio Ligand Field Theory (pilot matlab implementation)
   Alexander A. Auer      : GIAO ZORA, VPT2
   Ute Becker             : Parallelization
   Giovanni Bistoni       : ED, misc. LED, open-shell LED, HFLD
   Martin Brehm           : Molecular dynamics
   Dmytro Bykov           : SCF Hessian
   Vijay G. Chilkuri      : MRCI spin determinant printing, contributions to CSF-ICE
   Dipayan Datta          : RHF DLPNO-CCSD density
   Achintya Kumar Dutta   : EOM-CC, STEOM-CC
   Dmitry Ganyushin       : Spin-Orbit,Spin-Spin,Magnetic field MRCI
   Miquel Garcia          : C-PCM Hessian, Gaussian charge scheme
   Yang Guo               : DLPNO-NEVPT2, CIM, IAO-localization
   Andreas Hansen         : Spin unrestricted coupled pair/coupled cluster methods
   Benjamin Helmich-Paris : CASSCF linear response (MC-RPA)
   Lee Huntington         : MR-EOM, pCC
   Robert Izsak           : Overlap fitted RIJCOSX, COSX-SCS-MP3, EOM
   Christian Kollmar      : KDIIS, OOCD, Brueckner-CCSD(T), CCSD density
   Simone Kossmann        : Meta GGA functionals, TD-DFT gradient, OOMP2, MP2 Hessian
   Martin Krupicka        : AUTO-CI
   Lucas Lang             : DCDCAS
   Dagmar Lenk            : GEPOL surface, SMD
   Dimitrios Liakos       : Extrapolation schemes; Compound Job, initial MDCI parallelization
   Dimitrios Manganas     : Further ROCIS development; embedding schemes
   Dimitrios Pantazis     : SARC Basis sets
   Taras Petrenko         : DFT Hessian,TD-DFT gradient, ASA, ECA, R-Raman, ABS, FL, XAS/XES, NRVS
   Peter Pinski           : DLPNO-MP2, DLPNO-MP2 Gradient
   Christoph Reimann      : Effective Core Potentials
   Marius Retegan         : Local ZFS, SOC
   Christoph Riplinger    : Optimizer, TS searches, QM/MM, DLPNO-CCSD(T), (RO)-DLPNO pert. Triples
   Tobias Risthaus        : Range-separated hybrids, TD-DFT gradient, RPA, STAB
   Michael Roemelt        : Original ROCIS implementation
   Masaaki Saitow         : Open-shell DLPNO-CCSD energy and density
   Barbara Sandhoefer     : DKH picture change effects
   Avijit Sen             : IP-ROCIS
   Kantharuban Sivalingam : CASSCF convergence, NEVPT2, FIC-MRCI
   Bernardo de Souza      : ESD, SOC TD-DFT
   Georgi Stoychev        : AutoAux, RI-MP2 NMR
   Willem Van den Heuvel  : Paramagnetic NMR
   Boris Wezisla          : Elementary symmetry handling
   Frank Wennmohs         : Technical directorship


 We gratefully acknowledge several colleagues who have allowed us to
 interface, adapt or use parts of their codes:
   Stefan Grimme, W. Hujo, H. Kruse,             : VdW corrections, initial TS optimization,
                  C. Bannwarth                     DFT functionals, gCP, sTDA/sTD-DF
   Ed Valeev, F. Pavosevic, A. Kumar             : LibInt (2-el integral package), F12 methods
   Garnet Chan, S. Sharma, J. Yang, R. Olivares  : DMRG
   Ulf Ekstrom                                   : XCFun DFT Library
   Mihaly Kallay                                 : mrcc  (arbitrary order and MRCC methods)
   Andreas Klamt, Michael Diedenhofen            : otool_cosmo (COSMO solvation model)
   Jiri Pittner, Ondrej Demel                    : Mk-CCSD
   Frank Weinhold                                : gennbo (NPA and NBO analysis)
   Christopher J. Cramer and Donald G. Truhlar   : smd solvation model
   Lars Goerigk                                  : TD-DFT with DH, B97 family of functionals
   V. Asgeirsson, H. Jonsson                     : NEB implementation
   FAccTs GmbH                                   : IRC, NEB, NEB-TS, Multilevel, MM, QM/MM, CI optimization
   S Lehtola, MJT Oliveira, MAL Marques          : LibXC Library


 Your calculation uses the libint2 library for the computation of 2-el integrals
 For citations please refer to: http://libint.valeyev.net

 Your ORCA version has been built with support for libXC version: 4.2.3
 For citations please refer to: https://tddft.org/programs/libxc/

 This ORCA versions uses:
   CBLAS   interface :  Fast vector & matrix operations
   LAPACKE interface :  Fast linear algebra routines
   SCALAPACK package :  Parallel linear algebra routines




***************************************
The coordinates will be read from file: s_4b1_b.xyz
***************************************


Your calculation utilizes the atom-pairwise dispersion correction
with the Becke-Johnson damping scheme (D3BJ)
Cite in your paper:
S.Grimme, S.Ehrlich, L.Goerigk, J Comput Chem, (2011), 32, 1456–1465 
S.Grimme, J.Antony, S.Ehrlich and H.Krieg, J.Chem.Phys., 132, (2010), 154104 
   

----- Orbital basis set information -----
Your calculation utilizes the basis: def2-SVP
   F. Weigend and R. Ahlrichs, Phys. Chem. Chem. Phys. 7, 3297 (2005).

cite the ECPs for Pd [Def2-ECP] as follows:
Ce-Yb(ecp-28): M. Dolg, H. Stoll, H.Preuss, J. Chem. Phys., 1989, 90, 1730-1734.
Y-Cd(ecp-28), Hf-Hg(ecp-46): D. Andrae,U. Haeussermann, M. Dolg, H. Stoll, H. Preuss, Theor. Chim. Acta, 1990, 77, 123-141.
In-Sb(ecp-28), Tl-Bi(ecp-46): B. Metz, H. Stoll, M. Dolg, J. Chem. Phys., 2000, 113, 2563-2569.
Te-Xe(ecp-28), Po-Rn(ecp-46): K. A. Peterson, D. Figgen, E. Goll, H. Stoll, M. Dolg, J. Chem. Phys., 2003, 119, 11113-11123.
Rb(ecp-28), Cs(ecp-46): T. Leininger, A. Nicklass, W. Kuechle, H. Stoll, M. Dolg, A. Bergner, Chem. Phys. Lett., 1996, 255, 274-280.
Sr(ecp-28), Ba(ecp-46): M. Kaupp, P. V. Schleyer, H. Stoll and H. Preuss, J. Chem. Phys., 1991, 94, 1360-1366.
La(ecp-46): M. Dolg, H. Stoll, A. Savin, H. Preuss, Theor. Chim. Acta, 1989, 75, 173-194.
Lu(ecp-28): X. Cao, M. Dolg, J. Chem. Phys., 2001, 115, 7348-7355.

ECP parameters for Pd [Def2-ECP] have been obtained from:
TURBOMOLE (7.0.2)

================================================================================
                                        WARNINGS
                       Please study these warnings very carefully!
================================================================================


INFO   : the flag for use of LIBINT has been found!

================================================================================
                                       INPUT FILE
================================================================================
NAME = s_4b1_b_PBE0.in
|  1> ! DFT SP RKS PBE0 def2-SVP D3BJ Grid6 NOFINALGRID SlowConv TightSCF printbasis 
|  2> 
|  3> %base "_s_4b1_b_PBE0"
|  4> %maxcore 3000
|  5> %scf
|  6>    MaxIter 2000
|  7> end
|  8> %pal
|  9>    nprocs 32
| 10> end
| 11> 
| 12> * xyzfile 4 1 s_4b1_b.xyz
| 13> 
| 14>                          ****END OF INPUT****
================================================================================

                       ****************************
                       * Single Point Calculation *
                       ****************************

---------------------------------
CARTESIAN COORDINATES (ANGSTROEM)
---------------------------------
  Pd    -0.919000    7.094900    0.569600
  Pd    -0.215200   -4.248900   -0.282200
  C      4.204000   -0.292700   -1.060100
  C      4.482000   -1.459300   -1.218900
  C      4.849400   -2.807000   -1.408200
  C      6.156700   -3.135600   -1.713300
  C      6.537900   -4.468500   -1.906400
  C      5.628100   -5.489700   -1.791600
  C      4.287300   -5.204400   -1.474000
  C      3.302100   -6.207600   -1.326300
  C      2.020800   -5.862700   -1.003700
  N      1.653300   -4.570300   -0.823400
  C      2.540400   -3.605300   -0.958300
  C      3.883700   -3.851000   -1.281800
  H      6.893100   -2.352300   -1.808200
  H      7.566600   -4.688000   -2.147900
  H      5.928000   -6.515300   -1.939300
  H      3.575700   -7.241300   -1.466300
  H      1.234800   -6.606500   -0.875300
  H      2.197000   -2.583700   -0.807800
  C      3.846500    1.057200   -0.854200
  C      4.636000    1.880100   -0.045600
  C      4.271800    3.193500    0.169700
  C      3.109900    3.712600   -0.405100
  C      2.330600    2.890400   -1.221300
  C      2.694300    1.579700   -1.448900
  H      5.529500    1.482300    0.410400
  H      4.879800    3.813100    0.810700
  H      1.458100    3.292500   -1.710100
  H      2.104600    0.958300   -2.103400
  C      2.719700    5.109400   -0.165700
  C      3.666300    6.139100   -0.155600
  C      3.256700    7.443000    0.062600
  C      1.911200    7.700700    0.266600
  N      1.007300    6.720300    0.263000
  C      1.387800    5.457400    0.056000
  H      4.706800    5.918500   -0.336600
  H      3.969200    8.251800    0.069300
  H      1.545100    8.708800    0.438500
  H      0.597300    4.706200    0.086800
  C     -0.215800    2.699700    5.019300
  C     -0.322200    3.876500    5.277200
  C     -0.377800    5.217400    5.706400
  C     -0.325700    5.489200    7.061800
  C     -0.312300    6.805100    7.535200
  C     -0.339200    7.865500    6.664500
  C     -0.406300    7.634800    5.278800
  C     -0.430400    8.685000    4.333700
  C     -0.524000    8.398400    3.004400
  N     -0.617400    7.123000    2.543400
  C     -0.569600    6.115600    3.391300
  C     -0.446500    6.300000    4.779900
  H     -0.281500    4.670500    7.763600
  H     -0.268400    6.979600    8.599300
  H     -0.310400    8.880500    7.028300
  H     -0.375100    9.706200    4.675400
  H     -0.528800    9.189200    2.252700
  H     -0.635100    5.115700    2.973900
  C     -0.075500    1.337900    4.679000
  C     -0.885200    0.370400    5.280000
  C     -0.752400   -0.957400    4.928000
  C      0.185800   -1.346100    3.969900
  C      1.015700   -0.379600    3.396600
  C      0.889400    0.948200    3.745400
  H     -1.621100    0.667300    6.010900
  H     -1.402100   -1.693600    5.375200
  H      1.783300   -0.674900    2.699100
  H      1.537200    1.690800    3.308300
  C      0.234100   -2.742400    3.513200
  C      0.095400   -3.837000    4.373600
  C      0.065100   -5.116900    3.846700
  C      0.125600   -5.288500    2.471400
  N      0.257700   -4.247000    1.651500
  C      0.341200   -3.011100    2.152100
  H      0.025400   -3.682300    5.439100
  H     -0.025600   -5.975400    4.492100
  H      0.069500   -6.267800    2.008900
  H      0.482400   -2.202100    1.430800
  C     -5.263500    2.972700    1.581600
  C     -5.531900    4.152000    1.597800
  C     -5.956800    5.494300    1.639000
  C     -7.284800    5.771100    1.908900
  C     -7.752700    7.088200    1.963700
  C     -6.905100    8.145300    1.747800
  C     -5.547200    7.910900    1.463600
  C     -4.628200    8.956700    1.226900
  C     -3.323600    8.665700    0.954100
  N     -2.865300    7.392000    0.895800
  C     -3.692900    6.385800    1.109800
  C     -5.053500    6.574600    1.404200
  H     -7.969600    4.955600    2.084800
  H     -8.795000    7.266100    2.179700
  H     -7.265700    9.161000    1.790800
  H     -4.967400    9.979500    1.264300
  H     -2.597300    9.451400    0.767500
  H     -3.276900    5.381600    1.046800
  C     -4.931500    1.604100    1.508200
  C     -3.706400    1.138800    1.994600
  C     -3.367200   -0.189700    1.852000
  C     -4.242500   -1.083900    1.230000
  C     -5.485900   -0.626100    0.791200
  C     -5.827800    0.703800    0.923800
  H     -3.030700    1.822500    2.482200
  H     -2.427800   -0.542900    2.249800
  H     -6.171700   -1.306500    0.310700
  H     -6.781300    1.057800    0.563800
  C     -3.834700   -2.474600    0.989900
  C     -4.695600   -3.565200    1.145000
  C     -4.233100   -4.841900    0.871300
  C     -2.926400   -5.014700    0.444400
  N     -2.106300   -3.972900    0.291400
  C     -2.540000   -2.740300    0.554500
  H     -5.706100   -3.412300    1.490700
  H     -4.878300   -5.697500    0.989200
  H     -2.513900   -5.993700    0.214900
  H     -1.830200   -1.931200    0.395700
  C     -2.062600    3.312800   -4.373300
  C     -2.043000    4.519600   -4.456300
  C     -1.993900    5.904400   -4.705300
  C     -2.203500    6.357900   -5.996300
  C     -2.119100    7.717600   -6.309300
  C     -1.805000    8.641700   -5.344300
  C     -1.582700    8.225500   -4.019600
  C     -1.234200    9.128400   -2.989900
  C     -1.036900    8.667400   -1.722600
  N     -1.186800    7.356100   -1.395700
  C     -1.498200    6.482100   -2.331400
  C     -1.694400    6.846500   -3.675600
  H     -2.433600    5.646000   -6.774200
  H     -2.293600    8.034600   -7.326000
  H     -1.722400    9.689100   -5.587900
  H     -1.123100   10.176000   -3.220000
  H     -0.744500    9.341200   -0.914700
  H     -1.606800    5.447200   -2.023900
  C     -2.020600    1.912400   -4.218600
  C     -2.309300    1.331600   -2.980200
  C     -2.188000   -0.030600   -2.814600
  C     -1.785400   -0.845200   -3.876500
  C     -1.548700   -0.269300   -5.124500
  C     -1.659900    1.096100   -5.295300
  H     -2.624900    1.956500   -2.160700
  H     -2.432800   -0.475100   -1.862300
  H     -1.242800   -0.887900   -5.954000
  H     -1.454400    1.540600   -6.256900
  C     -1.593800   -2.283900   -3.645400
  C     -2.046700   -3.274700   -4.522100
  C     -1.865700   -4.607200   -4.191400
  C     -1.257100   -4.935500   -2.988500
  N     -0.805800   -3.992300   -2.163700
  C     -0.948400   -2.703800   -2.485900
  H     -2.550700   -2.999800   -5.435700
  H     -2.209100   -5.388600   -4.850000
  H     -1.120500   -5.964700   -2.675200
  H     -0.509900   -1.976300   -1.798500

----------------------------
CARTESIAN COORDINATES (A.U.)
----------------------------
  NO LB      ZA    FRAG     MASS         X           Y           Z
   0 Pd   18.0000*   0   106.400   -1.736658   13.407418    1.076388
   1 Pd   18.0000*   0   106.400   -0.406669   -8.029257   -0.533281
   2 C     6.0000    0    12.011    7.944409   -0.553123   -2.003299
   3 C     6.0000    0    12.011    8.469753   -2.757677   -2.303387
   4 C     6.0000    0    12.011    9.164038   -5.304461   -2.661112
   5 C     6.0000    0    12.011   11.634477   -5.925425   -3.237668
   6 C     6.0000    0    12.011   12.354840   -8.444241   -3.602574
   7 C     6.0000    0    12.011   10.635568  -10.374030   -3.385633
   8 C     6.0000    0    12.011    8.101823   -9.834891   -2.785456
   9 C     6.0000    0    12.011    6.240065  -11.730664   -2.506344
  10 C     6.0000    0    12.011    3.818759  -11.078897   -1.896718
  11 N     7.0000    0    14.007    3.124284   -8.636615   -1.556000
  12 C     6.0000    0    12.011    4.800660   -6.813030   -1.810925
  13 C     6.0000    0    12.011    7.339129   -7.277335   -2.422251
  14 H     1.0000    0     1.008   13.026071   -4.445203   -3.417003
  15 H     1.0000    0     1.008   14.298802   -8.859036   -4.058943
  16 H     1.0000    0     1.008   11.202297  -12.312133   -3.664746
  17 H     1.0000    0     1.008    6.757094  -13.684074   -2.770905
  18 H     1.0000    0     1.008    2.333434  -12.484476   -1.654077
  19 H     1.0000    0     1.008    4.151728   -4.882485   -1.526521
  20 C     6.0000    0    12.011    7.268832    1.997818   -1.614204
  21 C     6.0000    0    12.011    8.760770    3.552874   -0.086172
  22 C     6.0000    0    12.011    8.072532    6.034840    0.320687
  23 C     6.0000    0    12.011    5.876859    7.015797   -0.765528
  24 C     6.0000    0    12.011    4.404196    5.462064   -2.307923
  25 C     6.0000    0    12.011    5.091489    2.985200   -2.738024
  26 H     1.0000    0     1.008   10.449241    2.801141    0.775544
  27 H     1.0000    0     1.008    9.221486    7.205715    1.532001
  28 H     1.0000    0     1.008    2.755410    6.221923   -3.231621
  29 H     1.0000    0     1.008    3.977118    1.810925   -3.974850
  30 C     6.0000    0    12.011    5.139488    9.655367   -0.313128
  31 C     6.0000    0    12.011    6.928303   11.601218   -0.294041
  32 C     6.0000    0    12.011    6.154271   14.065232    0.118297
  33 C     6.0000    0    12.011    3.611645   14.552214    0.503801
  34 N     7.0000    0    14.007    1.903521   12.699527    0.496998
  35 C     6.0000    0    12.011    2.622562   10.312991    0.105825
  36 H     1.0000    0     1.008    8.894563   11.184344   -0.636082
  37 H     1.0000    0     1.008    7.500701   15.593642    0.130958
  38 H     1.0000    0     1.008    2.919816   16.457247    0.828645
  39 H     1.0000    0     1.008    1.128733    8.893429    0.164028
  40 C     6.0000    0    12.011   -0.407803    5.101694    9.485102
  41 C     6.0000    0    12.011   -0.608870    7.325523    9.972463
  42 C     6.0000    0    12.011   -0.713939    9.859457   10.783533
  43 C     6.0000    0    12.011   -0.615484   10.373085   13.344868
  44 C     6.0000    0    12.011   -0.590161   12.859775   14.239464
  45 C     6.0000    0    12.011   -0.640995   14.863641   12.594080
  46 C     6.0000    0    12.011   -0.767796   14.427681    9.975486
  47 C     6.0000    0    12.011   -0.813338   16.412271    8.189506
  48 C     6.0000    0    12.011   -0.990216   15.870676    5.677493
  49 N     7.0000    0    14.007   -1.166717   13.460519    4.806329
  50 C     6.0000    0    12.011   -1.076388   11.556809    6.408628
  51 C     6.0000    0    12.011   -0.843763   11.905275    9.032702
  52 H     1.0000    0     1.008   -0.531958    8.825966   14.671078
  53 H     1.0000    0     1.008   -0.507202   13.189533   16.250322
  54 H     1.0000    0     1.008   -0.586571   16.781713   13.281562
  55 H     1.0000    0     1.008   -0.708836   18.342060    8.835226
  56 H     1.0000    0     1.008   -0.999287   17.365071    4.256986
  57 H     1.0000    0     1.008   -1.200165    9.667272    5.619857
  58 C     6.0000    0    12.011   -0.142674    2.528265    8.842029
  59 C     6.0000    0    12.011   -1.672786    0.699955    9.977754
  60 C     6.0000    0    12.011   -1.421830   -1.809224    9.312570
  61 C     6.0000    0    12.011    0.351111   -2.543760    7.502024
  62 C     6.0000    0    12.011    1.919395   -0.717340    6.418644
  63 C     6.0000    0    12.011    1.680722    1.791838    7.077780
  64 H     1.0000    0     1.008   -3.063435    1.261014   11.358955
  65 H     1.0000    0     1.008   -2.649585   -3.200440   10.157656
  66 H     1.0000    0     1.008    3.369949   -1.275376    5.100560
  67 H     1.0000    0     1.008    2.904887    3.195149    6.251781
  68 C     6.0000    0    12.011    0.442385   -5.182385    6.638986
  69 C     6.0000    0    12.011    0.180280   -7.250879    8.264906
  70 C     6.0000    0    12.011    0.123021   -9.669540    7.269210
  71 C     6.0000    0    12.011    0.237350   -9.993817    4.670269
  72 N     7.0000    0    14.007    0.486982   -8.025667    3.120883
  73 C     6.0000    0    12.011    0.644775   -5.690154    4.066880
  74 H     1.0000    0     1.008    0.047999   -6.958539   10.278409
  75 H     1.0000    0     1.008   -0.048377  -11.291870    8.488839
  76 H     1.0000    0     1.008    0.131336  -11.844425    3.796271
  77 H     1.0000    0     1.008    0.911604   -4.161366    2.703820
  78 C     6.0000    0    12.011   -9.946574    5.617589    2.988791
  79 C     6.0000    0    12.011  -10.453776    7.846143    3.019404
  80 C     6.0000    0    12.011  -11.256721   10.382722    3.097261
  81 C     6.0000    0    12.011  -13.766277   10.905798    3.607298
  82 C     6.0000    0    12.011  -14.650480   13.394757    3.710855
  83 C     6.0000    0    12.011  -13.048748   15.392386    3.302863
  84 C     6.0000    0    12.011  -10.482689   14.949434    2.765803
  85 C     6.0000    0    12.011   -8.746030   16.925710    2.318505
  86 C     6.0000    0    12.011   -6.280694   16.375800    1.802988
  87 N     7.0000    0    14.007   -5.414632   13.968856    1.692817
  88 C     6.0000    0    12.011   -6.978570   12.067413    2.097218
  89 C     6.0000    0    12.011   -9.549731   12.424193    2.653553
  90 H     1.0000    0     1.008  -15.060361    9.364727    3.939701
  91 H     1.0000    0     1.008  -16.620141   13.730939    4.119036
  92 H     1.0000    0     1.008  -13.730183   17.311781    3.384122
  93 H     1.0000    0     1.008   -9.387026   18.858522    2.389181
  94 H     1.0000    0     1.008   -4.908186   17.860558    1.450365
  95 H     1.0000    0     1.008   -6.192444   10.169750    1.978165
  96 C     6.0000    0    12.011   -9.319184    3.031310    2.850085
  97 C     6.0000    0    12.011   -7.004081    2.152020    3.769248
  98 C     6.0000    0    12.011   -6.363086   -0.358481    3.499773
  99 C     6.0000    0    12.011   -8.017163   -2.048274    2.324363
 100 C     6.0000    0    12.011  -10.366849   -1.183158    1.495151
 101 C     6.0000    0    12.011  -11.012946    1.329989    1.745729
 102 H     1.0000    0     1.008   -5.727193    3.444026    4.690678
 103 H     1.0000    0     1.008   -4.587877   -1.025932    4.251506
 104 H     1.0000    0     1.008  -11.662823   -2.468927    0.587138
 105 H     1.0000    0     1.008  -12.814800    1.998952    1.065428
 106 C     6.0000    0    12.011   -7.246533   -4.676316    1.870640
 107 C     6.0000    0    12.011   -8.873398   -6.737252    2.163736
 108 C     6.0000    0    12.011   -7.999400   -9.149865    1.646518
 109 C     6.0000    0    12.011   -5.530095   -9.476410    0.839794
 110 N     7.0000    0    14.007   -3.980330   -7.507693    0.550666
 111 C     6.0000    0    12.011   -4.799904   -5.178417    1.047853
 112 H     1.0000    0     1.008  -10.782966   -6.448312    2.817015
 113 H     1.0000    0     1.008   -9.218651  -10.766715    1.869317
 114 H     1.0000    0     1.008   -4.750583  -11.326452    0.406102
 115 H     1.0000    0     1.008   -3.458577   -3.649439    0.747765
 116 C     6.0000    0    12.011   -3.897749    6.260285   -8.264339
 117 C     6.0000    0    12.011   -3.860710    8.540806   -8.421187
 118 C     6.0000    0    12.011   -3.767925   11.157699   -8.891728
 119 C     6.0000    0    12.011   -4.164012   12.014690  -11.331365
 120 C     6.0000    0    12.011   -4.004519   14.584150  -11.922849
 121 C     6.0000    0    12.011   -3.410956   16.330446  -10.099263
 122 C     6.0000    0    12.011   -2.990870   15.543942   -7.595943
 123 C     6.0000    0    12.011   -2.332300   17.250176   -5.650092
 124 C     6.0000    0    12.011   -1.959457   16.379012   -3.255242
 125 N     7.0000    0    14.007   -2.242727   13.901014   -2.637491
 126 C     6.0000    0    12.011   -2.831188   12.249394   -4.405708
 127 C     6.0000    0    12.011   -3.201952   12.938010   -6.945877
 128 H     1.0000    0     1.008   -4.598838   10.669394  -12.801383
 129 H     1.0000    0     1.008   -4.334276   15.183194  -13.844134
 130 H     1.0000    0     1.008   -3.254864   18.309745  -10.559601
 131 H     1.0000    0     1.008   -2.122351   19.229853   -6.084918
 132 H     1.0000    0     1.008   -1.406901   17.652310   -1.728532
 133 H     1.0000    0     1.008   -3.036412   10.293716   -3.824617
 134 C     6.0000    0    12.011   -3.818381    3.613912   -7.971999
 135 C     6.0000    0    12.011   -4.363945    2.516359   -5.631762
 136 C     6.0000    0    12.011   -4.134721   -0.057826   -5.318823
 137 C     6.0000    0    12.011   -3.373917   -1.597197   -7.325523
 138 C     6.0000    0    12.011   -2.926619   -0.508903   -9.683902
 139 C     6.0000    0    12.011   -3.136756    2.071329  -10.006667
 140 H     1.0000    0     1.008   -4.960342    3.697249   -4.083131
 141 H     1.0000    0     1.008   -4.597326   -0.897809   -3.519237
 142 H     1.0000    0     1.008   -2.348552   -1.677888  -11.251429
 143 H     1.0000    0     1.008   -2.748418    2.911312  -11.823827
 144 C     6.0000    0    12.011   -3.011846   -4.315946   -6.888808
 145 C     6.0000    0    12.011   -3.867702   -6.188286   -8.545531
 146 C     6.0000    0    12.011   -3.525662   -8.706346   -7.920598
 147 C     6.0000    0    12.011   -2.375575   -9.326743   -5.647447
 148 N     7.0000    0    14.007   -1.522741   -7.544354   -4.088800
 149 C     6.0000    0    12.011   -1.792216   -5.109442   -4.697670
 150 H     1.0000    0     1.008   -4.820124   -5.668800  -10.271984
 151 H     1.0000    0     1.008   -4.174594  -10.182978   -9.165172
 152 H     1.0000    0     1.008   -2.117438  -11.271649   -5.055395
 153 H     1.0000    0     1.008   -0.963571   -3.734666   -3.398672
* core charge reduced due to ECP

--------------------------------
INTERNAL COORDINATES (ANGSTROEM)
--------------------------------
 Pd     0   0   0     0.000000000000     0.00000000     0.00000000
 Pd     1   0   0    11.397486394815     0.00000000     0.00000000
 C      2   1   0     5.982138036689    52.92321136     0.00000000
 C      3   2   1     1.209734268342    63.19711370   181.22937880
 C      4   3   2     1.409649793388   178.16258924   186.77399784
 C      5   4   3     1.382062683094   120.23117250   355.02547440
 C      6   5   4     1.399722636811   120.96217446   180.09709930
 C      7   6   5     1.372503012747   121.09475834   359.63490091
 C      8   7   6     1.407128455401   119.97698007   359.95481994
 C      9   8   7     1.413804997162   122.93632007   180.69945285
 C     10   9   8     1.365560859134   119.95418427   179.34015450
 N     11  10   9     1.355677727190   121.77301507     0.32117499
 C     12  11  10     1.317713709422   120.13477811     0.00000000
 C     13  12  11     1.403380073252   122.66834016   359.70426200
 H      6   5   4     1.079282103993   119.48856388   359.82624348
 H      7   6   5     1.079224809759   118.95598260   179.72144177
 H      8   7   6     1.078707865921   120.77490922   180.13969496
 H     10   9   8     1.078421369410   119.32709520   359.62674263
 H     11  10   9     1.089734371303   122.15517327   180.36740416
 H     13  12  11     1.088228087305   117.44489296   179.75227866
 C      3   2   1     1.411535004879   115.23871354     1.80974704
 C     21   3   2     1.397965886565   120.28332265   131.37048654
 C     22  21   3     1.379860605279   120.09791620   180.99839708
 C     23  22  21     1.396377978915   120.61281559     0.53420391
 C     24  23  22     1.396246314230   119.08703031   358.92323420
 C     25  24  23     1.379135214546   120.59228313     0.57768323
 H     22  21   3     1.079130710341   119.67146422     0.86435377
 H     23  22  21     1.079096455374   119.37347345   178.86790357
 H     25  24  23     1.077898928471   119.81488282   183.01795179
 H     26  25  24     1.078078985975   120.24731143   181.82107576
 C     24  23  22     1.469904296204   120.47089005   179.55181138
 C     31  24  23     1.398726442161   121.40479626    40.82431424
 C     32  31  24     1.384029844331   119.63031749   179.46699694
 C     33  32  31     1.385061565419   119.07797253   359.97045717
 N     34  33  32     1.333503779522   121.41879461     0.31165424
 C     35  34  33     1.335120091977   120.17721046   359.79405127
 H     32  31  24     1.078918722611   120.06145232     0.67724320
 H     33  32  31     1.077895440198   120.81477901   180.31650157
 H     34  33  32     1.086206439863   121.56089358   180.18807441
 H     36  35  34     1.090935529717   116.13264094   178.80640096
 C     40  36  35     5.386717934884   113.06148565   270.35920743
 C     41  40  36     1.209417880635    81.14684352    53.56348189
 C     42  41  40     1.409012707537   173.94480977   216.81680789
 C     43  42  41     1.383365031364   118.94344711   336.18132442
 C     44  43  42     1.398527772338   121.12360137   176.87974018
 C     45  44  43     1.372330229937   120.80334973   359.44528297
 C     46  45  44     1.406374555373   119.95525983     1.20007162
 C     47  46  45     1.413051612645   122.54090689   180.30627759
 C     48  47  46     1.363062364677   119.81301094   181.35789773
 N     49  48  47     1.359371075167   122.18935590     1.04978868
 C     50  49  48     1.317601612780   119.77629016   357.51333819
 C     51  50  49     1.406188796001   122.57360666     1.10599595
 H     44  43  42     1.079234251680   119.31602636   357.69831727
 H     45  44  43     1.079206314844   119.09703524   180.17269143
 H     46  45  44     1.078612479067   120.83778716   181.14438076
 H     48  47  46     1.078270105308   119.40969886     1.30713060
 H     49  48  47     1.091073127705   121.31856072   180.97335416
 H     51  50  49     1.085501275909   117.04187692   180.78608485
 C     41  40  36     1.410669139097    97.10464738   233.94234169
 C     59  41  40     1.397451730830   120.46251707   217.73507213
 C     60  59  41     1.380069809828   120.04377797   179.16456071
 C     61  60  59     1.396159926369   120.50124360   359.85146055
 C     62  61  60     1.396971420610   119.22332653     1.73895503
 C     63  62  61     1.378646426753   120.53633305   358.35883120
 H     60  59  41     1.078848103303   119.73964598   359.86370566
 H     61  60  59     1.078929270156   119.52716014   181.84303816
 H     63  62  61     1.078386804444   119.92373570   176.38353891
 H     64  63  62     1.078033399297   120.38505786   179.43165253
 C     62  61  60     1.469884849231   119.98465502   185.62176909
 C     69  62  61     1.399169400037   123.28719919   318.83727313
 C     70  69  62     1.384444188113   119.43125672   175.75166839
 C     71  70  69     1.387284001205   119.38647645   357.75175229
 N     72  71  70     1.332069318767   121.18502108     2.29090137
 C     73  72  71     1.336046937798   119.92288173     0.34469214
 H     70  69  62     1.078945012501   120.10160158   354.98707312
 H     71  70  69     1.077863581350   120.68336919   179.04385003
 H     72  71  70     1.084473120921   122.15646865   182.23313221
 H     74  73  72     1.093019729923   116.45425661   177.99607982
 C     58  51  50     5.287062970119   121.83328126   279.97849170
 C     79  58  51     1.209565827064    78.20210531    19.89384134
 C     80  79  58     1.408547741470   175.17155019   206.33367524
 C     81  80  79     1.383129874596   119.08165669     1.16172060
 C     82  81  80     1.398815877805   121.14757434   179.83009278
 C     83  82  81     1.372041901693   120.84008045     0.13660332
 C     84  83  82     1.406984509510   119.97634607     0.16655620
 C     85  84  83     1.412191746896   122.58438793   179.72597209
 C     86  85  84     1.364214792472   119.85946952   180.10307567
 N     87  86  85     1.354898324599   122.18151550     0.20368749
 C     88  87  86     1.320286408322   119.83019261   359.86360259
 C     89  88  87     1.404830651716   122.59130874   359.84956479
 H     82  81  80     1.079320202720   119.32595653     0.13158291
 H     83  82  81     1.079209757183   119.08529825   180.17024044
 H     84  83  82     1.078669481352   120.84305894   180.04769501
 H     86  85  84     1.078227823792   119.46848839     0.11450836
 H     87  86  85     1.086119579052   121.30113529   179.94058745
 H     89  88  87     1.088780345157   117.00224734   179.70677017
 C     79  58  51     1.410204779456   101.59427890   197.49204166
 C     97  79  58     1.397840856464   120.74860279    10.89602068
 C     98  97  79     1.378515016240   120.02994450   183.41548534
 C     99  98  97     1.397364565888   120.57165928   359.62132358
 C    100  99  98     1.395768548148   119.21334749   357.96264435
 C    101 100  99     1.379533392129   120.44793383     2.42530687
 H     98  97  79     1.077854322253   119.71536677     3.52300204
 H     99  98  97     1.079568172928   119.42567720   181.28853827
 H    101 100  99     1.078956000030   119.96018749   180.08917521
 H    102 101 100     1.078924580311   120.21554918   178.66282243
 C    100  99  98     1.469011688177   120.30945002   175.36409392
 C    107 100  99     1.398074812018   123.32691630   140.70554855
 C    108 107 100     1.385200646116   119.43602848   178.74330919
 C    109 108 107     1.385484875414   119.38886544   359.79105787
 N    110 109 108     1.334661099306   121.16400913   359.94812687
 C    111 110 109     1.332899118463   119.95191441     0.18780094
 H    108 107 100     1.078886995936   120.11509035   357.74048448
 H    109 108 107     1.078069946710   120.66674087   179.67277995
 H    110 109 108     1.086861306699   122.36821206   180.08860505
 H    112 111 110     1.087968882827   116.52742524   180.94514059
 C     29  25  24     4.414563944491   157.04829909   175.37286606
 C    117  29  25     1.209809654450    91.89423954   202.65418688
 C    118 117  29     1.407864641931   173.65228327   117.22601233
 C    119 118 117     1.384295997972   118.80952947    20.69299680
 C    120 119 118     1.397811307008   121.22224169   182.30292995
 C    121 120 119     1.372532192701   120.75094006     0.98365933
 C    122 121 120     1.406225380229   119.94875771   359.09760112
 C    123 122 121     1.413139324341   122.43201081   178.89545346
 C    124 123 122     1.362900429232   119.81045390   179.70125589
 N    125 124 123     1.359721041243   122.26239318   358.78641619
 C    126 125 124     1.317717894695   119.66860944     1.87123363
 C    127 126 125     1.406469139370   122.66825220   359.62031950
 H    120 119 118     1.079294227725   119.23331886     2.13771444
 H    121 120 119     1.079174749519   119.13894331   180.30170344
 H    122 121 120     1.078522359527   120.83571894   178.91060484
 H    124 123 122     1.078311170303   119.38365954   359.41023123
 H    125 124 123     1.091882141076   121.20137729   178.56949381
 H    127 126 125     1.085065997993   117.06623647   179.96383326
 C    117  29  25     1.409544695992    84.57499791    22.96101624
 C    135 117  29     1.397966698459   120.25412409    67.86637417
 C    136 135 117     1.377579721831   119.94230884   183.91614836
 C    137 136 135     1.397602064251   120.68893803   359.62029105
 C    138 137 136     1.394701294185   119.21563164   357.88964636
 C    139 138 137     1.380527160182   120.36006175     2.52428117
 H    136 135 117     1.077814278992   119.54729072     3.85325726
 H    137 136 135     1.079065605049   119.56722383   181.31136928
 H    139 138 137     1.079032446222   119.95195317   180.34350003
 H    140 139 138     1.079113089532   120.15277760   178.62280699
 C    138 137 136     1.469685496969   119.25168556   176.60648106
 C    145 138 137     1.398358301724   123.55924176   136.33196026
 C    146 145 138     1.384803141244   119.32294802   182.57450898
 C    147 146 145     1.387495318911   119.47495360     0.96097925
 N    148 147 146     1.331763105811   121.19791282   357.89372416
 C    149 148 147     1.335806816123   119.84088685     0.63844710
 H    146 145 138     1.079004620009   120.10644417     1.25552343
 H    147 146 145     1.078083243539   120.65781644   179.81440973
 H    148 147 146     1.084467191758   122.02352215   178.20117637
 H    150 149 148     1.092729271137   116.59080486   183.30314980

---------------------------
INTERNAL COORDINATES (A.U.)
---------------------------
 Pd     0   0   0     0.000000000000     0.00000000     0.00000000
 Pd     1   0   0    21.538127901294     0.00000000     0.00000000
 C      2   1   0    11.304602584655    52.92321136     0.00000000
 C      3   2   1     2.286066461985    63.19711370   181.22937880
 C      4   3   2     2.663852054243   178.16258924   186.77399784
 C      5   4   3     2.611719970959   120.23117250   355.02547440
 C      6   5   4     2.645092447022   120.96217446   180.09709930
 C      7   6   5     2.593654812074   121.09475834   359.63490091
 C      8   7   6     2.659087415956   119.97698007   359.95481994
 C      9   8   7     2.671704251405   122.93632007   180.69945285
 C     10   9   8     2.580536042966   119.95418427   179.34015450
 N     11  10   9     2.561859630247   121.77301507     0.32117499
 C     12  11  10     2.490118033722   120.13477811     0.00000000
 C     13  12  11     2.652004000248   122.66834016   359.70426200
 H      6   5   4     2.039547597789   119.48856388   359.82624348
 H      7   6   5     2.039439327378   118.95598260   179.72144177
 H      8   7   6     2.038462445097   120.77490922   180.13969496
 H     10   9   8     2.037921045153   119.32709520   359.62674263
 H     11  10   9     2.059299520484   122.15517327   180.36740416
 H     13  12  11     2.056453056248   117.44489296   179.75227866
 C      3   2   1     2.667414587665   115.23871354     1.80974704
 C     21   3   2     2.641772670173   120.28332265   131.37048654
 C     22  21   3     2.607558646963   120.09791620   180.99839708
 C     23  22  21     2.638771959589   120.61281559     0.53420391
 C     24  23  22     2.638523149391   119.08703031   358.92323420
 C     25  24  23     2.606187857138   120.59228313     0.57768323
 H     22  21   3     2.039261505247   119.67146422     0.86435377
 H     23  22  21     2.039196772741   119.37347345   178.86790357
 H     25  24  23     2.036933774858   119.81488282   183.01795179
 H     26  25  24     2.037274034228   120.24731143   181.82107576
 C     24  23  22     2.777716562900   120.47089005   179.55181138
 C     31  24  23     2.643209911958   121.40479626    40.82431424
 C     32  31  24     2.615437366960   119.63031749   179.46699694
 C     33  32  31     2.617387037262   119.07797253   359.97045717
 N     34  33  32     2.519956941846   121.41879461     0.31165424
 C     35  34  33     2.523011329732   120.17721046   359.79405127
 H     32  31  24     2.038860906494   120.06145232     0.67724320
 H     33  32  31     2.036927182977   120.81477901   180.31650157
 H     34  33  32     2.052632696243   121.56089358   180.18807441
 H     36  35  34     2.061569380930   116.13264094   178.80640096
 C     40  36  35    10.179421657612   113.06148565   270.35920743
 C     41  40  36     2.285468575868    81.14684352    53.56348189
 C     42  41  40     2.662648136459   173.94480977   216.81680789
 C     43  42  41     2.614181052521   118.94344711   336.18132442
 C     44  43  42     2.642834480401   121.12360137   176.87974018
 C     45  44  43     2.593328299883   120.80334973   359.44528297
 C     46  45  44     2.657662751370   119.95525983     1.20007162
 C     47  46  45     2.670280560996   122.54090689   180.30627759
 C     48  47  46     2.575814572695   119.81301094   181.35789773
 N     49  48  47     2.568839046439   122.18935590     1.04978868
 C     50  49  48     2.489906201767   119.77629016   357.51333819
 C     51  50  49     2.657311717031   122.57360666     1.10599595
 H     44  43  42     2.039457170023   119.31602636   357.69831727
 H     45  44  43     2.039404377054   119.09703524   180.17269143
 H     46  45  44     2.038282190067   120.83778716   181.14438076
 H     48  47  46     2.037635197426   119.40969886     1.30713060
 H     49  48  47     2.061829403443   121.31856072   180.97335416
 H     51  50  49     2.051300129490   117.04187692   180.78608485
 C     41  40  36     2.665778338467    97.10464738   233.94234169
 C     59  41  40     2.640801056643   120.46251707   217.73507213
 C     60  59  41     2.607953986269   120.04377797   179.16456071
 C     61  60  59     2.638359899994   120.50124360   359.85146055
 C     62  61  60     2.639893401867   119.22332653     1.73895503
 C     63  62  61     2.605264182073   120.53633305   358.35883120
 H     60  59  41     2.038727455343   119.73964598   359.86370566
 H     61  60  59     2.038880838467   119.52716014   181.84303816
 H     63  62  61     2.037855726835   119.92373570   176.38353891
 H     64  63  62     2.037187887892   120.38505786   179.43165253
 C     62  61  60     2.777679813447   119.98465502   185.62176909
 C     69  62  61     2.644046981033   123.28719919   318.83727313
 C     70  69  62     2.616220363233   119.43125672   175.75166839
 C     71  70  69     2.621586832248   119.38647645   357.75175229
 N     72  71  70     2.517246203868   121.18502108     2.29090137
 C     73  72  71     2.524762814503   119.92288173     0.34469214
 H     70  69  62     2.038910587186   120.10160158   354.98707312
 H     71  70  69     2.036866978478   120.68336919   179.04385003
 H     72  71  70     2.049357198139   122.15646865   182.23313221
 H     74  73  72     2.065507948526   116.45425661   177.99607982
 C     58  51  50     9.991101066321   121.83328126   279.97849170
 C     79  58  51     2.285748154100    78.20210531    19.89384134
 C     80  79  58     2.661769477931   175.17155019   206.33367524
 C     81  80  79     2.613736670631   119.08165669     1.16172060
 C     82  81  80     2.643378920833   121.14757434   179.83009278
 C     83  82  81     2.592783438463   120.84008045     0.13660332
 C     84  83  82     2.658815397643   119.97634607     0.16655620
 C     85  84  83     2.668655650216   122.58438793   179.72597209
 C     86  85  84     2.577992345617   119.85946952   180.10307567
 N     87  86  85     2.560386772800   122.18151550     0.20368749
 C     88  87  86     2.494979730067   119.83019261   359.86360259
 C     89  88  87     2.654745196281   122.59130874   359.84956479
 H     82  81  80     2.039619593950   119.32595653     0.13158291
 H     83  82  81     2.039410882132   119.08529825   180.17024044
 H     84  83  82     2.038389908774   120.84305894   180.04769501
 H     86  85  84     2.037555296941   119.46848839     0.11450836
 H     87  86  85     2.052468553098   121.30113529   179.94058745
 H     89  88  87     2.057496672343   117.00224734   179.70677017
 C     79  58  51     2.664900825918   101.59427890   197.49204166
 C     97  79  58     2.641536397523   120.74860279    10.89602068
 C     98  97  79     2.605015852192   120.02994450   183.41548534
 C     99  98  97     2.640636338775   120.57165928   359.62132358
 C    100  99  98     2.637620302341   119.21334749   357.96264435
 C    101 100  99     2.606940303724   120.44793383     2.42530687
 H     98  97  79     2.036849481322   119.71536677     3.52300204
 H     99  98  97     2.040088189732   119.42567720   181.28853827
 H    101 100  99     2.038931350607   119.96018749   180.08917521
 H    102 101 100     2.038871975944   120.21554918   178.66282243
 C    100  99  98     2.776029778183   120.30945002   175.36409392
 C    107 100  99     2.641978509448   123.32691630   140.70554855
 C    108 107 100     2.617649861690   119.43602848   178.74330919
 C    109 108 107     2.618186977222   119.38886544   359.79105787
 N    110 109 108     2.522143959286   121.16400913   359.94812687
 C    111 110 109     2.518814298041   119.95191441     0.18780094
 H    108 107 100     2.038800951768   120.11509035   357.74048448
 H    109 108 107     2.037256952494   120.66674087   179.67277995
 H    110 109 108     2.053870215217   122.36821206   180.08860505
 H    112 111 110     2.055963230771   116.52742524   180.94514059
 C     29  25  24     8.342316855771   157.04829909   175.37286606
 C    117  29  25     2.286208921084    91.89423954   202.65418688
 C    118 117  29     2.660478606881   173.65228327   117.22601233
 C    119 118 117     2.615940324449   118.80952947    20.69299680
 C    120 119 118     2.641480557144   121.22224169   182.30292995
 C    121 120 119     2.593709954195   120.75094006     0.98365933
 C    122 121 120     2.657380851202   119.94875771   359.09760112
 C    123 122 121     2.670446312080   122.43201081   178.89545346
 C    124 123 122     2.575508559052   119.81045390   179.70125589
 N    125 124 123     2.569500386480   122.26239318   358.78641619
 C    126 125 124     2.490125942741   119.66860944     1.87123363
 C    127 126 125     2.657841489221   122.66825220   359.62031950
 H    120 119 118     2.039570508322   119.23331886     2.13771444
 H    121 120 119     2.039344727234   119.13894331   180.30170344
 H    122 121 120     2.038111888817   120.83571894   178.91060484
 H    124 123 122     2.037712799021   119.38365954   359.41023123
 H    125 124 123     2.063358217153   121.20137729   178.56949381
 H    127 126 125     2.050477573436   117.06623647   179.96383326
 C    117  29  25     2.663653448947    84.57499791    22.96101624
 C    135 117  29     2.641774204429   120.25412409    67.86637417
 C    136 135 117     2.603248401904   119.94230884   183.91614836
 C    137 136 135     2.641085145638   120.68893803   359.62029105
 C    138 137 136     2.635603484634   119.21563164   357.88964636
 C    139 138 137     2.608818253184   120.36006175     2.52428117
 H    136 135 117     2.036773810526   119.54729072     3.85325726
 H    137 136 135     2.039138474077   119.56722383   181.31136928
 H    139 138 137     2.039075812975   119.95195317   180.34350003
 H    140 139 138     2.039228206746   120.15277760   178.62280699
 C    138 137 136     2.777303092267   119.25168556   176.60648106
 C    145 138 137     2.642514227353   123.55924176   136.33196026
 C    146 145 138     2.616898686346   119.32294802   182.57450898
 C    147 146 145     2.621986164840   119.47495360     0.96097925
 N    148 147 146     2.516667545244   121.19791282   357.89372416
 C    149 148 147     2.524309050297   119.84088685     0.63844710
 H    146 145 138     2.039023229052   120.10644417     1.25552343
 H    147 146 145     2.037282079859   120.65781644   179.81440973
 H    148 147 146     2.049345993646   122.02352215   178.20117637
 H    150 149 148     2.064959060969   116.59080486   183.30314980

---------------------
BASIS SET INFORMATION
---------------------
There are 4 groups of distinct atoms

 Group   1 Type Pd  : 7s6p5d1f contracted to 5s3p2d1f pattern {31111/411/41/1}
 Group   2 Type C   : 7s4p1d contracted to 3s2p1d pattern {511/31/1}
 Group   3 Type N   : 7s4p1d contracted to 3s2p1d pattern {511/31/1}
 Group   4 Type H   : 4s1p contracted to 2s1p pattern {31/1}

Atom   0Pd   basis set group =>   1
Atom   1Pd   basis set group =>   1
Atom   2C    basis set group =>   2
Atom   3C    basis set group =>   2
Atom   4C    basis set group =>   2
Atom   5C    basis set group =>   2
Atom   6C    basis set group =>   2
Atom   7C    basis set group =>   2
Atom   8C    basis set group =>   2
Atom   9C    basis set group =>   2
Atom  10C    basis set group =>   2
Atom  11N    basis set group =>   3
Atom  12C    basis set group =>   2
Atom  13C    basis set group =>   2
Atom  14H    basis set group =>   4
Atom  15H    basis set group =>   4
Atom  16H    basis set group =>   4
Atom  17H    basis set group =>   4
Atom  18H    basis set group =>   4
Atom  19H    basis set group =>   4
Atom  20C    basis set group =>   2
Atom  21C    basis set group =>   2
Atom  22C    basis set group =>   2
Atom  23C    basis set group =>   2
Atom  24C    basis set group =>   2
Atom  25C    basis set group =>   2
Atom  26H    basis set group =>   4
Atom  27H    basis set group =>   4
Atom  28H    basis set group =>   4
Atom  29H    basis set group =>   4
Atom  30C    basis set group =>   2
Atom  31C    basis set group =>   2
Atom  32C    basis set group =>   2
Atom  33C    basis set group =>   2
Atom  34N    basis set group =>   3
Atom  35C    basis set group =>   2
Atom  36H    basis set group =>   4
Atom  37H    basis set group =>   4
Atom  38H    basis set group =>   4
Atom  39H    basis set group =>   4
Atom  40C    basis set group =>   2
Atom  41C    basis set group =>   2
Atom  42C    basis set group =>   2
Atom  43C    basis set group =>   2
Atom  44C    basis set group =>   2
Atom  45C    basis set group =>   2
Atom  46C    basis set group =>   2
Atom  47C    basis set group =>   2
Atom  48C    basis set group =>   2
Atom  49N    basis set group =>   3
Atom  50C    basis set group =>   2
Atom  51C    basis set group =>   2
Atom  52H    basis set group =>   4
Atom  53H    basis set group =>   4
Atom  54H    basis set group =>   4
Atom  55H    basis set group =>   4
Atom  56H    basis set group =>   4
Atom  57H    basis set group =>   4
Atom  58C    basis set group =>   2
Atom  59C    basis set group =>   2
Atom  60C    basis set group =>   2
Atom  61C    basis set group =>   2
Atom  62C    basis set group =>   2
Atom  63C    basis set group =>   2
Atom  64H    basis set group =>   4
Atom  65H    basis set group =>   4
Atom  66H    basis set group =>   4
Atom  67H    basis set group =>   4
Atom  68C    basis set group =>   2
Atom  69C    basis set group =>   2
Atom  70C    basis set group =>   2
Atom  71C    basis set group =>   2
Atom  72N    basis set group =>   3
Atom  73C    basis set group =>   2
Atom  74H    basis set group =>   4
Atom  75H    basis set group =>   4
Atom  76H    basis set group =>   4
Atom  77H    basis set group =>   4
Atom  78C    basis set group =>   2
Atom  79C    basis set group =>   2
Atom  80C    basis set group =>   2
Atom  81C    basis set group =>   2
Atom  82C    basis set group =>   2
Atom  83C    basis set group =>   2
Atom  84C    basis set group =>   2
Atom  85C    basis set group =>   2
Atom  86C    basis set group =>   2
Atom  87N    basis set group =>   3
Atom  88C    basis set group =>   2
Atom  89C    basis set group =>   2
Atom  90H    basis set group =>   4
Atom  91H    basis set group =>   4
Atom  92H    basis set group =>   4
Atom  93H    basis set group =>   4
Atom  94H    basis set group =>   4
Atom  95H    basis set group =>   4
Atom  96C    basis set group =>   2
Atom  97C    basis set group =>   2
Atom  98C    basis set group =>   2
Atom  99C    basis set group =>   2
Atom 100C    basis set group =>   2
Atom 101C    basis set group =>   2
Atom 102H    basis set group =>   4
Atom 103H    basis set group =>   4
Atom 104H    basis set group =>   4
Atom 105H    basis set group =>   4
Atom 106C    basis set group =>   2
Atom 107C    basis set group =>   2
Atom 108C    basis set group =>   2
Atom 109C    basis set group =>   2
Atom 110N    basis set group =>   3
Atom 111C    basis set group =>   2
Atom 112H    basis set group =>   4
Atom 113H    basis set group =>   4
Atom 114H    basis set group =>   4
Atom 115H    basis set group =>   4
Atom 116C    basis set group =>   2
Atom 117C    basis set group =>   2
Atom 118C    basis set group =>   2
Atom 119C    basis set group =>   2
Atom 120C    basis set group =>   2
Atom 121C    basis set group =>   2
Atom 122C    basis set group =>   2
Atom 123C    basis set group =>   2
Atom 124C    basis set group =>   2
Atom 125N    basis set group =>   3
Atom 126C    basis set group =>   2
Atom 127C    basis set group =>   2
Atom 128H    basis set group =>   4
Atom 129H    basis set group =>   4
Atom 130H    basis set group =>   4
Atom 131H    basis set group =>   4
Atom 132H    basis set group =>   4
Atom 133H    basis set group =>   4
Atom 134C    basis set group =>   2
Atom 135C    basis set group =>   2
Atom 136C    basis set group =>   2
Atom 137C    basis set group =>   2
Atom 138C    basis set group =>   2
Atom 139C    basis set group =>   2
Atom 140H    basis set group =>   4
Atom 141H    basis set group =>   4
Atom 142H    basis set group =>   4
Atom 143H    basis set group =>   4
Atom 144C    basis set group =>   2
Atom 145C    basis set group =>   2
Atom 146C    basis set group =>   2
Atom 147C    basis set group =>   2
Atom 148N    basis set group =>   3
Atom 149C    basis set group =>   2
Atom 150H    basis set group =>   4
Atom 151H    basis set group =>   4
Atom 152H    basis set group =>   4
Atom 153H    basis set group =>   4

-------------------------
BASIS SET IN INPUT FORMAT
-------------------------

 # Basis set for element : H 
 NewGTO H 
 S 3 
   1      13.0107010000      0.0334854848
   2       1.9622572000      0.2347218709
   3       0.4445379600      0.8137702853
 S 1 
   1       0.1219496200      1.0000000000
 P 1 
   1       0.8000000000      1.0000000000
  end;

 # Basis set for element : C 
 NewGTO C 
 S 5 
   1    1238.4016938000      0.0055173650
   2     186.2900499200      0.0410888285
   3      42.2511763460      0.1822538213
   4      11.6765579320      0.4682845944
   5       3.5930506482      0.4457581734
 S 1 
   1       0.4024514736      1.0000000000
 S 1 
   1       0.1309018267      1.0000000000
 P 3 
   1       9.4680970621      0.0568883320
   2       2.0103545142      0.3129405934
   3       0.5477100471      0.7606501651
 P 1 
   1       0.1526861379      1.0000000000
 D 1 
   1       0.8000000000      1.0000000000
  end;

 # Basis set for element : N 
 NewGTO N 
 S 5 
   1    1712.8415853000     -0.0054477995
   2     257.6481267700     -0.0406271746
   3      58.4582458530     -0.1811196225
   4      16.1983679050     -0.4684397556
   5       5.0052600809     -0.4461684629
 S 1 
   1       0.5873185657      1.0000000000
 S 1 
   1       0.1876459225      1.0000000000
 P 3 
   1      13.5714702330     -0.0588481170
   2       2.9257372874     -0.3202462476
   3       0.7992775075     -0.7532822652
 P 1 
   1       0.2195434803      1.0000000000
 D 1 
   1       1.0000000000      1.0000000000
  end;

 # Basis set for element : Pd
 NewGTO Pd
 S 3 
   1       8.4756400000      2.1727229431
   2       7.1657170000     -2.9039633126
   3       3.1821100000     -0.2310570076
 S 1 
   1       1.3973644196      1.0000000000
 S 1 
   1       0.6053295587      1.0000000000
 S 1 
   1       0.1022951421      1.0000000000
 S 1 
   1       0.0373389729      1.0000000000
 P 4 
   1       4.2460970000     -0.8346018694
   2       3.3925940000      0.8828643810
   3       1.1975891264      0.6438870170
   4       0.5267375059      0.2760105151
 P 1 
   1       0.2060709410      1.0000000000
 P 1 
   1       0.0370000000      1.0000000000
 D 4 
   1       7.3613290985     -0.0186922795
   2       2.6291037258      0.2533662423
   3       1.1292744634      0.4840070353
   4       0.4447165990      0.4270306822
 D 1 
   1       0.1554489384      1.0000000000
 F 1 
   1       1.2462900000      1.0000000000
  end;

-------------------------
ECP PARAMETER INFORMATION
-------------------------

 Group 1, Type Pd ECP Def2-ECP (replacing 28 core electrons, lmax=3)

Atom   0Pd   ECP group =>   1
Atom   1Pd   ECP group =>   1


-------------------------
ECP BASIS IN INPUT FORMAT
-------------------------

 #ECP Def2-ECP
 NewECP Pd
   N_core 28
   lmax f
   s 4
     1      12.4300000000    240.2290403000  2
     2       6.1707594000     35.1719435000  2
     3      13.2700000000     31.9295543000  2
     4       6.6300000000      5.3982169000  2
   p 4
     1      11.0800000000    170.4172760000  2
     2       5.8295541000     28.4721329000  2
     3      13.2700000000     31.9295543000  2
     4       6.6300000000      5.3982169000  2
   d 4
     1       9.5100000000     69.0138449000  2
     2       4.1397811000     11.7508616000  2
     3      13.2700000000     31.9295543000  2
     4       6.6300000000      5.3982169000  2
   f 2
     1      13.2700000000    -31.9295543000  2
     2       6.6300000000     -5.3982169000  2
 End




           ************************************************************
           *        Program running with 32 parallel MPI-processes    *
           *              working on a common directory               *
           ************************************************************
------------------------------------------------------------------------------
                           ORCA GTO INTEGRAL CALCULATION
------------------------------------------------------------------------------

                         BASIS SET STATISTICS AND STARTUP INFO

 # of primitive gaussian shells          ... 1470
 # of primitive gaussian functions       ... 2810
 # of contracted shells                  ...  766
 # of contracted basis functions         ... 1686
 Highest angular momentum                ...    3
 Maximum contraction depth               ...    5
 Integral package used                   ... LIBINT
 Integral threshhold            Thresh   ...  2.500e-11
 Primitive cut-off              TCut     ...  2.500e-12


------------------------------ INTEGRAL EVALUATION ----------------------------


 * One electron integrals 

   ECP integrals                         ... done
 Pre-screening matrix                    ... done
 Shell pair data                         ... done (   0.033 sec)



           ************************************************************
           *        Program running with 32 parallel MPI-processes    *
           *              working on a common directory               *
           ************************************************************
-------------------------------------------------------------------------------
                                 ORCA SCF
-------------------------------------------------------------------------------

------------
SCF SETTINGS
------------
Hamiltonian:
 Density Functional     Method          .... DFT(GTOs)
 Exchange Functional    Exchange        .... PBE
   PBE kappa parameter   XKappa         ....  0.804000
   PBE mue parameter    XMuePBE         ....  0.219520
 Correlation Functional Correlation     .... PBE
   PBE beta parameter  CBetaPBE         ....  0.066725
 LDA part of GGA corr.  LDAOpt          .... PW91-LDA
 Gradients option       PostSCFGGA      .... off
 Hybrid DFT is turned on
   Fraction HF Exchange ScalHFX         ....  0.250000
   Scaling of DF-GGA-X  ScalDFX         ....  0.750000
   Scaling of DF-GGA-C  ScalDFC         ....  1.000000
   Scaling of DF-LDA-C  ScalLDAC        ....  1.000000
   Perturbative correction              ....  0.000000
   Density functional embedding theory  .... OFF
   NL short-range parameter             ....  6.900000


General Settings:
 Integral files         IntName         .... _s_4b1_b_PBE0
 Hartree-Fock type      HFTyp           .... RHF
 Total Charge           Charge          ....    4
 Multiplicity           Mult            ....    1
 Number of Electrons    NEL             ....  672
 Basis Dimension        Dim             .... 1686
 Nuclear Repulsion      ENuc            ....  18186.7226864677 Eh

Convergence Acceleration:
 DIIS                   CNVDIIS         .... on
   Start iteration      DIISMaxIt       ....     0
   Startup error        DIISStart       ....  0.200000
   # of expansion vecs  DIISMaxEq       ....     5
   Bias factor          DIISBfac        ....   1.050
   Max. coefficient     DIISMaxC        ....  10.000
 Newton-Raphson         CNVNR           .... off
 SOSCF                  CNVSOSCF        .... off
 Level Shifting         CNVShift        .... on
   Level shift para.    LevelShift      ....    0.2500
   Turn off err/grad.   ShiftErr        ....    0.0000
 Zerner damping         CNVZerner       .... off
 Static damping         CNVDamp         .... on
   Fraction old density DampFac         ....    0.8500
   Max. Damping (<1)    DampMax         ....    0.9800
   Min. Damping (>=0)   DampMin         ....    0.0000
   Turn off err/grad.   DampErr         ....    0.0300
 Fernandez-Rico         CNVRico         .... off

SCF Procedure:
 Maximum # iterations   MaxIter         ....  2000
 SCF integral mode      SCFMode         .... Direct
   Integral package                     .... LIBINT
 Reset frequency        DirectResetFreq ....    20
 Integral Threshold     Thresh          ....  2.500e-11 Eh
 Primitive CutOff       TCut            ....  2.500e-12 Eh

Convergence Tolerance:
 Convergence Check Mode ConvCheckMode   .... Total+1el-Energy
 Convergence forced     ConvForced      .... 0
 Energy Change          TolE            ....  1.000e-08 Eh
 1-El. energy change                    ....  1.000e-05 Eh
 DIIS Error             TolErr          ....  5.000e-07


Diagonalization of the overlap matrix:
Smallest eigenvalue                        ... 2.443e-04
Time for diagonalization                   ...    0.668 sec
Threshold for overlap eigenvalues          ... 1.000e-08
Number of eigenvalues below threshold      ... 0
Time for construction of square roots      ...    0.339 sec
Total time needed                          ...    1.013 sec

-------------------
DFT GRID GENERATION
-------------------

General Integration Accuracy     IntAcc      ...  5.340
Radial Grid Type                 RadialGrid  ... Gauss-Chebyshev
Angular Grid (max. acc.)         AngularGrid ... Lebedev-590
Angular grid pruning method      GridPruning ... 3 (G Style)
Weight generation scheme         WeightScheme... Becke
Basis function cutoff            BFCut       ...    1.0000e-11
Integration weight cutoff        WCut        ...    1.0000e-14
Grids for H and He will be reduced by one unit

# of grid points (after initial pruning)     ... 2250644 (   0.0 sec)
# of grid points (after weights+screening)   ... 1838108 (   8.9 sec)
nearest neighbour list constructed           ...    0.0 sec
Grid point re-assignment to atoms done       ...    0.2 sec
Grid point division into batches done        ...   18.7 sec
Reduced shell lists constructed in   19.8 sec

Total number of grid points                  ...  1838108
Total number of batches                      ...    28792
Average number of points per batch           ...       63
Average number of grid points per atom       ...    11936
Average number of shells per batch           ...   162.98 (21.28%)
Average number of basis functions per batch  ...   328.61 (19.49%)
Average number of large shells per batch     ...    83.79 (51.41%)
Average number of large basis fcns per batch ...   171.62 (52.23%)
Maximum spatial batch extension              ...  17.77,  7.14, 14.74 au
Average spatial batch extension              ...   0.03,  0.03,  0.03 au

Time for grid setup =   29.688 sec

------------------------------
INITIAL GUESS: MODEL POTENTIAL
------------------------------
Loading Hartree-Fock densities                     ... done
  calling /work/e05/e05/atarzia/orca_4_2_1_linux_x86-64_openmpi314/orca _s_4b1_b_PBE0_atom46.inp > _s_4b1_b_PBE0_atom46.out in order to generate an atomic fitting density for atom 0 (Pd with ECP) on-the-fly... 
    atom 0 (Pd), assumed electronic state with S=3: 1s2 2s2 2p6 3s2 3p6 4s2 3d10 4p6 5s2 4d8           ... done
Calculating cut-offs                               ... done
Setting up the integral package                    ... done
Initializing the effective Hamiltonian             ... done
Starting the Coulomb interaction                   ... done (   0.7 sec)
Reading the grid                                   ... done
Mapping shells                                     ... done
Starting the XC term evaluation                    ... done (   1.0 sec)
  promolecular density results
     # of electrons  =    731.959508937
     EX              =   -796.598250437
     EC              =    -26.470006493
     EX+EC           =   -823.068256930
Transforming the Hamiltonian                       ... done (   0.2 sec)
Diagonalizing the Hamiltonian                      ... done (   0.4 sec)
Back transforming the eigenvectors                 ... done (   0.1 sec)
Now organizing SCF variables                       ... done
                      ------------------
                      INITIAL GUESS DONE (  74.2 sec)
                      ------------------
--------------
SCF ITERATIONS
--------------
ITER       Energy         Delta-E        Max-DP      RMS-DP      [F,P]     Damp
               ***  Starting incremental Fock matrix formation  ***
  0  -4071.3378329363   0.000000000000 0.03249979  0.00038217  0.4577691 0.8500
  1  -4071.6147340900  -0.276901153713 0.02760372  0.00035261  0.3873416 0.8500
                               ***Turning on DIIS***
  2  -4071.8165799324  -0.201845842421 0.02244213  0.00028171  0.3269071 0.8500
  3  -4071.9567673173  -0.140187384881 0.01733198  0.00019324  0.2759274 0.8500
  4  -4072.0618083627  -0.105041045430 0.01385894  0.00014568  0.2335577 0.8500
  5  -4072.1430027449  -0.081194382190 0.01141810  0.00011803  0.1981504 0.8500
  6  -4072.2085377989  -0.065535054022 0.00965188  0.00009902  0.1683778 0.8500
  7  -4072.2627647900  -0.054226991117 0.00827242  0.00008511  0.1431813 0.8500
  8  -4072.3082758586  -0.045511068565 0.00717708  0.00007318  0.1217623 0.8500
  9  -4072.3463933839  -0.038117525288 0.00615009  0.00006233  0.1034772 0.8500
 10  -4072.3782899877  -0.031896603807 0.00518815  0.00005280  0.0878914 0.8500
 11  -4072.4050377925  -0.026747804808 0.00436632  0.00004467  0.0746582 0.8500
 12  -4072.4275361522  -0.022498359656 0.00370067  0.00003788  0.0634405 0.8500
 13  -4072.4465004128  -0.018964260686 0.00316015  0.00003218  0.0539205 0.8500
 14  -4072.4625028268  -0.016002414006 0.00269578  0.00002733  0.0458238 0.8500
 15  -4072.4760182750  -0.013515448187 0.00228560  0.00002318  0.0389340 0.8500
 16  -4072.4874448326  -0.011426557587 0.00193249  0.00001966  0.0330785 0.8500
 17  -4072.4971149403  -0.009670107651 0.01092290  0.00011115  0.0281076 0.0000
 18  -4072.5512226921  -0.054107751796 0.00024824  0.00000251  0.0001998 0.0000
 19  -4072.5512259694  -0.000003277317 0.00011840  0.00000095  0.0000670 0.0000
               *** Restarting incremental Fock matrix formation ***
                                   *** Resetting DIIS ***
 20  -4072.5512259786  -0.000000009211 0.00009504  0.00000071  0.0000426 0.0000
 21  -4072.5512257906   0.000000187967 0.00004020  0.00000023  0.0000552 0.0000
 22  -4072.5512259403  -0.000000149641 0.00001423  0.00000012  0.0000144 0.0000
 23  -4072.5512260116  -0.000000071366 0.00001367  0.00000011  0.0000048 0.0000
 24  -4072.5512259683   0.000000043285 0.00000575  0.00000005  0.0000026 0.0000
                            ***DIIS convergence achieved***

               *****************************************************
               *                     SUCCESS                       *
               *           SCF CONVERGED AFTER  25 CYCLES          *
               *****************************************************


----------------
TOTAL SCF ENERGY
----------------

Total Energy       :        -4072.55122590 Eh         -110819.75282 eV

Components:
Nuclear Repulsion  :        18186.72268647 Eh          494885.88381 eV
Electronic Energy  :       -22259.27391237 Eh         -605705.63664 eV
One Electron Energy:       -41691.97906822 Eh        -1134496.42713 eV
Two Electron Energy:        19432.70515585 Eh          528790.79049 eV

Virial components:
Potential Energy   :        -7948.65592285 Eh         -216293.92383 eV
Kinetic Energy     :         3876.10469695 Eh          105474.17101 eV
Virial Ratio       :            2.05068143


DFT components:
N(Alpha)           :      335.999976276557 electrons
N(Beta)            :      335.999976276557 electrons
N(Total)           :      671.999952553115 electrons
E(X)               :     -412.562391046824 Eh       
E(C)               :      -23.058582306570 Eh       
E(XC)              :     -435.620973353395 Eh       
DFET-embed. en.    :        0.000000000000 Eh       

---------------
SCF CONVERGENCE
---------------

  Last Energy change         ...    6.6793e-08  Tolerance :   1.0000e-08
  Last MAX-Density change    ...    4.8631e-06  Tolerance :   1.0000e-07
  Last RMS-Density change    ...    3.7153e-08  Tolerance :   5.0000e-09
  Last DIIS Error            ...    5.9321e-07  Tolerance :   5.0000e-07

             **** THE GBW FILE WAS UPDATED (_s_4b1_b_PBE0.gbw) ****
             **** DENSITY FILE WAS UPDATED (_s_4b1_b_PBE0.scfp) ****
             **** ENERGY FILE WAS UPDATED (_s_4b1_b_PBE0.en.tmp) ****
             **** THE GBW FILE WAS UPDATED (_s_4b1_b_PBE0.gbw) ****
             **** DENSITY FILE WAS UPDATED (_s_4b1_b_PBE0.scfp) ****
----------------
ORBITAL ENERGIES
----------------

  NO   OCC          E(Eh)            E(eV) 
   0   2.0000     -14.762187      -401.6995 
   1   2.0000     -14.760018      -401.6405 
   2   2.0000     -14.759933      -401.6382 
   3   2.0000     -14.757069      -401.5603 
   4   2.0000     -14.749882      -401.3647 
   5   2.0000     -14.747698      -401.3053 
   6   2.0000     -14.746865      -401.2826 
   7   2.0000     -14.745661      -401.2498 
   8   2.0000     -10.594412      -288.2886 
   9   2.0000     -10.593650      -288.2679 
  10   2.0000     -10.591177      -288.2006 
  11   2.0000     -10.591090      -288.1982 
  12   2.0000     -10.589409      -288.1525 
  13   2.0000     -10.588635      -288.1314 
  14   2.0000     -10.587336      -288.0961 
  15   2.0000     -10.585869      -288.0561 
  16   2.0000     -10.585670      -288.0507 
  17   2.0000     -10.585172      -288.0372 
  18   2.0000     -10.584998      -288.0324 
  19   2.0000     -10.583688      -287.9968 
  20   2.0000     -10.570668      -287.6425 
  21   2.0000     -10.570233      -287.6307 
  22   2.0000     -10.569958      -287.6232 
  23   2.0000     -10.567702      -287.5618 
  24   2.0000     -10.563658      -287.4517 
  25   2.0000     -10.562708      -287.4259 
  26   2.0000     -10.560025      -287.3529 
  27   2.0000     -10.558609      -287.3144 
  28   2.0000     -10.557875      -287.2944 
  29   2.0000     -10.556335      -287.2525 
  30   2.0000     -10.554507      -287.2027 
  31   2.0000     -10.551903      -287.1319 
  32   2.0000     -10.550559      -287.0953 
  33   2.0000     -10.548528      -287.0400 
  34   2.0000     -10.546811      -286.9933 
  35   2.0000     -10.545824      -286.9665 
  36   2.0000     -10.545479      -286.9571 
  37   2.0000     -10.544785      -286.9382 
  38   2.0000     -10.544695      -286.9358 
  39   2.0000     -10.544550      -286.9318 
  40   2.0000     -10.544371      -286.9269 
  41   2.0000     -10.544150      -286.9209 
  42   2.0000     -10.544086      -286.9192 
  43   2.0000     -10.543710      -286.9089 
  44   2.0000     -10.542414      -286.8737 
  45   2.0000     -10.541598      -286.8515 
  46   2.0000     -10.541376      -286.8454 
  47   2.0000     -10.541030      -286.8360 
  48   2.0000     -10.540700      -286.8270 
  49   2.0000     -10.540125      -286.8114 
  50   2.0000     -10.538487      -286.7668 
  51   2.0000     -10.538480      -286.7666 
  52   2.0000     -10.538255      -286.7605 
  53   2.0000     -10.537231      -286.7326 
  54   2.0000     -10.535606      -286.6884 
  55   2.0000     -10.534969      -286.6711 
  56   2.0000     -10.534910      -286.6695 
  57   2.0000     -10.534771      -286.6657 
  58   2.0000     -10.534483      -286.6579 
  59   2.0000     -10.533113      -286.6206 
  60   2.0000     -10.524890      -286.3968 
  61   2.0000     -10.524780      -286.3938 
  62   2.0000     -10.523887      -286.3695 
  63   2.0000     -10.523134      -286.3490 
  64   2.0000     -10.522901      -286.3427 
  65   2.0000     -10.522306      -286.3265 
  66   2.0000     -10.522287      -286.3260 
  67   2.0000     -10.521721      -286.3106 
  68   2.0000     -10.520902      -286.2883 
  69   2.0000     -10.520362      -286.2736 
  70   2.0000     -10.519760      -286.2572 
  71   2.0000     -10.518789      -286.2308 
  72   2.0000     -10.518020      -286.2099 
  73   2.0000     -10.517725      -286.2018 
  74   2.0000     -10.517701      -286.2012 
  75   2.0000     -10.517494      -286.1956 
  76   2.0000     -10.517470      -286.1949 
  77   2.0000     -10.517334      -286.1912 
  78   2.0000     -10.516157      -286.1592 
  79   2.0000     -10.515673      -286.1460 
  80   2.0000     -10.514905      -286.1251 
  81   2.0000     -10.514003      -286.1006 
  82   2.0000     -10.513569      -286.0888 
  83   2.0000     -10.513543      -286.0881 
  84   2.0000     -10.513445      -286.0854 
  85   2.0000     -10.512963      -286.0723 
  86   2.0000     -10.512831      -286.0687 
  87   2.0000     -10.512489      -286.0594 
  88   2.0000     -10.512379      -286.0564 
  89   2.0000     -10.512339      -286.0553 
  90   2.0000     -10.512277      -286.0536 
  91   2.0000     -10.511916      -286.0438 
  92   2.0000     -10.511758      -286.0395 
  93   2.0000     -10.511115      -286.0220 
  94   2.0000     -10.510966      -286.0179 
  95   2.0000     -10.510304      -285.9999 
  96   2.0000      -3.857732      -104.9742 
  97   2.0000      -3.849003      -104.7367 
  98   2.0000      -2.535426       -68.9924 
  99   2.0000      -2.534788       -68.9751 
 100   2.0000      -2.526524       -68.7502 
 101   2.0000      -2.525771       -68.7297 
 102   2.0000      -2.498461       -67.9866 
 103   2.0000      -2.489706       -67.7483 
 104   2.0000      -1.315600       -35.7993 
 105   2.0000      -1.307400       -35.5762 
 106   2.0000      -1.306965       -35.5643 
 107   2.0000      -1.306064       -35.5398 
 108   2.0000      -1.295874       -35.2625 
 109   2.0000      -1.295666       -35.2569 
 110   2.0000      -1.291754       -35.1504 
 111   2.0000      -1.290259       -35.1097 
 112   2.0000      -1.182050       -32.1652 
 113   2.0000      -1.181196       -32.1420 
 114   2.0000      -1.179087       -32.0846 
 115   2.0000      -1.178357       -32.0647 
 116   2.0000      -1.176626       -32.0176 
 117   2.0000      -1.175294       -31.9814 
 118   2.0000      -1.175104       -31.9762 
 119   2.0000      -1.174638       -31.9635 
 120   2.0000      -1.144712       -31.1492 
 121   2.0000      -1.143101       -31.1054 
 122   2.0000      -1.140969       -31.0474 
 123   2.0000      -1.139649       -31.0114 
 124   2.0000      -1.115966       -30.3670 
 125   2.0000      -1.114409       -30.3246 
 126   2.0000      -1.113558       -30.3014 
 127   2.0000      -1.113075       -30.2883 
 128   2.0000      -1.111498       -30.2454 
 129   2.0000      -1.110143       -30.2085 
 130   2.0000      -1.108992       -30.1772 
 131   2.0000      -1.107438       -30.1349 
 132   2.0000      -1.081162       -29.4199 
 133   2.0000      -1.080096       -29.3909 
 134   2.0000      -1.079583       -29.3769 
 135   2.0000      -1.079207       -29.3667 
 136   2.0000      -1.078921       -29.3589 
 137   2.0000      -1.078121       -29.3372 
 138   2.0000      -1.077489       -29.3200 
 139   2.0000      -1.076568       -29.2949 
 140   2.0000      -1.060784       -28.8654 
 141   2.0000      -1.059396       -28.8276 
 142   2.0000      -1.058859       -28.8130 
 143   2.0000      -1.057876       -28.7863 
 144   2.0000      -1.053513       -28.6676 
 145   2.0000      -1.052499       -28.6400 
 146   2.0000      -1.050675       -28.5903 
 147   2.0000      -1.050193       -28.5772 
 148   2.0000      -1.017626       -27.6910 
 149   2.0000      -1.016545       -27.6616 
 150   2.0000      -1.015714       -27.6390 
 151   2.0000      -1.015092       -27.6221 
 152   2.0000      -0.978266       -26.6200 
 153   2.0000      -0.975921       -26.5562 
 154   2.0000      -0.973953       -26.5026 
 155   2.0000      -0.973489       -26.4900 
 156   2.0000      -0.968685       -26.3592 
 157   2.0000      -0.967344       -26.3228 
 158   2.0000      -0.966393       -26.2969 
 159   2.0000      -0.965203       -26.2645 
 160   2.0000      -0.963723       -26.2242 
 161   2.0000      -0.963279       -26.2122 
 162   2.0000      -0.960741       -26.1431 
 163   2.0000      -0.959473       -26.1086 
 164   2.0000      -0.944734       -25.7075 
 165   2.0000      -0.942811       -25.6552 
 166   2.0000      -0.942268       -25.6404 
 167   2.0000      -0.941583       -25.6218 
 168   2.0000      -0.927266       -25.2322 
 169   2.0000      -0.925646       -25.1881 
 170   2.0000      -0.925140       -25.1743 
 171   2.0000      -0.924803       -25.1652 
 172   2.0000      -0.910216       -24.7682 
 173   2.0000      -0.909547       -24.7500 
 174   2.0000      -0.907940       -24.7063 
 175   2.0000      -0.907736       -24.7008 
 176   2.0000      -0.906939       -24.6791 
 177   2.0000      -0.905361       -24.6361 
 178   2.0000      -0.903700       -24.5909 
 179   2.0000      -0.903327       -24.5808 
 180   2.0000      -0.874802       -23.8046 
 181   2.0000      -0.866343       -23.5744 
 182   2.0000      -0.865413       -23.5491 
 183   2.0000      -0.860508       -23.4156 
 184   2.0000      -0.857243       -23.3268 
 185   2.0000      -0.855076       -23.2678 
 186   2.0000      -0.853834       -23.2340 
 187   2.0000      -0.853680       -23.2298 
 188   2.0000      -0.838688       -22.8219 
 189   2.0000      -0.835881       -22.7455 
 190   2.0000      -0.835350       -22.7310 
 191   2.0000      -0.833731       -22.6870 
 192   2.0000      -0.833311       -22.6755 
 193   2.0000      -0.832612       -22.6565 
 194   2.0000      -0.831321       -22.6214 
 195   2.0000      -0.830974       -22.6120 
 196   2.0000      -0.827013       -22.5042 
 197   2.0000      -0.825583       -22.4653 
 198   2.0000      -0.823833       -22.4176 
 199   2.0000      -0.823204       -22.4005 
 200   2.0000      -0.822098       -22.3704 
 201   2.0000      -0.819256       -22.2931 
 202   2.0000      -0.817221       -22.2377 
 203   2.0000      -0.811870       -22.0921 
 204   2.0000      -0.798917       -21.7396 
 205   2.0000      -0.795167       -21.6376 
 206   2.0000      -0.793719       -21.5982 
 207   2.0000      -0.792498       -21.5650 
 208   2.0000      -0.792042       -21.5526 
 209   2.0000      -0.783569       -21.3220 
 210   2.0000      -0.781265       -21.2593 
 211   2.0000      -0.779728       -21.2175 
 212   2.0000      -0.777518       -21.1573 
 213   2.0000      -0.776698       -21.1350 
 214   2.0000      -0.775624       -21.1058 
 215   2.0000      -0.770683       -20.9714 
 216   2.0000      -0.768233       -20.9047 
 217   2.0000      -0.766351       -20.8535 
 218   2.0000      -0.764910       -20.8143 
 219   2.0000      -0.764419       -20.8009 
 220   2.0000      -0.763372       -20.7724 
 221   2.0000      -0.762226       -20.7412 
 222   2.0000      -0.761773       -20.7289 
 223   2.0000      -0.761158       -20.7122 
 224   2.0000      -0.759765       -20.6743 
 225   2.0000      -0.759188       -20.6585 
 226   2.0000      -0.758832       -20.6489 
 227   2.0000      -0.756938       -20.5973 
 228   2.0000      -0.756118       -20.5750 
 229   2.0000      -0.753498       -20.5037 
 230   2.0000      -0.752505       -20.4767 
 231   2.0000      -0.749250       -20.3881 
 232   2.0000      -0.747958       -20.3530 
 233   2.0000      -0.746594       -20.3159 
 234   2.0000      -0.738457       -20.0944 
 235   2.0000      -0.738031       -20.0829 
 236   2.0000      -0.736886       -20.0517 
 237   2.0000      -0.735353       -20.0100 
 238   2.0000      -0.734905       -19.9978 
 239   2.0000      -0.734613       -19.9898 
 240   2.0000      -0.733630       -19.9631 
 241   2.0000      -0.733012       -19.9463 
 242   2.0000      -0.732694       -19.9376 
 243   2.0000      -0.732136       -19.9224 
 244   2.0000      -0.731415       -19.9028 
 245   2.0000      -0.730643       -19.8818 
 246   2.0000      -0.729914       -19.8620 
 247   2.0000      -0.728430       -19.8216 
 248   2.0000      -0.721612       -19.6361 
 249   2.0000      -0.720362       -19.6020 
 250   2.0000      -0.719099       -19.5677 
[...]
 11 N      7.3044     7.0000    -0.3044     3.3843     3.3843    -0.0000
 12 C      5.8365     6.0000     0.1635     3.8297     3.8297    -0.0000
 13 C      6.0097     6.0000    -0.0097     3.9660     3.9660    -0.0000
 14 H      0.9422     1.0000     0.0578     0.9906     0.9906    -0.0000
 15 H      0.9196     1.0000     0.0804     0.9809     0.9809    -0.0000
 16 H      0.9420     1.0000     0.0580     0.9912     0.9912    -0.0000
 17 H      0.9332     1.0000     0.0668     0.9940     0.9940    -0.0000
 18 H      0.9169     1.0000     0.0831     0.9791     0.9791    -0.0000
 19 H      0.9565     1.0000     0.0435     1.0177     1.0177    -0.0000
 20 C      6.0666     6.0000    -0.0666     3.7458     3.7458    -0.0000
 21 C      5.9659     6.0000     0.0341     3.8781     3.8781    -0.0000
 22 C      6.0142     6.0000    -0.0142     3.8791     3.8791    -0.0000
 23 C      5.9791     6.0000     0.0209     3.8098     3.8098    -0.0000
 24 C      6.0181     6.0000    -0.0181     3.8744     3.8744    -0.0000
 25 C      5.9832     6.0000     0.0168     3.8773     3.8773    -0.0000
 26 H      0.9494     1.0000     0.0506     0.9901     0.9901    -0.0000
 27 H      0.9578     1.0000     0.0422     0.9890     0.9890    -0.0000
 28 H      0.9845     1.0000     0.0155     0.9928     0.9928    -0.0000
 29 H      0.9808     1.0000     0.0192     0.9927     0.9927    -0.0000
 30 C      6.0323     6.0000    -0.0323     3.8929     3.8929    -0.0000
 31 C      5.9283     6.0000     0.0717     3.8873     3.8873    -0.0000
 32 C      6.0195     6.0000    -0.0195     3.9335     3.9335    -0.0000
 33 C      5.8590     6.0000     0.1410     3.8771     3.8771    -0.0000
 34 N      7.2986     7.0000    -0.2986     3.3851     3.3851    -0.0000
 35 C      5.8685     6.0000     0.1315     3.8686     3.8686    -0.0000
 36 H      0.9247     1.0000     0.0753     0.9909     0.9909    -0.0000
 37 H      0.9155     1.0000     0.0845     0.9853     0.9853    -0.0000
 38 H      0.9186     1.0000     0.0814     0.9875     0.9875    -0.0000
 39 H      0.9385     1.0000     0.0615     0.9990     0.9990    -0.0000
 40 C      5.9817     6.0000     0.0183     3.6910     3.6910    -0.0000
 41 C      6.0548     6.0000    -0.0548     3.6880     3.6880    -0.0000
 42 C      6.0183     6.0000    -0.0183     3.7596     3.7596    -0.0000
 43 C      5.9684     6.0000     0.0316     3.8499     3.8499    -0.0000
 44 C      5.9682     6.0000     0.0318     3.8293     3.8293    -0.0000
 45 C      5.9765     6.0000     0.0235     3.8289     3.8289    -0.0000
 46 C      5.9754     6.0000     0.0246     3.8809     3.8809    -0.0000
 47 C      5.9960     6.0000     0.0040     3.9205     3.9205    -0.0000
 48 C      5.8782     6.0000     0.1218     3.8527     3.8527    -0.0000
 49 N      7.3141     7.0000    -0.3141     3.3540     3.3540    -0.0000
 50 C      5.8412     6.0000     0.1588     3.8488     3.8488    -0.0000
 51 C      6.0045     6.0000    -0.0045     3.9332     3.9332    -0.0000
 52 H      0.9436     1.0000     0.0564     0.9906     0.9906    -0.0000
 53 H      0.9207     1.0000     0.0793     0.9810     0.9810    -0.0000
 54 H      0.9436     1.0000     0.0564     0.9911     0.9911    -0.0000
 55 H      0.9370     1.0000     0.0630     0.9941     0.9941    -0.0000
 56 H      0.9291     1.0000     0.0709     0.9855     0.9855    -0.0000
 57 H      0.9518     1.0000     0.0482     1.0136     1.0136    -0.0000
 58 C      6.0770     6.0000    -0.0770     3.7425     3.7425    -0.0000
 59 C      5.9650     6.0000     0.0350     3.8757     3.8757    -0.0000
 60 C      6.0157     6.0000    -0.0157     3.8799     3.8799    -0.0000
 61 C      5.9934     6.0000     0.0066     3.8066     3.8066    -0.0000
 62 C      6.0242     6.0000    -0.0242     3.8690     3.8690    -0.0000
 63 C      5.9727     6.0000     0.0273     3.8724     3.8724    -0.0000
 64 H      0.9503     1.0000     0.0497     0.9905     0.9905    -0.0000
 65 H      0.9602     1.0000     0.0398     0.9896     0.9896    -0.0000
 66 H      0.9728     1.0000     0.0272     0.9904     0.9904    -0.0000
 67 H      0.9761     1.0000     0.0239     0.9935     0.9935    -0.0000
 68 C      6.0230     6.0000    -0.0230     3.8970     3.8970    -0.0000
 69 C      5.9257     6.0000     0.0743     3.8733     3.8733    -0.0000
 70 C      6.0235     6.0000    -0.0235     3.9172     3.9172    -0.0000
 71 C      5.8611     6.0000     0.1389     3.8746     3.8746    -0.0000
 72 N      7.3037     7.0000    -0.3037     3.3730     3.3730    -0.0000
 73 C      5.8784     6.0000     0.1216     3.8720     3.8720    -0.0000
 74 H      0.9234     1.0000     0.0766     0.9903     0.9903    -0.0000
 75 H      0.9119     1.0000     0.0881     0.9849     0.9849    -0.0000
 76 H      0.9085     1.0000     0.0915     0.9818     0.9818    -0.0000
 77 H      0.9390     1.0000     0.0610     1.0030     1.0030    -0.0000
 78 C      5.9910     6.0000     0.0090     3.7032     3.7032    -0.0000
 79 C      6.0528     6.0000    -0.0528     3.6966     3.6966    -0.0000
 80 C      6.0138     6.0000    -0.0138     3.7527     3.7527    -0.0000
 81 C      5.9723     6.0000     0.0277     3.8506     3.8506    -0.0000
 82 C      5.9677     6.0000     0.0323     3.8285     3.8285    -0.0000
 83 C      5.9769     6.0000     0.0231     3.8292     3.8292    -0.0000
 84 C      5.9743     6.0000     0.0257     3.8787     3.8787    -0.0000
 85 C      6.0018     6.0000    -0.0018     3.9225     3.9225    -0.0000
 86 C      5.8677     6.0000     0.1323     3.8682     3.8682    -0.0000
 87 N      7.3082     7.0000    -0.3082     3.3636     3.3636    -0.0000
 88 C      5.8434     6.0000     0.1566     3.8296     3.8296    -0.0000
 89 C      5.9999     6.0000     0.0001     3.9405     3.9405    -0.0000
 90 H      0.9450     1.0000     0.0550     0.9907     0.9907    -0.0000
 91 H      0.9215     1.0000     0.0785     0.9811     0.9811    -0.0000
 92 H      0.9439     1.0000     0.0561     0.9911     0.9911    -0.0000
 93 H      0.9373     1.0000     0.0627     0.9941     0.9941    -0.0000
 94 H      0.9401     1.0000     0.0599     0.9922     0.9922    -0.0000
 95 H      0.9416     1.0000     0.0584     1.0110     1.0110    -0.0000
 96 C      6.0598     6.0000    -0.0598     3.7390     3.7390    -0.0000
 97 C      5.9810     6.0000     0.0190     3.8714     3.8714    -0.0000
 98 C      6.0317     6.0000    -0.0317     3.8734     3.8734    -0.0000
 99 C      5.9798     6.0000     0.0202     3.7983     3.7983    -0.0000
100 C      6.0071     6.0000    -0.0071     3.8813     3.8813    -0.0000
101 C      5.9640     6.0000     0.0360     3.8833     3.8833    -0.0000
102 H      0.9829     1.0000     0.0171     0.9951     0.9951    -0.0000
103 H      0.9790     1.0000     0.0210     0.9891     0.9891    -0.0000
104 H      0.9579     1.0000     0.0421     0.9893     0.9893    -0.0000
105 H      0.9486     1.0000     0.0514     0.9902     0.9902    -0.0000
106 C      6.0310     6.0000    -0.0310     3.9080     3.9080    -0.0000
107 C      5.9282     6.0000     0.0718     3.8761     3.8761    -0.0000
108 C      6.0176     6.0000    -0.0176     3.9190     3.9190    -0.0000
109 C      5.8709     6.0000     0.1291     3.8707     3.8707    -0.0000
110 N      7.3049     7.0000    -0.3049     3.3621     3.3621    -0.0000
111 C      5.8679     6.0000     0.1321     3.8830     3.8830    -0.0000
112 H      0.9240     1.0000     0.0760     0.9907     0.9907    -0.0000
113 H      0.9135     1.0000     0.0865     0.9852     0.9852    -0.0000
114 H      0.9014     1.0000     0.0986     0.9791     0.9791    -0.0000
115 H      0.9576     1.0000     0.0424     1.0143     1.0143    -0.0000
116 C      5.9884     6.0000     0.0116     3.7101     3.7101    -0.0000
117 C      6.0583     6.0000    -0.0583     3.7036     3.7036    -0.0000
118 C      6.0104     6.0000    -0.0104     3.7540     3.7540    -0.0000
119 C      5.9720     6.0000     0.0280     3.8524     3.8524    -0.0000
120 C      5.9666     6.0000     0.0334     3.8287     3.8287    -0.0000
121 C      5.9776     6.0000     0.0224     3.8295     3.8295    -0.0000
122 C      5.9746     6.0000     0.0254     3.8812     3.8812    -0.0000
123 C      5.9951     6.0000     0.0049     3.9212     3.9212    -0.0000
124 C      5.8833     6.0000     0.1167     3.8526     3.8526    -0.0000
125 N      7.3126     7.0000    -0.3126     3.3540     3.3540    -0.0000
126 C      5.8382     6.0000     0.1618     3.8494     3.8494    -0.0000
127 C      6.0073     6.0000    -0.0073     3.9362     3.9362    -0.0000
128 H      0.9444     1.0000     0.0556     0.9906     0.9906    -0.0000
129 H      0.9210     1.0000     0.0790     0.9810     0.9810    -0.0000
130 H      0.9438     1.0000     0.0562     0.9911     0.9911    -0.0000
131 H      0.9374     1.0000     0.0626     0.9941     0.9941    -0.0000
132 H      0.9285     1.0000     0.0715     0.9834     0.9834    -0.0000
133 H      0.9542     1.0000     0.0458     1.0144     1.0144    -0.0000
134 C      6.0549     6.0000    -0.0549     3.7428     3.7428    -0.0000
135 C      5.9819     6.0000     0.0181     3.8746     3.8746    -0.0000
136 C      6.0276     6.0000    -0.0276     3.8753     3.8753    -0.0000
137 C      5.9798     6.0000     0.0202     3.8065     3.8065    -0.0000
138 C      6.0018     6.0000    -0.0018     3.8851     3.8851    -0.0000
139 C      5.9639     6.0000     0.0361     3.8809     3.8809    -0.0000
140 H      0.9867     1.0000     0.0133     0.9929     0.9929    -0.0000
141 H      0.9940     1.0000     0.0060     0.9946     0.9946    -0.0000
142 H      0.9553     1.0000     0.0447     0.9892     0.9892    -0.0000
143 H      0.9476     1.0000     0.0524     0.9901     0.9901    -0.0000
144 C      6.0337     6.0000    -0.0337     3.9047     3.9047    -0.0000
145 C      5.9166     6.0000     0.0834     3.8812     3.8812    -0.0000
146 C      6.0251     6.0000    -0.0251     3.9247     3.9247    -0.0000
147 C      5.8618     6.0000     0.1382     3.8810     3.8810    -0.0000
148 N      7.3015     7.0000    -0.3015     3.3778     3.3778    -0.0000
149 C      5.8775     6.0000     0.1225     3.8736     3.8736    -0.0000
150 H      0.9247     1.0000     0.0753     0.9910     0.9910    -0.0000
151 H      0.9117     1.0000     0.0883     0.9848     0.9848    -0.0000
152 H      0.9113     1.0000     0.0887     0.9832     0.9832    -0.0000
153 H      0.9396     1.0000     0.0604     1.0007     1.0007    -0.0000

  Mayer bond orders larger than 0.100000
B(  0-Pd, 34-N ) :   0.5343 B(  0-Pd, 49-N ) :   0.5408 B(  0-Pd, 87-N ) :   0.5512 
B(  0-Pd,125-N ) :   0.5398 B(  1-Pd, 11-N ) :   0.5753 B(  1-Pd, 72-N ) :   0.5420 
B(  1-Pd,110-N ) :   0.5292 B(  1-Pd,148-N ) :   0.5402 B(  2-C ,  3-C ) :   2.5960 
B(  2-C , 20-C ) :   1.0089 B(  3-C ,  4-C ) :   0.9918 B(  4-C ,  5-C ) :   1.4590 
B(  4-C , 13-C ) :   1.2156 B(  5-C ,  6-C ) :   1.2616 B(  5-C , 14-H ) :   0.9928 
B(  6-C ,  7-C ) :   1.4589 B(  6-C , 15-H ) :   0.9801 B(  7-C ,  8-C ) :   1.2661 
B(  7-C , 16-H ) :   0.9944 B(  8-C ,  9-C ) :   1.2509 B(  8-C , 13-C ) :   1.2191 
B(  9-C , 10-C ) :   1.5501 B(  9-C , 17-H ) :   0.9735 B( 10-C , 11-N ) :   1.1916 
B( 10-C , 18-H ) :   0.9470 B( 11-N , 12-C ) :   1.3999 B( 12-C , 13-C ) :   1.3372 
B( 12-C , 19-H ) :   0.9361 B( 20-C , 21-C ) :   1.3316 B( 20-C , 25-C ) :   1.3341 
B( 21-C , 22-C ) :   1.4027 B( 21-C , 26-H ) :   0.9945 B( 22-C , 23-C ) :   1.3550 
B( 22-C , 27-H ) :   0.9900 B( 23-C , 24-C ) :   1.3561 B( 23-C , 30-C ) :   1.0078 
B( 24-C , 25-C ) :   1.4028 B( 24-C , 28-H ) :   0.9870 B( 25-C , 29-H ) :   0.9934 
B( 30-C , 31-C ) :   1.3771 B( 30-C , 35-C ) :   1.4008 B( 31-C , 32-C ) :   1.4078 
B( 31-C , 36-H ) :   0.9808 B( 32-C , 33-C ) :   1.4242 B( 32-C , 37-H ) :   0.9725 
B( 33-C , 34-N ) :   1.3296 B( 33-C , 38-H ) :   0.9519 B( 34-N , 35-C ) :   1.3239 
B( 35-C , 39-H ) :   0.9602 B( 40-C , 41-C ) :   2.5939 B( 40-C , 58-C ) :   1.0059 
B( 41-C , 42-C ) :   0.9959 B( 42-C , 43-C ) :   1.4618 B( 42-C , 51-C ) :   1.2124 
B( 43-C , 44-C ) :   1.2652 B( 43-C , 52-H ) :   0.9925 B( 44-C , 45-C ) :   1.4548 
B( 44-C , 53-H ) :   0.9808 B( 45-C , 46-C ) :   1.2687 B( 45-C , 54-H ) :   0.9949 
B( 46-C , 47-C ) :   1.2485 B( 46-C , 51-C ) :   1.2189 B( 47-C , 48-C ) :   1.5610 
B( 47-C , 55-H ) :   0.9729 B( 48-C , 49-N ) :   1.1811 B( 48-C , 56-H ) :   0.9411 
B( 49-N , 50-C ) :   1.4307 B( 50-C , 51-C ) :   1.3201 B( 50-C , 57-H ) :   0.9445 
B( 58-C , 59-C ) :   1.3320 B( 58-C , 63-C ) :   1.3336 B( 59-C , 60-C ) :   1.4012 
B( 59-C , 64-H ) :   0.9950 B( 60-C , 61-C ) :   1.3596 B( 60-C , 65-H ) :   0.9899 
B( 61-C , 62-C ) :   1.3503 B( 61-C , 68-C ) :   1.0062 B( 62-C , 63-C ) :   1.4022 
B( 62-C , 66-H ) :   0.9871 B( 63-C , 67-H ) :   0.9938 B( 68-C , 69-C ) :   1.3679 
B( 68-C , 73-C ) :   1.4163 B( 69-C , 70-C ) :   1.4033 B( 69-C , 74-H ) :   0.9844 
B( 70-C , 71-C ) :   1.4124 B( 70-C , 75-H ) :   0.9728 B( 71-C , 72-N ) :   1.3384 
B( 71-C , 76-H ) :   0.9570 B( 72-N , 73-C ) :   1.3058 B( 73-C , 77-H ) :   0.9501 
B( 78-C , 79-C ) :   2.5990 B( 78-C , 96-C ) :   1.0104 B( 79-C , 80-C ) :   0.9980 
B( 80-C , 81-C ) :   1.4601 B( 80-C , 89-C ) :   1.2103 B( 81-C , 82-C ) :   1.2637 
B( 81-C , 90-H ) :   0.9926 B( 82-C , 83-C ) :   1.4573 B( 82-C , 91-H ) :   0.9810 
B( 83-C , 84-C ) :   1.2653 B( 83-C , 92-H ) :   0.9947 B( 84-C , 85-C ) :   1.2527 
B( 84-C , 89-C ) :   1.2180 B( 85-C , 86-C ) :   1.5542 B( 85-C , 93-H ) :   0.9741 
B( 86-C , 87-N ) :   1.2005 B( 86-C , 94-H ) :   0.9471 B( 87-N , 88-C ) :   1.4075 
B( 88-C , 89-C ) :   1.3298 B( 88-C , 95-H ) :   0.9384 B( 96-C , 97-C ) :   1.3272 
B( 96-C ,101-C ) :   1.3319 B( 97-C , 98-C ) :   1.4023 B( 97-C ,102-H ) :   0.9956 
B( 98-C , 99-C ) :   1.3485 B( 98-C ,103-H ) :   0.9876 B( 99-C ,100-C ) :   1.3562 
B( 99-C ,106-C ) :   1.0074 B(100-C ,101-C ) :   1.4054 B(100-C ,104-H ) :   0.9902 
B(101-C ,105-H ) :   0.9940 B(106-C ,107-C ) :   1.3732 B(106-C ,111-C ) :   1.4141 
B(107-C ,108-C ) :   1.4012 B(107-C ,112-H ) :   0.9828 B(108-C ,109-C ) :   1.4213 
B(108-C ,113-H ) :   0.9731 B(109-C ,110-N ) :   1.3262 B(109-C ,114-H ) :   0.9505 
B(110-N ,111-C ) :   1.3209 B(111-C ,115-H ) :   0.9516 B(116-C ,117-C ) :   2.5991 
B(116-C ,134-C ) :   1.0153 B(117-C ,118-C ) :   1.0036 B(118-C ,119-C ) :   1.4549 
B(118-C ,127-C ) :   1.2101 B(119-C ,120-C ) :   1.2685 B(119-C ,128-H ) :   0.9925 
B(120-C ,121-C ) :   1.4516 B(120-C ,129-H ) :   0.9812 B(121-C ,122-C ) :   1.2697 
B(121-C ,130-H ) :   0.9950 B(122-C ,123-C ) :   1.2483 B(122-C ,127-C ) :   1.2184 
B(123-C ,124-C ) :   1.5616 B(123-C ,131-H ) :   0.9727 B(124-C ,125-N ) :   1.1786 
B(124-C ,132-H ) :   0.9411 B(125-N ,126-C ) :   1.4333 B(126-C ,127-C ) :   1.3218 
B(126-C ,133-H ) :   0.9449 B(134-C ,135-C ) :   1.3287 B(134-C ,139-C ) :   1.3298 
B(135-C ,136-C ) :   1.4026 B(135-C ,140-H ) :   0.9950 B(136-C ,137-C ) :   1.3494 
B(136-C ,141-H ) :   0.9869 B(137-C ,138-C ) :   1.3612 B(137-C ,144-C ) :   1.0028 
B(138-C ,139-C ) :   1.4032 B(138-C ,142-H ) :   0.9909 B(139-C ,143-H ) :   0.9938 
B(144-C ,145-C ) :   1.3756 B(144-C ,149-C ) :   1.4138 B(145-C ,146-C ) :   1.4073 
B(145-C ,150-H ) :   0.9815 B(146-C ,147-C ) :   1.4160 B(146-C ,151-H ) :   0.9721 
B(147-C ,148-N ) :   1.3426 B(147-C ,152-H ) :   0.9570 B(148-N ,149-C ) :   1.3036 
B(149-C ,153-H ) :   0.9531 

-------
TIMINGS
-------

Total SCF time: 0 days 0 hours 15 min 5 sec 

Total time                  ....     905.577 sec
Sum of individual times     ....     899.861 sec  ( 99.4%)

Fock matrix formation       ....     730.293 sec  ( 80.6%)
  XC integration            ....      31.331 sec  (  4.3% of F)
    Basis function eval.    ....       7.378 sec  ( 23.5% of XC)
    Density eval.           ....      11.214 sec  ( 35.8% of XC)
    XC-Functional eval.     ....       0.895 sec  (  2.9% of XC)
    XC-Potential eval.      ....       4.340 sec  ( 13.9% of XC)
Diagonalization             ....      16.582 sec  (  1.8%)
Density matrix formation    ....       0.946 sec  (  0.1%)
Population analysis         ....       5.283 sec  (  0.6%)
Initial guess               ....      44.464 sec  (  4.9%)
Orbital Transformation      ....       0.000 sec  (  0.0%)
Orbital Orthonormalization  ....       0.000 sec  (  0.0%)
DIIS solution               ....      72.605 sec  (  8.0%)
Grid generation             ....      29.688 sec  (  3.3%)


-------------------------------------------------------------------------------
                          DFT DISPERSION CORRECTION                            
                                                                               
                              DFTD3 V3.1  Rev 1                                
                          USING Becke-Johnson damping                          
-------------------------------------------------------------------------------
The PBE0 functional is recognized
Active option DFTDOPT                   ...         4   

molecular C6(AA) [au] = 365498.261850 


            DFT-D V3
 parameters
 s6 scaling factor         :     1.0000 
 a1 scaling factor         :     0.4145 
 s8 scaling factor         :     1.2177 
 a2 scaling factor         :     4.8593 
 ad hoc parameters k1-k3   :    16.0000     1.3333    -4.0000 

 Edisp/kcal,au: -160.142228103286  -0.255202857710 
 E6   /kcal   : -99.842443330 
 E8   /kcal   : -60.299784773 
 % E8         :  37.653893971 

-------------------------   ----------------
Dispersion correction           -0.255202858
-------------------------   ----------------


-------------------------   --------------------
FINAL SINGLE POINT ENERGY     -4072.806428759266
-------------------------   --------------------


                            ***************************************
                            *     ORCA property calculations      *
                            ***************************************

                                    ---------------------
                                    Active property flags
                                    ---------------------
   (+) Dipole Moment


------------------------------------------------------------------------------
                       ORCA ELECTRIC PROPERTIES CALCULATION
------------------------------------------------------------------------------

Dipole Moment Calculation                       ... on
Quadrupole Moment Calculation                   ... off
Polarizability Calculation                      ... off
GBWName                                         ... _s_4b1_b_PBE0.gbw
Electron density file                           ... _s_4b1_b_PBE0.scfp
The origin for moment calculation is the CENTER OF MASS  = (-1.349543,  3.412856  0.434373)

-------------
DIPOLE MOMENT
-------------
                                X             Y             Z
Electronic contribution:     20.96280     -48.77323     -12.32867
Nuclear contribution   :    -21.08106      47.81217      12.19127
                        -----------------------------------------
Total Dipole Moment    :     -0.11826      -0.96106      -0.13740
                        -----------------------------------------
Magnitude (a.u.)       :      0.97801
Magnitude (Debye)      :      2.48589



--------------------
Rotational spectrum 
--------------------
 
Rotational constants in cm-1:     0.000739     0.000356     0.000346 
Rotational constants in MHz :    22.159322    10.680709    10.362337 

 Dipole components along the rotational axes: 
x,y,z [a.u.] :    -0.918607     0.052501     0.331514 
x,y,z [Debye]:    -2.334913     0.133446     0.842641 

 

Timings for individual modules:

Sum of individual times         ...      934.902 sec (=  15.582 min)
GTO integral calculation        ...       18.686 sec (=   0.311 min)   2.0 %
SCF iterations                  ...      916.216 sec (=  15.270 min)  98.0 %
                             ****ORCA TERMINATED NORMALLY****
TOTAL RUN TIME: 0 days 0 hours 16 minutes 14 seconds 882 msec
