Job execution start: Tue Jun 22 11:53:01 BST 2021
Shared library path: /work/e05/e05/atarzia/orca_4_2_1_linux_x86-64_openmpi314:/work/e05/e05/atarzia/openmpi-3.1.4/lib:/opt/cray/pe/papi/6.0.0.4/lib64:/opt/cray/libfabric/1.11.0.0.233/lib64
Slurm Job ID is: 344704
Slurm Job name is: s_4b1_c_B97-3c
nid001830

                                 *****************
                                 * O   R   C   A *
                                 *****************

           --- An Ab Initio, DFT and Semiempirical electronic structure package ---

                  #######################################################
                  #                        -***-                        #
                  #          Department of theory and spectroscopy      #
                  #               Directorship: Frank Neese             #
                  #        Max Planck Institute fuer Kohlenforschung    #
                  #                Kaiser Wilhelm Platz 1               #
                  #                 D-45470 Muelheim/Ruhr               #
                  #                      Germany                        #
                  #                                                     #
                  #                  All rights reserved                #
                  #                        -***-                        #
                  #######################################################


                         Program Version 4.2.1 -  RELEASE  -


 With contributions from (in alphabetic order):
   Daniel Aravena         : Magnetic Suceptibility
   Michael Atanasov       : Ab Initio Ligand Field Theory (pilot matlab implementation)
   Alexander A. Auer      : GIAO ZORA, VPT2
   Ute Becker             : Parallelization
   Giovanni Bistoni       : ED, misc. LED, open-shell LED, HFLD
   Martin Brehm           : Molecular dynamics
   Dmytro Bykov           : SCF Hessian
   Vijay G. Chilkuri      : MRCI spin determinant printing, contributions to CSF-ICE
   Dipayan Datta          : RHF DLPNO-CCSD density
   Achintya Kumar Dutta   : EOM-CC, STEOM-CC
   Dmitry Ganyushin       : Spin-Orbit,Spin-Spin,Magnetic field MRCI
   Miquel Garcia          : C-PCM Hessian, Gaussian charge scheme
   Yang Guo               : DLPNO-NEVPT2, CIM, IAO-localization
   Andreas Hansen         : Spin unrestricted coupled pair/coupled cluster methods
   Benjamin Helmich-Paris : CASSCF linear response (MC-RPA)
   Lee Huntington         : MR-EOM, pCC
   Robert Izsak           : Overlap fitted RIJCOSX, COSX-SCS-MP3, EOM
   Christian Kollmar      : KDIIS, OOCD, Brueckner-CCSD(T), CCSD density
   Simone Kossmann        : Meta GGA functionals, TD-DFT gradient, OOMP2, MP2 Hessian
   Martin Krupicka        : AUTO-CI
   Lucas Lang             : DCDCAS
   Dagmar Lenk            : GEPOL surface, SMD
   Dimitrios Liakos       : Extrapolation schemes; Compound Job, initial MDCI parallelization
   Dimitrios Manganas     : Further ROCIS development; embedding schemes
   Dimitrios Pantazis     : SARC Basis sets
   Taras Petrenko         : DFT Hessian,TD-DFT gradient, ASA, ECA, R-Raman, ABS, FL, XAS/XES, NRVS
   Peter Pinski           : DLPNO-MP2, DLPNO-MP2 Gradient
   Christoph Reimann      : Effective Core Potentials
   Marius Retegan         : Local ZFS, SOC
   Christoph Riplinger    : Optimizer, TS searches, QM/MM, DLPNO-CCSD(T), (RO)-DLPNO pert. Triples
   Tobias Risthaus        : Range-separated hybrids, TD-DFT gradient, RPA, STAB
   Michael Roemelt        : Original ROCIS implementation
   Masaaki Saitow         : Open-shell DLPNO-CCSD energy and density
   Barbara Sandhoefer     : DKH picture change effects
   Avijit Sen             : IP-ROCIS
   Kantharuban Sivalingam : CASSCF convergence, NEVPT2, FIC-MRCI
   Bernardo de Souza      : ESD, SOC TD-DFT
   Georgi Stoychev        : AutoAux, RI-MP2 NMR
   Willem Van den Heuvel  : Paramagnetic NMR
   Boris Wezisla          : Elementary symmetry handling
   Frank Wennmohs         : Technical directorship


 We gratefully acknowledge several colleagues who have allowed us to
 interface, adapt or use parts of their codes:
   Stefan Grimme, W. Hujo, H. Kruse,             : VdW corrections, initial TS optimization,
                  C. Bannwarth                     DFT functionals, gCP, sTDA/sTD-DF
   Ed Valeev, F. Pavosevic, A. Kumar             : LibInt (2-el integral package), F12 methods
   Garnet Chan, S. Sharma, J. Yang, R. Olivares  : DMRG
   Ulf Ekstrom                                   : XCFun DFT Library
   Mihaly Kallay                                 : mrcc  (arbitrary order and MRCC methods)
   Andreas Klamt, Michael Diedenhofen            : otool_cosmo (COSMO solvation model)
   Jiri Pittner, Ondrej Demel                    : Mk-CCSD
   Frank Weinhold                                : gennbo (NPA and NBO analysis)
   Christopher J. Cramer and Donald G. Truhlar   : smd solvation model
   Lars Goerigk                                  : TD-DFT with DH, B97 family of functionals
   V. Asgeirsson, H. Jonsson                     : NEB implementation
   FAccTs GmbH                                   : IRC, NEB, NEB-TS, Multilevel, MM, QM/MM, CI optimization
   S Lehtola, MJT Oliveira, MAL Marques          : LibXC Library


 Your calculation uses the libint2 library for the computation of 2-el integrals
 For citations please refer to: http://libint.valeyev.net

 Your ORCA version has been built with support for libXC version: 4.2.3
 For citations please refer to: https://tddft.org/programs/libxc/

 This ORCA versions uses:
   CBLAS   interface :  Fast vector & matrix operations
   LAPACKE interface :  Fast linear algebra routines
   SCALAPACK package :  Parallel linear algebra routines




***************************************
The coordinates will be read from file: s_4b1_c.xyz
***************************************


Your calculation utilizes the atom-pairwise dispersion correction
with the Becke-Johnson damping scheme (D3BJ)
Cite in your paper:
S.Grimme, S.Ehrlich, L.Goerigk, J Comput Chem, (2011), 32, 1456–1465 
S.Grimme, J.Antony, S.Ehrlich and H.Krieg, J.Chem.Phys., 132, (2010), 154104 
   

Your calculation employs the composite approach B97-3c by Grimme and coworkers.
For the correct reference, please check the publication list of the Grimme group:
http://www.thch.uni-bonn.de/tc/index.php?section=publikationen&subsection=grimme#2017
   

XCFun DFT library Copyright 2009-2010 Ulf Ekstrom and contributors.
See http://admol.org/xcfun for more information. This is free soft-
ware; see the source code for copying conditions. There is ABSOLUTELY
NO WARRANTY; not even for MERCHANTABILITY or FITNESS FOR A PARTICULAR
PURPOSE. For details see the documentation. Scientific users of this 
library should cite U. Ekstrom, L. Visscher, R. Bast, A. J. Thorvald-
sen and K. Ruud; J.Chem.Theor.Comp. 2010, DOI: 10.1021/ct100117s
XCFun Version 0.99 
----- Orbital basis set information -----
Your calculation utilizes the basis: def2-mTZVP
----- AuxJ basis set information -----
Your calculation utilizes the basis: def2-mTZVP/J
cite the ECPs for Pd [Def2-ECP] as follows:
Ce-Yb(ecp-28): M. Dolg, H. Stoll, H.Preuss, J. Chem. Phys., 1989, 90, 1730-1734.
Y-Cd(ecp-28), Hf-Hg(ecp-46): D. Andrae,U. Haeussermann, M. Dolg, H. Stoll, H. Preuss, Theor. Chim. Acta, 1990, 77, 123-141.
In-Sb(ecp-28), Tl-Bi(ecp-46): B. Metz, H. Stoll, M. Dolg, J. Chem. Phys., 2000, 113, 2563-2569.
Te-Xe(ecp-28), Po-Rn(ecp-46): K. A. Peterson, D. Figgen, E. Goll, H. Stoll, M. Dolg, J. Chem. Phys., 2003, 119, 11113-11123.
Rb(ecp-28), Cs(ecp-46): T. Leininger, A. Nicklass, W. Kuechle, H. Stoll, M. Dolg, A. Bergner, Chem. Phys. Lett., 1996, 255, 274-280.
Sr(ecp-28), Ba(ecp-46): M. Kaupp, P. V. Schleyer, H. Stoll and H. Preuss, J. Chem. Phys., 1991, 94, 1360-1366.
La(ecp-46): M. Dolg, H. Stoll, A. Savin, H. Preuss, Theor. Chim. Acta, 1989, 75, 173-194.
Lu(ecp-28): X. Cao, M. Dolg, J. Chem. Phys., 2001, 115, 7348-7355.

ECP parameters for Pd [Def2-ECP] have been obtained from:
TURBOMOLE (7.0.2)

================================================================================
                                        WARNINGS
                       Please study these warnings very carefully!
================================================================================


INFO   : the flag for use of LIBINT has been found!

================================================================================
                                       INPUT FILE
================================================================================
NAME = s_4b1_c_B97-3c.in
|  1> ! DFT SP B97-3c TightSCF printbasis  Grid6 NOFINALGRID SlowConv 
|  2> 
|  3> %base "_s_4b1_c_B97-3c"
|  4> %maxcore 3000
|  5> %scf
|  6>    MaxIter 2000
|  7> end
|  8> %pal
|  9>    nprocs 32
| 10> end
| 11> 
| 12> * xyzfile 4 1 s_4b1_c.xyz
| 13> 
| 14>                          ****END OF INPUT****
================================================================================

                       ****************************
                       * Single Point Calculation *
                       ****************************

---------------------------------
CARTESIAN COORDINATES (ANGSTROEM)
---------------------------------
  Pd    -0.379200    4.463500    0.546700
  Pd    -0.066700   -6.845800    1.250600
  C      4.578400   -3.065300    1.687900
  C      4.822100   -4.249800    1.716600
  C      5.166200   -5.614900    1.709400
  C      6.494800   -5.993200    1.773400
  C      6.863200   -7.342200    1.729400
  C      5.917700   -8.329100    1.602800
  C      4.553800   -7.991200    1.530300
  C      3.532800   -8.955700    1.374900
  C      2.228300   -8.560200    1.308400
  N      1.865600   -7.258000    1.410500
  C      2.789300   -6.327100    1.548900
  C      4.160700   -6.623000    1.601000
  H      7.258500   -5.235200    1.857300
  H      7.909300   -7.601500    1.787000
  H      6.206400   -9.367300    1.554200
  H      3.796500   -9.998800    1.303600
  H      1.420500   -9.276000    1.169100
  H      2.448700   -5.296800    1.627400
  C      4.256700   -1.694700    1.615000
  C      5.179500   -0.782200    1.094800
  C      4.847100    0.552500    0.987500
  C      3.589700    1.005900    1.390400
  C      2.677400    0.093500    1.926700
  C      3.004500   -1.240500    2.039900
  H      6.148700   -1.128500    0.770800
  H      5.558100    1.243100    0.561100
  H      1.720000    0.438100    2.285900
  H      2.301800   -1.939900    2.463000
  C      3.224300    2.422100    1.256400
  C      4.126100    3.453100    1.539000
  C      3.716700    4.770700    1.423400
  C      2.411000    5.041700    1.048800
  N      1.551800    4.059000    0.772400
  C      1.940700    2.785700    0.854700
  H      5.128100    3.220900    1.864900
  H      4.396500    5.579800    1.636200
  H      2.035400    6.057900    0.962900
  H      1.200900    2.038800    0.569600
  C     -0.624300   -2.882600    5.815300
  C     -0.621900   -4.066100    6.064400
  C     -0.676900   -5.425400    6.434400
  C     -0.836000   -5.765400    7.764600
  C     -0.949400   -7.103400    8.158700
  C     -0.917600   -8.116500    7.233800
  C     -0.746700   -7.817600    5.869700
  C     -0.713700   -8.813200    4.867400
  C     -0.527400   -8.458200    3.563100
  N     -0.348100   -7.167600    3.187300
  C     -0.391200   -6.207300    4.089900
  C     -0.605400   -6.461100    5.454900
  H     -0.884300   -4.985400    8.509000
  H     -1.074000   -7.331900    9.206100
  H     -1.021800   -9.146000    7.538300
  H     -0.838100   -9.847700    5.144700
  H     -0.513400   -9.199300    2.765800
  H     -0.245400   -5.187700    3.739200
  C     -0.627500   -1.512400    5.475900
  C      0.322300   -0.645200    6.022400
  C      0.333400    0.685600    5.657700
  C     -0.595100    1.176600    4.738100
  C     -1.561200    0.313300    4.217600
  C     -1.582000   -1.016300    4.582900
  H      1.051000   -1.023100    6.722600
  H      1.086700    1.341700    6.065400
  H     -2.318700    0.695600    3.552500
  H     -2.340600   -1.676400    4.193700
  C     -0.531300    2.578300    4.300700
  C     -0.281100    3.626600    5.191500
  C     -0.195700    4.923400    4.713400
  C     -0.330900    5.152100    3.354000
  N     -0.562200    4.151300    2.502000
  C     -0.678900    2.901700    2.953900
  H     -0.172300    3.425100    6.245800
  H     -0.017000    5.747600    5.384600
  H     -0.255000    6.148800    2.927300
  H     -0.884000    2.137500    2.205100
  C     -5.023400    0.683400    0.105000
  C     -5.268300    1.867900    0.084700
  C     -5.613300    3.232700    0.102300
  C     -6.942100    3.610700    0.044400
  C     -7.311200    4.959100    0.099500
  C     -6.366000    5.945700    0.231100
  C     -5.001600    5.608000    0.297400
  C     -3.980700    6.572000    0.456800
  C     -2.675800    6.176800    0.516200
  N     -2.312800    4.875600    0.403700
  C     -3.236400    3.945200    0.261400
  C     -4.608000    4.240600    0.215500
  H     -7.705700    2.853000   -0.043200
  H     -8.357500    5.218300    0.046600
  H     -6.655100    6.983300    0.288300
  H     -4.244800    7.614400    0.536500
  H     -1.867700    6.891900    0.658000
  H     -2.895400    2.915600    0.174200
  C     -4.700800   -0.687300    0.170300
  C     -3.445000   -1.137500   -0.248400
  C     -3.116900   -2.471700   -0.140500
  C     -4.031900   -3.388300    0.383700
  C     -5.293100   -2.939100    0.779500
  C     -5.626300   -1.604200    0.677800
  H     -2.740200   -0.434800   -0.662300
  H     -2.156500   -2.813000   -0.494700
  H     -6.006400   -3.633200    1.196200
  H     -6.598500   -1.261100    0.996600
  C     -3.665500   -4.804700    0.513400
  C     -4.562800   -5.835400    0.216000
  C     -4.152700   -7.153000    0.329200
  C     -2.850700   -7.424000    0.716300
  N     -1.995800   -6.441500    1.006600
  C     -2.385600   -5.168300    0.926500
  H     -5.561600   -5.602800   -0.119000
  H     -4.829000   -7.961900    0.105100
  H     -2.474500   -8.440100    0.801300
  H     -1.649900   -4.421900    1.223100
  C      0.132800    0.498400   -4.020400
  C      0.118100    1.681500   -4.271200
  C      0.157300    3.040600   -4.643800
  C      0.287300    3.380000   -5.977400
  C      0.384500    4.718200   -6.375100
  C      0.365400    5.732200   -5.450800
  C      0.223800    5.433900   -4.083200
  C      0.204700    6.430400   -3.081400
  C      0.045200    6.076000   -1.773400
  N     -0.119800    4.784900   -1.393100
  C     -0.088100    3.823700   -2.295300
  C      0.098800    4.077000   -3.664300
  H      0.325400    2.599500   -6.721800
  H      0.486300    4.946300   -7.425100
  H      0.457300    6.762000   -5.758400
  H      0.317900    7.465400   -3.362100
  H      0.042300    6.817800   -0.976700
  H     -0.221000    2.803800   -1.940700
  C      0.149200   -0.871400   -3.679900
  C     -0.795000   -1.746900   -4.223000
  C     -0.793600   -3.077500   -3.857700
  C      0.141700   -3.560000   -2.940600
  C      1.101900   -2.688300   -2.423100
  C      1.110500   -1.358900   -2.789500
  H     -1.529100   -1.375600   -4.921000
  H     -1.542300   -3.740400   -4.262900
  H      1.864200   -3.064000   -1.759600
  H      1.864900   -0.692300   -2.403200
  C      0.090700   -4.962100   -2.502600
  C     -0.149900   -6.012800   -3.393300
  C     -0.224600   -7.310100   -2.914900
  C     -0.089600   -7.537000   -1.555200
  N      0.132300   -6.534000   -0.703300
  C      0.240000   -5.283700   -1.155600
  H     -0.259800   -5.812400   -4.447700
  H     -0.395400   -8.136000   -3.586100
  H     -0.157800   -8.534100   -1.128100
  H      0.438900   -4.517800   -0.406900

----------------------------
CARTESIAN COORDINATES (A.U.)
----------------------------
  NO LB      ZA    FRAG     MASS         X           Y           Z
   0 Pd   18.0000*   0   106.400   -0.716584    8.434793    1.033113
   1 Pd   18.0000*   0   106.400   -0.126045  -12.936687    2.363292
   2 C     6.0000    0    12.011    8.651922   -5.792578    3.189669
   3 C     6.0000    0    12.011    9.112448   -8.030958    3.243904
   4 C     6.0000    0    12.011    9.762703  -10.610623    3.230298
   5 C     6.0000    0    12.011   12.273393  -11.325507    3.351240
   6 C     6.0000    0    12.011   12.969568  -13.874747    3.268092
   7 C     6.0000    0    12.011   11.182832  -15.739718    3.028853
   8 C     6.0000    0    12.011    8.605435  -15.101179    2.891848
   9 C     6.0000    0    12.011    6.676024  -16.923820    2.598184
  10 C     6.0000    0    12.011    4.210877  -16.176434    2.472518
  11 N     7.0000    0    14.007    3.525473  -13.715632    2.665459
  12 C     6.0000    0    12.011    5.271013  -11.956486    2.926997
  13 C     6.0000    0    12.011    7.862584  -12.515656    3.025452
  14 H     1.0000    0     1.008   13.716577   -9.893094    3.509788
  15 H     1.0000    0     1.008   14.946411  -14.364753    3.376941
  16 H     1.0000    0     1.008   11.728396  -17.701632    2.937012
  17 H     1.0000    0     1.008    7.174345  -18.894994    2.463447
  18 H     1.0000    0     1.008    2.684356  -17.529100    2.209279
  19 H     1.0000    0     1.008    4.627372  -10.009501    3.075340
  20 C     6.0000    0    12.011    8.043997   -3.202519    3.051908
  21 C     6.0000    0    12.011    9.787837   -1.478144    2.068872
  22 C     6.0000    0    12.011    9.159692    1.044074    1.866105
  23 C     6.0000    0    12.011    6.783550    1.900876    2.627475
  24 C     6.0000    0    12.011    5.059553    0.176689    3.640935
  25 C     6.0000    0    12.011    5.677682   -2.344205    3.854852
  26 H     1.0000    0     1.008   11.619359   -2.132556    1.456601
  27 H     1.0000    0     1.008   10.503287    2.349119    1.060325
  28 H     1.0000    0     1.008    3.250329    0.827889    4.319725
  29 H     1.0000    0     1.008    4.349772   -3.665880    4.654395
  30 C     6.0000    0    12.011    6.093044    4.577106    2.374252
  31 C     6.0000    0    12.011    7.797199    6.525413    2.908289
  32 C     6.0000    0    12.011    7.023545    9.015316    2.689836
  33 C     6.0000    0    12.011    4.556130    9.527432    1.981945
  34 N     7.0000    0    14.007    2.932477    7.670398    1.459624
  35 C     6.0000    0    12.011    3.667392    5.264210    1.615149
  36 H     1.0000    0     1.008    9.690705    6.086619    3.524150
  37 H     1.0000    0     1.008    8.308181   10.544294    3.091970
  38 H     1.0000    0     1.008    3.846349   11.447772    1.819617
  39 H     1.0000    0     1.008    2.269372    3.852774    1.076388
  40 C     6.0000    0    12.011   -1.179756   -5.447325   10.989324
  41 C     6.0000    0    12.011   -1.175221   -7.683815   11.460055
  42 C     6.0000    0    12.011   -1.279156  -10.252520   12.159254
  43 C     6.0000    0    12.011   -1.579811  -10.895027   14.672968
  44 C     6.0000    0    12.011   -1.794106  -13.423481   15.417709
  45 C     6.0000    0    12.011   -1.734013  -15.337962   13.669901
  46 C     6.0000    0    12.011   -1.411059  -14.773123   11.092125
  47 C     6.0000    0    12.011   -1.348698  -16.654534    9.198053
  48 C     6.0000    0    12.011   -0.996642  -15.983682    6.733283
  49 N     7.0000    0    14.007   -0.657814  -13.544801    6.023124
  50 C     6.0000    0    12.011   -0.739261  -11.730097    7.728791
  51 C     6.0000    0    12.011   -1.144040  -12.209710   10.308267
  52 H     1.0000    0     1.008   -1.671085   -9.421041   16.079680
  53 H     1.0000    0     1.008   -2.029566  -13.855283   17.397008
  54 H     1.0000    0     1.008   -1.930922  -17.283435   14.245323
  55 H     1.0000    0     1.008   -1.583779  -18.609456    9.722074
  56 H     1.0000    0     1.008   -0.970185  -17.384158    5.226605
  57 H     1.0000    0     1.008   -0.463739   -9.803332    7.066064
  58 C     6.0000    0    12.011   -1.185803   -2.858022   10.347951
  59 C     6.0000    0    12.011    0.609059   -1.219251   11.380687
  60 C     6.0000    0    12.011    0.630035    1.295596   10.691504
  61 C     6.0000    0    12.011   -1.124576    2.223452    8.953711
  62 C     6.0000    0    12.011   -2.950240    0.592051    7.970109
  63 C     6.0000    0    12.011   -2.989547   -1.920529    8.660426
  64 H     1.0000    0     1.008    1.986102   -1.933379   12.703873
  65 H     1.0000    0     1.008    2.053565    2.535446   11.461945
  66 H     1.0000    0     1.008   -4.381708    1.314493    6.713252
  67 H     1.0000    0     1.008   -4.423093   -3.167937    7.924944
  68 C     6.0000    0    12.011   -1.004011    4.872281    8.127145
  69 C     6.0000    0    12.011   -0.531202    6.853281    9.810513
  70 C     6.0000    0    12.011   -0.369819    9.303878    8.907035
  71 C     6.0000    0    12.011   -0.625310    9.736058    6.338141
  72 N     7.0000    0    14.007   -1.062404    7.844820    4.728095
  73 C     6.0000    0    12.011   -1.282935    5.483418    5.582062
  74 H     1.0000    0     1.008   -0.325600    6.472501   11.802851
  75 H     1.0000    0     1.008   -0.032125   10.861390   10.175419
  76 H     1.0000    0     1.008   -0.481880   11.619548    5.531795
  77 H     1.0000    0     1.008   -1.670518    4.039290    4.167035
  78 C     6.0000    0    12.011   -9.492850    1.291439    0.198421
  79 C     6.0000    0    12.011   -9.955644    3.529819    0.160060
  80 C     6.0000    0    12.011  -10.607600    6.108918    0.193319
  81 C     6.0000    0    12.011  -13.118668    6.823234    0.083904
  82 C     6.0000    0    12.011  -13.816166    9.371341    0.188028
  83 C     6.0000    0    12.011  -12.029997   11.235745    0.436716
  84 C     6.0000    0    12.011   -9.451654   10.597584    0.562005
  85 C     6.0000    0    12.011   -7.522433   12.419280    0.863227
  86 C     6.0000    0    12.011   -5.056529   11.672460    0.975477
  87 N     7.0000    0    14.007   -4.370559    9.213549    0.762882
  88 C     6.0000    0    12.011   -6.115910    7.455348    0.493974
  89 C     6.0000    0    12.011   -8.707858    8.013573    0.407236
  90 H     1.0000    0     1.008  -14.561663    5.391389   -0.081636
  91 H     1.0000    0     1.008  -15.793386    9.861158    0.088061
  92 H     1.0000    0     1.008  -12.576316   13.196525    0.544808
  93 H     1.0000    0     1.008   -8.021509   14.389131    1.013838
  94 H     1.0000    0     1.008   -3.529442   13.023804    1.243440
  95 H     1.0000    0     1.008   -5.471513    5.509686    0.329190
  96 C     6.0000    0    12.011   -8.883225   -1.298809    0.321820
  97 C     6.0000    0    12.011   -6.510107   -2.149563   -0.469408
  98 C     6.0000    0    12.011   -5.890087   -4.670836   -0.265507
  99 C     6.0000    0    12.011   -7.619187   -6.402959    0.725088
 100 C     6.0000    0    12.011  -10.002509   -5.554094    1.473042
 101 C     6.0000    0    12.011  -10.632166   -3.031499    1.280856
 102 H     1.0000    0     1.008   -5.178228   -0.821653   -1.251566
 103 H     1.0000    0     1.008   -4.075194   -5.315800   -0.934848
 104 H     1.0000    0     1.008  -11.350451   -6.865753    2.260490
 105 H     1.0000    0     1.008  -12.469358   -2.383134    1.883301
 106 C     6.0000    0    12.011   -6.926791   -9.079567    0.970185
 107 C     6.0000    0    12.011   -8.622442  -11.027308    0.408181
 108 C     6.0000    0    12.011   -7.847466  -13.517211    0.622098
 109 C     6.0000    0    12.011   -5.387042  -14.029327    1.353611
 110 N     7.0000    0    14.007   -3.771515  -12.172671    1.902198
 111 C     6.0000    0    12.011   -4.508131   -9.766672    1.750831
 112 H     1.0000    0     1.008  -10.509901  -10.587758   -0.224877
 113 H     1.0000    0     1.008   -9.125488  -15.045811    0.198610
 114 H     1.0000    0     1.008   -4.676127  -15.949478    1.514238
 115 H     1.0000    0     1.008   -3.117859   -8.356180    2.311324
 116 C     6.0000    0    12.011    0.250956    0.941840   -7.597455
 117 C     6.0000    0    12.011    0.223177    3.177574   -8.071398
 118 C     6.0000    0    12.011    0.297254    5.745901   -8.775510
 119 C     6.0000    0    12.011    0.542918    6.387274  -11.295649
 120 C     6.0000    0    12.011    0.726600    8.916106  -12.047193
 121 C     6.0000    0    12.011    0.690506   10.832288  -10.300519
 122 C     6.0000    0    12.011    0.422921   10.268583   -7.716130
 123 C     6.0000    0    12.011    0.386827   12.151695   -5.823002
 124 C     6.0000    0    12.011    0.085416   11.481976   -3.351240
 125 N     7.0000    0    14.007   -0.226389    9.042151   -2.632577
 126 C     6.0000    0    12.011   -0.166485    7.225746   -4.337488
 127 C     6.0000    0    12.011    0.186705    7.704413   -6.924523
 128 H     1.0000    0     1.008    0.614917    4.912343  -12.702361
 129 H     1.0000    0     1.008    0.918974    9.347152  -14.031406
 130 H     1.0000    0     1.008    0.864172   12.778328  -10.881799
 131 H     1.0000    0     1.008    0.600744   14.107561   -6.353448
 132 H     1.0000    0     1.008    0.079935   12.883775   -1.845696
 133 H     1.0000    0     1.008   -0.417629    5.298414   -3.667392
 134 C     6.0000    0    12.011    0.281947   -1.646707   -6.954003
 135 C     6.0000    0    12.011   -1.502332   -3.301163   -7.980313
 136 C     6.0000    0    12.011   -1.499687   -5.815632   -7.289997
 137 C     6.0000    0    12.011    0.267774   -6.727425   -5.556929
 138 C     6.0000    0    12.011    2.082289   -5.080151   -4.578995
 139 C     6.0000    0    12.011    2.098541   -2.567949   -5.271391
 140 H     1.0000    0     1.008   -2.889580   -2.599507   -9.299342
 141 H     1.0000    0     1.008   -2.914525   -7.068332   -8.055714
 142 H     1.0000    0     1.008    3.522827   -5.790121   -3.325162
 143 H     1.0000    0     1.008    3.524150   -1.308257   -4.541390
 144 C     6.0000    0    12.011    0.171398   -9.377010   -4.729229
 145 C     6.0000    0    12.011   -0.283270  -11.362545   -6.412408
 146 C     6.0000    0    12.011   -0.424432  -13.814087   -5.508363
 147 C     6.0000    0    12.011   -0.169319  -14.242866   -2.938902
 148 N     7.0000    0    14.007    0.250011  -12.347471   -1.329044
 149 C     6.0000    0    12.011    0.453534   -9.984746   -2.183768
 150 H     1.0000    0     1.008   -0.490951  -10.983844   -8.404935
 151 H     1.0000    0     1.008   -0.747198  -15.374812   -6.776747
 152 H     1.0000    0     1.008   -0.298199  -16.127112   -2.131800
 153 H     1.0000    0     1.008    0.829401   -8.537405   -0.768930
* core charge reduced due to ECP

--------------------------------
INTERNAL COORDINATES (ANGSTROEM)
--------------------------------
 Pd     0   0   0     0.000000000000     0.00000000     0.00000000
 Pd     1   0   0    11.335492841072     0.00000000     0.00000000
 C      2   1   0     6.005028355470    52.96850438     0.00000000
 C      3   2   1     1.209650209771    62.68386228   183.95006814
 C      4   3   2     1.407819114801   176.98502776   141.37233893
 C      5   4   3     1.382890035397   119.98974718    36.47579656
 C      6   5   4     1.399090976313   121.01647924   181.83240818
 C      7   6   5     1.372577655362   120.98319850     0.90824826
 C      8   7   6     1.407002441362   119.98843467   359.28438890
 C      9   8   7     1.413099575402   122.82951835   178.79790874
 C     10   9   8     1.364757396023   119.87999640   180.15228090
 N     11  10   9     1.355618139448   122.03558772   358.81685464
 C     12  11  10     1.318692936206   119.90754188     1.54951497
 C     13  12  11     1.403926344222   122.63922138   359.80598210
 H      6   5   4     1.079277953078   119.42578078     1.75336380
 H      7   6   5     1.079295816725   119.02455739   180.32041592
 H      8   7   6     1.078688504620   120.78487042   179.06806586
 H     10   9   8     1.078275934073   119.39640432   359.75153784
 H     11  10   9     1.088262362668   121.67741067   178.75864324
 H     13  12  11     1.087974586100   117.18015746   180.04025869
 C      3   2   1     1.409733896876   115.58144184     2.34354124
 C     21   3   2     1.398150253013   120.20901580   209.70185297
 C     22  21   3     1.379647469465   120.08630622   178.05688883
 C     23  22  21     1.396049687511   120.58061637   359.76643138
 C     24  23  22     1.397276901691   119.12825023     1.10286792
 C     25  24  23     1.378174390271   120.57168794   359.07140260
 H     22  21   3     1.079003396658   119.67684988   358.55018439
 H     23  22  21     1.079011733022   119.41649804   181.55893224
 H     25  24  23     1.079068375961   119.90277932   177.06400920
 H     26  25  24     1.077943068998   120.36784883   179.40112385
 C     24  23  22     1.468705416345   120.72471901   181.04623219
 C     31  24  23     1.398594651784   122.13812897   319.65848713
 C     32  31  24     1.384572670538   119.60284017   181.43357955
 C     33  32  31     1.385142104623   119.17587790     0.99832724
 N     34  33  32     1.334286659605   121.26089994   358.64064147
 C     35  34  33     1.333907564264   120.16643946     0.06854434
 H     32  31  24     1.078949326892   120.07887670     0.16013862
 H     33  32  31     1.077986405295   120.75132220   180.02708935
 H     34  33  32     1.086791889002   122.01208983   178.77808242
 H     36  35  34     1.089240864088   116.12844468   182.78795524
 C     30  26  25     4.548478843526   147.47181673   313.23238904
 C     41  30  26     1.209433263971   110.69139106   214.09604344
 C     42  41  30     1.409830305391   175.91629002   171.63689686
 C     43  42  41     1.382152252829   119.61999832   331.25335753
 C     44  43  42     1.399435018141   121.03423579   177.35347322
 C     45  44  43     1.372159925082   120.94492692   359.42442482
 C     46  45  44     1.406881953115   119.96715997     1.06664459
 C     47  46  45     1.413121951567   122.74257241   180.40796505
 C     48  47  46     1.364525990958   119.85904748   180.84573839
 N     49  48  47     1.356105633791   122.04155899     1.10532132
 C     50  49  48     1.318605498244   119.93912281   357.93513885
 C     51  50  49     1.404820657593   122.58295095     0.65905244
 H     44  43  42     1.079288770441   119.41692857   358.03306673
 H     45  44  43     1.079251671298   119.01797422   180.08589965
 H     46  45  44     1.078632532422   120.80849820   181.03418524
 H     48  47  46     1.078221173971   119.39722785     0.93613820
 H     49  48  47     1.088628724589   121.64868752   181.01958326
 H     51  50  49     1.088040573692   117.22242514   180.22652460
 C     41  30  26     1.411612779766    67.85689410    35.61460836
 C     59  41  30     1.397432692476   120.45041297   276.22713005
 C     60  59  41     1.379912294314   120.03900732   178.29208276
 C     61  60  59     1.396014831583   120.52706056   359.67108820
 C     62  61  60     1.396265143159   119.22882733     1.76234821
 C     63  62  61     1.379026065744   120.51871587   358.56091567
 H     60  59  41     1.078931017257   119.70192755   358.85317998
 H     61  60  59     1.078956621000   119.48491789   181.58813180
 H     63  62  61     1.078108320161   119.79378705   176.35318222
 H     64  63  62     1.078277612677   120.34705656   178.84274784
 C     62  61  60     1.469745586828   120.17221188   183.27778841
 C     69  62  61     1.398233732249   122.22117827   317.93610398
 C     70  69  62     1.384760993818   119.55002292   178.19772079
 C     71  70  69     1.385117717019   119.17326337   358.57464978
 N     72  71  70     1.334542741916   121.30969137     1.06719997
 C     73  72  71     1.333916286729   120.09256259     0.55293276
 H     70  69  62     1.078882838866   120.03924042   357.17625069
 H     71  70  69     1.077844501772   120.75217683   179.15590654
 H     72  71  70     1.086850767125   121.99957440   181.05840946
 H     74  73  72     1.089389319757   116.15258178   178.99994797
 C     67  63  62     4.381872565468   156.64533861   140.62320047
 C     79  67  63     1.209722426840    97.78370722   197.07096158
 C     80  79  67     1.407840118763   176.98530816   266.17152797
 C     81  80  79     1.382731300723   119.99928836   323.00062121
 C     82  81  80     1.399090197235   121.02038581   178.13190508
 C     83  82  81     1.372625644522   120.98664265   359.10029671
 C     84  83  82     1.407133376763   119.98107542     0.72260114
 C     85  84  83     1.413131688839   122.82652558   181.17160845
 C     86  85  84     1.364725397287   119.87656365   179.87931546
 N     87  86  85     1.355561392929   122.03273547     1.15734607
 C     88  87  86     1.318685106460   119.91118056   358.46907829
 C     89  88  87     1.403800032056   122.64206723     0.19443163
 H     82  81  80     1.079290512327   119.43189633   358.22211301
 H     83  82  81     1.079225064572   119.03253021   179.69084738
 H     84  83  82     1.078640074353   120.79331232   180.93442392
 H     86  85  84     1.078285055076   119.39737525     0.26461741
 H     87  86  85     1.088347766112   121.69203120   181.22208892
 H     89  88  87     1.088099719695   117.17884967   179.94157644
 C     79  67  63     1.409664264994    79.92166385    16.86638693
 C     97  79  67     1.398221502481   120.31460022   285.66898183
 C     98  97  79     1.378180561465   120.13764132   177.78495318
 C     99  98  97     1.397199413112   120.56788313     0.13863179
 C    100  99  98     1.396088722109   119.13654334     0.94955398
 C    101 100  99     1.379609778162   120.57142079   358.85676218
 H     98  97  79     1.077888463618   119.49508498   357.32181458
 H     99  98  97     1.079032664010   119.49856293   178.12860157
 H    101 100  99     1.078985908156   119.98129493   180.67404153
 H    102 101 100     1.079131081009   120.22820582   180.74797876
 C    100  99  98     1.468761386339   120.15902448   180.92292625
 C    107 100  99     1.398548011332   122.13215705   220.51373061
 C    108 107 100     1.384581528838   119.59765300   178.61221966
 C    109 108 107     1.385096173556   119.17374278   359.00684335
 N    110 109 108     1.334329176028   121.26501607     1.34342792
 C    111 110 109     1.333940886996   120.16620853   359.93725272
 H    108 107 100     1.078855504690   120.07438603   359.86940337
 H    109 108 107     1.077924723717   120.74981749   179.97292347
 H    110 109 108     1.086835153094   122.01587990   181.20381619
 H    112 111 110     1.089191906874   116.12580558   177.20971283
 C    103  98  97     4.516838147421   146.72821942   228.60653756
 C    117 103  98     1.209480194133   110.39763949   144.37608970
 C    118 117 103     1.409794385717   175.93228787   188.83429596
 C    119 118 117     1.382237794303   119.62515072    28.92978585
 C    120 119 118     1.399425728647   121.03233259   182.64589860
 C    121 120 119     1.372184863639   120.94681212     0.58102226
 C    122 121 120     1.406898436277   119.96706051   358.91621944
 C    123 122 121     1.413145533907   122.74899541   179.61367446
 C    124 123 122     1.364515888511   119.86667265   179.07331217
 N    125 124 123     1.356020759428   122.02920966   358.90964229
 C    126 125 124     1.318664161187   119.94822107     2.09014702
 C    127 126 125     1.404725418009   122.58408681   359.31960117
 H    120 119 118     1.079241965455   119.42063950     1.95717806
 H    121 120 119     1.079302019826   119.02019028   179.92184056
 H    122 121 120     1.078680402158   120.81115600   178.95392062
 H    124 123 122     1.078346757773   119.39745729   359.01130398
 H    125 124 123     1.088580056771   121.66032228   178.99356220
 H    127 126 125     1.087933628490   117.21946380   179.73644530
 C    117 103  98     1.411581117046    68.13402425   322.93466629
 C    135 117 103     1.397487567029   120.42065591    84.14240092
 C    136 135 117     1.379834196561   120.03683567   181.70095980
 C    137 136 135     1.395945826313   120.52532440     0.34961323
 C    138 137 136     1.396299101196   119.23918937   358.23999924
 C    139 138 137     1.378995025372   120.50773286     1.40977315
 H    136 135 117     1.078874645174   119.70603523     1.14158785
 H    137 136 135     1.078969480569   119.49413269   178.43616204
 H    139 138 137     1.078185526707   119.78442675   183.61673037
 H    140 139 138     1.078286886686   120.34093648   181.19695207
 C    138 137 136     1.469805908955   120.14902105   176.71619478
 C    145 138 137     1.398286572917   122.20520190    42.23538060
 C    146 145 138     1.384714389324   119.55070535   181.85402975
 C    147 146 145     1.385096639228   119.16771494     1.48008697
 N    148 147 146     1.334534458154   121.31430666   358.88843567
 C    149 148 147     1.333950774954   120.09420058   359.42568516
 H    146 145 138     1.078887172043   120.03241493     2.86364629
 H    147 146 145     1.077864968352   120.74883222   180.86748793
 H    148 147 146     1.086864324559   122.00071696   178.91368188
 H    150 149 148     1.089364819516   116.14776613   181.06909838

---------------------------
INTERNAL COORDINATES (A.U.)
---------------------------
 Pd     0   0   0     0.000000000000     0.00000000     0.00000000
 Pd     1   0   0    21.420977062651     0.00000000     0.00000000
 C      2   1   0    11.347859018270    52.96850438     0.00000000
 C      3   2   1     2.285907614308    62.68386228   183.95006814
 C      4   3   2     2.660392573074   176.98502776   141.37233893
 C      5   4   3     2.613283440229   119.98974718    36.47579656
 C      6   5   4     2.643898781672   121.01647924   181.83240818
 C      7   6   5     2.593795866175   120.98319850     0.90824826
 C      8   7   6     2.658849283934   119.98843467   359.28438890
 C      9   8   7     2.670371197469   122.82951835   178.79790874
 C     10   9   8     2.579017717727   119.87999640   180.15228090
 N     11  10   9     2.561747025732   122.03558772   358.81685464
 C     12  11  10     2.491968504166   119.90754188     1.54951497
 C     13  12  11     2.653036302776   122.63922138   359.80598210
 H      6   5   4     2.039539753696   119.42578078     1.75336380
 H      7   6   5     2.039573511097   119.02455739   180.32041592
 H      8   7   6     2.038425857541   120.78487042   179.06806586
 H     10   9   8     2.037646212195   119.39640432   359.75153784
 H     11  10   9     2.056517827297   121.67741067   178.75864324
 H     13  12  11     2.055974008396   117.18015746   180.04025869
 C      3   2   1     2.664010986800   115.58144184     2.34354124
 C     21   3   2     2.642121072267   120.20901580   209.70185297
 C     22  21   3     2.607155878646   120.08630622   178.05688883
 C     23  22  21     2.638151578742   120.58061637   359.76643138
 C     24  23  22     2.640470677451   119.12825023     1.10286792
 C     25  24  23     2.604372162397   120.57168794   359.07140260
 H     22  21   3     2.039020917255   119.67684988   358.55018439
 H     23  22  21     2.039036670700   119.41649804   181.55893224
 H     25  24  23     2.039143710342   119.90277932   177.06400920
 H     26  25  24     2.037017188364   120.36784883   179.40112385
 C     24  23  22     2.775451008298   120.72471901   181.04623219
 C     31  24  23     2.642960864240   122.13812897   319.65848713
 C     32  31  24     2.616463159828   119.60284017   181.43357955
 C     33  32  31     2.617539234301   119.17587790     0.99832724
 N     34  33  32     2.521436370798   121.26089994   358.64064147
 C     35  34  33     2.520719984424   120.16643946     0.06854434
 H     32  31  24     2.038918740204   120.07887670     0.16013862
 H     33  32  31     2.037099082097   120.75132220   180.02708935
 H     34  33  32     2.053739034780   122.01208983   178.77808242
 H     36  35  34     2.058366927003   116.12844468   182.78795524
 C     30  26  25     8.595379340198   147.47181673   313.23238904
 C     41  30  26     2.285497646160   110.69139106   214.09604344
 C     42  41  30     2.664193172492   175.91629002   171.63689686
 C     43  42  41     2.611889233229   119.61999832   331.25335753
 C     44  43  42     2.644548926506   121.03423579   177.35347322
 C     45  44  43     2.593006470346   120.94492692   359.42442482
 C     46  45  44     2.658621594143   119.96715997     1.06664459
 C     47  46  45     2.670413482294   122.74257241   180.40796505
 C     48  47  46     2.578580425528   119.85904748   180.84573839
 N     49  48  47     2.562668256533   122.04155899     1.10532132
 C     50  49  48     2.491803270364   119.93912281   357.93513885
 C     51  50  49     2.654726310126   122.58295095     0.65905244
 H     44  43  42     2.039560195550   119.41692857   358.03306673
 H     45  44  43     2.039490088330   119.01797422   180.08589965
 H     46  45  44     2.038320085416   120.80849820   181.03418524
 H     48  47  46     2.037542730601   119.39722785     0.93613820
 H     49  48  47     2.057210150993   121.64868752   181.01958326
 H     51  50  49     2.056098706872   117.22242514   180.22652460
 C     41  30  26     2.667561560902    67.85689410    35.61460836
 C     59  41  30     2.640765079367   120.45041297   276.22713005
 C     60  59  41     2.607656325085   120.03900732   178.29208276
 C     61  60  59     2.638085710584   120.52706056   359.67108820
 C     62  61  60     2.638558730910   119.22882733     1.76234821
 C     63  62  61     2.605981595794   120.51871587   358.56091567
 H     60  59  41     2.038884140009   119.70192755   358.85317998
 H     61  60  59     2.038932524071   119.48491789   181.58813180
 H     63  62  61     2.037329467806   119.79378705   176.35318222
 H     64  63  62     2.037649384298   120.34705656   178.84274784
 C     62  61  60     2.777416645644   120.17221188   183.27778841
 C     69  62  61     2.642278825162   122.22117827   317.93610398
 C     70  69  62     2.616819039253   119.55002292   178.19772079
 C     71  70  69     2.617493148408   119.17326337   358.57464978
 N     72  71  70     2.521920296233   121.30969137     1.06719997
 C     73  72  71     2.520736467494   120.09256259     0.55293276
 H     70  69  62     2.038793096045   120.03924042   357.17625069
 H     71  70  69     2.036830923302   120.75217683   179.15590654
 H     72  71  70     2.053850298308   121.99957440   181.05840946
 H     74  73  72     2.058647467559   116.15258178   178.99994797
 C     67  63  62     8.280539102477   156.64533861   140.62320047
 C     79  67  63     2.286044084790    97.78370722   197.07096158
 C     80  79  67     2.660432264810   176.98530816   266.17152797
 C     81  80  79     2.612983475168   119.99928836   323.00062121
 C     82  81  80     2.643897309429   121.02038581   178.13190508
 C     83  82  81     2.593886552544   120.98664265   359.10029671
 C     84  83  82     2.659096715982   119.98107542     0.72260114
 C     85  84  83     2.670431883071   122.82652558   181.17160845
 C     86  85  84     2.578957248879   119.87656365   179.87931546
 N     87  86  85     2.561639790353   122.03273547     1.15734607
 C     88  87  86     2.491953708091   119.91118056   358.46907829
 C     89  88  87     2.652797607375   122.64206723     0.19443163
 H     82  81  80     2.039563487238   119.43189633   358.22211301
 H     83  82  81     2.039439808904   119.03253021   179.69084738
 H     84  83  82     2.038334337599   120.79331232   180.93442392
 H     86  85  84     2.037663448394   119.39737525     0.26461741
 H     87  86  85     2.056679216416   121.69203120   181.22208892
 H     89  88  87     2.056210476620   117.17884967   179.94157644
 C     79  67  63     2.663879401613    79.92166385    16.86638693
 C     97  79  67     2.642255714249   120.31460022   285.66898183
 C     98  97  79     2.604383824263   120.13764132   177.78495318
 C     99  98  97     2.640324245257   120.56788313     0.13863179
 C    100  99  98     2.638225343442   119.13654334     0.94955398
 C    101 100  99     2.607084652406   120.57142079   358.85676218
 H     98  97  79     2.036913999150   119.49508498   357.32181458
 H     99  98  97     2.039076224534   119.49856293   178.12860157
 H    101 100  99     2.038987868776   119.98129493   180.67404153
 H    102 101 100     2.039262205710   120.22820582   180.74797876
 C    100  99  98     2.775556776259   120.15902448   180.92292625
 C    107 100  99     2.642872726557   122.13215705   220.51373061
 C    108 107 100     2.616479899590   119.59765300   178.61221966
 C    109 108 107     2.617452437163   119.17374278   359.00684335
 N    110 109 108     2.521516715194   121.26501607     1.34342792
 C    111 110 109     2.520782955263   120.16620853   359.93725272
 H    108 107 100     2.038741441938   120.07438603   359.86940337
 H    109 108 107     2.036982520808   120.74981749   179.97292347
 H    110 109 108     2.053820792065   122.01587990   181.20381619
 H    112 111 110     2.058274411275   116.12580558   177.20971283
 C    103  98  97     8.535587089874   146.72821942   228.60653756
 C    117 103  98     2.285586331313   110.39763949   144.37608970
 C    118 117 103     2.664125294145   175.93228787   188.83429596
 C    119 118 117     2.612050883188   119.62515072    28.92978585
 C    120 119 118     2.644531371907   121.03233259   182.64589860
 C    121 120 119     2.593053597390   120.94681212     0.58102226
 C    122 121 120     2.658652742806   119.96706051   358.91621944
 C    123 122 121     2.670458046457   122.74899541   179.61367446
 C    124 123 122     2.578561334671   119.86667265   179.07331217
 N    125 124 123     2.562507867231   122.02920966   358.90964229
 C    126 125 124     2.491914127261   119.94822107     2.09014702
 C    127 126 125     2.654546333395   122.58408681   359.31960117
 H    120 119 118     2.039471746946   119.42063950     1.95717806
 H    121 120 119     2.039585233259   119.02019028   179.92184056
 H    122 121 120     2.038410546107   120.81115600   178.95392062
 H    124 123 122     2.037780049593   119.39745729   359.01130398
 H    125 124 123     2.057118182146   121.66032228   178.99356220
 H    127 126 125     2.055896609730   117.21946380   179.73644530
 C    117 103  98     2.667501727031    68.13402425   322.93466629
 C    135 117 103     2.640868777244   120.42065591    84.14240092
 C    136 135 117     2.607508741720   120.03683567   181.70095980
 C    137 136 135     2.637955309522   120.52532440     0.34961323
 C    138 137 136     2.638622902300   119.23918937   358.23999924
 C    139 138 137     2.605922937992   120.50773286     1.40977315
 H    136 135 117     2.038777612211   119.70603523     1.14158785
 H    137 136 135     2.038956825135   119.49413269   178.43616204
 H    139 138 137     2.037475367033   119.78442675   183.61673037
 H    140 139 138     2.037666909636   120.34093648   181.19695207
 C    138 137 136     2.777530637945   120.14902105   176.71619478
 C    145 138 137     2.642378679552   122.20520190    42.23538060
 C    146 145 138     2.616730969522   119.55070535   181.85402975
 C    147 146 145     2.617453317155   119.16771494     1.48008697
 N    148 147 146     2.521904642192   121.31430666   358.88843567
 C    149 148 147     2.520801640795   120.09420058   359.42568516
 H    146 145 138     2.038801284563   120.03241493     2.86364629
 H    147 146 145     2.036869599533   120.74883222   180.86748793
 H    148 147 146     2.053875918147   122.00071696   178.91368188
 H    150 149 148     2.058601168815   116.14776613   181.06909838

---------------------
BASIS SET INFORMATION
---------------------
There are 4 groups of distinct atoms

 Group   1 Type Pd  : 7s7p6d contracted to 6s4p3d pattern {211111/4111/411}
 Group   2 Type C   : 11s6p1d contracted to 5s3p1d pattern {62111/411/1}
 Group   3 Type N   : 11s6p1d contracted to 5s3p1d pattern {62111/411/1}
 Group   4 Type H   : 5s contracted to 3s pattern {311}

Atom   0Pd   basis set group =>   1
Atom   1Pd   basis set group =>   1
Atom   2C    basis set group =>   2
Atom   3C    basis set group =>   2
Atom   4C    basis set group =>   2
Atom   5C    basis set group =>   2
Atom   6C    basis set group =>   2
Atom   7C    basis set group =>   2
Atom   8C    basis set group =>   2
Atom   9C    basis set group =>   2
Atom  10C    basis set group =>   2
Atom  11N    basis set group =>   3
Atom  12C    basis set group =>   2
Atom  13C    basis set group =>   2
Atom  14H    basis set group =>   4
Atom  15H    basis set group =>   4
Atom  16H    basis set group =>   4
Atom  17H    basis set group =>   4
Atom  18H    basis set group =>   4
Atom  19H    basis set group =>   4
Atom  20C    basis set group =>   2
Atom  21C    basis set group =>   2
Atom  22C    basis set group =>   2
Atom  23C    basis set group =>   2
Atom  24C    basis set group =>   2
Atom  25C    basis set group =>   2
Atom  26H    basis set group =>   4
Atom  27H    basis set group =>   4
Atom  28H    basis set group =>   4
Atom  29H    basis set group =>   4
Atom  30C    basis set group =>   2
Atom  31C    basis set group =>   2
Atom  32C    basis set group =>   2
Atom  33C    basis set group =>   2
Atom  34N    basis set group =>   3
Atom  35C    basis set group =>   2
Atom  36H    basis set group =>   4
Atom  37H    basis set group =>   4
Atom  38H    basis set group =>   4
Atom  39H    basis set group =>   4
Atom  40C    basis set group =>   2
Atom  41C    basis set group =>   2
Atom  42C    basis set group =>   2
Atom  43C    basis set group =>   2
Atom  44C    basis set group =>   2
Atom  45C    basis set group =>   2
Atom  46C    basis set group =>   2
Atom  47C    basis set group =>   2
Atom  48C    basis set group =>   2
Atom  49N    basis set group =>   3
Atom  50C    basis set group =>   2
Atom  51C    basis set group =>   2
Atom  52H    basis set group =>   4
Atom  53H    basis set group =>   4
Atom  54H    basis set group =>   4
Atom  55H    basis set group =>   4
Atom  56H    basis set group =>   4
Atom  57H    basis set group =>   4
Atom  58C    basis set group =>   2
Atom  59C    basis set group =>   2
Atom  60C    basis set group =>   2
Atom  61C    basis set group =>   2
Atom  62C    basis set group =>   2
Atom  63C    basis set group =>   2
Atom  64H    basis set group =>   4
Atom  65H    basis set group =>   4
Atom  66H    basis set group =>   4
Atom  67H    basis set group =>   4
Atom  68C    basis set group =>   2
Atom  69C    basis set group =>   2
Atom  70C    basis set group =>   2
Atom  71C    basis set group =>   2
Atom  72N    basis set group =>   3
Atom  73C    basis set group =>   2
Atom  74H    basis set group =>   4
Atom  75H    basis set group =>   4
Atom  76H    basis set group =>   4
Atom  77H    basis set group =>   4
Atom  78C    basis set group =>   2
Atom  79C    basis set group =>   2
Atom  80C    basis set group =>   2
Atom  81C    basis set group =>   2
Atom  82C    basis set group =>   2
Atom  83C    basis set group =>   2
Atom  84C    basis set group =>   2
Atom  85C    basis set group =>   2
Atom  86C    basis set group =>   2
Atom  87N    basis set group =>   3
Atom  88C    basis set group =>   2
Atom  89C    basis set group =>   2
Atom  90H    basis set group =>   4
Atom  91H    basis set group =>   4
Atom  92H    basis set group =>   4
Atom  93H    basis set group =>   4
Atom  94H    basis set group =>   4
Atom  95H    basis set group =>   4
Atom  96C    basis set group =>   2
Atom  97C    basis set group =>   2
Atom  98C    basis set group =>   2
Atom  99C    basis set group =>   2
Atom 100C    basis set group =>   2
Atom 101C    basis set group =>   2
Atom 102H    basis set group =>   4
Atom 103H    basis set group =>   4
Atom 104H    basis set group =>   4
Atom 105H    basis set group =>   4
Atom 106C    basis set group =>   2
Atom 107C    basis set group =>   2
Atom 108C    basis set group =>   2
Atom 109C    basis set group =>   2
Atom 110N    basis set group =>   3
Atom 111C    basis set group =>   2
Atom 112H    basis set group =>   4
Atom 113H    basis set group =>   4
Atom 114H    basis set group =>   4
Atom 115H    basis set group =>   4
Atom 116C    basis set group =>   2
Atom 117C    basis set group =>   2
Atom 118C    basis set group =>   2
Atom 119C    basis set group =>   2
Atom 120C    basis set group =>   2
Atom 121C    basis set group =>   2
Atom 122C    basis set group =>   2
Atom 123C    basis set group =>   2
Atom 124C    basis set group =>   2
Atom 125N    basis set group =>   3
Atom 126C    basis set group =>   2
Atom 127C    basis set group =>   2
Atom 128H    basis set group =>   4
Atom 129H    basis set group =>   4
Atom 130H    basis set group =>   4
Atom 131H    basis set group =>   4
Atom 132H    basis set group =>   4
Atom 133H    basis set group =>   4
Atom 134C    basis set group =>   2
Atom 135C    basis set group =>   2
Atom 136C    basis set group =>   2
Atom 137C    basis set group =>   2
Atom 138C    basis set group =>   2
Atom 139C    basis set group =>   2
Atom 140H    basis set group =>   4
Atom 141H    basis set group =>   4
Atom 142H    basis set group =>   4
Atom 143H    basis set group =>   4
Atom 144C    basis set group =>   2
Atom 145C    basis set group =>   2
Atom 146C    basis set group =>   2
Atom 147C    basis set group =>   2
Atom 148N    basis set group =>   3
Atom 149C    basis set group =>   2
Atom 150H    basis set group =>   4
Atom 151H    basis set group =>   4
Atom 152H    basis set group =>   4
Atom 153H    basis set group =>   4

-------------------------
BASIS SET IN INPUT FORMAT
-------------------------

 # Basis set for element : H 
 NewGTO H 
 S 3 
   1      34.0613410000      0.0254393072
   2       5.1235746000      0.1900859489
   3       1.1646626000      0.8524411301
 S 1 
   1       0.3272304100      1.0000000000
 S 1 
   1       0.1030724100      1.0000000000
  end;

 # Basis set for element : C 
 NewGTO C 
 S 6 
   1   13575.3496820000      0.0006064549
   2    2035.2333680000      0.0046979088
   3     463.2256235900      0.0243324776
   4     131.2001959800      0.0973999683
   5      42.8530158910      0.3019558425
   6      15.5841857660      0.6623360915
 S 2 
   1       6.2067138508      0.6559530854
   2       2.5764896527      0.3758563329
 S 1 
   1       0.5769633942      1.0000000000
 S 1 
   1       0.2297283136      1.0000000000
 S 1 
   1       0.0951644400      1.0000000000
 P 4 
   1      34.6972322440      0.0113272200
   2       7.9582622826      0.0761696592
   3       2.3780826883      0.3019225220
   4       0.8143320818      0.7278502735
 P 1 
   1       0.2888754725      1.0000000000
 P 1 
   1       0.1005682367      1.0000000000
 D 1 
   1       0.8000000000      1.0000000000
  end;

 # Basis set for element : N 
 NewGTO N 
 S 6 
   1   19730.8006470000      0.0005862639
   2    2957.8958745000      0.0045428821
   3     673.2213359500      0.0235584136
   4     190.6824949400      0.0947091933
   5      62.2954418980      0.2971978492
   6      22.6541611820      0.6691624689
 S 2 
   1       8.9791477428      0.6459668363
   2       3.6863002370      0.3870057440
 S 1 
   1       0.8466007680      1.0000000000
 S 1 
   1       0.3364713377      1.0000000000
 S 1 
   1       0.1364765367      1.0000000000
 P 4 
   1      49.2003805100      0.0114488252
   2      11.3467905370      0.0784223379
   3       3.4273972411      0.3081809474
   4       1.1785525134      0.7202719637
 P 1 
   1       0.4164220497      1.0000000000
 P 1 
   1       0.1426082601      1.0000000000
 D 1 
   1       0.8000000000      1.0000000000
  end;

 # Basis set for element : Pd
 NewGTO Pd
 S 2 
   1      18.0000000000     -0.8955869481
   2      14.6621343080      1.8822771923
 S 1 
   1       5.6388709265      1.0000000000
 S 1 
   1       1.3198953252      1.0000000000
 S 1 
   1       0.5781790851      1.0000000000
 S 1 
   1       0.1035216624      1.0000000000
 S 1 
   1       0.0375484427      1.0000000000
 P 4 
   1      12.5528993000      0.0701895210
   2       7.2444496380     -0.2749252830
   3       1.8905941078      0.5623121361
   4       0.9073716876      0.5736959368
 P 1 
   1       0.4087721081      1.0000000000
 P 1 
   1       0.1150000000      1.0000000000
 P 1 
   1       0.0370000000      1.0000000000
 D 4 
   1      22.3574575750      0.0063445039
   2      10.6825263820     -0.0225156052
   3       2.4858232550      0.3884291800
   4       1.0735333903      0.6828976806
 D 1 
   1       0.4261384285      1.0000000000
 D 1 
   1       0.1504635538      1.0000000000
  end;

---------------------------------
AUXILIARY/J BASIS SET INFORMATION
---------------------------------
There are 4 groups of distinct atoms

 Group   1 Type Pd  : 11s5p5d3f3g contracted to 8s5p5d2f3g pattern {41111111/11111/11111/21/111}
 Group   2 Type C   : 8s3p3d contracted to 6s3p3d pattern {311111/111/111}
 Group   3 Type N   : 8s3p3d contracted to 6s3p3d pattern {311111/111/111}
 Group   4 Type H   : 5s2p contracted to 3s1p pattern {311/2}

Atom   0Pd   basis set group =>   1
Atom   1Pd   basis set group =>   1
Atom   2C    basis set group =>   2
Atom   3C    basis set group =>   2
Atom   4C    basis set group =>   2
Atom   5C    basis set group =>   2
Atom   6C    basis set group =>   2
Atom   7C    basis set group =>   2
Atom   8C    basis set group =>   2
Atom   9C    basis set group =>   2
Atom  10C    basis set group =>   2
Atom  11N    basis set group =>   3
Atom  12C    basis set group =>   2
Atom  13C    basis set group =>   2
Atom  14H    basis set group =>   4
Atom  15H    basis set group =>   4
Atom  16H    basis set group =>   4
Atom  17H    basis set group =>   4
Atom  18H    basis set group =>   4
Atom  19H    basis set group =>   4
Atom  20C    basis set group =>   2
Atom  21C    basis set group =>   2
Atom  22C    basis set group =>   2
Atom  23C    basis set group =>   2
Atom  24C    basis set group =>   2
Atom  25C    basis set group =>   2
Atom  26H    basis set group =>   4
Atom  27H    basis set group =>   4
Atom  28H    basis set group =>   4
Atom  29H    basis set group =>   4
Atom  30C    basis set group =>   2
Atom  31C    basis set group =>   2
Atom  32C    basis set group =>   2
Atom  33C    basis set group =>   2
Atom  34N    basis set group =>   3
Atom  35C    basis set group =>   2
Atom  36H    basis set group =>   4
Atom  37H    basis set group =>   4
Atom  38H    basis set group =>   4
Atom  39H    basis set group =>   4
Atom  40C    basis set group =>   2
Atom  41C    basis set group =>   2
Atom  42C    basis set group =>   2
Atom  43C    basis set group =>   2
Atom  44C    basis set group =>   2
Atom  45C    basis set group =>   2
Atom  46C    basis set group =>   2
Atom  47C    basis set group =>   2
Atom  48C    basis set group =>   2
Atom  49N    basis set group =>   3
Atom  50C    basis set group =>   2
Atom  51C    basis set group =>   2
Atom  52H    basis set group =>   4
Atom  53H    basis set group =>   4
Atom  54H    basis set group =>   4
Atom  55H    basis set group =>   4
Atom  56H    basis set group =>   4
Atom  57H    basis set group =>   4
Atom  58C    basis set group =>   2
Atom  59C    basis set group =>   2
Atom  60C    basis set group =>   2
Atom  61C    basis set group =>   2
Atom  62C    basis set group =>   2
Atom  63C    basis set group =>   2
Atom  64H    basis set group =>   4
Atom  65H    basis set group =>   4
Atom  66H    basis set group =>   4
Atom  67H    basis set group =>   4
Atom  68C    basis set group =>   2
Atom  69C    basis set group =>   2
Atom  70C    basis set group =>   2
Atom  71C    basis set group =>   2
Atom  72N    basis set group =>   3
Atom  73C    basis set group =>   2
Atom  74H    basis set group =>   4
Atom  75H    basis set group =>   4
Atom  76H    basis set group =>   4
Atom  77H    basis set group =>   4
Atom  78C    basis set group =>   2
Atom  79C    basis set group =>   2
Atom  80C    basis set group =>   2
Atom  81C    basis set group =>   2
Atom  82C    basis set group =>   2
Atom  83C    basis set group =>   2
Atom  84C    basis set group =>   2
Atom  85C    basis set group =>   2
Atom  86C    basis set group =>   2
Atom  87N    basis set group =>   3
Atom  88C    basis set group =>   2
Atom  89C    basis set group =>   2
Atom  90H    basis set group =>   4
Atom  91H    basis set group =>   4
Atom  92H    basis set group =>   4
Atom  93H    basis set group =>   4
Atom  94H    basis set group =>   4
Atom  95H    basis set group =>   4
Atom  96C    basis set group =>   2
Atom  97C    basis set group =>   2
Atom  98C    basis set group =>   2
Atom  99C    basis set group =>   2
Atom 100C    basis set group =>   2
Atom 101C    basis set group =>   2
Atom 102H    basis set group =>   4
Atom 103H    basis set group =>   4
Atom 104H    basis set group =>   4
Atom 105H    basis set group =>   4
Atom 106C    basis set group =>   2
Atom 107C    basis set group =>   2
Atom 108C    basis set group =>   2
Atom 109C    basis set group =>   2
Atom 110N    basis set group =>   3
Atom 111C    basis set group =>   2
Atom 112H    basis set group =>   4
Atom 113H    basis set group =>   4
Atom 114H    basis set group =>   4
Atom 115H    basis set group =>   4
Atom 116C    basis set group =>   2
Atom 117C    basis set group =>   2
Atom 118C    basis set group =>   2
Atom 119C    basis set group =>   2
Atom 120C    basis set group =>   2
Atom 121C    basis set group =>   2
Atom 122C    basis set group =>   2
Atom 123C    basis set group =>   2
Atom 124C    basis set group =>   2
Atom 125N    basis set group =>   3
Atom 126C    basis set group =>   2
Atom 127C    basis set group =>   2
Atom 128H    basis set group =>   4
Atom 129H    basis set group =>   4
Atom 130H    basis set group =>   4
Atom 131H    basis set group =>   4
Atom 132H    basis set group =>   4
Atom 133H    basis set group =>   4
Atom 134C    basis set group =>   2
Atom 135C    basis set group =>   2
Atom 136C    basis set group =>   2
Atom 137C    basis set group =>   2
Atom 138C    basis set group =>   2
Atom 139C    basis set group =>   2
Atom 140H    basis set group =>   4
Atom 141H    basis set group =>   4
Atom 142H    basis set group =>   4
Atom 143H    basis set group =>   4
Atom 144C    basis set group =>   2
Atom 145C    basis set group =>   2
Atom 146C    basis set group =>   2
Atom 147C    basis set group =>   2
Atom 148N    basis set group =>   3
Atom 149C    basis set group =>   2
Atom 150H    basis set group =>   4
Atom 151H    basis set group =>   4
Atom 152H    basis set group =>   4
Atom 153H    basis set group =>   4

-------------------------------------
AUXILIARY/J BASIS SET IN INPUT FORMAT
-------------------------------------

 # Auxiliary/J basis set for element : H 
 NewAuxJGTO H 
 S 3 
   1      15.6752927000      0.1007184237
   2       3.6063578000      0.3404257499
   3       1.2080016000      0.6491996172
 S 1 
   1       0.4726794000      1.0000000000
 S 1 
   1       0.2018100000      1.0000000000
 P 2 
   1       2.0281365000      0.5596620919
   2       0.5358730000      0.5596620919
  end;

 # Auxiliary/J basis set for element : C 
 NewAuxJGTO C 
 S 3 
   1     459.7023860000      0.1098751775
   2     132.9577920000      0.2844848472
   3      41.5658170000      0.6964707648
 S 1 
   1      13.9155610000      1.0000000000
 S 1 
   1       4.9305290000     -1.0000000000
 S 1 
   1       1.8229480000      1.0000000000
 S 1 
   1       0.6920510000      1.0000000000
 S 1 
   1       0.2650930000      1.0000000000
 P 1 
   1       0.3278473579      1.0000000000
 P 1 
   1       0.7868336591      1.0000000000
 P 1 
   1       1.9710183160      1.0000000000
 D 1 
   1       4.0133010000      1.0000000000
 D 1 
   1       1.2475050000      1.0000000000
 D 1 
   1       0.4081480000      1.0000000000
  end;

 # Auxiliary/J basis set for element : N 
 NewAuxJGTO N 
 S 3 
   1     680.5425300000      0.1043830093
   2     196.7562140000      0.2751518961
   3      61.2707930000      0.7090825511
 S 1 
   1      20.3644630000      1.0000000000
 S 1 
   1       7.1424770000     -1.0000000000
 S 1 
   1       2.6080260000      1.0000000000
 S 1 
   1       0.9763730000      1.0000000000
 S 1 
   1       0.3686330000      1.0000000000
 P 1 
   1       0.4707391941      1.0000000000
 P 1 
   1       1.1297740658     -1.0000000000
 P 1 
   1       2.8300840347      1.0000000000
 D 1 
   1       5.8329865000      1.0000000000
 D 1 
   1       1.7326865000      1.0000000000
 D 1 
   1       0.5452425000      1.0000000000
  end;

 # Auxiliary/J basis set for element : Pd
 NewAuxJGTO Pd
 S 4 
   1      51.0211803000      0.0154414011
   2      17.6543867000     -0.3899991562
   3      10.3849330000      1.7000917225
   4       6.2315704000     -2.2542519748
 S 1 
   1       3.6656295000     -1.0000000000
 S 1 
   1       2.1995933000      1.0000000000
 S 1 
   1       1.2683839000      1.0000000000
 S 1 
   1       0.7461081000      1.0000000000
 S 1 
   1       0.4477087000      1.0000000000
 S 1 
   1       0.2581689000      1.0000000000
 S 1 
   1       0.1518640000      1.0000000000
 P 1 
   1       5.6999676000      1.0000000000
 P 1 
   1       2.5155374000     -1.0000000000
 P 1 
   1       1.1229524000      1.0000000000
 P 1 
   1       0.5047808000     -1.0000000000
 P 1 
   1       0.2274325000     -1.0000000000
 D 1 
   1       3.8006002000      1.0000000000
 D 1 
   1       1.5882692000     -1.0000000000
 D 1 
   1       0.6550157000     -1.0000000000
 D 1 
   1       0.2680210000      1.0000000000
 D 1 
   1       0.1093843000     -1.0000000000
 F 2 
   1       2.0106185000     -1.3134732431
   2       0.8268460000      0.9210621264
 F 1 
   1       0.3451253000      1.0000000000
 G 1 
   1       7.5375072000      1.0000000000
 G 1 
   1       2.7664349000      1.0000000000
 G 1 
   1       1.0133462000      1.0000000000
  end;

-------------------------
ECP PARAMETER INFORMATION
-------------------------

 Group 1, Type Pd ECP Def2-ECP (replacing 28 core electrons, lmax=3)

Atom   0Pd   ECP group =>   1
Atom   1Pd   ECP group =>   1


-------------------------
ECP BASIS IN INPUT FORMAT
-------------------------

 #ECP Def2-ECP
 NewECP Pd
   N_core 28
   lmax f
   s 4
     1      12.4300000000    240.2290403000  2
     2       6.1707594000     35.1719435000  2
     3      13.2700000000     31.9295543000  2
     4       6.6300000000      5.3982169000  2
   p 4
     1      11.0800000000    170.4172760000  2
     2       5.8295541000     28.4721329000  2
     3      13.2700000000     31.9295543000  2
     4       6.6300000000      5.3982169000  2
   d 4
     1       9.5100000000     69.0138449000  2
     2       4.1397811000     11.7508616000  2
     3      13.2700000000     31.9295543000  2
     4       6.6300000000      5.3982169000  2
   f 2
     1      13.2700000000    -31.9295543000  2
     2       6.6300000000     -5.3982169000  2
 End




           ************************************************************
           *        Program running with 32 parallel MPI-processes    *
           *              working on a common directory               *
           ************************************************************
------------------------------------------------------------------------------
                           ORCA GTO INTEGRAL CALCULATION
                           -- RI-GTO INTEGRALS CHOSEN --
------------------------------------------------------------------------------

                         BASIS SET STATISTICS AND STARTUP INFO

Gaussian basis set:
 # of primitive gaussian shells          ... 2048
 # of primitive gaussian functions       ... 3660
 # of contracted shells                  ... 1058
 # of contracted basis functions         ... 2058
 Highest angular momentum                ...    2
 Maximum contraction depth               ...    6
Auxiliary gaussian basis set:
 # of primitive gaussian shells          ... 1790
 # of primitive gaussian functions       ... 3886
 # of contracted shells                  ... 1422
 # of contracted aux-basis functions     ... 3394
 Highest angular momentum                ...    4
 Maximum contraction depth               ...    4
Ratio of auxiliary to basis functions    ...  1.65
Integral package used                  ... LIBINT
 One Electron integrals                  
   ECP integrals                         ... done
 Ordering auxiliary basis shells         ... done
 Integral threshhold             Thresh  ...  2.500e-11
 Primitive cut-off               TCut    ...  2.500e-12
 Pre-screening matrix                    ... done
 Shell pair data                         ... 
 Ordering of the shell pairs             ... done (   0.046 sec) 213328 of 560211 pairs
 Determination of significant pairs      ... done (   0.001 sec)
 Creation of shell pair data             ... done (   0.021 sec)
 Storage of shell pair data              ... done (   0.038 sec)
 Shell pair data done in (   0.105 sec)
 Computing two index integrals           ... done
 Cholesky decomposition of the V-matrix  ... done


Timings:
 Total evaluation time                   ...   8.459 sec (  0.141 min)
 One electron matrix time                ...   5.346 sec (  0.089 min) = 63.2%
 Schwartz matrix evaluation time         ...   2.178 sec (  0.036 min) = 25.7%
 Two index repulsion integral time       ...   0.220 sec (  0.004 min) =  2.6%
 Cholesky decomposition of V             ...   0.582 sec (  0.010 min) =  6.9%
 Three index repulsion integral time     ...   0.000 sec (  0.000 min) =  0.0%



           ************************************************************
           *        Program running with 32 parallel MPI-processes    *
           *              working on a common directory               *
           ************************************************************
-------------------------------------------------------------------------------
                                 ORCA SCF
-------------------------------------------------------------------------------

------------
SCF SETTINGS
------------
Hamiltonian:
 Density Functional     Method          .... DFT(GTOs)
 Exchange Functional    Exchange        .... B973C
 Correlation Functional Correlation     .... B973C
 Gradients option       PostSCFGGA      .... off
   Density functional embedding theory  .... OFF
 RI-approximation to the Coulomb term is turned on
   Number of auxiliary basis functions  .... 3394


General Settings:
 Integral files         IntName         .... _s_4b1_c_B97-3c
 Hartree-Fock type      HFTyp           .... RHF
 Total Charge           Charge          ....    4
 Multiplicity           Mult            ....    1
 Number of Electrons    NEL             ....  672
 Basis Dimension        Dim             .... 2058
 Nuclear Repulsion      ENuc            ....  18191.9396402916 Eh

Convergence Acceleration:
 DIIS                   CNVDIIS         .... on
   Start iteration      DIISMaxIt       ....     0
   Startup error        DIISStart       ....  0.200000
   # of expansion vecs  DIISMaxEq       ....     5
   Bias factor          DIISBfac        ....   1.050
   Max. coefficient     DIISMaxC        ....  10.000
 Newton-Raphson         CNVNR           .... off
 SOSCF                  CNVSOSCF        .... off
 Level Shifting         CNVShift        .... on
   Level shift para.    LevelShift      ....    0.2500
   Turn off err/grad.   ShiftErr        ....    0.0000
 Zerner damping         CNVZerner       .... off
 Static damping         CNVDamp         .... on
   Fraction old density DampFac         ....    0.8500
   Max. Damping (<1)    DampMax         ....    0.9800
   Min. Damping (>=0)   DampMin         ....    0.0000
   Turn off err/grad.   DampErr         ....    0.0300
 Fernandez-Rico         CNVRico         .... off

SCF Procedure:
 Maximum # iterations   MaxIter         ....  2000
 SCF integral mode      SCFMode         .... Direct
   Integral package                     .... LIBINT
 Reset frequency        DirectResetFreq ....    20
 Integral Threshold     Thresh          ....  2.500e-11 Eh
 Primitive CutOff       TCut            ....  2.500e-12 Eh

Convergence Tolerance:
 Convergence Check Mode ConvCheckMode   .... Total+1el-Energy
 Convergence forced     ConvForced      .... 0
 Energy Change          TolE            ....  1.000e-08 Eh
 1-El. energy change                    ....  1.000e-05 Eh
 DIIS Error             TolErr          ....  5.000e-07


Diagonalization of the overlap matrix:
Smallest eigenvalue                        ... 5.784e-06
Time for diagonalization                   ...    0.620 sec
Threshold for overlap eigenvalues          ... 1.000e-08
Number of eigenvalues below threshold      ... 0
Time for construction of square roots      ...    0.493 sec
Total time needed                          ...    1.121 sec

--------------------------------
INITIAL GUESS: MINIMAL BASIS EHT
--------------------------------
The minimal basis has 562 functions
EHT matrix was diagonalized
Basis set overlap was calculated now projecting the orbitals
Using GuessMode=FMatrix for the initial guess
C*T matrix was formed
Effective Fockian was calculated
Effective Fockian was diagonalized
Initial density was built
                      ------------------
                      INITIAL GUESS DONE
                      ------------------
-------------------
DFT GRID GENERATION
-------------------

General Integration Accuracy     IntAcc      ...  5.340
Radial Grid Type                 RadialGrid  ... Gauss-Chebyshev
Angular Grid (max. acc.)         AngularGrid ... Lebedev-590
Angular grid pruning method      GridPruning ... 3 (G Style)
Weight generation scheme         WeightScheme... Becke
Basis function cutoff            BFCut       ...    1.0000e-11
Integration weight cutoff        WCut        ...    1.0000e-14
Grids for H and He will be reduced by one unit

# of grid points (after initial pruning)     ... 2250644 (   0.0 sec)
# of grid points (after weights+screening)   ... 1837732 (   9.0 sec)
nearest neighbour list constructed           ...    0.0 sec
Grid point re-assignment to atoms done       ...    0.3 sec
Grid point division into batches done        ...   18.7 sec
Reduced shell lists constructed in   20.1 sec

Total number of grid points                  ...  1837732
Total number of batches                      ...    28795
Average number of points per batch           ...       63
Average number of grid points per atom       ...    11933
Average number of shells per batch           ...   235.44 (22.25%)
Average number of basis functions per batch  ...   460.38 (22.37%)
Average number of large shells per batch     ...   122.22 (51.91%)
Average number of large basis fcns per batch ...   245.55 (53.34%)
Maximum spatial batch extension              ...  15.96,  6.11, 13.03 au
Average spatial batch extension              ...   0.03,  0.03,  0.03 au

Time for grid setup =   29.910 sec

--------------
SCF ITERATIONS
--------------
ITER       Energy         Delta-E        Max-DP      RMS-DP      [F,P]     Damp
               ***  Starting incremental Fock matrix formation  ***
  0  -4032.5818459371   0.00000000000017.93304759  0.07735930  5.1898883 0.8500
  1  -4043.5579690703 -10.976123133245 2.04602832  0.01112652  4.5001755 0.8500
                               ***Turning on DIIS***
  2  -4050.4582254109  -6.900256340596 2.13094087  0.00971629  3.8618621 0.8500
  3  -4055.0308423305  -4.572616919562 2.29448485  0.00930450  3.3039389 0.8500
  4  -4058.5069718475  -3.476129517017 1.93460398  0.00801708  2.8025118 0.8500
  5  -4061.2351710383  -2.728199190831 1.63899090  0.00680826  2.3750036 0.8500
  6  -4063.6776113001  -2.442440261788 1.40597369  0.00580368  2.0172267 0.8500
  7  -4065.8000728133  -2.122461513212 1.20444618  0.00492097  1.7145796 0.8500
  8  -4067.6337375944  -1.833664781068 1.03111094  0.00422327  1.4600648 0.8500
  9  -4069.1310035545  -1.497265960050 0.86824940  0.00358881  1.2403114 0.8500
 10  -4070.3719259213  -1.240922366807 0.73425915  0.00303785  1.0527233 0.8500
 11  -4071.4317685002  -1.059842578961 0.62683302  0.00257952  0.8945691 0.8500
 12  -4072.3380077229  -0.906239222713 0.53662522  0.00219795  0.7608410 0.8500
 13  -4073.1056418088  -0.767634085849 0.45662125  0.00187413  0.6470754 0.8500
 14  -4073.7513109084  -0.645669099613 0.38623568  0.00159180  0.5497475 0.8500
 15  -4074.2968703408  -0.545559432405 0.32731449  0.00134922  0.4669487 0.8500
 16  -4074.7605821916  -0.463711850778 0.27900791  0.00114617  0.3969017 0.8500
 17  -4075.1547199279  -0.394137736301 0.23825976  0.00097617  0.3375083 0.8500
 18  -4075.4889790558  -0.334259127962 0.20266338  0.00083100  0.2869180 0.8500
 19  -4075.7722607491  -0.283281693286 0.17176700  0.00070649  0.2437897 0.8500
               *** Restarting incremental Fock matrix formation ***
                                   *** Resetting DIIS ***
 20  -4076.0126664387  -0.240405689547 0.14704420  0.00059384  0.2071524 0.8500
 21  -4076.2175600894  -0.204893650691 0.12493321  0.00051044  0.1765499 0.8500
 22  -4076.3908853635  -0.173325274129 0.10511930  0.00043616  0.1499074 0.8500
 23  -4076.5377303369  -0.146844973384 0.08906721  0.00036924  0.1270959 0.8500
 24  -4076.6627095306  -0.124979193755 0.07599804  0.00031360  0.1079703 0.8500
 25  -4076.7690099746  -0.106300443960 0.06506145  0.00026667  0.0918049 0.8500
 26  -4076.8593859430  -0.090375968426 0.05543819  0.00022781  0.0781384 0.8500
 27  -4076.9361364759  -0.076750532840 0.04696792  0.00019414  0.0664105 0.8500
 28  -4077.0013286375  -0.065192161655 0.03981892  0.00016468  0.0563850 0.8500
 29  -4077.0567493471  -0.055420709596 0.03391858  0.00013985  0.0479101 0.8500
 30  -4077.1038651587  -0.047115811638 0.02894833  0.00011927  0.0407435 0.8500
 31  -4077.1439089031  -0.040043744339 0.02468979  0.00010199  0.0346490 0.8500
 32  -4077.1779372729  -0.034028369835 0.13959299  0.00057977  0.0294430 0.0000
 33  -4077.3707102290  -0.192772956081 0.00421519  0.00002323  0.0009117 0.0000
 34  -4077.3707033272   0.000006901817 0.00149437  0.00000600  0.0015945 0.0000
 35  -4077.3707128661  -0.000009538915 0.00139913  0.00000411  0.0004183 0.0000
 36  -4077.3707141021  -0.000001236007 0.00127853  0.00000708  0.0001219 0.0000
 37  -4077.3707141671  -0.000000064992 0.00137636  0.00000552  0.0000248 0.0000
 38  -4077.3707141433   0.000000023836 0.00111638  0.00000388  0.0000075 0.0000
 39  -4077.3707141968  -0.000000053507 0.00701159  0.00003689  0.0000023 0.0000
               *** Restarting incremental Fock matrix formation ***
                                   *** Resetting DIIS ***
 40  -4077.3707149249  -0.000000728123 0.00190751  0.00001054  0.0000032 0.0000
 41  -4077.3707149952  -0.000000070311 0.00060505  0.00000211  0.0000052 0.0000
                            ***DIIS convergence achieved***

               *****************************************************
               *                     SUCCESS                       *
               *           SCF CONVERGED AFTER  42 CYCLES          *
               *****************************************************


----------------
TOTAL SCF ENERGY
----------------

Total Energy       :        -4077.37071507 Eh         -110950.89779 eV

Components:
Nuclear Repulsion  :        18191.93964029 Eh          495027.84434 eV
Electronic Energy  :       -22269.31035537 Eh         -605978.74213 eV
One Electron Energy:       -41714.87704709 Eh        -1135119.51281 eV
Two Electron Energy:        19445.56669172 Eh          529140.77068 eV

Virial components:
Potential Energy   :        -7981.67108549 Eh         -217192.31208 eV
Kinetic Energy     :         3904.30037041 Eh          106241.41429 eV
Virial Ratio       :            2.04432813


DFT components:
N(Alpha)           :      335.999939511067 electrons
N(Beta)            :      335.999939511067 electrons
N(Total)           :      671.999879022134 electrons
E(XC)              :     -575.998139618047 Eh       
DFET-embed. en.    :        0.000000000000 Eh       

---------------
SCF CONVERGENCE
---------------

  Last Energy change         ...   -7.8846e-08  Tolerance :   1.0000e-08
  Last MAX-Density change    ...    3.3997e-04  Tolerance :   1.0000e-07
[...]
 30 C      5.9949     6.0000     0.0051     3.7647     3.7647    -0.0000
 31 C      6.1713     6.0000    -0.1713     4.0090     4.0090    -0.0000
 32 C      6.0609     6.0000    -0.0609     3.9310     3.9310    -0.0000
 33 C      6.1114     6.0000    -0.1114     3.9488     3.9488    -0.0000
 34 N      7.0682     7.0000    -0.0682     3.3303     3.3303    -0.0000
 35 C      6.1365     6.0000    -0.1365     3.8720     3.8720    -0.0000
 36 H      0.7393     1.0000     0.2607     0.8960     0.8960    -0.0000
 37 H      0.7516     1.0000     0.2484     0.9122     0.9122    -0.0000
 38 H      0.8002     1.0000     0.1998     0.9486     0.9486    -0.0000
 39 H      0.7905     1.0000     0.2095     0.9315     0.9315    -0.0000
 40 C      5.9746     6.0000     0.0254     3.3608     3.3608    -0.0000
 41 C      5.8968     6.0000     0.1032     2.9306     2.9306    -0.0000
 42 C      6.2580     6.0000    -0.2580     3.8161     3.8161    -0.0000
 43 C      6.0654     6.0000    -0.0654     3.8308     3.8308    -0.0000
 44 C      6.1857     6.0000    -0.1857     4.1734     4.1734    -0.0000
 45 C      6.2070     6.0000    -0.2070     3.9279     3.9279    -0.0000
 46 C      6.0524     6.0000    -0.0524     3.7564     3.7564    -0.0000
 47 C      6.1167     6.0000    -0.1167     3.7851     3.7851    -0.0000
 48 C      6.1774     6.0000    -0.1774     4.0276     4.0276    -0.0000
 49 N      7.0596     7.0000    -0.0596     3.3013     3.3013    -0.0000
 50 C      6.1532     6.0000    -0.1532     3.7385     3.7385    -0.0000
 51 C      5.5652     6.0000     0.4348     3.1152     3.1152    -0.0000
 52 H      0.7461     1.0000     0.2539     0.8966     0.8966    -0.0000
 53 H      0.7694     1.0000     0.2306     0.9244     0.9244    -0.0000
 54 H      0.7521     1.0000     0.2479     0.8978     0.8978    -0.0000
 55 H      0.7458     1.0000     0.2542     0.8921     0.8921    -0.0000
 56 H      0.8236     1.0000     0.1764     0.9538     0.9538    -0.0000
 57 H      0.8346     1.0000     0.1654     0.9677     0.9677    -0.0000
 58 C      6.2472     6.0000    -0.2472     3.9994     3.9994    -0.0000
 59 C      6.1453     6.0000    -0.1453     3.9311     3.9311    -0.0000
 60 C      6.1338     6.0000    -0.1338     3.9650     3.9650    -0.0000
 61 C      6.0859     6.0000    -0.0859     3.7189     3.7189    -0.0000
 62 C      6.1273     6.0000    -0.1273     3.9061     3.9061    -0.0000
 63 C      6.1665     6.0000    -0.1665     3.9052     3.9052    -0.0000
 64 H      0.7607     1.0000     0.2393     0.9061     0.9061    -0.0000
 65 H      0.7616     1.0000     0.2384     0.9037     0.9037    -0.0000
 66 H      0.7676     1.0000     0.2324     0.8985     0.8985    -0.0000
 67 H      0.7849     1.0000     0.2151     0.9147     0.9147    -0.0000
 68 C      5.9710     6.0000     0.0290     3.7722     3.7722    -0.0000
 69 C      6.1599     6.0000    -0.1599     3.9980     3.9980    -0.0000
 70 C      6.0666     6.0000    -0.0666     3.9264     3.9264    -0.0000
 71 C      6.1031     6.0000    -0.1031     3.9368     3.9368    -0.0000
 72 N      7.0656     7.0000    -0.0656     3.3345     3.3345    -0.0000
 73 C      6.1688     6.0000    -0.1688     3.8673     3.8673    -0.0000
 74 H      0.7391     1.0000     0.2609     0.8972     0.8972    -0.0000
 75 H      0.7499     1.0000     0.2501     0.9114     0.9114    -0.0000
 76 H      0.8026     1.0000     0.1974     0.9497     0.9497    -0.0000
 77 H      0.7966     1.0000     0.2034     0.9422     0.9422    -0.0000
 78 C      5.9678     6.0000     0.0322     3.3367     3.3367    -0.0000
 79 C      5.9297     6.0000     0.0703     2.9742     2.9742    -0.0000
 80 C      6.1933     6.0000    -0.1933     3.6869     3.6869    -0.0000
 81 C      6.0851     6.0000    -0.0851     3.8249     3.8249    -0.0000
 82 C      6.1784     6.0000    -0.1784     4.1694     4.1694    -0.0000
 83 C      6.2098     6.0000    -0.2098     3.9299     3.9299    -0.0000
 84 C      6.0506     6.0000    -0.0506     3.7530     3.7530    -0.0000
 85 C      6.1203     6.0000    -0.1203     3.7978     3.7978    -0.0000
 86 C      6.1753     6.0000    -0.1753     4.0276     4.0276    -0.0000
 87 N      7.0564     7.0000    -0.0564     3.2995     3.2995    -0.0000
 88 C      6.1270     6.0000    -0.1270     3.7176     3.7176    -0.0000
 89 C      5.6198     6.0000     0.3802     3.1794     3.1794    -0.0000
 90 H      0.7483     1.0000     0.2517     0.8977     0.8977    -0.0000
 91 H      0.7690     1.0000     0.2310     0.9238     0.9238    -0.0000
 92 H      0.7518     1.0000     0.2482     0.8977     0.8977    -0.0000
 93 H      0.7459     1.0000     0.2541     0.8923     0.8923    -0.0000
 94 H      0.8204     1.0000     0.1796     0.9520     0.9520    -0.0000
 95 H      0.8497     1.0000     0.1503     0.9783     0.9783    -0.0000
 96 C      6.1949     6.0000    -0.1949     3.9191     3.9191    -0.0000
 97 C      6.1970     6.0000    -0.1970     3.9175     3.9175    -0.0000
 98 C      6.1068     6.0000    -0.1068     3.8918     3.8918    -0.0000
 99 C      6.0866     6.0000    -0.0866     3.7105     3.7105    -0.0000
100 C      6.1053     6.0000    -0.1053     3.9211     3.9211    -0.0000
101 C      6.1519     6.0000    -0.1519     3.9356     3.9356    -0.0000
102 H      0.8079     1.0000     0.1921     0.9135     0.9135     0.0000
103 H      0.8008     1.0000     0.1992     0.8946     0.8946    -0.0000
104 H      0.7533     1.0000     0.2467     0.8981     0.8981    -0.0000
105 H      0.7582     1.0000     0.2418     0.9063     0.9063    -0.0000
106 C      5.9956     6.0000     0.0044     3.7654     3.7654    -0.0000
107 C      6.1710     6.0000    -0.1710     4.0085     4.0085    -0.0000
108 C      6.0614     6.0000    -0.0614     3.9317     3.9317    -0.0000
109 C      6.1103     6.0000    -0.1103     3.9484     3.9484    -0.0000
110 N      7.0691     7.0000    -0.0691     3.3294     3.3294    -0.0000
111 C      6.1360     6.0000    -0.1360     3.8719     3.8719    -0.0000
112 H      0.7392     1.0000     0.2608     0.8960     0.8960    -0.0000
113 H      0.7516     1.0000     0.2484     0.9121     0.9121    -0.0000
114 H      0.8004     1.0000     0.1996     0.9486     0.9486    -0.0000
115 H      0.7895     1.0000     0.2105     0.9309     0.9309    -0.0000
116 C      5.9745     6.0000     0.0255     3.3611     3.3611    -0.0000
117 C      5.8974     6.0000     0.1026     2.9322     2.9322    -0.0000
118 C      6.2578     6.0000    -0.2578     3.8133     3.8133    -0.0000
119 C      6.0660     6.0000    -0.0660     3.8309     3.8309    -0.0000
120 C      6.1855     6.0000    -0.1855     4.1733     4.1733    -0.0000
121 C      6.2071     6.0000    -0.2071     3.9281     3.9281    -0.0000
122 C      6.0528     6.0000    -0.0528     3.7562     3.7562    -0.0000
123 C      6.1165     6.0000    -0.1165     3.7841     3.7841    -0.0000
124 C      6.1766     6.0000    -0.1766     4.0264     4.0264    -0.0000
125 N      7.0592     7.0000    -0.0592     3.3013     3.3013    -0.0000
126 C      6.1542     6.0000    -0.1542     3.7385     3.7385    -0.0000
127 C      5.5642     6.0000     0.4358     3.1135     3.1135    -0.0000
128 H      0.7461     1.0000     0.2539     0.8966     0.8966    -0.0000
129 H      0.7694     1.0000     0.2306     0.9244     0.9244    -0.0000
130 H      0.7521     1.0000     0.2479     0.8978     0.8978    -0.0000
131 H      0.7458     1.0000     0.2542     0.8921     0.8921    -0.0000
132 H      0.8236     1.0000     0.1764     0.9541     0.9541    -0.0000
133 H      0.8351     1.0000     0.1649     0.9680     0.9680    -0.0000
134 C      6.2452     6.0000    -0.2452     3.9970     3.9970    -0.0000
135 C      6.1461     6.0000    -0.1461     3.9327     3.9327    -0.0000
136 C      6.1323     6.0000    -0.1323     3.9647     3.9647    -0.0000
137 C      6.0876     6.0000    -0.0876     3.7214     3.7214    -0.0000
138 C      6.1262     6.0000    -0.1262     3.9042     3.9042    -0.0000
139 C      6.1672     6.0000    -0.1672     3.9045     3.9045    -0.0000
140 H      0.7607     1.0000     0.2393     0.9061     0.9061    -0.0000
141 H      0.7616     1.0000     0.2384     0.9037     0.9037    -0.0000
142 H      0.7676     1.0000     0.2324     0.8985     0.8985    -0.0000
143 H      0.7852     1.0000     0.2148     0.9147     0.9147    -0.0000
144 C      5.9738     6.0000     0.0262     3.7736     3.7736    -0.0000
145 C      6.1584     6.0000    -0.1584     3.9959     3.9959    -0.0000
146 C      6.0674     6.0000    -0.0674     3.9272     3.9272    -0.0000
147 C      6.1029     6.0000    -0.1029     3.9357     3.9357    -0.0000
148 N      7.0658     7.0000    -0.0658     3.3370     3.3370    -0.0000
149 C      6.1670     6.0000    -0.1670     3.8665     3.8665    -0.0000
150 H      0.7393     1.0000     0.2607     0.8973     0.8973    -0.0000
151 H      0.7499     1.0000     0.2501     0.9114     0.9114    -0.0000
152 H      0.8025     1.0000     0.1975     0.9497     0.9497    -0.0000
153 H      0.7966     1.0000     0.2034     0.9421     0.9421    -0.0000

  Mayer bond orders larger than 0.100000
B(  0-Pd, 34-N ) :   0.5209 B(  0-Pd, 72-N ) :   0.5208 B(  0-Pd, 87-N ) :   0.5437 
B(  0-Pd,125-N ) :   0.5453 B(  1-Pd, 11-N ) :   0.5437 B(  1-Pd, 49-N ) :   0.5457 
B(  1-Pd,110-N ) :   0.5205 B(  1-Pd,148-N ) :   0.5219 B(  2-C ,  3-C ) :   1.8530 
B(  2-C ,  4-C ) :  -0.2982 B(  2-C , 20-C ) :   1.6425 B(  2-C , 21-C ) :  -0.1078 
B(  2-C , 25-C ) :  -0.1017 B(  3-C ,  4-C ) :   1.4622 B(  3-C ,  8-C ) :   0.1019 
B(  3-C , 13-C ) :  -0.2282 B(  3-C , 20-C ) :  -0.4379 B(  4-C ,  5-C ) :   1.5435 
B(  4-C , 12-C ) :  -0.1150 B(  4-C , 13-C ) :   1.0420 B(  5-C ,  6-C ) :   1.4134 
B(  5-C , 14-H ) :   0.8533 B(  6-C ,  7-C ) :   1.6320 B(  6-C , 15-H ) :   0.8706 
B(  7-C ,  8-C ) :   1.3625 B(  7-C , 13-C ) :  -0.1247 B(  7-C , 16-H ) :   0.8578 
B(  8-C ,  9-C ) :   1.2866 B(  8-C , 12-C ) :  -0.1179 B(  8-C , 13-C ) :   1.0582 
B(  9-C , 10-C ) :   1.5949 B(  9-C , 17-H ) :   0.8720 B( 10-C , 11-N ) :   1.2435 
B( 10-C , 18-H ) :   0.9106 B( 11-N , 12-C ) :   1.4348 B( 11-N ,110-N ) :   0.1006 
B( 12-C , 13-C ) :   1.3906 B( 12-C , 19-H ) :   0.9033 B( 20-C , 21-C ) :   1.3548 
B( 20-C , 23-C ) :   0.1054 B( 20-C , 25-C ) :   1.3135 B( 21-C , 22-C ) :   1.6013 
B( 21-C , 26-H ) :   0.8772 B( 22-C , 23-C ) :   1.3651 B( 22-C , 27-H ) :   0.8495 
B( 23-C , 24-C ) :   1.3058 B( 23-C , 30-C ) :   0.9416 B( 24-C , 25-C ) :   1.5798 
B( 24-C , 28-H ) :   0.8852 B( 25-C , 29-H ) :   0.9087 B( 30-C , 31-C ) :   1.4501 
B( 30-C , 35-C ) :   1.3800 B( 31-C , 32-C ) :   1.5127 B( 31-C , 36-H ) :   0.8748 
B( 32-C , 33-C ) :   1.4457 B( 32-C , 37-H ) :   0.8650 B( 33-C , 34-N ) :   1.3669 
B( 33-C , 38-H ) :   0.9179 B( 34-N , 35-C ) :   1.3866 B( 34-N , 87-N ) :   0.1005 
B( 35-C , 39-H ) :   0.9067 B( 40-C , 41-C ) :   1.8556 B( 40-C , 42-C ) :  -0.2759 
B( 40-C , 58-C ) :   1.6451 B( 40-C , 59-C ) :  -0.1058 B( 41-C , 42-C ) :   1.4727 
B( 41-C , 43-C ) :  -0.1005 B( 41-C , 51-C ) :  -0.2530 B( 41-C , 58-C ) :  -0.4356 
B( 42-C , 43-C ) :   1.5771 B( 42-C , 51-C ) :   1.0437 B( 43-C , 44-C ) :   1.4092 
B( 43-C , 52-H ) :   0.8483 B( 44-C , 45-C ) :   1.6326 B( 44-C , 53-H ) :   0.8710 
B( 45-C , 46-C ) :   1.3679 B( 45-C , 51-C ) :  -0.1235 B( 45-C , 54-H ) :   0.8575 
B( 46-C , 47-C ) :   1.2820 B( 46-C , 50-C ) :  -0.1145 B( 46-C , 51-C ) :   1.0474 
B( 47-C , 48-C ) :   1.5914 B( 47-C , 55-H ) :   0.8720 B( 48-C , 49-N ) :   1.2379 
B( 48-C , 56-H ) :   0.9131 B( 49-N , 50-C ) :   1.4398 B( 50-C , 51-C ) :   1.3714 
B( 50-C , 57-H ) :   0.9018 B( 58-C , 59-C ) :   1.3690 B( 58-C , 61-C ) :   0.1036 
B( 58-C , 63-C ) :   1.3495 B( 59-C , 60-C ) :   1.6018 B( 59-C , 64-H ) :   0.8811 
B( 60-C , 61-C ) :   1.3752 B( 60-C , 65-H ) :   0.8536 B( 61-C , 62-C ) :   1.3414 
B( 61-C , 68-C ) :   0.9053 B( 62-C , 63-C ) :   1.5746 B( 62-C , 66-H ) :   0.8578 
B( 63-C , 67-H ) :   0.8901 B( 68-C , 69-C ) :   1.4470 B( 68-C , 73-C ) :   1.3822 
B( 69-C , 70-C ) :   1.5008 B( 69-C , 74-H ) :   0.8778 B( 70-C , 71-C ) :   1.4464 
B( 70-C , 75-H ) :   0.8614 B( 71-C , 72-N ) :   1.3682 B( 71-C , 76-H ) :   0.9206 
B( 72-N , 73-C ) :   1.3906 B( 73-C , 77-H ) :   0.9078 B( 78-C , 79-C ) :   1.8540 
B( 78-C , 80-C ) :  -0.2978 B( 78-C , 96-C ) :   1.6424 B( 78-C , 97-C ) :  -0.1020 
B( 78-C ,101-C ) :  -0.1074 B( 79-C , 80-C ) :   1.4617 B( 79-C , 84-C ) :   0.1019 
B( 79-C , 89-C ) :  -0.2278 B( 79-C , 96-C ) :  -0.4372 B( 80-C , 81-C ) :   1.5427 
B( 80-C , 88-C ) :  -0.1156 B( 80-C , 89-C ) :   1.0412 B( 81-C , 82-C ) :   1.4134 
B( 81-C , 90-H ) :   0.8534 B( 82-C , 83-C ) :   1.6321 B( 82-C , 91-H ) :   0.8706 
B( 83-C , 84-C ) :   1.3627 B( 83-C , 89-C ) :  -0.1248 B( 83-C , 92-H ) :   0.8578 
B( 84-C , 85-C ) :   1.2865 B( 84-C , 88-C ) :  -0.1182 B( 84-C , 89-C ) :   1.0583 
B( 85-C , 86-C ) :   1.5948 B( 85-C , 93-H ) :   0.8719 B( 86-C , 87-N ) :   1.2436 
B( 86-C , 94-H ) :   0.9104 B( 87-N , 88-C ) :   1.4344 B( 88-C , 89-C ) :   1.3907 
B( 88-C , 95-H ) :   0.9031 B( 96-C , 97-C ) :   1.3121 B( 96-C , 99-C ) :   0.1054 
B( 96-C ,101-C ) :   1.3543 B( 97-C , 98-C ) :   1.5791 B( 97-C ,102-H ) :   0.9094 
B( 98-C , 99-C ) :   1.3063 B( 98-C ,103-H ) :   0.8851 B( 99-C ,100-C ) :   1.3655 
B( 99-C ,106-C ) :   0.9416 B(100-C ,101-C ) :   1.6014 B(100-C ,104-H ) :   0.8494 
B(101-C ,105-H ) :   0.8773 B(106-C ,107-C ) :   1.4500 B(106-C ,111-C ) :   1.3803 
B(107-C ,108-C ) :   1.5125 B(107-C ,112-H ) :   0.8749 B(108-C ,109-C ) :   1.4462 
B(108-C ,113-H ) :   0.8648 B(109-C ,110-N ) :   1.3667 B(109-C ,114-H ) :   0.9179 
B(110-N ,111-C ) :   1.3868 B(111-C ,115-H ) :   0.9062 B(116-C ,117-C ) :   1.8561 
B(116-C ,118-C ) :  -0.2765 B(116-C ,134-C ) :   1.6446 B(116-C ,135-C ) :  -0.1055 
B(117-C ,118-C ) :   1.4727 B(117-C ,119-C ) :  -0.1003 B(117-C ,127-C ) :  -0.2532 
B(117-C ,134-C ) :  -0.4350 B(118-C ,119-C ) :   1.5761 B(118-C ,127-C ) :   1.0429 
B(119-C ,120-C ) :   1.4094 B(119-C ,128-H ) :   0.8484 B(120-C ,121-C ) :   1.6326 
B(120-C ,129-H ) :   0.8710 B(121-C ,122-C ) :   1.3677 B(121-C ,127-C ) :  -0.1235 
B(121-C ,130-H ) :   0.8575 B(122-C ,123-C ) :   1.2820 B(122-C ,126-C ) :  -0.1146 
B(122-C ,127-C ) :   1.0474 B(123-C ,124-C ) :   1.5906 B(123-C ,131-H ) :   0.8720 
B(124-C ,125-N ) :   1.2383 B(124-C ,132-H ) :   0.9132 B(125-N ,126-C ) :   1.4396 
B(126-C ,127-C ) :   1.3708 B(126-C ,133-H ) :   0.9021 B(134-C ,135-C ) :   1.3694 
B(134-C ,137-C ) :   0.1036 B(134-C ,139-C ) :   1.3481 B(135-C ,136-C ) :   1.6019 
B(135-C ,140-H ) :   0.8811 B(136-C ,137-C ) :   1.3757 B(136-C ,141-H ) :   0.8534 
B(137-C ,138-C ) :   1.3411 B(137-C ,144-C ) :   0.9054 B(138-C ,139-C ) :   1.5739 
B(138-C ,142-H ) :   0.8582 B(139-C ,143-H ) :   0.8905 B(144-C ,145-C ) :   1.4463 
B(144-C ,149-C ) :   1.3831 B(145-C ,146-C ) :   1.5007 B(145-C ,150-H ) :   0.8782 
B(146-C ,147-C ) :   1.4466 B(146-C ,151-H ) :   0.8613 B(147-C ,148-N ) :   1.3685 
B(147-C ,152-H ) :   0.9205 B(148-N ,149-C ) :   1.3913 B(149-C ,153-H ) :   0.9074 


-------
TIMINGS
-------

Total SCF time: 0 days 0 hours 7 min 34 sec 

Total time                  ....     454.103 sec
Sum of individual times     ....     443.632 sec  ( 97.7%)

Fock matrix formation       ....     188.870 sec  ( 41.6%)
  Split-RI-J                ....      84.467 sec  ( 44.7% of F)
  XC integration            ....      93.538 sec  ( 49.5% of F)
    Basis function eval.    ....      17.845 sec  ( 19.1% of XC)
    Density eval.           ....      39.936 sec  ( 42.7% of XC)
    XC-Functional eval.     ....       5.590 sec  (  6.0% of XC)
    XC-Potential eval.      ....      14.747 sec  ( 15.8% of XC)
Diagonalization             ....      40.747 sec  (  9.0%)
Density matrix formation    ....       1.955 sec  (  0.4%)
Population analysis         ....       7.234 sec  (  1.6%)
Initial guess               ....       7.289 sec  (  1.6%)
Orbital Transformation      ....       0.000 sec  (  0.0%)
Orbital Orthonormalization  ....       0.000 sec  (  0.0%)
DIIS solution               ....     167.627 sec  ( 36.9%)
Grid generation             ....      29.910 sec  (  6.6%)


-------------------------------------------------------------------------------
                          DFT DISPERSION CORRECTION                            
                                                                               
                              DFTD3 V3.1  Rev 1                                
                          USING Becke-Johnson damping                          
-------------------------------------------------------------------------------
The B97-3c composite method is recognized
Using three-body term ABC
Active option DFTDOPT                   ...         4   

molecular C6(AA) [au] = 365602.275099 


            DFT-D V3
 parameters
 s6 scaling factor         :     1.0000 
 a1 scaling factor         :     0.3700 
 s8 scaling factor         :     1.5000 
 a2 scaling factor         :     4.1000 
 Damping factor alpha9(ATM):    16.0000 
 ad hoc parameters k1-k3   :    16.0000     1.3333    -4.0000 

 Edisp/kcal,au: -371.764578571355  -0.592444503679 
 E6   /kcal   : -184.402622161 
 E8   /kcal   : -188.682366080 
 E6(ABC)      :   1.320409669 
 % E8         :  50.753185472 
 % E6(ABC)    :  -0.355173609 

-------------------------   ----------------
Dispersion correction           -0.592444504
-------------------------   ----------------

------------------   -----------------
SRB correction            -0.605975203
------------------   -----------------

-------------------------   --------------------
FINAL SINGLE POINT ENERGY     -4078.569134780430
-------------------------   --------------------


                            ***************************************
                            *     ORCA property calculations      *
                            ***************************************

                                    ---------------------
                                    Active property flags
                                    ---------------------
   (+) Dipole Moment


------------------------------------------------------------------------------
                       ORCA ELECTRIC PROPERTIES CALCULATION
------------------------------------------------------------------------------

Dipole Moment Calculation                       ... on
Quadrupole Moment Calculation                   ... off
Polarizability Calculation                      ... off
GBWName                                         ... _s_4b1_c_B97-3c.gbw
Electron density file                           ... _s_4b1_c_B97-3c.scfp
The origin for moment calculation is the CENTER OF MASS  = (-0.434414, -2.251705  1.695941)

-------------
DIPOLE MOMENT
-------------
                                X             Y             Z
Electronic contribution:      0.98094       0.05972       0.19217
Nuclear contribution   :     -0.99112      -0.06248      -0.19450
                        -----------------------------------------
Total Dipole Moment    :     -0.01018      -0.00276      -0.00234
                        -----------------------------------------
Magnitude (a.u.)       :      0.01081
Magnitude (Debye)      :      0.02747



--------------------
Rotational spectrum 
--------------------
 
Rotational constants in cm-1:     0.000767     0.000348     0.000342 
Rotational constants in MHz :    22.994053    10.447361    10.255492 

 Dipole components along the rotational axes: 
x,y,z [a.u.] :     0.000391     0.006225     0.008826 
x,y,z [Debye]:     0.000993     0.015822     0.022434 

 

Timings for individual modules:

Sum of individual times         ...      483.540 sec (=   8.059 min)
GTO integral calculation        ...       20.779 sec (=   0.346 min)   4.3 %
SCF iterations                  ...      462.760 sec (=   7.713 min)  95.7 %
                             ****ORCA TERMINATED NORMALLY****
TOTAL RUN TIME: 0 days 0 hours 8 minutes 32 seconds 488 msec
