Job execution start: Tue Jun 22 11:53:00 BST 2021
Shared library path: /work/e05/e05/atarzia/orca_4_2_1_linux_x86-64_openmpi314:/work/e05/e05/atarzia/openmpi-3.1.4/lib:/opt/cray/pe/papi/6.0.0.4/lib64:/opt/cray/libfabric/1.11.0.0.233/lib64
Slurm Job ID is: 344706
Slurm Job name is: s_4b3_a_B97-3c
nid001551

                                 *****************
                                 * O   R   C   A *
                                 *****************

           --- An Ab Initio, DFT and Semiempirical electronic structure package ---

                  #######################################################
                  #                        -***-                        #
                  #          Department of theory and spectroscopy      #
                  #               Directorship: Frank Neese             #
                  #        Max Planck Institute fuer Kohlenforschung    #
                  #                Kaiser Wilhelm Platz 1               #
                  #                 D-45470 Muelheim/Ruhr               #
                  #                      Germany                        #
                  #                                                     #
                  #                  All rights reserved                #
                  #                        -***-                        #
                  #######################################################


                         Program Version 4.2.1 -  RELEASE  -


 With contributions from (in alphabetic order):
   Daniel Aravena         : Magnetic Suceptibility
   Michael Atanasov       : Ab Initio Ligand Field Theory (pilot matlab implementation)
   Alexander A. Auer      : GIAO ZORA, VPT2
   Ute Becker             : Parallelization
   Giovanni Bistoni       : ED, misc. LED, open-shell LED, HFLD
   Martin Brehm           : Molecular dynamics
   Dmytro Bykov           : SCF Hessian
   Vijay G. Chilkuri      : MRCI spin determinant printing, contributions to CSF-ICE
   Dipayan Datta          : RHF DLPNO-CCSD density
   Achintya Kumar Dutta   : EOM-CC, STEOM-CC
   Dmitry Ganyushin       : Spin-Orbit,Spin-Spin,Magnetic field MRCI
   Miquel Garcia          : C-PCM Hessian, Gaussian charge scheme
   Yang Guo               : DLPNO-NEVPT2, CIM, IAO-localization
   Andreas Hansen         : Spin unrestricted coupled pair/coupled cluster methods
   Benjamin Helmich-Paris : CASSCF linear response (MC-RPA)
   Lee Huntington         : MR-EOM, pCC
   Robert Izsak           : Overlap fitted RIJCOSX, COSX-SCS-MP3, EOM
   Christian Kollmar      : KDIIS, OOCD, Brueckner-CCSD(T), CCSD density
   Simone Kossmann        : Meta GGA functionals, TD-DFT gradient, OOMP2, MP2 Hessian
   Martin Krupicka        : AUTO-CI
   Lucas Lang             : DCDCAS
   Dagmar Lenk            : GEPOL surface, SMD
   Dimitrios Liakos       : Extrapolation schemes; Compound Job, initial MDCI parallelization
   Dimitrios Manganas     : Further ROCIS development; embedding schemes
   Dimitrios Pantazis     : SARC Basis sets
   Taras Petrenko         : DFT Hessian,TD-DFT gradient, ASA, ECA, R-Raman, ABS, FL, XAS/XES, NRVS
   Peter Pinski           : DLPNO-MP2, DLPNO-MP2 Gradient
   Christoph Reimann      : Effective Core Potentials
   Marius Retegan         : Local ZFS, SOC
   Christoph Riplinger    : Optimizer, TS searches, QM/MM, DLPNO-CCSD(T), (RO)-DLPNO pert. Triples
   Tobias Risthaus        : Range-separated hybrids, TD-DFT gradient, RPA, STAB
   Michael Roemelt        : Original ROCIS implementation
   Masaaki Saitow         : Open-shell DLPNO-CCSD energy and density
   Barbara Sandhoefer     : DKH picture change effects
   Avijit Sen             : IP-ROCIS
   Kantharuban Sivalingam : CASSCF convergence, NEVPT2, FIC-MRCI
   Bernardo de Souza      : ESD, SOC TD-DFT
   Georgi Stoychev        : AutoAux, RI-MP2 NMR
   Willem Van den Heuvel  : Paramagnetic NMR
   Boris Wezisla          : Elementary symmetry handling
   Frank Wennmohs         : Technical directorship


 We gratefully acknowledge several colleagues who have allowed us to
 interface, adapt or use parts of their codes:
   Stefan Grimme, W. Hujo, H. Kruse,             : VdW corrections, initial TS optimization,
                  C. Bannwarth                     DFT functionals, gCP, sTDA/sTD-DF
   Ed Valeev, F. Pavosevic, A. Kumar             : LibInt (2-el integral package), F12 methods
   Garnet Chan, S. Sharma, J. Yang, R. Olivares  : DMRG
   Ulf Ekstrom                                   : XCFun DFT Library
   Mihaly Kallay                                 : mrcc  (arbitrary order and MRCC methods)
   Andreas Klamt, Michael Diedenhofen            : otool_cosmo (COSMO solvation model)
   Jiri Pittner, Ondrej Demel                    : Mk-CCSD
   Frank Weinhold                                : gennbo (NPA and NBO analysis)
   Christopher J. Cramer and Donald G. Truhlar   : smd solvation model
   Lars Goerigk                                  : TD-DFT with DH, B97 family of functionals
   V. Asgeirsson, H. Jonsson                     : NEB implementation
   FAccTs GmbH                                   : IRC, NEB, NEB-TS, Multilevel, MM, QM/MM, CI optimization
   S Lehtola, MJT Oliveira, MAL Marques          : LibXC Library


 Your calculation uses the libint2 library for the computation of 2-el integrals
 For citations please refer to: http://libint.valeyev.net

 Your ORCA version has been built with support for libXC version: 4.2.3
 For citations please refer to: https://tddft.org/programs/libxc/

 This ORCA versions uses:
   CBLAS   interface :  Fast vector & matrix operations
   LAPACKE interface :  Fast linear algebra routines
   SCALAPACK package :  Parallel linear algebra routines




***************************************
The coordinates will be read from file: s_4b3_a.xyz
***************************************


Your calculation utilizes the atom-pairwise dispersion correction
with the Becke-Johnson damping scheme (D3BJ)
Cite in your paper:
S.Grimme, S.Ehrlich, L.Goerigk, J Comput Chem, (2011), 32, 1456–1465 
S.Grimme, J.Antony, S.Ehrlich and H.Krieg, J.Chem.Phys., 132, (2010), 154104 
   

Your calculation employs the composite approach B97-3c by Grimme and coworkers.
For the correct reference, please check the publication list of the Grimme group:
http://www.thch.uni-bonn.de/tc/index.php?section=publikationen&subsection=grimme#2017
   

XCFun DFT library Copyright 2009-2010 Ulf Ekstrom and contributors.
See http://admol.org/xcfun for more information. This is free soft-
ware; see the source code for copying conditions. There is ABSOLUTELY
NO WARRANTY; not even for MERCHANTABILITY or FITNESS FOR A PARTICULAR
PURPOSE. For details see the documentation. Scientific users of this 
library should cite U. Ekstrom, L. Visscher, R. Bast, A. J. Thorvald-
sen and K. Ruud; J.Chem.Theor.Comp. 2010, DOI: 10.1021/ct100117s
XCFun Version 0.99 
----- Orbital basis set information -----
Your calculation utilizes the basis: def2-mTZVP
----- AuxJ basis set information -----
Your calculation utilizes the basis: def2-mTZVP/J
cite the ECPs for Pd [Def2-ECP] as follows:
Ce-Yb(ecp-28): M. Dolg, H. Stoll, H.Preuss, J. Chem. Phys., 1989, 90, 1730-1734.
Y-Cd(ecp-28), Hf-Hg(ecp-46): D. Andrae,U. Haeussermann, M. Dolg, H. Stoll, H. Preuss, Theor. Chim. Acta, 1990, 77, 123-141.
In-Sb(ecp-28), Tl-Bi(ecp-46): B. Metz, H. Stoll, M. Dolg, J. Chem. Phys., 2000, 113, 2563-2569.
Te-Xe(ecp-28), Po-Rn(ecp-46): K. A. Peterson, D. Figgen, E. Goll, H. Stoll, M. Dolg, J. Chem. Phys., 2003, 119, 11113-11123.
Rb(ecp-28), Cs(ecp-46): T. Leininger, A. Nicklass, W. Kuechle, H. Stoll, M. Dolg, A. Bergner, Chem. Phys. Lett., 1996, 255, 274-280.
Sr(ecp-28), Ba(ecp-46): M. Kaupp, P. V. Schleyer, H. Stoll and H. Preuss, J. Chem. Phys., 1991, 94, 1360-1366.
La(ecp-46): M. Dolg, H. Stoll, A. Savin, H. Preuss, Theor. Chim. Acta, 1989, 75, 173-194.
Lu(ecp-28): X. Cao, M. Dolg, J. Chem. Phys., 2001, 115, 7348-7355.

ECP parameters for Pd [Def2-ECP] have been obtained from:
TURBOMOLE (7.0.2)

================================================================================
                                        WARNINGS
                       Please study these warnings very carefully!
================================================================================


INFO   : the flag for use of LIBINT has been found!

================================================================================
                                       INPUT FILE
================================================================================
NAME = s_4b3_a_B97-3c.in
|  1> ! DFT SP B97-3c TightSCF printbasis  Grid6 NOFINALGRID SlowConv 
|  2> 
|  3> %base "_s_4b3_a_B97-3c"
|  4> %maxcore 3000
|  5> %scf
|  6>    MaxIter 2000
|  7> end
|  8> %pal
|  9>    nprocs 32
| 10> end
| 11> 
| 12> * xyzfile 4 1 s_4b3_a.xyz
| 13> 
| 14>                          ****END OF INPUT****
================================================================================

                       ****************************
                       * Single Point Calculation *
                       ****************************

---------------------------------
CARTESIAN COORDINATES (ANGSTROEM)
---------------------------------
  Pd    -0.119600    7.047600   -0.067900
  Pd     0.028400   -6.744600   -0.001000
  C      4.741200    2.952200    0.055800
  C      4.807400    4.129100    0.331400
  C      5.077500    5.462300    0.691200
  C      6.386500    5.797400    0.999400
  C      6.735500    7.095900    1.377700
  C      5.783400    8.081200    1.458200
  C      4.442800    7.786800    1.154300
  C      3.423500    8.762600    1.218800
  C      2.141900    8.425900    0.901100
  N      1.793300    7.168500    0.521500
  C      2.715400    6.226900    0.458900
  C      4.067400    6.467800    0.762200
  H      7.150100    5.037000    0.942900
  H      7.766100    7.317700    1.608500
  H      6.048200    9.084600    1.751900
  H      3.671100    9.769000    1.516300
  H      1.341400    9.163000    0.948000
  H      2.389000    5.236800    0.154800
  C      4.675800    1.569200   -0.200600
  C      3.568000    0.992600   -0.831200
  C      3.507900   -0.372300   -1.004600
  C      4.553900   -1.188400   -0.554800
  C      5.682900   -0.608700    0.033400
  C      5.741100    0.756400    0.209400
  H      2.761500    1.622100   -1.172000
  H      2.653400   -0.825400   -1.481600
  H      6.496800   -1.235700    0.364400
  H      6.603000    1.206000    0.678500
  C      4.412700   -2.587100   -0.636300
  C      4.228000   -3.782600   -0.651300
  C      3.830400   -5.132900   -0.603800
  C      4.705400   -6.224000   -0.682400
  C      4.183900   -7.503300   -0.593500
  C      2.817800   -7.680900   -0.419700
  N      1.987800   -6.638600   -0.344500
  C      2.469000   -5.400600   -0.439600
  H      5.764600   -6.062500   -0.809300
  H      4.831200   -8.363400   -0.652900
  H      2.370700   -8.666100   -0.337200
  H      1.758800   -4.575100   -0.378900
  C     -0.198400    2.911000    4.765900
  C     -0.494300    4.082600    4.836800
  C     -0.878300    5.407600    5.114300
  C     -1.201700    5.726800    6.423500
  C     -1.603400    7.016000    6.780500
  C     -1.691900    8.007900    5.836000
  C     -1.373300    7.729700    4.495400
  C     -1.445200    8.713000    3.484000
  C     -1.113400    8.392000    2.201900
  N     -0.712600    7.143400    1.845300
  C     -0.641600    6.195300    2.760000
  C     -0.957900    6.420200    4.111800
  H     -1.138800    4.961000    7.181300
  H     -1.845500    7.225400    7.811100
  H     -2.003300    9.004400    6.106800
  H     -1.759700    9.712700    3.737900
  H     -1.165800    9.135500    1.407600
  H     -0.320000    5.212700    2.427700
  C      0.082500    1.533000    4.694500
  C     -0.315300    0.708200    5.755200
  C     -0.114800   -0.653300    5.691300
  C      0.486000   -1.217200    4.561000
  C      0.923600   -0.388400    3.519700
  C      0.725700    0.972800    3.585500
  H     -0.794100    1.145400    6.618200
  H     -0.436300   -1.289800    6.501600
  H      1.410700   -0.829100    2.664500
  H      1.057000    1.612100    2.782800
  C      0.592400   -2.613500    4.412900
  C      0.628500   -3.807500    4.221300
  C      0.604200   -5.155400    3.813700
  C      0.702000   -6.251900    4.679900
  C      0.635000   -7.528300    4.148100
  C      0.463800   -7.697900    2.780500
  N      0.370400   -6.650500    1.958900
  C      0.444400   -5.415000    2.450200
  H      0.826400   -6.096800    5.740300
  H      0.709400   -8.392400    4.788400
  H      0.398100   -8.680900    2.325700
  H      0.369300   -4.584800    1.746700
  C     -4.882700    2.828300   -0.223800
  C     -4.969100    3.999800   -0.516000
  C     -5.264800    5.321900   -0.896200
  C     -6.574100    5.618200   -1.240400
  C     -6.949400    6.903800   -1.637100
  C     -6.023400    7.915000   -1.699500
  C     -4.683300    7.660000   -1.360100
  C     -3.690500    8.663600   -1.405600
  C     -2.407700    8.364100   -1.057100
  N     -2.032700    7.118300   -0.664500
  C     -2.929900    6.152200   -0.616200
  C     -4.281000    6.354300   -0.950500
  H     -7.317600    4.837200   -1.197300
  H     -7.979500    7.095100   -1.895800
  H     -6.308500    8.908900   -2.006200
  H     -3.959000    9.661500   -1.713700
  H     -1.627500    9.123500   -1.088900
  H     -2.583200    5.172900   -0.299600
  C     -4.794200    1.450400    0.053200
  C     -3.700200    0.908400    0.736300
  C     -3.616500   -0.452300    0.932200
  C     -4.624900   -1.298300    0.452500
  C     -5.741600   -0.753100   -0.189500
  C     -5.823300    0.607700   -0.387800
  H     -2.923000    1.561000    1.100700
  H     -2.772700   -0.879000    1.450700
  H     -6.526900   -1.403300   -0.543900
  H     -6.675400    1.030800   -0.897800
  C     -4.455300   -2.692400    0.557200
  C     -4.245400   -3.883300    0.591500
  C     -3.815000   -5.224200    0.564600
  C     -4.663800   -6.335500    0.645300
  C     -4.110100   -7.602400    0.575000
  C     -2.738300   -7.748000    0.416100
  N     -1.933300   -6.686500    0.339000
  C     -2.445800   -5.459800    0.417800
  H     -5.728000   -6.199000    0.759300
  H     -4.736700   -8.477600    0.636700
  H     -2.266600   -8.722800    0.347400
  H     -1.755400   -4.617600    0.357200
  C      0.104000    2.866900   -4.857900
  C      0.377700    4.043300   -4.937600
  C      0.736300    5.373400   -5.224600
  C      1.076000    5.684100   -6.531700
  C      1.451600    6.978600   -6.898100
  C      1.497100    7.984400   -5.965200
  C      1.161900    7.714800   -4.627000
  C      1.190900    8.712200   -3.627300
  C      0.847400    8.398100   -2.346500
  N      0.475300    7.143400   -1.980400
  C      0.442800    6.182900   -2.884200
  C      0.773600    6.399800   -4.233900
  H      1.045900    4.907600   -7.280600
  H      1.707200    7.181200   -7.926800
  H      1.787500    8.985200   -6.243500
  H      1.482600    9.716700   -3.888800
  H      0.866700    9.152200   -1.560800
  H      0.142400    5.196200   -2.544200
  C     -0.150900    1.484200   -4.777400
  C     -0.844400    0.927600   -3.697400
  C     -1.018900   -0.436500   -3.620800
  C     -0.507000   -1.271300   -4.622500
  C      0.145700   -0.712200   -5.726100
  C      0.322600    0.652000   -5.800600
  H     -1.233900    1.571800   -2.925200
  H     -1.545400   -0.874200   -2.787600
  H      0.525200   -1.354100   -6.506500
  H      0.840700    1.086100   -6.642200
  C     -0.590200   -2.667600   -4.459400
  C     -0.606000   -3.860000   -4.255600
  C     -0.558300   -5.203100   -3.834000
  C     -0.618300   -6.309500   -4.691000
  C     -0.527900   -7.579100   -4.146400
  C     -0.369600   -7.731900   -2.775400
  N     -0.312500   -6.675100   -1.962500
  C     -0.411100   -5.446200   -2.466100
  H     -0.731900   -6.167000   -5.754400
  H     -0.573400   -8.450500   -4.779400
  H     -0.285300   -8.708700   -2.310500
  H     -0.366800   -4.608200   -1.769400

----------------------------
CARTESIAN COORDINATES (A.U.)
----------------------------
  NO LB      ZA    FRAG     MASS         X           Y           Z
   0 Pd   18.0000*   0   106.400   -0.226011   13.318034   -0.128312
   1 Pd   18.0000*   0   106.400    0.053668  -12.745447   -0.001890
   2 C     6.0000    0    12.011    8.959570    5.578849    0.105447
   3 C     6.0000    0    12.011    9.084669    7.802868    0.626255
   4 C     6.0000    0    12.011    9.595084   10.322251    1.306179
   5 C     6.0000    0    12.011   12.068736   10.955498    1.888592
   6 C     6.0000    0    12.011   12.728250   13.409308    2.603476
   7 C     6.0000    0    12.011   10.929042   15.271255    2.755599
   8 C     6.0000    0    12.011    8.395675   14.714919    2.181311
   9 C     6.0000    0    12.011    6.469477   16.558914    2.303198
  10 C     6.0000    0    12.011    4.047604   15.922643    1.702832
  11 N     7.0000    0    14.007    3.388846   13.546502    0.985492
  12 C     6.0000    0    12.011    5.131362   11.767136    0.867195
  13 C     6.0000    0    12.011    7.686272   12.222371    1.440349
  14 H     1.0000    0     1.008   13.511731    9.518551    1.781823
  15 H     1.0000    0     1.008   14.675802   13.828449    3.039624
  16 H     1.0000    0     1.008   11.429442   17.167406    3.310611
  17 H     1.0000    0     1.008    6.937374   18.460735    2.865392
  18 H     1.0000    0     1.008    2.534879   17.315561    1.791460
  19 H     1.0000    0     1.008    4.514556    9.896118    0.292530
  20 C     6.0000    0    12.011    8.835981    2.965358   -0.379079
  21 C     6.0000    0    12.011    6.742543    1.875742   -1.570740
  22 C     6.0000    0    12.011    6.628970   -0.703545   -1.898419
  23 C     6.0000    0    12.011    8.605624   -2.245751   -1.048420
  24 C     6.0000    0    12.011   10.739125   -1.150276    0.063117
  25 C     6.0000    0    12.011   10.849107    1.429389    0.395709
  26 H     1.0000    0     1.008    5.218479    3.065325   -2.214759
  27 H     1.0000    0     1.008    5.014199   -1.559780   -2.799818
  28 H     1.0000    0     1.008   12.277173   -2.335135    0.688616
  29 H     1.0000    0     1.008   12.477862    2.279010    1.282179
  30 C     6.0000    0    12.011    8.338795   -4.888910   -1.202433
  31 C     6.0000    0    12.011    7.989762   -7.148078   -1.230779
  32 C     6.0000    0    12.011    7.238407   -9.699775   -1.141017
  33 C     6.0000    0    12.011    8.891917  -11.761655   -1.289549
  34 C     6.0000    0    12.011    7.906425  -14.179182   -1.121552
  35 C     6.0000    0    12.011    5.324870  -14.514797   -0.793118
  36 N     7.0000    0    14.007    3.756398  -12.545136   -0.651011
  37 C     6.0000    0    12.011    4.665734  -10.205655   -0.830724
  38 H     1.0000    0     1.008   10.893515  -11.456465   -1.529355
  39 H     1.0000    0     1.008    9.129645  -15.804536   -1.233802
  40 H     1.0000    0     1.008    4.479974  -16.376556   -0.637216
  41 H     1.0000    0     1.008    3.323650   -8.645686   -0.716017
  42 C     6.0000    0    12.011   -0.374922    5.500993    9.006246
  43 C     6.0000    0    12.011   -0.934092    7.714996    9.140227
  44 C     6.0000    0    12.011   -1.659746   10.218883    9.664626
  45 C     6.0000    0    12.011   -2.270884   10.822084   12.138656
  46 C     6.0000    0    12.011   -3.029987   13.258319   12.813288
  47 C     6.0000    0    12.011   -3.197228   15.132738   11.028442
  48 C     6.0000    0    12.011   -2.595161   14.607016    8.495075
  49 C     6.0000    0    12.011   -2.731032   16.465184    6.583806
  50 C     6.0000    0    12.011   -2.104021   15.858582    4.160988
  51 N     7.0000    0    14.007   -1.346619   13.499070    3.487112
  52 C     6.0000    0    12.011   -1.212448   11.707420    5.215644
  53 C     6.0000    0    12.011   -1.810169   12.132420    7.770176
  54 H     1.0000    0     1.008   -2.152020    9.374931   13.570690
  55 H     1.0000    0     1.008   -3.487490   13.654027   14.760840
  56 H     1.0000    0     1.008   -3.785688   17.015850   11.540180
  57 H     1.0000    0     1.008   -3.325351   18.354343    7.063607
  58 H     1.0000    0     1.008   -2.203043   17.263593    2.659979
  59 H     1.0000    0     1.008   -0.604712    9.850575    4.587688
  60 C     6.0000    0    12.011    0.155902    2.896950    8.871319
  61 C     6.0000    0    12.011   -0.595831    1.338304   10.875752
  62 C     6.0000    0    12.011   -0.216941   -1.234558   10.754998
  63 C     6.0000    0    12.011    0.918407   -2.300175    8.619041
  64 C     6.0000    0    12.011    1.745351   -0.733970    6.651269
  65 C     6.0000    0    12.011    1.371374    1.838326    6.775613
  66 H     1.0000    0     1.008   -1.500632    2.164492   12.506585
  67 H     1.0000    0     1.008   -0.824488   -2.437369   12.286243
  68 H     1.0000    0     1.008    2.665837   -1.566772    5.035175
  69 H     1.0000    0     1.008    1.997441    3.046428    5.258730
  70 C     6.0000    0    12.011    1.119474   -4.938799    8.339172
  71 C     6.0000    0    12.011    1.187693   -7.195132    7.977101
  72 C     6.0000    0    12.011    1.141773   -9.742294    7.206849
  73 C     6.0000    0    12.011    1.326588  -11.814379    8.843729
  74 C     6.0000    0    12.011    1.199976  -14.226425    7.838773
  75 C     6.0000    0    12.011    0.876455  -14.546923    5.254384
  76 N     7.0000    0    14.007    0.699955  -12.567624    3.701785
  77 C     6.0000    0    12.011    0.839794  -10.232867    4.630207
  78 H     1.0000    0     1.008    1.561670  -11.521282   10.847595
  79 H     1.0000    0     1.008    1.340572  -15.859338    9.048765
  80 H     1.0000    0     1.008    0.752300  -16.404524    4.394936
  81 H     1.0000    0     1.008    0.697876   -8.664016    3.300785
  82 C     6.0000    0    12.011   -9.226966    5.344712   -0.422921
  83 C     6.0000    0    12.011   -9.390238    7.558527   -0.975099
  84 C     6.0000    0    12.011   -9.949030   10.056934   -1.693573
  85 C     6.0000    0    12.011  -12.423249   10.616859   -2.344016
  86 C     6.0000    0    12.011  -13.132463   13.046291   -3.093671
  87 C     6.0000    0    12.011  -11.382576   14.957182   -3.211590
  88 C     6.0000    0    12.011   -8.850154   14.475302   -2.570217
  89 C     6.0000    0    12.011   -6.974034   16.371831   -2.656199
  90 C     6.0000    0    12.011   -4.549894   15.805858   -1.997629
  91 N     7.0000    0    14.007   -3.841246   13.451638   -1.255723
  92 C     6.0000    0    12.011   -5.536709   11.625973   -1.164449
  93 C     6.0000    0    12.011   -8.089918   12.007887   -1.796185
  94 H     1.0000    0     1.008  -13.828260    9.140983   -2.262569
  95 H     1.0000    0     1.008  -15.079070   13.407796   -3.582543
  96 H     1.0000    0     1.008  -11.921337   16.835381   -3.791169
  97 H     1.0000    0     1.008   -7.481426   18.257589   -3.238424
  98 H     1.0000    0     1.008   -3.075529   17.240916   -2.057723
  99 H     1.0000    0     1.008   -4.881541    9.775364   -0.566162
 100 C     6.0000    0    12.011   -9.059725    2.740859    0.100533
 101 C     6.0000    0    12.011   -6.992365    1.716627    1.391405
 102 C     6.0000    0    12.011   -6.834195   -0.854723    1.761603
 103 C     6.0000    0    12.011   -8.739794   -2.453431    0.855101
 104 C     6.0000    0    12.011  -10.850052   -1.423153   -0.358103
 105 C     6.0000    0    12.011  -11.004442    1.148387   -0.732836
 106 H     1.0000    0     1.008   -5.523669    2.949862    2.080022
 107 H     1.0000    0     1.008   -5.239644   -1.661069    2.741426
 108 H     1.0000    0     1.008  -12.334054   -2.651853   -1.027822
 109 H     1.0000    0     1.008  -12.614678    1.947930   -1.696596
 110 C     6.0000    0    12.011   -8.419297   -5.087899    1.052955
 111 C     6.0000    0    12.011   -8.022643   -7.338373    1.117773
 112 C     6.0000    0    12.011   -7.209305   -9.872307    1.066939
 113 C     6.0000    0    12.011   -8.813305  -11.972360    1.219440
 114 C     6.0000    0    12.011   -7.766963  -14.366454    1.086593
 115 C     6.0000    0    12.011   -5.174637  -14.641598    0.786315
 116 N     7.0000    0    14.007   -3.653408  -12.635654    0.640617
 117 C     6.0000    0    12.011   -4.621892  -10.317527    0.789528
 118 H     1.0000    0     1.008  -10.824351  -11.714412    1.434869
 119 H     1.0000    0     1.008   -8.951066  -16.020342    1.203189
 120 H     1.0000    0     1.008   -4.283253  -16.483703    0.656491
 121 H     1.0000    0     1.008   -3.317225   -8.725999    0.675010
 122 C     6.0000    0    12.011    0.196532    5.417656   -9.180101
 123 C     6.0000    0    12.011    0.713750    7.640730   -9.330712
 124 C     6.0000    0    12.011    1.391405   10.154254   -9.873063
 125 C     6.0000    0    12.011    2.033345   10.741392  -12.343124
 126 C     6.0000    0    12.011    2.743126   13.187643  -13.035520
 127 C     6.0000    0    12.011    2.829109   15.088329  -11.272594
 128 C     6.0000    0    12.011    2.195673   14.578859   -8.743763
 129 C     6.0000    0    12.011    2.250475   16.463672   -6.854604
 130 C     6.0000    0    12.011    1.601354   15.870109   -4.434242
 131 N     7.0000    0    14.007    0.898187   13.499070   -3.742414
 132 C     6.0000    0    12.011    0.836771   11.683988   -5.450348
 133 C     6.0000    0    12.011    1.461892   12.093869   -8.000911
 134 H     1.0000    0     1.008    1.976465    9.274020  -13.758340
 135 H     1.0000    0     1.008    3.226140   13.570501  -14.979481
 136 H     1.0000    0     1.008    3.377885   16.979567  -11.798505
 137 H     1.0000    0     1.008    2.801708   18.361902   -7.348767
 138 H     1.0000    0     1.008    1.637826   17.295152   -2.949485
 139 H     1.0000    0     1.008    0.269097    9.819395   -4.807841
 140 C     6.0000    0    12.011   -0.285160    2.804732   -9.027978
 141 C     6.0000    0    12.011   -1.595685    1.752910   -6.987073
 142 C     6.0000    0    12.011   -1.925442   -0.824865   -6.842320
 143 C     6.0000    0    12.011   -0.958091   -2.402409   -8.735259
 144 C     6.0000    0    12.011    0.275333   -1.345863  -10.820761
 145 C     6.0000    0    12.011    0.609626    1.232101  -10.961545
 146 H     1.0000    0     1.008   -2.331733    2.970272   -5.527827
 147 H     1.0000    0     1.008   -2.920383   -1.651999   -5.267801
 148 H     1.0000    0     1.008    0.992484   -2.558878  -12.295503
 149 H     1.0000    0     1.008    1.588693    2.052432  -12.551939
 150 C     6.0000    0    12.011   -1.115316   -5.041033   -8.427045
 151 C     6.0000    0    12.011   -1.145174   -7.294343   -8.041919
 152 C     6.0000    0    12.011   -1.055034   -9.832434   -7.245210
 153 C     6.0000    0    12.011   -1.168418  -11.923227   -8.864705
 154 C     6.0000    0    12.011   -0.997586  -14.322423   -7.835560
 155 C     6.0000    0    12.011   -0.698443  -14.611173   -5.244746
 156 N     7.0000    0    14.007   -0.590539  -12.614111   -3.708588
 157 C     6.0000    0    12.011   -0.776866  -10.291826   -4.660254
 158 H     1.0000    0     1.008   -1.383091  -11.653941  -10.874240
 159 H     1.0000    0     1.008   -1.083569  -15.969131   -9.031757
 160 H     1.0000    0     1.008   -0.539139  -16.457058   -4.366212
 161 H     1.0000    0     1.008   -0.693152   -8.708236   -3.343681
* core charge reduced due to ECP

--------------------------------
INTERNAL COORDINATES (ANGSTROEM)
--------------------------------
 Pd     0   0   0     0.000000000000     0.00000000     0.00000000
 Pd     1   0   0    13.793156290349     0.00000000     0.00000000
 C      1   2   0     6.357277679164    49.27263326     0.00000000
 C      3   1   2     1.210550044401    54.54549106   196.46837188
 C      4   3   1     1.407065133531   171.84165987   178.32542399
 C      5   4   3     1.385914950493   117.85710394     3.77922698
 C      6   5   4     1.396787077546   121.39914447   180.58979170
 C      7   6   5     1.372512568248   120.65887222     0.17068813
 C      8   7   6     1.405786231971   119.90127424   359.81912797
 C      9   8   7     1.412557389985   122.24895925   180.09507594
 C     10   9   8     1.362644025415   119.82434040   179.37060357
 N     11  10   9     1.358923426835   122.34597353     0.19802053
 C     12  11  10     1.319392939954   119.62468990     0.31193390
 C     13  12  11     1.406388175434   122.64141262   359.52849054
 H      6   5   4     1.079113233169   119.09937413     0.71710936
 H      7   6   5     1.079166456113   119.18325407   180.09076227
 H      8   7   6     1.078512999458   120.89980701   179.86933827
 H     10   9   8     1.078263868448   119.44988212   359.60182754
 H     11  10   9     1.089181467892   120.92962247   179.78329474
 H     13  12  11     1.085961223985   116.99369212   179.74405196
 C      3   1   2     1.408086332580   126.41812645    13.33360928
 C     21   3   1     1.399051378613   121.57710074    15.82520707
 C     22  21   3     1.377182478831   119.98460560   183.31599750
 C     23  22  21     1.400876600561   120.28860283   359.84807728
 C     24  23  22     1.398811041564   119.75156118   357.91077868
 C     25  24  23     1.377628850598   119.89905462     2.23153300
 H     22  21   3     1.078358539633   119.60785170     2.84116661
 H     23  22  21     1.078424248615   120.44244149   179.43901774
 H     25  24  23     1.079408731667   119.78862905   181.07416446
 H     26  25  24     1.079382499395   120.13262689   178.93168665
 C     24  23  22     1.408169513944   119.02507348   174.34309949
 C     31  24  23     1.209776566148   176.01319536   295.64061610
 C     32  31  24     1.408421847317   171.93122127    21.75501139
 C     33  32  31     1.400821962278   124.64773077   193.79799842
 C     34  33  32     1.384367707656   118.74276923   178.60284329
 C     35  34  33     1.388516262058   119.79257452   359.52368708
 N     36  35  34     1.334520262117   121.26923728     0.44770431
 C     37  36  35     1.331631123848   119.82426710     0.13863627
 H     34  33  32     1.078930257246   120.21328141   358.63653361
 H     35  34  33     1.078099095631   120.49931543   179.85253735
 H     36  35  34     1.085045482918   122.07694939   180.51690863
 H     38  37  36     1.090650622335   117.67048439   179.67637170
 C     20  13  12     5.776350717365   106.15230639   282.81542204
 C     43  20  13     1.210466926438    76.49916048    35.49317355
 C     44  43  20     1.407155730543   171.74574183   199.52964805
 C     45  44  43     1.385814143383   117.83150552     3.53237832
 C     46  45  44     1.396727793810   121.41171915   180.54629914
 C     47  46  45     1.372507963547   120.64441611     0.14220793
 C     48  47  46     1.405741640558   119.90945383   359.85119615
 C     49  48  47     1.412437064085   122.24721221   180.09557906
 C     50  49  48     1.362685822191   119.82368962   179.41255031
 N     51  50  49     1.358972464769   122.35276717     0.20366471
 C     52  51  50     1.319322060757   119.61738669     0.26251152
 C     53  52  51     1.406409947348   122.64080991   359.57146679
 H     46  45  44     1.079197335986   119.09909800     0.67328851
 H     47  46  45     1.079165015185   119.19057264   180.09036671
 H     48  47  46     1.078570744087   120.89988413   179.89185116
 H     50  49  48     1.078320708324   119.44954635   359.63261993
 H     51  50  49     1.089243085817   120.90337077   179.78545513
 H     53  52  51     1.085980022837   117.00105927   179.77595013
 C     43  20  13     1.408150123389   105.31887139   213.45050470
 C     61  43  20     1.401293820011   118.74986547   174.25269017
 C     62  61  43     1.377666763045   120.34913243   176.87967299
 C     63  62  61     1.398757284163   119.89450794   359.84739209
 C     64  63  62     1.400967126666   119.75467622     2.24580024
 C     65  64  63     1.377083690267   120.28915086   357.89555423
 H     62  61  43     1.079426829387   119.51789700   357.78419322
 H     63  62  61     1.079388989197   120.30463733   181.01710121
 H     65  64  63     1.078355201221   119.26055517   178.29104364
 H     66  65  64     1.078328090147   120.41786831   180.32559699
 C     64  63  62     1.408157753947   121.14401893   185.91029129
 C     71  64  63     1.209813940240   175.97128324   112.23480081
 C     72  71  64     1.408390095109   171.83348413    21.45961727
 C     73  72  71     1.400778187294   124.68001077   193.73140269
 C     74  73  72     1.384376104966   118.73785398   178.60591382
 C     75  74  73     1.388669636739   119.79431156   359.52749741
 N     76  75  74     1.334465016402   121.27229391     0.45080475
 C     77  76  75     1.331657591125   119.81305013     0.13973517
 H     74  73  72     1.078878830082   120.21836973   358.64676826
 H     75  74  73     1.078048356986   120.49903182   179.85929684
 H     76  75  74     1.085103004327   122.06460945   180.52177178
 H     78  77  76     1.090772341050   117.66996256   179.67495959
 C     60  53  52     5.790858908659   106.22024057   282.88467367
 C     83  60  53     1.210478438470    76.60123132    35.73359053
 C     84  83  60     1.407103031054   171.71296099   200.03267990
 C     85  84  83     1.385833258368   117.81011092     2.53562006
 C     86  85  84     1.396777842035   121.41140099   180.39890640
 C     87  86  85     1.372550618374   120.64574270     0.12974765
 C     88  87  86     1.405733036533   119.90328788   359.91060701
 C     89  88  87     1.412421696945   122.23653836   180.05748805
 C     90  89  88     1.362618193039   119.82254317   179.54726953
 N     91  90  89     1.358961883203   122.35504532     0.22776549
 C     92  91  90     1.319336931947   119.61754960     0.14369391
 C     93  92  91     1.406439515230   122.63980622   359.65115310
 H     86  85  84     1.079171376566   119.09472032     0.56811785
 H     87  86  85     1.079179035193   119.19004831   180.09963551
 H     88  87  86     1.078510134398   120.89851311   179.93861114
 H     90  89  88     1.078342371420   119.45447969   359.74805576
 H     91  90  89     1.089225247596   120.90544341   179.79539946
 H     93  92  91     1.086031739868   116.99271693   179.81952080
 C     83  60  53     1.408250567193   105.26591916   213.75245284
 C    101  83  60     1.399008795541   121.61796466   354.86685802
 C    102 101  83     1.377275204888   119.98202419   183.16179752
 C    103 102 101     1.400963472043   120.27536621   359.85897620
 C    104 103 102     1.398722963993   119.76490618   357.92047376
 C    105 104 103     1.377597335944   119.89748152     2.21744619
 H    102 101  83     1.078292149651   119.61476883     2.74373799
 H    103 102 101     1.078384708719   120.45516736   179.50345389
 H    105 104 103     1.079377362186   119.78573863   181.06487718
 H    106 105 104     1.079438752315   120.13303160   178.95349222
 C    104 103 102     1.408275917567   119.05505228   174.20404456
 C    111 104 103     1.209742662718   175.96280382   293.53791779
 C    112 111 104     1.408538455279   171.74080879    21.71244526
 C    113 112 111     1.400700403370   124.68210220   194.43030032
 C    114 113 112     1.384399288500   118.73493986   178.47988084
 C    115 114 113     1.388626591276   119.79338646   359.46749748
 N    116 115 114     1.334448073175   121.27470405     0.51376157
 C    117 116 115     1.331787738343   119.81044626     0.14445601
 H    114 113 112     1.078957779526   120.22579514   358.52512398
 H    115 114 113     1.078150958818   120.49810854   179.83983716
 H    116 115 114     1.085106271293   122.06454834   180.57836920
 H    118 117 116     1.090699481984   117.66886900   179.61184458
 C     27  22  21     4.711442677143   145.41953334   125.07837462
 C    123  27  22     1.210446504394   100.41327570   241.04762350
 C    124 123  27     1.407170554695   171.76748815   127.98262297
 C    125 124 123     1.385799765478   117.82444362     2.37890325
 C    126 125 124     1.396801549971   121.40701233   180.39646631
 C    127 126 125     1.372591089873   120.64619211     0.13416822
 C    128 127 126     1.405639512820   119.90771041   359.92459342
 C    129 128 127     1.412461627797   122.24092740   180.04353815
 C    130 129 128     1.362754453304   119.81977287   179.55506534
 N    131 130 129     1.358955374543   122.34537508     0.22022002
 C    132 131 130     1.319269093097   119.62936045     0.14646334
 C    133 132 131     1.406472303318   122.63951727   359.64536067
 H    126 125 124     1.079217063431   119.10222768     0.57514663
 H    127 126 125     1.079167183526   119.19101644   180.11687794
 H    128 127 126     1.078602656218   120.89567090   179.93950035
 H    130 129 128     1.078188939843   119.45738556   359.74615824
 H    131 130 129     1.089203282221   120.92584259   179.78777635
 H    133 132 131     1.086009691485   116.98862050   179.81239544
 C    123  27  22     1.408301654476    78.34424224    58.61253365
 C    141 123  27     1.398980275058   121.63326737    67.17309140
 C    142 141 123     1.377347675789   119.98491761   183.12777477
 C    143 142 141     1.400833873091   120.27388169   359.85756711
 C    144 143 142     1.398764833702   119.76857670   357.91535344
 C    145 144 143     1.377637651924   119.89395032     2.22556663
 H    142 141 123     1.078423261062   119.61423791     2.72125153
 H    143 142 141     1.078427456995   120.44995819   179.50833801
 H    145 144 143     1.079388725159   119.78802045   181.05569540
 H    146 145 144     1.079426227215   120.13450512   178.94694350
 C    144 143 142     1.408253364988   119.10850884   174.17827362
 C    151 144 143     1.209794131247   175.97880618   292.18775320
 C    152 151 144     1.408523858513   171.81852879    21.85578612
 C    153 152 151     1.400774771332   124.65162642   194.78654672
 C    154 153 152     1.384429658740   118.74225485   178.43494494
 C    155 154 153     1.388541583821   119.78625504   359.46275749
 N    156 155 154     1.334501052828   121.27726182     0.53106305
 C    157 156 155     1.331739512818   119.81742688     0.14184691
 H    154 153 152     1.078902576695   120.21201985   358.49629566
 H    155 154 153     1.078006127070   120.50098833   179.83940414
 H    156 155 154     1.085069924014   122.07029334   180.59213839
 H    158 157 156     1.090686655277   117.67345652   179.59288513

---------------------------
INTERNAL COORDINATES (A.U.)
---------------------------
 Pd     0   0   0     0.000000000000     0.00000000     0.00000000
 Pd     1   0   0    26.065287911133     0.00000000     0.00000000
 C      1   2   0    12.013513770911    49.27263326     0.00000000
 C      3   1   2     2.287608055325    54.54549106   196.46837188
 C      4   3   1     2.658967754964   171.84165987   178.32542399
 C      5   4   3     2.618999701339   117.85710394     3.77922698
 C      6   5   4     2.639545043963   121.39914447   180.58979170
 C      7   6   5     2.593672869355   120.65887222     0.17068813
 C      8   7   6     2.656550981263   119.90127424   359.81912797
 C      9   8   7     2.669346615517   122.24895925   180.09507594
 C     10   9   8     2.575024026059   119.82434040   179.37060357
 N     11  10   9     2.567993113687   122.34597353     0.19802053
 C     12  11  10     2.493291319542   119.62468990     0.31193390
 C     13  12  11     2.657688489555   122.64141262   359.52849054
 H      6   5   4     2.039228478179   119.09937413     0.71710936
 H      7   6   5     2.039329054968   119.18325407   180.09076227
 H      8   7   6     2.038094200850   120.89980701   179.86933827
 H     10   9   8     2.037623411469   119.44988212   359.60182754
 H     11  10   9     2.058254684459   120.92962247   179.78329474
 H     13  12  11     2.052169305390   116.99369212   179.74405196
 C      3   1   2     2.660897541495   126.41812645    13.33360928
 C     21   3   1     2.643823952864   121.57710074    15.82520707
 C     22  21   3     2.602497721426   119.98460560   183.31599750
 C     23  22  21     2.647273122479   120.28860283   359.84807728
 C     24  23  22     2.643369781660   119.75156118   357.91077868
 C     25  24  23     2.603341241819   119.89905462     2.23153300
 H     22  21   3     2.037802314082   119.60785170     2.84116661
 H     23  22  21     2.037926486061   120.44244149   179.43901774
 H     25  24  23     2.039786889415   119.78862905   181.07416446
 H     26  25  24     2.039737317604   120.13262689   178.93168665
 C     24  23  22     2.661054731490   119.02507348   174.34309949
 C     31  24  23     2.286146393255   176.01319536   295.64061610
 C     32  31  24     2.661531572461   171.93122127    21.75501139
 C     33  32  31     2.647169871087   124.64773077   193.79799842
 C     34  33  32     2.616075836114   118.74276923   178.60284329
 C     35  34  33     2.623915467786   119.79257452   359.52368708
 N     36  35  34     2.521877815569   121.26923728     0.44770431
 C     37  36  35     2.516418135478   119.82426710     0.13863627
 H     34  33  32     2.038882703795   120.21328141   358.63653361
 H     35  34  33     2.037312035970   120.49931543   179.85253735
 H     36  35  34     2.050438805563   122.07694939   180.51690863
 H     38  37  36     2.061030984004   117.67048439   179.67637170
 C     20  13  12    10.915720909299   106.15230639   282.81542204
 C     43  20  13     2.287450985137    76.49916048    35.49317355
 C     44  43  20     2.659138958504   171.74574183   199.52964805
 C     45  44  43     2.618809203508   117.83150552     3.53237832
 C     46  45  44     2.639433013936   121.41171915   180.54629914
 C     47  46  45     2.593664167730   120.64441611     0.14220793
 C     48  47  46     2.656466715705   119.90945383   359.85119615
 C     49  48  47     2.669119232520   122.24721221   180.09557906
 C     50  49  48     2.575103010518   119.82368962   179.41255031
 N     51  50  49     2.568085781953   122.35276717     0.20366471
 C     52  51  50     2.493157377271   119.61738669     0.26251152
 C     53  52  51     2.657729632511   122.64080991   359.57146679
 H     46  45  44     2.039387409472   119.09909800     0.67328851
 H     47  46  45     2.039326332009   119.19057264   180.09036671
 H     48  47  46     2.038203322384   120.89988413   179.89185116
 H     50  49  48     2.037730823268   119.44954635   359.63261993
 H     51  50  49     2.058371125461   120.90337077   179.78545513
 H     53  52  51     2.052204830071   117.00105927   179.77595013
 C     43  20  13     2.661018088652   105.31887139   213.45050470
 C     61  43  20     2.648061552976   118.74986547   174.25269017
 C     62  61  43     2.603412885962   120.34913243   176.87967299
 C     63  62  61     2.643268194896   119.89450794   359.84739209
 C     64  63  62     2.647444192026   119.75467622     2.24580024
 C     65  64  63     2.602311038095   120.28915086   357.89555423
 H     62  61  43     2.039821089148   119.51789700   357.78419322
 H     63  62  61     2.039749581553   120.30463733   181.01710121
 H     65  64  63     2.037796005397   119.26055517   178.29104364
 H     66  65  64     2.037744772892   120.41786831   180.32559699
 C     64  63  62     2.661032508317   121.14401893   185.91029129
 C     71  64  63     2.286217020055   175.97128324   112.23480081
 C     72  71  64     2.661471569483   171.83348413    21.45961727
 C     73  72  71     2.647087148357   124.68001077   193.73140269
 C     74  73  72     2.616091704730   118.73785398   178.60591382
 C     75  74  73     2.624205303928   119.79431156   359.52749741
 N     76  75  74     2.521773416298   121.27229391     0.45080475
 C     77  76  75     2.516468151383   119.81305013     0.13973517
 H     74  73  72     2.038785520541   120.21836973   358.64676826
 H     75  74  73     2.037216153827   120.49903182   179.85929684
 H     76  75  74     2.050547505274   122.06460945   180.52177178
 H     78  77  76     2.061260999041   117.66996256   179.67495959
 C     60  53  52    10.943137417544   106.22024057   282.88467367
 C     83  60  53     2.287472739724    76.60123132    35.73359053
 C     84  83  60     2.659039370902   171.71296099   200.03267990
 C     85  84  83     2.618845325596   117.81011092     2.53562006
 C     86  85  84     2.639527591376   121.41140099   180.39890640
 C     87  86  85     2.593744773672   120.64574270     0.12974765
 C     88  87  86     2.656450456453   119.90328788   359.91060701
 C     89  88  87     2.669090192834   122.23653836   180.05748805
 C     90  89  88     2.574975209942   119.82254317   179.54726953
 N     91  90  89     2.568065785692   122.35504532     0.22776549
 C     92  91  90     2.493185479748   119.61754960     0.14369391
 C     93  92  91     2.657785507709   122.63980622   359.65115310
 H     86  85  84     2.039338353277   119.09472032     0.56811785
 H     87  86  85     2.039352825984   119.19004831   180.09963551
 H     88  87  86     2.038088786672   120.89851311   179.93861114
 H     90  89  88     2.037771760587   119.45447969   359.74805576
 H     91  90  89     2.058337416109   120.90544341   179.79539946
 H     93  92  91     2.052302561096   116.99271693   179.81952080
 C     83  60  53     2.661207899934   105.26591916   213.75245284
 C    101  83  60     2.643743482519   121.61796466   354.86685802
 C    102 101  83     2.602672948279   119.98202419   183.16179752
 C    103 102 101     2.647437285790   120.27536621   359.85897620
 C    104 103 102     2.643203339172   119.76490618   357.92047376
 C    105 104 103     2.603281687754   119.89748152     2.21744619
 H    102 101  83     2.037676855199   119.61476883     2.74373799
 H    103 102 101     2.037851766488   120.45516736   179.50345389
 H    105 104 103     2.039727609686   119.78573863   181.06487718
 H    106 105 104     2.039843620218   120.13303160   178.95349222
 C    104 103 102     2.661255805199   119.05505228   174.20404456
 C    111 104 103     2.286082325058   175.96280382   293.53791779
 C    112 111 104     2.661751929574   171.74080879    21.71244526
 C    113 112 111     2.646940158042   124.68210220   194.43030032
 C    114 113 112     2.616135515261   118.73493986   178.47988084
 C    115 114 113     2.624123959793   119.79338646   359.46749748
 N    116 115 114     2.521741398239   121.27470405     0.51376157
 C    117 116 115     2.516714093982   119.81044626     0.14445601
 H    114 113 112     2.038934713368   120.22579514   358.52512398
 H    115 114 113     2.037410043190   120.49810854   179.83983716
 H    116 115 114     2.050553678945   122.06454834   180.57836920
 H    118 117 116     2.061123315359   117.66886900   179.61184458
 C     27  22  21     8.903336355468   145.41953334   125.07837462
 C    123  27  22     2.287412393067   100.41327570   241.04762350
 C    124 123  27     2.659166972091   171.76748815   127.98262297
 C    125 124 123     2.618782033206   117.82444362     2.37890325
 C    126 125 124     2.639572392881   121.40701233   180.39646631
 C    127 126 125     2.593821253721   120.64619211     0.13416822
 C    128 127 126     2.656273722248   119.90771041   359.92459342
 C    129 128 127     2.669165651210   122.24092740   180.04353815
 C    130 129 128     2.575232704526   119.81977287   179.55506534
 N    131 130 129     2.568053486107   122.34537508     0.22022002
 C    132 131 130     2.493057282899   119.62936045     0.14646334
 C    133 132 131     2.657847468216   122.63951727   359.64536067
 H    126 125 124     2.039424688939   119.10222768     0.57514663
 H    127 126 125     2.039330429580   119.19101644   180.11687794
 H    128 127 126     2.038263627572   120.89567090   179.93950035
 H    130 129 128     2.037481816926   119.45738556   359.74615824
 H    131 130 129     2.058295907565   120.92584259   179.78777635
 H    133 132 131     2.052260895692   116.98862050   179.81239544
 C    123  27  22     2.661304440908    78.34424224    58.61253365
 C    141 123  27     2.643689586617   121.63326737    67.17309140
 C    142 141 123     2.602809898433   119.98491761   183.12777477
 C    143 142 141     2.647192379263   120.27388169   359.85756711
 C    144 143 142     2.643282461456   119.76857670   357.91535344
 C    145 144 143     2.603357873916   119.89395032     2.22556663
 H    142 141 123     2.037924619858   119.61423791     2.72125153
 H    143 142 141     2.037932549021   120.44995819   179.50833801
 H    145 144 143     2.039749082593   119.78802045   181.05569540
 H    146 145 144     2.039819951209   120.13450512   178.94694350
 C    144 143 142     2.661213187000   119.10850884   174.17827362
 C    151 144 143     2.286179586482   175.97880618   292.18775320
 C    152 151 144     2.661724345683   171.81852879    21.85578612
 C    153 152 151     2.647080693123   124.65162642   194.78654672
 C    154 153 152     2.616192906697   118.74225485   178.43494494
 C    155 154 153     2.623963318983   119.78625504   359.46275749
 N    156 155 154     2.521841515275   121.27726182     0.53106305
 C    157 156 155     2.516622960947   119.81742688     0.14184691
 H    154 153 152     2.038830395136   120.21201985   358.49629566
 H    155 154 153     2.037136350851   120.50098833   179.83940414
 H    156 155 154     2.050484992541   122.07029334   180.59213839
 H    158 157 156     2.061099076397   117.67345652   179.59288513

---------------------
BASIS SET INFORMATION
---------------------
There are 4 groups of distinct atoms

 Group   1 Type Pd  : 7s7p6d contracted to 6s4p3d pattern {211111/4111/411}
 Group   2 Type C   : 11s6p1d contracted to 5s3p1d pattern {62111/411/1}
 Group   3 Type N   : 11s6p1d contracted to 5s3p1d pattern {62111/411/1}
 Group   4 Type H   : 5s contracted to 3s pattern {311}

Atom   0Pd   basis set group =>   1
Atom   1Pd   basis set group =>   1
Atom   2C    basis set group =>   2
Atom   3C    basis set group =>   2
Atom   4C    basis set group =>   2
Atom   5C    basis set group =>   2
Atom   6C    basis set group =>   2
Atom   7C    basis set group =>   2
Atom   8C    basis set group =>   2
Atom   9C    basis set group =>   2
Atom  10C    basis set group =>   2
Atom  11N    basis set group =>   3
Atom  12C    basis set group =>   2
Atom  13C    basis set group =>   2
Atom  14H    basis set group =>   4
Atom  15H    basis set group =>   4
Atom  16H    basis set group =>   4
Atom  17H    basis set group =>   4
Atom  18H    basis set group =>   4
Atom  19H    basis set group =>   4
Atom  20C    basis set group =>   2
Atom  21C    basis set group =>   2
Atom  22C    basis set group =>   2
Atom  23C    basis set group =>   2
Atom  24C    basis set group =>   2
Atom  25C    basis set group =>   2
Atom  26H    basis set group =>   4
Atom  27H    basis set group =>   4
Atom  28H    basis set group =>   4
Atom  29H    basis set group =>   4
Atom  30C    basis set group =>   2
Atom  31C    basis set group =>   2
Atom  32C    basis set group =>   2
Atom  33C    basis set group =>   2
Atom  34C    basis set group =>   2
Atom  35C    basis set group =>   2
Atom  36N    basis set group =>   3
Atom  37C    basis set group =>   2
Atom  38H    basis set group =>   4
Atom  39H    basis set group =>   4
Atom  40H    basis set group =>   4
Atom  41H    basis set group =>   4
Atom  42C    basis set group =>   2
Atom  43C    basis set group =>   2
Atom  44C    basis set group =>   2
Atom  45C    basis set group =>   2
Atom  46C    basis set group =>   2
Atom  47C    basis set group =>   2
Atom  48C    basis set group =>   2
Atom  49C    basis set group =>   2
Atom  50C    basis set group =>   2
Atom  51N    basis set group =>   3
Atom  52C    basis set group =>   2
Atom  53C    basis set group =>   2
Atom  54H    basis set group =>   4
Atom  55H    basis set group =>   4
Atom  56H    basis set group =>   4
Atom  57H    basis set group =>   4
Atom  58H    basis set group =>   4
Atom  59H    basis set group =>   4
Atom  60C    basis set group =>   2
Atom  61C    basis set group =>   2
Atom  62C    basis set group =>   2
Atom  63C    basis set group =>   2
Atom  64C    basis set group =>   2
Atom  65C    basis set group =>   2
Atom  66H    basis set group =>   4
Atom  67H    basis set group =>   4
Atom  68H    basis set group =>   4
Atom  69H    basis set group =>   4
Atom  70C    basis set group =>   2
Atom  71C    basis set group =>   2
Atom  72C    basis set group =>   2
Atom  73C    basis set group =>   2
Atom  74C    basis set group =>   2
Atom  75C    basis set group =>   2
Atom  76N    basis set group =>   3
Atom  77C    basis set group =>   2
Atom  78H    basis set group =>   4
Atom  79H    basis set group =>   4
Atom  80H    basis set group =>   4
Atom  81H    basis set group =>   4
Atom  82C    basis set group =>   2
Atom  83C    basis set group =>   2
Atom  84C    basis set group =>   2
Atom  85C    basis set group =>   2
Atom  86C    basis set group =>   2
Atom  87C    basis set group =>   2
Atom  88C    basis set group =>   2
Atom  89C    basis set group =>   2
Atom  90C    basis set group =>   2
Atom  91N    basis set group =>   3
Atom  92C    basis set group =>   2
Atom  93C    basis set group =>   2
Atom  94H    basis set group =>   4
Atom  95H    basis set group =>   4
Atom  96H    basis set group =>   4
Atom  97H    basis set group =>   4
Atom  98H    basis set group =>   4
Atom  99H    basis set group =>   4
Atom 100C    basis set group =>   2
Atom 101C    basis set group =>   2
Atom 102C    basis set group =>   2
Atom 103C    basis set group =>   2
Atom 104C    basis set group =>   2
Atom 105C    basis set group =>   2
Atom 106H    basis set group =>   4
Atom 107H    basis set group =>   4
Atom 108H    basis set group =>   4
Atom 109H    basis set group =>   4
Atom 110C    basis set group =>   2
Atom 111C    basis set group =>   2
Atom 112C    basis set group =>   2
Atom 113C    basis set group =>   2
Atom 114C    basis set group =>   2
Atom 115C    basis set group =>   2
Atom 116N    basis set group =>   3
Atom 117C    basis set group =>   2
Atom 118H    basis set group =>   4
Atom 119H    basis set group =>   4
Atom 120H    basis set group =>   4
Atom 121H    basis set group =>   4
Atom 122C    basis set group =>   2
Atom 123C    basis set group =>   2
Atom 124C    basis set group =>   2
Atom 125C    basis set group =>   2
Atom 126C    basis set group =>   2
Atom 127C    basis set group =>   2
Atom 128C    basis set group =>   2
Atom 129C    basis set group =>   2
Atom 130C    basis set group =>   2
Atom 131N    basis set group =>   3
Atom 132C    basis set group =>   2
Atom 133C    basis set group =>   2
Atom 134H    basis set group =>   4
Atom 135H    basis set group =>   4
Atom 136H    basis set group =>   4
Atom 137H    basis set group =>   4
Atom 138H    basis set group =>   4
Atom 139H    basis set group =>   4
Atom 140C    basis set group =>   2
Atom 141C    basis set group =>   2
Atom 142C    basis set group =>   2
Atom 143C    basis set group =>   2
Atom 144C    basis set group =>   2
Atom 145C    basis set group =>   2
Atom 146H    basis set group =>   4
Atom 147H    basis set group =>   4
Atom 148H    basis set group =>   4
Atom 149H    basis set group =>   4
Atom 150C    basis set group =>   2
Atom 151C    basis set group =>   2
Atom 152C    basis set group =>   2
Atom 153C    basis set group =>   2
Atom 154C    basis set group =>   2
Atom 155C    basis set group =>   2
Atom 156N    basis set group =>   3
Atom 157C    basis set group =>   2
Atom 158H    basis set group =>   4
Atom 159H    basis set group =>   4
Atom 160H    basis set group =>   4
Atom 161H    basis set group =>   4

-------------------------
BASIS SET IN INPUT FORMAT
-------------------------

 # Basis set for element : H 
 NewGTO H 
 S 3 
   1      34.0613410000      0.0254393072
   2       5.1235746000      0.1900859489
   3       1.1646626000      0.8524411301
 S 1 
   1       0.3272304100      1.0000000000
 S 1 
   1       0.1030724100      1.0000000000
  end;

 # Basis set for element : C 
 NewGTO C 
 S 6 
   1   13575.3496820000      0.0006064549
   2    2035.2333680000      0.0046979088
   3     463.2256235900      0.0243324776
   4     131.2001959800      0.0973999683
   5      42.8530158910      0.3019558425
   6      15.5841857660      0.6623360915
 S 2 
   1       6.2067138508      0.6559530854
   2       2.5764896527      0.3758563329
 S 1 
   1       0.5769633942      1.0000000000
 S 1 
   1       0.2297283136      1.0000000000
 S 1 
   1       0.0951644400      1.0000000000
 P 4 
   1      34.6972322440      0.0113272200
   2       7.9582622826      0.0761696592
   3       2.3780826883      0.3019225220
   4       0.8143320818      0.7278502735
 P 1 
   1       0.2888754725      1.0000000000
 P 1 
   1       0.1005682367      1.0000000000
 D 1 
   1       0.8000000000      1.0000000000
  end;

 # Basis set for element : N 
 NewGTO N 
 S 6 
   1   19730.8006470000      0.0005862639
   2    2957.8958745000      0.0045428821
   3     673.2213359500      0.0235584136
   4     190.6824949400      0.0947091933
   5      62.2954418980      0.2971978492
   6      22.6541611820      0.6691624689
 S 2 
   1       8.9791477428      0.6459668363
   2       3.6863002370      0.3870057440
 S 1 
   1       0.8466007680      1.0000000000
 S 1 
   1       0.3364713377      1.0000000000
 S 1 
   1       0.1364765367      1.0000000000
 P 4 
   1      49.2003805100      0.0114488252
   2      11.3467905370      0.0784223379
   3       3.4273972411      0.3081809474
   4       1.1785525134      0.7202719637
 P 1 
   1       0.4164220497      1.0000000000
 P 1 
   1       0.1426082601      1.0000000000
 D 1 
   1       0.8000000000      1.0000000000
  end;

 # Basis set for element : Pd
 NewGTO Pd
 S 2 
   1      18.0000000000     -0.8955869481
   2      14.6621343080      1.8822771923
 S 1 
   1       5.6388709265      1.0000000000
 S 1 
   1       1.3198953252      1.0000000000
 S 1 
   1       0.5781790851      1.0000000000
 S 1 
   1       0.1035216624      1.0000000000
 S 1 
   1       0.0375484427      1.0000000000
 P 4 
   1      12.5528993000      0.0701895210
   2       7.2444496380     -0.2749252830
   3       1.8905941078      0.5623121361
   4       0.9073716876      0.5736959368
 P 1 
   1       0.4087721081      1.0000000000
 P 1 
   1       0.1150000000      1.0000000000
 P 1 
   1       0.0370000000      1.0000000000
 D 4 
   1      22.3574575750      0.0063445039
   2      10.6825263820     -0.0225156052
   3       2.4858232550      0.3884291800
   4       1.0735333903      0.6828976806
 D 1 
   1       0.4261384285      1.0000000000
 D 1 
   1       0.1504635538      1.0000000000
  end;

---------------------------------
AUXILIARY/J BASIS SET INFORMATION
---------------------------------
There are 4 groups of distinct atoms

 Group   1 Type Pd  : 11s5p5d3f3g contracted to 8s5p5d2f3g pattern {41111111/11111/11111/21/111}
 Group   2 Type C   : 8s3p3d contracted to 6s3p3d pattern {311111/111/111}
 Group   3 Type N   : 8s3p3d contracted to 6s3p3d pattern {311111/111/111}
 Group   4 Type H   : 5s2p contracted to 3s1p pattern {311/2}

Atom   0Pd   basis set group =>   1
Atom   1Pd   basis set group =>   1
Atom   2C    basis set group =>   2
Atom   3C    basis set group =>   2
Atom   4C    basis set group =>   2
Atom   5C    basis set group =>   2
Atom   6C    basis set group =>   2
Atom   7C    basis set group =>   2
Atom   8C    basis set group =>   2
Atom   9C    basis set group =>   2
Atom  10C    basis set group =>   2
Atom  11N    basis set group =>   3
Atom  12C    basis set group =>   2
Atom  13C    basis set group =>   2
Atom  14H    basis set group =>   4
Atom  15H    basis set group =>   4
Atom  16H    basis set group =>   4
Atom  17H    basis set group =>   4
Atom  18H    basis set group =>   4
Atom  19H    basis set group =>   4
Atom  20C    basis set group =>   2
Atom  21C    basis set group =>   2
Atom  22C    basis set group =>   2
Atom  23C    basis set group =>   2
Atom  24C    basis set group =>   2
Atom  25C    basis set group =>   2
Atom  26H    basis set group =>   4
Atom  27H    basis set group =>   4
Atom  28H    basis set group =>   4
Atom  29H    basis set group =>   4
Atom  30C    basis set group =>   2
Atom  31C    basis set group =>   2
Atom  32C    basis set group =>   2
Atom  33C    basis set group =>   2
Atom  34C    basis set group =>   2
Atom  35C    basis set group =>   2
Atom  36N    basis set group =>   3
Atom  37C    basis set group =>   2
Atom  38H    basis set group =>   4
Atom  39H    basis set group =>   4
Atom  40H    basis set group =>   4
Atom  41H    basis set group =>   4
Atom  42C    basis set group =>   2
Atom  43C    basis set group =>   2
Atom  44C    basis set group =>   2
Atom  45C    basis set group =>   2
Atom  46C    basis set group =>   2
Atom  47C    basis set group =>   2
Atom  48C    basis set group =>   2
Atom  49C    basis set group =>   2
Atom  50C    basis set group =>   2
Atom  51N    basis set group =>   3
Atom  52C    basis set group =>   2
Atom  53C    basis set group =>   2
Atom  54H    basis set group =>   4
Atom  55H    basis set group =>   4
Atom  56H    basis set group =>   4
Atom  57H    basis set group =>   4
Atom  58H    basis set group =>   4
Atom  59H    basis set group =>   4
Atom  60C    basis set group =>   2
Atom  61C    basis set group =>   2
Atom  62C    basis set group =>   2
Atom  63C    basis set group =>   2
Atom  64C    basis set group =>   2
Atom  65C    basis set group =>   2
Atom  66H    basis set group =>   4
Atom  67H    basis set group =>   4
Atom  68H    basis set group =>   4
Atom  69H    basis set group =>   4
Atom  70C    basis set group =>   2
Atom  71C    basis set group =>   2
Atom  72C    basis set group =>   2
Atom  73C    basis set group =>   2
Atom  74C    basis set group =>   2
Atom  75C    basis set group =>   2
Atom  76N    basis set group =>   3
Atom  77C    basis set group =>   2
Atom  78H    basis set group =>   4
Atom  79H    basis set group =>   4
Atom  80H    basis set group =>   4
Atom  81H    basis set group =>   4
Atom  82C    basis set group =>   2
Atom  83C    basis set group =>   2
Atom  84C    basis set group =>   2
Atom  85C    basis set group =>   2
Atom  86C    basis set group =>   2
Atom  87C    basis set group =>   2
Atom  88C    basis set group =>   2
Atom  89C    basis set group =>   2
Atom  90C    basis set group =>   2
Atom  91N    basis set group =>   3
Atom  92C    basis set group =>   2
Atom  93C    basis set group =>   2
Atom  94H    basis set group =>   4
Atom  95H    basis set group =>   4
Atom  96H    basis set group =>   4
Atom  97H    basis set group =>   4
Atom  98H    basis set group =>   4
Atom  99H    basis set group =>   4
Atom 100C    basis set group =>   2
Atom 101C    basis set group =>   2
Atom 102C    basis set group =>   2
Atom 103C    basis set group =>   2
Atom 104C    basis set group =>   2
Atom 105C    basis set group =>   2
Atom 106H    basis set group =>   4
Atom 107H    basis set group =>   4
Atom 108H    basis set group =>   4
Atom 109H    basis set group =>   4
Atom 110C    basis set group =>   2
Atom 111C    basis set group =>   2
Atom 112C    basis set group =>   2
Atom 113C    basis set group =>   2
Atom 114C    basis set group =>   2
Atom 115C    basis set group =>   2
Atom 116N    basis set group =>   3
Atom 117C    basis set group =>   2
Atom 118H    basis set group =>   4
Atom 119H    basis set group =>   4
Atom 120H    basis set group =>   4
Atom 121H    basis set group =>   4
Atom 122C    basis set group =>   2
Atom 123C    basis set group =>   2
Atom 124C    basis set group =>   2
Atom 125C    basis set group =>   2
Atom 126C    basis set group =>   2
Atom 127C    basis set group =>   2
Atom 128C    basis set group =>   2
Atom 129C    basis set group =>   2
Atom 130C    basis set group =>   2
Atom 131N    basis set group =>   3
Atom 132C    basis set group =>   2
Atom 133C    basis set group =>   2
Atom 134H    basis set group =>   4
Atom 135H    basis set group =>   4
Atom 136H    basis set group =>   4
Atom 137H    basis set group =>   4
Atom 138H    basis set group =>   4
Atom 139H    basis set group =>   4
Atom 140C    basis set group =>   2
Atom 141C    basis set group =>   2
Atom 142C    basis set group =>   2
Atom 143C    basis set group =>   2
Atom 144C    basis set group =>   2
Atom 145C    basis set group =>   2
Atom 146H    basis set group =>   4
Atom 147H    basis set group =>   4
Atom 148H    basis set group =>   4
Atom 149H    basis set group =>   4
Atom 150C    basis set group =>   2
Atom 151C    basis set group =>   2
Atom 152C    basis set group =>   2
Atom 153C    basis set group =>   2
Atom 154C    basis set group =>   2
Atom 155C    basis set group =>   2
Atom 156N    basis set group =>   3
Atom 157C    basis set group =>   2
Atom 158H    basis set group =>   4
Atom 159H    basis set group =>   4
Atom 160H    basis set group =>   4
Atom 161H    basis set group =>   4

-------------------------------------
AUXILIARY/J BASIS SET IN INPUT FORMAT
-------------------------------------

 # Auxiliary/J basis set for element : H 
 NewAuxJGTO H 
 S 3 
   1      15.6752927000      0.1007184237
   2       3.6063578000      0.3404257499
   3       1.2080016000      0.6491996172
 S 1 
   1       0.4726794000      1.0000000000
 S 1 
   1       0.2018100000      1.0000000000
 P 2 
   1       2.0281365000      0.5596620919
   2       0.5358730000      0.5596620919
  end;

 # Auxiliary/J basis set for element : C 
 NewAuxJGTO C 
 S 3 
   1     459.7023860000      0.1098751775
   2     132.9577920000      0.2844848472
   3      41.5658170000      0.6964707648
 S 1 
   1      13.9155610000      1.0000000000
 S 1 
   1       4.9305290000     -1.0000000000
 S 1 
   1       1.8229480000      1.0000000000
 S 1 
   1       0.6920510000      1.0000000000
 S 1 
   1       0.2650930000      1.0000000000
 P 1 
   1       0.3278473579      1.0000000000
 P 1 
   1       0.7868336591      1.0000000000
 P 1 
   1       1.9710183160      1.0000000000
 D 1 
   1       4.0133010000      1.0000000000
 D 1 
   1       1.2475050000      1.0000000000
 D 1 
   1       0.4081480000      1.0000000000
  end;

 # Auxiliary/J basis set for element : N 
 NewAuxJGTO N 
 S 3 
   1     680.5425300000      0.1043830093
   2     196.7562140000      0.2751518961
   3      61.2707930000      0.7090825511
 S 1 
   1      20.3644630000      1.0000000000
 S 1 
   1       7.1424770000     -1.0000000000
 S 1 
   1       2.6080260000      1.0000000000
 S 1 
   1       0.9763730000      1.0000000000
 S 1 
   1       0.3686330000      1.0000000000
 P 1 
   1       0.4707391941      1.0000000000
 P 1 
   1       1.1297740658     -1.0000000000
 P 1 
   1       2.8300840347      1.0000000000
 D 1 
   1       5.8329865000      1.0000000000
 D 1 
   1       1.7326865000      1.0000000000
 D 1 
   1       0.5452425000      1.0000000000
  end;

 # Auxiliary/J basis set for element : Pd
 NewAuxJGTO Pd
 S 4 
   1      51.0211803000      0.0154414011
   2      17.6543867000     -0.3899991562
   3      10.3849330000      1.7000917225
   4       6.2315704000     -2.2542519748
 S 1 
   1       3.6656295000     -1.0000000000
 S 1 
   1       2.1995933000      1.0000000000
 S 1 
   1       1.2683839000      1.0000000000
 S 1 
   1       0.7461081000      1.0000000000
 S 1 
   1       0.4477087000      1.0000000000
 S 1 
   1       0.2581689000      1.0000000000
 S 1 
   1       0.1518640000      1.0000000000
 P 1 
   1       5.6999676000      1.0000000000
 P 1 
   1       2.5155374000     -1.0000000000
 P 1 
   1       1.1229524000      1.0000000000
 P 1 
   1       0.5047808000     -1.0000000000
 P 1 
   1       0.2274325000     -1.0000000000
 D 1 
   1       3.8006002000      1.0000000000
 D 1 
   1       1.5882692000     -1.0000000000
 D 1 
   1       0.6550157000     -1.0000000000
 D 1 
   1       0.2680210000      1.0000000000
 D 1 
   1       0.1093843000     -1.0000000000
 F 2 
   1       2.0106185000     -1.3134732431
   2       0.8268460000      0.9210621264
 F 1 
   1       0.3451253000      1.0000000000
 G 1 
   1       7.5375072000      1.0000000000
 G 1 
   1       2.7664349000      1.0000000000
 G 1 
   1       1.0133462000      1.0000000000
  end;

-------------------------
ECP PARAMETER INFORMATION
-------------------------

 Group 1, Type Pd ECP Def2-ECP (replacing 28 core electrons, lmax=3)

Atom   0Pd   ECP group =>   1
Atom   1Pd   ECP group =>   1


-------------------------
ECP BASIS IN INPUT FORMAT
-------------------------

 #ECP Def2-ECP
 NewECP Pd
   N_core 28
   lmax f
   s 4
     1      12.4300000000    240.2290403000  2
     2       6.1707594000     35.1719435000  2
     3      13.2700000000     31.9295543000  2
     4       6.6300000000      5.3982169000  2
   p 4
     1      11.0800000000    170.4172760000  2
     2       5.8295541000     28.4721329000  2
     3      13.2700000000     31.9295543000  2
     4       6.6300000000      5.3982169000  2
   d 4
     1       9.5100000000     69.0138449000  2
     2       4.1397811000     11.7508616000  2
     3      13.2700000000     31.9295543000  2
     4       6.6300000000      5.3982169000  2
   f 2
     1      13.2700000000    -31.9295543000  2
     2       6.6300000000     -5.3982169000  2
 End




           ************************************************************
           *        Program running with 32 parallel MPI-processes    *
           *              working on a common directory               *
           ************************************************************
------------------------------------------------------------------------------
                           ORCA GTO INTEGRAL CALCULATION
                           -- RI-GTO INTEGRALS CHOSEN --
------------------------------------------------------------------------------

                         BASIS SET STATISTICS AND STARTUP INFO

Gaussian basis set:
 # of primitive gaussian shells          ... 2192
 # of primitive gaussian functions       ... 3932
 # of contracted shells                  ... 1130
 # of contracted basis functions         ... 2210
 Highest angular momentum                ...    2
 Maximum contraction depth               ...    6
Auxiliary gaussian basis set:
 # of primitive gaussian shells          ... 1902
 # of primitive gaussian functions       ... 4142
 # of contracted shells                  ... 1518
 # of contracted aux-basis functions     ... 3634
 Highest angular momentum                ...    4
 Maximum contraction depth               ...    4
Ratio of auxiliary to basis functions    ...  1.64
Integral package used                  ... LIBINT
 One Electron integrals                  
   ECP integrals                         ... done
 Ordering auxiliary basis shells         ... done
 Integral threshhold             Thresh  ...  2.500e-11
 Primitive cut-off               TCut    ...  2.500e-12
 Pre-screening matrix                    ... done
 Shell pair data                         ... 
 Ordering of the shell pairs             ... done (   0.050 sec) 213259 of 639015 pairs
 Determination of significant pairs      ... done (   0.001 sec)
 Creation of shell pair data             ... done (   0.019 sec)
 Storage of shell pair data              ... done (   0.039 sec)
 Shell pair data done in (   0.110 sec)
 Computing two index integrals           ... done
 Cholesky decomposition of the V-matrix  ... done


Timings:
 Total evaluation time                   ...   9.153 sec (  0.153 min)
 One electron matrix time                ...   5.480 sec (  0.091 min) = 59.9%
 Schwartz matrix evaluation time         ...   2.520 sec (  0.042 min) = 27.5%
 Two index repulsion integral time       ...   0.259 sec (  0.004 min) =  2.8%
 Cholesky decomposition of V             ...   0.741 sec (  0.012 min) =  8.1%
 Three index repulsion integral time     ...   0.001 sec (  0.000 min) =  0.0%



           ************************************************************
           *        Program running with 32 parallel MPI-processes    *
           *              working on a common directory               *
           ************************************************************
-------------------------------------------------------------------------------
                                 ORCA SCF
-------------------------------------------------------------------------------

------------
SCF SETTINGS
------------
Hamiltonian:
 Density Functional     Method          .... DFT(GTOs)
 Exchange Functional    Exchange        .... B973C
 Correlation Functional Correlation     .... B973C
 Gradients option       PostSCFGGA      .... off
   Density functional embedding theory  .... OFF
 RI-approximation to the Coulomb term is turned on
   Number of auxiliary basis functions  .... 3634


General Settings:
 Integral files         IntName         .... _s_4b3_a_B97-3c
 Hartree-Fock type      HFTyp           .... RHF
 Total Charge           Charge          ....    4
 Multiplicity           Mult            ....    1
 Number of Electrons    NEL             ....  720
 Basis Dimension        Dim             .... 2210
 Nuclear Repulsion      ENuc            ....  19438.9159018780 Eh

Convergence Acceleration:
 DIIS                   CNVDIIS         .... on
   Start iteration      DIISMaxIt       ....     0
   Startup error        DIISStart       ....  0.200000
   # of expansion vecs  DIISMaxEq       ....     5
   Bias factor          DIISBfac        ....   1.050
   Max. coefficient     DIISMaxC        ....  10.000
 Newton-Raphson         CNVNR           .... off
 SOSCF                  CNVSOSCF        .... off
 Level Shifting         CNVShift        .... on
   Level shift para.    LevelShift      ....    0.2500
   Turn off err/grad.   ShiftErr        ....    0.0000
 Zerner damping         CNVZerner       .... off
 Static damping         CNVDamp         .... on
   Fraction old density DampFac         ....    0.8500
   Max. Damping (<1)    DampMax         ....    0.9800
   Min. Damping (>=0)   DampMin         ....    0.0000
   Turn off err/grad.   DampErr         ....    0.0300
 Fernandez-Rico         CNVRico         .... off

SCF Procedure:
 Maximum # iterations   MaxIter         ....  2000
 SCF integral mode      SCFMode         .... Direct
   Integral package                     .... LIBINT
 Reset frequency        DirectResetFreq ....    20
 Integral Threshold     Thresh          ....  2.500e-11 Eh
 Primitive CutOff       TCut            ....  2.500e-12 Eh

Convergence Tolerance:
 Convergence Check Mode ConvCheckMode   .... Total+1el-Energy
 Convergence forced     ConvForced      .... 0
 Energy Change          TolE            ....  1.000e-08 Eh
 1-El. energy change                    ....  1.000e-05 Eh
 DIIS Error             TolErr          ....  5.000e-07


Diagonalization of the overlap matrix:
Smallest eigenvalue                        ... 5.644e-06
Time for diagonalization                   ...    0.664 sec
Threshold for overlap eigenvalues          ... 1.000e-08
Number of eigenvalues below threshold      ... 0
Time for construction of square roots      ...    0.579 sec
Total time needed                          ...    1.252 sec

--------------------------------
INITIAL GUESS: MINIMAL BASIS EHT
--------------------------------
The minimal basis has 602 functions
EHT matrix was diagonalized
Basis set overlap was calculated now projecting the orbitals
Using GuessMode=FMatrix for the initial guess
C*T matrix was formed
Effective Fockian was calculated
Effective Fockian was diagonalized
Initial density was built
                      ------------------
                      INITIAL GUESS DONE
                      ------------------
-------------------
DFT GRID GENERATION
-------------------

General Integration Accuracy     IntAcc      ...  5.340
Radial Grid Type                 RadialGrid  ... Gauss-Chebyshev
Angular Grid (max. acc.)         AngularGrid ... Lebedev-590
Angular grid pruning method      GridPruning ... 3 (G Style)
Weight generation scheme         WeightScheme... Becke
Basis function cutoff            BFCut       ...    1.0000e-11
Integration weight cutoff        WCut        ...    1.0000e-14
Grids for H and He will be reduced by one unit

# of grid points (after initial pruning)     ... 2382484 (   0.0 sec)
# of grid points (after weights+screening)   ... 1960186 (   9.9 sec)
nearest neighbour list constructed           ...    0.0 sec
Grid point re-assignment to atoms done       ...    0.3 sec
Grid point division into batches done        ...   20.3 sec
Reduced shell lists constructed in   21.7 sec

Total number of grid points                  ...  1960186
Total number of batches                      ...    30706
Average number of points per batch           ...       63
Average number of grid points per atom       ...    12100
Average number of shells per batch           ...   219.73 (19.44%)
Average number of basis functions per batch  ...   434.92 (19.68%)
Average number of large shells per batch     ...   115.54 (52.58%)
Average number of large basis fcns per batch ...   233.18 (53.61%)
Maximum spatial batch extension              ...  10.21,  4.89, 13.18 au
Average spatial batch extension              ...   0.03,  0.03,  0.03 au

Time for grid setup =   33.938 sec

--------------
SCF ITERATIONS
--------------
ITER       Energy         Delta-E        Max-DP      RMS-DP      [F,P]     Damp
               ***  Starting incremental Fock matrix formation  ***
  0  -4334.2863941479   0.00000000000018.79777293  0.08649178  5.1875209 0.8500
  1  -4343.3531301758  -9.066736027860 2.53399877  0.01282567  4.4996321 0.8500
                               ***Turning on DIIS***
  2  -4350.5967595916  -7.243629415858 2.50605720  0.01122403  3.8585995 0.8500
  3  -4355.2779621580  -4.68120256632017.35710423  0.04132285  3.3025004 0.8500
  4  -4336.0742691319  19.203693026113 5.51085443  0.02562046  2.8132006 0.8500
  5  -4351.2797629266 -15.205493794714 9.15290388  0.02545000  2.3704414 0.8500
  6  -4353.1242280658  -1.844465139278 3.36918482  0.01063944  2.0208159 0.8500
  7  -4356.8471089211  -3.722880855297 2.70941381  0.00904105  1.7255422 0.8500
  8  -4361.1158126554  -4.268703734233 2.14343303  0.00765800  1.4693811 0.8500
  9  -4362.9915781597  -1.87576550434816.85287048  0.04618845  1.2439123 0.8500
 10  -4344.9452329180  18.046345241713 3.29114969  0.01039158  1.0580769 0.8500
 11  -4339.7643523967   5.180880521315 3.08448849  0.00911434  0.9089864 0.8500
 12  -4345.9502868542  -6.185934457480 2.63331697  0.00776055  0.7833956 0.8500
 13  -4354.4776365947  -8.527349740507 2.30812972  0.00686980  0.6956203 0.8500
 14  -4361.9748698288  -7.497233234102 1.96309685  0.00604721  0.5941890 0.8500
 15  -4368.7725233183  -6.797653489477 1.66529702  0.00507403  0.4672365 0.8500
 16  -4370.8252601716  -2.052736853304 1.41465920  0.00440740  0.3987546 0.8500
 17  -4372.1634746746  -1.338214503074 1.20360433  0.00380215  0.3389607 0.8500
 18  -4373.5395988121  -1.376124137427 1.02600329  0.00325660  0.2872784 0.8500
 19  -4374.7782285912  -1.238629779178 0.86985996  0.00277538  0.2434327 0.8500
               *** Restarting incremental Fock matrix formation ***
                                   *** Resetting DIIS ***
 20  -4375.8508571719  -1.072628580696 0.73581871  0.00235590  0.2064753 0.8500
 21  -4376.7650804572  -0.914223285305 0.62897999  0.00201217  0.1750278 0.8500
 22  -4377.5297852243  -0.764704767091 0.53642985  0.00171560  0.1482465 0.8500
 23  -4378.1728319295  -0.643046705212 0.45624004  0.00146166  0.1255946 0.8500
 24  -4378.7161034184  -0.543271488867 0.38749117  0.00124440  0.1066673 0.8500
 25  -4379.1765510961  -0.460447677695 0.32889364  0.00105868  0.0906105 0.8500
 26  -4379.5676676557  -0.391116559615 0.27938827  0.00090024  0.0769340 0.8500
 27  -4379.9000123255  -0.332344669794 0.23768101  0.00076546  0.0653507 0.8500
 28  -4380.1822547390  -0.282242413523 0.20220660  0.00065094  0.0555432 0.8500
 29  -4380.4219311958  -0.239676456808 0.17189831  0.00055358  0.0472154 0.8500
[...]
 44 C      6.1497     6.0000    -0.1497     3.6424     3.6424     0.0000
 45 C      6.0944     6.0000    -0.0944     3.8346     3.8346    -0.0000
 46 C      6.1951     6.0000    -0.1951     4.1879     4.1879    -0.0000
 47 C      6.2073     6.0000    -0.2073     3.9113     3.9113    -0.0000
 48 C      6.0624     6.0000    -0.0624     3.7462     3.7462    -0.0000
 49 C      6.1060     6.0000    -0.1060     3.7673     3.7673    -0.0000
 50 C      6.1831     6.0000    -0.1831     3.9989     3.9989    -0.0000
 51 N      7.0655     7.0000    -0.0655     3.2793     3.2793    -0.0000
 52 C      6.1108     6.0000    -0.1108     3.7173     3.7173    -0.0000
 53 C      5.6316     6.0000     0.3684     3.0877     3.0877    -0.0000
 54 H      0.7562     1.0000     0.2438     0.9022     0.9022    -0.0000
 55 H      0.7739     1.0000     0.2261     0.9253     0.9253    -0.0000
 56 H      0.7559     1.0000     0.2441     0.8985     0.8985    -0.0000
 57 H      0.7487     1.0000     0.2513     0.8916     0.8916    -0.0000
 58 H      0.8283     1.0000     0.1717     0.9675     0.9675    -0.0000
 59 H      0.8189     1.0000     0.1811     0.9643     0.9643    -0.0000
 60 C      6.1609     6.0000    -0.1609     3.8380     3.8380    -0.0000
 61 C      6.1403     6.0000    -0.1403     3.8293     3.8293    -0.0000
 62 C      6.1175     6.0000    -0.1175     3.8274     3.8274    -0.0000
 63 C      6.1636     6.0000    -0.1636     3.8448     3.8448    -0.0000
 64 C      6.1390     6.0000    -0.1390     3.8017     3.8017    -0.0000
 65 C      6.1559     6.0000    -0.1559     3.8141     3.8141    -0.0000
 66 H      0.7710     1.0000     0.2290     0.9113     0.9113    -0.0000
 67 H      0.7633     1.0000     0.2367     0.9063     0.9063    -0.0000
 68 H      0.8040     1.0000     0.1960     0.9163     0.9163    -0.0000
 69 H      0.8112     1.0000     0.1888     0.9186     0.9186    -0.0000
 70 C      5.9267     6.0000     0.0733     3.1720     3.1720    -0.0000
 71 C      5.9918     6.0000     0.0082     3.1466     3.1466    -0.0000
 72 C      5.9308     6.0000     0.0692     3.8976     3.8976    -0.0000
 73 C      6.1809     6.0000    -0.1809     3.8883     3.8883    -0.0000
 74 C      6.0269     6.0000    -0.0269     3.8364     3.8364    -0.0000
 75 C      6.1278     6.0000    -0.1278     3.9462     3.9462    -0.0000
 76 N      7.0561     7.0000    -0.0561     3.3096     3.3096    -0.0000
 77 C      6.1775     6.0000    -0.1775     3.8367     3.8367    -0.0000
 78 H      0.7442     1.0000     0.2558     0.8974     0.8974    -0.0000
 79 H      0.7500     1.0000     0.2500     0.9099     0.9099    -0.0000
 80 H      0.7910     1.0000     0.2090     0.9458     0.9458    -0.0000
 81 H      0.8245     1.0000     0.1755     0.9448     0.9448    -0.0000
 82 C      5.9694     6.0000     0.0306     3.3709     3.3709    -0.0000
 83 C      5.9814     6.0000     0.0186     3.0490     3.0490    -0.0000
 84 C      6.1525     6.0000    -0.1525     3.6464     3.6464    -0.0000
 85 C      6.0944     6.0000    -0.0944     3.8345     3.8345    -0.0000
 86 C      6.1951     6.0000    -0.1951     4.1875     4.1875    -0.0000
 87 C      6.2077     6.0000    -0.2077     3.9117     3.9117    -0.0000
 88 C      6.0638     6.0000    -0.0638     3.7465     3.7465    -0.0000
 89 C      6.1053     6.0000    -0.1053     3.7675     3.7675    -0.0000
 90 C      6.1832     6.0000    -0.1832     4.0004     4.0004    -0.0000
 91 N      7.0662     7.0000    -0.0662     3.2768     3.2768    -0.0000
 92 C      6.1140     6.0000    -0.1140     3.7184     3.7184    -0.0000
 93 C      5.6263     6.0000     0.3737     3.0826     3.0826    -0.0000
 94 H      0.7563     1.0000     0.2437     0.9023     0.9023    -0.0000
 95 H      0.7739     1.0000     0.2261     0.9253     0.9253    -0.0000
 96 H      0.7559     1.0000     0.2441     0.8985     0.8985    -0.0000
 97 H      0.7487     1.0000     0.2513     0.8916     0.8916    -0.0000
 98 H      0.8275     1.0000     0.1725     0.9669     0.9669    -0.0000
 99 H      0.8184     1.0000     0.1816     0.9640     0.9640    -0.0000
100 C      6.1640     6.0000    -0.1640     3.8402     3.8402    -0.0000
101 C      6.1549     6.0000    -0.1549     3.8145     3.8145    -0.0000
102 C      6.1390     6.0000    -0.1390     3.8031     3.8031    -0.0000
103 C      6.1636     6.0000    -0.1636     3.8483     3.8483    -0.0000
104 C      6.1188     6.0000    -0.1188     3.8300     3.8300    -0.0000
105 C      6.1403     6.0000    -0.1403     3.8300     3.8300    -0.0000
106 H      0.8100     1.0000     0.1900     0.9184     0.9184    -0.0000
107 H      0.8023     1.0000     0.1977     0.9158     0.9158    -0.0000
108 H      0.7635     1.0000     0.2365     0.9064     0.9064    -0.0000
109 H      0.7710     1.0000     0.2290     0.9113     0.9113    -0.0000
110 C      5.9238     6.0000     0.0762     3.1714     3.1714    -0.0000
111 C      5.9940     6.0000     0.0060     3.1496     3.1496    -0.0000
112 C      5.9332     6.0000     0.0668     3.9012     3.9012    -0.0000
113 C      6.1798     6.0000    -0.1798     3.8873     3.8873    -0.0000
114 C      6.0273     6.0000    -0.0273     3.8369     3.8369    -0.0000
115 C      6.1276     6.0000    -0.1276     3.9464     3.9464    -0.0000
116 N      7.0559     7.0000    -0.0559     3.3108     3.3108    -0.0000
117 C      6.1777     6.0000    -0.1777     3.8374     3.8374    -0.0000
118 H      0.7442     1.0000     0.2558     0.8974     0.8974    -0.0000
119 H      0.7499     1.0000     0.2501     0.9099     0.9099    -0.0000
120 H      0.7910     1.0000     0.2090     0.9458     0.9458    -0.0000
121 H      0.8240     1.0000     0.1760     0.9447     0.9447    -0.0000
122 C      5.9699     6.0000     0.0301     3.3701     3.3701    -0.0000
123 C      5.9807     6.0000     0.0193     3.0473     3.0473    -0.0000
124 C      6.1547     6.0000    -0.1547     3.6491     3.6491    -0.0000
125 C      6.0936     6.0000    -0.0936     3.8340     3.8340    -0.0000
126 C      6.1953     6.0000    -0.1953     4.1874     4.1874    -0.0000
127 C      6.2079     6.0000    -0.2079     3.9118     3.9118    -0.0000
128 C      6.0634     6.0000    -0.0634     3.7450     3.7450    -0.0000
129 C      6.1054     6.0000    -0.1054     3.7667     3.7667    -0.0000
130 C      6.1829     6.0000    -0.1829     3.9990     3.9990    -0.0000
131 N      7.0674     7.0000    -0.0674     3.2760     3.2760    -0.0000
132 C      6.1143     6.0000    -0.1143     3.7165     3.7165    -0.0000
133 C      5.6244     6.0000     0.3756     3.0813     3.0813    -0.0000
134 H      0.7561     1.0000     0.2439     0.9022     0.9022    -0.0000
135 H      0.7739     1.0000     0.2261     0.9253     0.9253    -0.0000
136 H      0.7560     1.0000     0.2440     0.8985     0.8985    -0.0000
137 H      0.7486     1.0000     0.2514     0.8915     0.8915    -0.0000
138 H      0.8265     1.0000     0.1735     0.9664     0.9664    -0.0000
139 H      0.8183     1.0000     0.1817     0.9639     0.9639    -0.0000
140 C      6.1654     6.0000    -0.1654     3.8426     3.8426    -0.0000
141 C      6.1547     6.0000    -0.1547     3.8132     3.8132    -0.0000
142 C      6.1382     6.0000    -0.1382     3.8008     3.8008    -0.0000
143 C      6.1663     6.0000    -0.1663     3.8508     3.8508    -0.0000
144 C      6.1186     6.0000    -0.1186     3.8312     3.8312    -0.0000
145 C      6.1404     6.0000    -0.1404     3.8323     3.8323    -0.0000
146 H      0.8093     1.0000     0.1907     0.9183     0.9183    -0.0000
147 H      0.8013     1.0000     0.1987     0.9155     0.9155    -0.0000
148 H      0.7636     1.0000     0.2364     0.9064     0.9064    -0.0000
149 H      0.7710     1.0000     0.2290     0.9112     0.9112    -0.0000
150 C      5.9251     6.0000     0.0749     3.1726     3.1726    -0.0000
151 C      5.9928     6.0000     0.0072     3.1473     3.1473    -0.0000
152 C      5.9344     6.0000     0.0656     3.9043     3.9043    -0.0000
153 C      6.1797     6.0000    -0.1797     3.8874     3.8874    -0.0000
154 C      6.0273     6.0000    -0.0273     3.8371     3.8371    -0.0000
155 C      6.1273     6.0000    -0.1273     3.9458     3.9458    -0.0000
156 N      7.0569     7.0000    -0.0569     3.3100     3.3100    -0.0000
157 C      6.1756     6.0000    -0.1756     3.8361     3.8361    -0.0000
158 H      0.7441     1.0000     0.2559     0.8974     0.8974    -0.0000
159 H      0.7499     1.0000     0.2501     0.9099     0.9099    -0.0000
160 H      0.7910     1.0000     0.2090     0.9458     0.9458    -0.0000
161 H      0.8235     1.0000     0.1765     0.9447     0.9447    -0.0000

  Mayer bond orders larger than 0.100000
B(  0-Pd, 11-N ) :   0.5182 B(  0-Pd, 51-N ) :   0.5178 B(  0-Pd, 91-N ) :   0.5173 
B(  0-Pd,131-N ) :   0.5167 B(  1-Pd, 36-N ) :   0.5286 B(  1-Pd, 76-N ) :   0.5290 
B(  1-Pd,116-N ) :   0.5291 B(  1-Pd,156-N ) :   0.5288 B(  2-C ,  3-C ) :   1.9023 
B(  2-C ,  4-C ) :  -0.2670 B(  2-C , 13-C ) :   0.1155 B(  2-C , 20-C ) :   1.5696 
B(  3-C ,  4-C ) :   1.4458 B(  3-C ,  8-C ) :   0.1066 B(  3-C , 13-C ) :  -0.2344 
B(  3-C , 20-C ) :  -0.4015 B(  3-C , 21-C ) :   0.1021 B(  4-C ,  5-C ) :   1.5300 
B(  4-C , 12-C ) :  -0.1337 B(  4-C , 13-C ) :   0.9911 B(  5-C ,  6-C ) :   1.4290 
B(  5-C , 14-H ) :   0.8625 B(  6-C ,  7-C ) :   1.6179 B(  6-C , 15-H ) :   0.8735 
B(  7-C ,  8-C ) :   1.3697 B(  7-C , 13-C ) :  -0.1321 B(  7-C , 16-H ) :   0.8609 
B(  8-C ,  9-C ) :   1.2655 B(  8-C , 12-C ) :  -0.1108 B(  8-C , 13-C ) :   1.0290 
B(  9-C , 10-C ) :   1.5973 B(  9-C , 17-H ) :   0.8714 B( 10-C , 11-N ) :   1.2135 
B( 10-C , 18-H ) :   0.9086 B( 11-N , 12-C ) :   1.4805 B( 12-C , 13-C ) :   1.3906 
B( 12-C , 19-H ) :   0.8967 B( 20-C , 21-C ) :   1.2879 B( 20-C , 25-C ) :   1.2978 
B( 21-C , 22-C ) :   1.5254 B( 21-C , 26-H ) :   0.9196 B( 22-C , 23-C ) :   1.2758 
B( 22-C , 27-H ) :   0.9145 B( 23-C , 24-C ) :   1.3133 B( 23-C , 30-C ) :   1.5152 
B( 23-C , 31-C ) :  -0.4057 B( 24-C , 25-C ) :   1.5434 B( 24-C , 28-H ) :   0.8886 
B( 25-C , 29-H ) :   0.9018 B( 30-C , 31-C ) :   1.8455 B( 30-C , 32-C ) :  -0.3015 
B( 31-C , 32-C ) :   1.4264 B( 32-C , 33-C ) :   1.3520 B( 32-C , 37-C ) :   1.3629 
B( 33-C , 34-C ) :   1.4710 B( 33-C , 38-H ) :   0.9067 B( 34-C , 35-C ) :   1.4124 
B( 34-C , 39-H ) :   0.8715 B( 35-C , 36-N ) :   1.3832 B( 35-C , 40-H ) :   0.9186 
B( 36-N , 37-C ) :   1.3449 B( 37-C , 41-H ) :   0.9415 B( 42-C , 43-C ) :   1.9031 
B( 42-C , 44-C ) :  -0.2672 B( 42-C , 53-C ) :   0.1162 B( 42-C , 60-C ) :   1.5697 
B( 43-C , 44-C ) :   1.4450 B( 43-C , 48-C ) :   0.1069 B( 43-C , 53-C ) :  -0.2342 
B( 43-C , 60-C ) :  -0.4010 B( 43-C , 65-C ) :   0.1017 B( 44-C , 45-C ) :   1.5303 
B( 44-C , 52-C ) :  -0.1338 B( 44-C , 53-C ) :   0.9909 B( 45-C , 46-C ) :   1.4293 
B( 45-C , 54-H ) :   0.8627 B( 46-C , 47-C ) :   1.6181 B( 46-C , 55-H ) :   0.8734 
B( 47-C , 48-C ) :   1.3695 B( 47-C , 53-C ) :  -0.1321 B( 47-C , 56-H ) :   0.8609 
B( 48-C , 49-C ) :   1.2651 B( 48-C , 52-C ) :  -0.1103 B( 48-C , 53-C ) :   1.0283 
B( 49-C , 50-C ) :   1.5971 B( 49-C , 57-H ) :   0.8715 B( 50-C , 51-N ) :   1.2125 
B( 50-C , 58-H ) :   0.9089 B( 51-N , 52-C ) :   1.4811 B( 52-C , 53-C ) :   1.3899 
B( 52-C , 59-H ) :   0.8971 B( 60-C , 61-C ) :   1.2972 B( 60-C , 65-C ) :   1.2890 
B( 61-C , 62-C ) :   1.5428 B( 61-C , 66-H ) :   0.9020 B( 62-C , 63-C ) :   1.3131 
B( 62-C , 67-H ) :   0.8885 B( 63-C , 64-C ) :   1.2759 B( 63-C , 70-C ) :   1.5146 
B( 63-C , 71-C ) :  -0.4057 B( 64-C , 65-C ) :   1.5269 B( 64-C , 68-H ) :   0.9144 
B( 65-C , 69-H ) :   0.9193 B( 70-C , 71-C ) :   1.8457 B( 70-C , 72-C ) :  -0.3015 
B( 71-C , 72-C ) :   1.4258 B( 72-C , 73-C ) :   1.3519 B( 72-C , 77-C ) :   1.3633 
B( 73-C , 74-C ) :   1.4711 B( 73-C , 78-H ) :   0.9067 B( 74-C , 75-C ) :   1.4122 
B( 74-C , 79-H ) :   0.8715 B( 75-C , 76-N ) :   1.3835 B( 75-C , 80-H ) :   0.9186 
B( 76-N , 77-C ) :   1.3444 B( 77-C , 81-H ) :   0.9421 B( 82-C , 83-C ) :   1.9031 
B( 82-C , 84-C ) :  -0.2667 B( 82-C , 93-C ) :   0.1163 B( 82-C ,100-C ) :   1.5719 
B( 83-C , 84-C ) :   1.4468 B( 83-C , 88-C ) :   0.1069 B( 83-C , 93-C ) :  -0.2355 
B( 83-C ,100-C ) :  -0.4026 B( 83-C ,101-C ) :   0.1020 B( 84-C , 85-C ) :   1.5313 
B( 84-C , 92-C ) :  -0.1337 B( 84-C , 93-C ) :   0.9911 B( 85-C , 86-C ) :   1.4290 
B( 85-C , 94-H ) :   0.8627 B( 86-C , 87-C ) :   1.6180 B( 86-C , 95-H ) :   0.8735 
B( 87-C , 88-C ) :   1.3702 B( 87-C , 93-C ) :  -0.1323 B( 87-C , 96-H ) :   0.8610 
B( 88-C , 89-C ) :   1.2640 B( 88-C , 92-C ) :  -0.1095 B( 88-C , 93-C ) :   1.0279 
B( 89-C , 90-C ) :   1.5980 B( 89-C , 97-H ) :   0.8714 B( 90-C , 91-N ) :   1.2120 
B( 90-C , 98-H ) :   0.9086 B( 91-N , 92-C ) :   1.4808 B( 92-C , 93-C ) :   1.3878 
B( 92-C , 99-H ) :   0.8975 B(100-C ,101-C ) :   1.2896 B(100-C ,105-C ) :   1.2983 
B(101-C ,102-C ) :   1.5278 B(101-C ,106-H ) :   0.9186 B(102-C ,103-C ) :   1.2768 
B(102-C ,107-H ) :   0.9134 B(103-C ,104-C ) :   1.3144 B(103-C ,110-C ) :   1.5131 
B(103-C ,111-C ) :  -0.4027 B(104-C ,105-C ) :   1.5435 B(104-C ,108-H ) :   0.8887 
B(105-C ,109-H ) :   0.9019 B(110-C ,111-C ) :   1.8459 B(110-C ,112-C ) :  -0.3021 
B(111-C ,112-C ) :   1.4275 B(112-C ,113-C ) :   1.3522 B(112-C ,117-C ) :   1.3650 
B(113-C ,114-C ) :   1.4709 B(113-C ,118-H ) :   0.9066 B(114-C ,115-C ) :   1.4127 
B(114-C ,119-H ) :   0.8714 B(115-C ,116-N ) :   1.3841 B(115-C ,120-H ) :   0.9186 
B(116-N ,117-C ) :   1.3443 B(117-C ,121-H ) :   0.9417 B(122-C ,123-C ) :   1.9024 
B(122-C ,124-C ) :  -0.2662 B(122-C ,133-C ) :   0.1157 B(122-C ,140-C ) :   1.5725 
B(123-C ,124-C ) :   1.4492 B(123-C ,128-C ) :   0.1070 B(123-C ,133-C ) :  -0.2369 
B(123-C ,140-C ) :  -0.4031 B(123-C ,141-C ) :   0.1025 B(124-C ,125-C ) :   1.5321 
B(124-C ,132-C ) :  -0.1334 B(124-C ,133-C ) :   0.9909 B(125-C ,126-C ) :   1.4289 
B(125-C ,134-H ) :   0.8624 B(126-C ,127-C ) :   1.6179 B(126-C ,135-H ) :   0.8735 
B(127-C ,128-C ) :   1.3707 B(127-C ,133-C ) :  -0.1322 B(127-C ,136-H ) :   0.8609 
B(128-C ,129-C ) :   1.2639 B(128-C ,132-C ) :  -0.1099 B(128-C ,133-C ) :   1.0280 
B(129-C ,130-C ) :   1.5979 B(129-C ,137-H ) :   0.8712 B(130-C ,131-N ) :   1.2125 
B(130-C ,138-H ) :   0.9083 B(131-N ,132-C ) :   1.4805 B(132-C ,133-C ) :   1.3873 
B(132-C ,139-H ) :   0.8972 B(140-C ,141-C ) :   1.2894 B(140-C ,145-C ) :   1.3003 
B(141-C ,142-C ) :   1.5271 B(141-C ,146-H ) :   0.9181 B(142-C ,143-C ) :   1.2768 
B(142-C ,147-H ) :   0.9128 B(143-C ,144-C ) :   1.3151 B(143-C ,150-C ) :   1.5153 
B(143-C ,151-C ) :  -0.4042 B(144-C ,145-C ) :   1.5446 B(144-C ,148-H ) :   0.8886 
B(145-C ,149-H ) :   0.9015 B(150-C ,151-C ) :   1.8453 B(150-C ,152-C ) :  -0.3007 
B(151-C ,152-C ) :   1.4269 B(152-C ,153-C ) :   1.3525 B(152-C ,157-C ) :   1.3658 
B(153-C ,154-C ) :   1.4708 B(153-C ,158-H ) :   0.9064 B(154-C ,155-C ) :   1.4129 
B(154-C ,159-H ) :   0.8714 B(155-C ,156-N ) :   1.3837 B(155-C ,160-H ) :   0.9186 
B(156-N ,157-C ) :   1.3449 B(157-C ,161-H ) :   0.9410 

-------
TIMINGS
-------

Total SCF time: 0 days 0 hours 9 min 47 sec 

Total time                  ....     587.900 sec
Sum of individual times     ....     558.670 sec  ( 95.0%)

Fock matrix formation       ....     220.867 sec  ( 37.6%)
  Split-RI-J                ....      99.626 sec  ( 45.1% of F)
  XC integration            ....     107.250 sec  ( 48.6% of F)
    Basis function eval.    ....      19.263 sec  ( 18.0% of XC)
    Density eval.           ....      42.324 sec  ( 39.5% of XC)
    XC-Functional eval.     ....       6.827 sec  (  6.4% of XC)
    XC-Potential eval.      ....      16.909 sec  ( 15.8% of XC)
Diagonalization             ....      53.672 sec  (  9.1%)
Density matrix formation    ....       2.453 sec  (  0.4%)
Population analysis         ....       8.892 sec  (  1.5%)
Initial guess               ....       8.880 sec  (  1.5%)
Orbital Transformation      ....       0.000 sec  (  0.0%)
Orbital Orthonormalization  ....       0.000 sec  (  0.0%)
DIIS solution               ....     229.966 sec  ( 39.1%)
Grid generation             ....      33.938 sec  (  5.8%)


-------------------------------------------------------------------------------
                          DFT DISPERSION CORRECTION                            
                                                                               
                              DFTD3 V3.1  Rev 1                                
                          USING Becke-Johnson damping                          
-------------------------------------------------------------------------------
The B97-3c composite method is recognized
Using three-body term ABC
Active option DFTDOPT                   ...         4   

molecular C6(AA) [au] = 419931.482374 


            DFT-D V3
 parameters
 s6 scaling factor         :     1.0000 
 a1 scaling factor         :     0.3700 
 s8 scaling factor         :     1.5000 
 a2 scaling factor         :     4.1000 
 Damping factor alpha9(ATM):    16.0000 
 ad hoc parameters k1-k3   :    16.0000     1.3333    -4.0000 

 Edisp/kcal,au: -376.679851089283  -0.600277488194 
 E6   /kcal   : -185.512139476 
 E8   /kcal   : -192.031263134 
 E6(ABC)      :   0.863551520 
 % E8         :  50.979966828 
 % E6(ABC)    :  -0.229253441 

-------------------------   ----------------
Dispersion correction           -0.600277488
-------------------------   ----------------

------------------   -----------------
SRB correction            -0.653260522
------------------   -----------------

-------------------------   --------------------
FINAL SINGLE POINT ENERGY     -4383.030873741192
-------------------------   --------------------


                            ***************************************
                            *     ORCA property calculations      *
                            ***************************************

                                    ---------------------
                                    Active property flags
                                    ---------------------
   (+) Dipole Moment


------------------------------------------------------------------------------
                       ORCA ELECTRIC PROPERTIES CALCULATION
------------------------------------------------------------------------------

Dipole Moment Calculation                       ... on
Quadrupole Moment Calculation                   ... off
Polarizability Calculation                      ... off
GBWName                                         ... _s_4b3_a_B97-3c.gbw
Electron density file                           ... _s_4b3_a_B97-3c.scfp
The origin for moment calculation is the CENTER OF MASS  = (-0.088714,  2.093618 -0.092879)

-------------
DIPOLE MOMENT
-------------
                                X             Y             Z
Electronic contribution:      0.19424    -138.41323       2.13801
Nuclear contribution   :     -0.13764     135.95949      -2.12560
                        -----------------------------------------
Total Dipole Moment    :      0.05660      -2.45374       0.01242
                        -----------------------------------------
Magnitude (a.u.)       :      2.45443
Magnitude (Debye)      :      6.23865



--------------------
Rotational spectrum 
--------------------
 
Rotational constants in cm-1:     0.000629     0.000263     0.000263 
Rotational constants in MHz :    18.855025     7.884154     7.877964 

 Dipole components along the rotational axes: 
x,y,z [a.u.] :     2.454193     0.026794    -0.020590 
x,y,z [Debye]:     6.238062     0.068106    -0.052336 

 

Timings for individual modules:

Sum of individual times         ...      617.298 sec (=  10.288 min)
GTO integral calculation        ...       21.452 sec (=   0.358 min)   3.5 %
SCF iterations                  ...      595.846 sec (=   9.931 min)  96.5 %
                             ****ORCA TERMINATED NORMALLY****
TOTAL RUN TIME: 0 days 0 hours 10 minutes 26 seconds 91 msec
