Job execution start: Tue Jun 22 11:53:00 BST 2021
Shared library path: /work/e05/e05/atarzia/orca_4_2_1_linux_x86-64_openmpi314:/work/e05/e05/atarzia/openmpi-3.1.4/lib:/opt/cray/pe/papi/6.0.0.4/lib64:/opt/cray/libfabric/1.11.0.0.233/lib64
Slurm Job ID is: 344708
Slurm Job name is: s_4b3_c_B97-3c
nid001567

                                 *****************
                                 * O   R   C   A *
                                 *****************

           --- An Ab Initio, DFT and Semiempirical electronic structure package ---

                  #######################################################
                  #                        -***-                        #
                  #          Department of theory and spectroscopy      #
                  #               Directorship: Frank Neese             #
                  #        Max Planck Institute fuer Kohlenforschung    #
                  #                Kaiser Wilhelm Platz 1               #
                  #                 D-45470 Muelheim/Ruhr               #
                  #                      Germany                        #
                  #                                                     #
                  #                  All rights reserved                #
                  #                        -***-                        #
                  #######################################################


                         Program Version 4.2.1 -  RELEASE  -


 With contributions from (in alphabetic order):
   Daniel Aravena         : Magnetic Suceptibility
   Michael Atanasov       : Ab Initio Ligand Field Theory (pilot matlab implementation)
   Alexander A. Auer      : GIAO ZORA, VPT2
   Ute Becker             : Parallelization
   Giovanni Bistoni       : ED, misc. LED, open-shell LED, HFLD
   Martin Brehm           : Molecular dynamics
   Dmytro Bykov           : SCF Hessian
   Vijay G. Chilkuri      : MRCI spin determinant printing, contributions to CSF-ICE
   Dipayan Datta          : RHF DLPNO-CCSD density
   Achintya Kumar Dutta   : EOM-CC, STEOM-CC
   Dmitry Ganyushin       : Spin-Orbit,Spin-Spin,Magnetic field MRCI
   Miquel Garcia          : C-PCM Hessian, Gaussian charge scheme
   Yang Guo               : DLPNO-NEVPT2, CIM, IAO-localization
   Andreas Hansen         : Spin unrestricted coupled pair/coupled cluster methods
   Benjamin Helmich-Paris : CASSCF linear response (MC-RPA)
   Lee Huntington         : MR-EOM, pCC
   Robert Izsak           : Overlap fitted RIJCOSX, COSX-SCS-MP3, EOM
   Christian Kollmar      : KDIIS, OOCD, Brueckner-CCSD(T), CCSD density
   Simone Kossmann        : Meta GGA functionals, TD-DFT gradient, OOMP2, MP2 Hessian
   Martin Krupicka        : AUTO-CI
   Lucas Lang             : DCDCAS
   Dagmar Lenk            : GEPOL surface, SMD
   Dimitrios Liakos       : Extrapolation schemes; Compound Job, initial MDCI parallelization
   Dimitrios Manganas     : Further ROCIS development; embedding schemes
   Dimitrios Pantazis     : SARC Basis sets
   Taras Petrenko         : DFT Hessian,TD-DFT gradient, ASA, ECA, R-Raman, ABS, FL, XAS/XES, NRVS
   Peter Pinski           : DLPNO-MP2, DLPNO-MP2 Gradient
   Christoph Reimann      : Effective Core Potentials
   Marius Retegan         : Local ZFS, SOC
   Christoph Riplinger    : Optimizer, TS searches, QM/MM, DLPNO-CCSD(T), (RO)-DLPNO pert. Triples
   Tobias Risthaus        : Range-separated hybrids, TD-DFT gradient, RPA, STAB
   Michael Roemelt        : Original ROCIS implementation
   Masaaki Saitow         : Open-shell DLPNO-CCSD energy and density
   Barbara Sandhoefer     : DKH picture change effects
   Avijit Sen             : IP-ROCIS
   Kantharuban Sivalingam : CASSCF convergence, NEVPT2, FIC-MRCI
   Bernardo de Souza      : ESD, SOC TD-DFT
   Georgi Stoychev        : AutoAux, RI-MP2 NMR
   Willem Van den Heuvel  : Paramagnetic NMR
   Boris Wezisla          : Elementary symmetry handling
   Frank Wennmohs         : Technical directorship


 We gratefully acknowledge several colleagues who have allowed us to
 interface, adapt or use parts of their codes:
   Stefan Grimme, W. Hujo, H. Kruse,             : VdW corrections, initial TS optimization,
                  C. Bannwarth                     DFT functionals, gCP, sTDA/sTD-DF
   Ed Valeev, F. Pavosevic, A. Kumar             : LibInt (2-el integral package), F12 methods
   Garnet Chan, S. Sharma, J. Yang, R. Olivares  : DMRG
   Ulf Ekstrom                                   : XCFun DFT Library
   Mihaly Kallay                                 : mrcc  (arbitrary order and MRCC methods)
   Andreas Klamt, Michael Diedenhofen            : otool_cosmo (COSMO solvation model)
   Jiri Pittner, Ondrej Demel                    : Mk-CCSD
   Frank Weinhold                                : gennbo (NPA and NBO analysis)
   Christopher J. Cramer and Donald G. Truhlar   : smd solvation model
   Lars Goerigk                                  : TD-DFT with DH, B97 family of functionals
   V. Asgeirsson, H. Jonsson                     : NEB implementation
   FAccTs GmbH                                   : IRC, NEB, NEB-TS, Multilevel, MM, QM/MM, CI optimization
   S Lehtola, MJT Oliveira, MAL Marques          : LibXC Library


 Your calculation uses the libint2 library for the computation of 2-el integrals
 For citations please refer to: http://libint.valeyev.net

 Your ORCA version has been built with support for libXC version: 4.2.3
 For citations please refer to: https://tddft.org/programs/libxc/

 This ORCA versions uses:
   CBLAS   interface :  Fast vector & matrix operations
   LAPACKE interface :  Fast linear algebra routines
   SCALAPACK package :  Parallel linear algebra routines




***************************************
The coordinates will be read from file: s_4b3_c.xyz
***************************************


Your calculation utilizes the atom-pairwise dispersion correction
with the Becke-Johnson damping scheme (D3BJ)
Cite in your paper:
S.Grimme, S.Ehrlich, L.Goerigk, J Comput Chem, (2011), 32, 1456–1465 
S.Grimme, J.Antony, S.Ehrlich and H.Krieg, J.Chem.Phys., 132, (2010), 154104 
   

Your calculation employs the composite approach B97-3c by Grimme and coworkers.
For the correct reference, please check the publication list of the Grimme group:
http://www.thch.uni-bonn.de/tc/index.php?section=publikationen&subsection=grimme#2017
   

XCFun DFT library Copyright 2009-2010 Ulf Ekstrom and contributors.
See http://admol.org/xcfun for more information. This is free soft-
ware; see the source code for copying conditions. There is ABSOLUTELY
NO WARRANTY; not even for MERCHANTABILITY or FITNESS FOR A PARTICULAR
PURPOSE. For details see the documentation. Scientific users of this 
library should cite U. Ekstrom, L. Visscher, R. Bast, A. J. Thorvald-
sen and K. Ruud; J.Chem.Theor.Comp. 2010, DOI: 10.1021/ct100117s
XCFun Version 0.99 
----- Orbital basis set information -----
Your calculation utilizes the basis: def2-mTZVP
----- AuxJ basis set information -----
Your calculation utilizes the basis: def2-mTZVP/J
cite the ECPs for Pd [Def2-ECP] as follows:
Ce-Yb(ecp-28): M. Dolg, H. Stoll, H.Preuss, J. Chem. Phys., 1989, 90, 1730-1734.
Y-Cd(ecp-28), Hf-Hg(ecp-46): D. Andrae,U. Haeussermann, M. Dolg, H. Stoll, H. Preuss, Theor. Chim. Acta, 1990, 77, 123-141.
In-Sb(ecp-28), Tl-Bi(ecp-46): B. Metz, H. Stoll, M. Dolg, J. Chem. Phys., 2000, 113, 2563-2569.
Te-Xe(ecp-28), Po-Rn(ecp-46): K. A. Peterson, D. Figgen, E. Goll, H. Stoll, M. Dolg, J. Chem. Phys., 2003, 119, 11113-11123.
Rb(ecp-28), Cs(ecp-46): T. Leininger, A. Nicklass, W. Kuechle, H. Stoll, M. Dolg, A. Bergner, Chem. Phys. Lett., 1996, 255, 274-280.
Sr(ecp-28), Ba(ecp-46): M. Kaupp, P. V. Schleyer, H. Stoll and H. Preuss, J. Chem. Phys., 1991, 94, 1360-1366.
La(ecp-46): M. Dolg, H. Stoll, A. Savin, H. Preuss, Theor. Chim. Acta, 1989, 75, 173-194.
Lu(ecp-28): X. Cao, M. Dolg, J. Chem. Phys., 2001, 115, 7348-7355.

ECP parameters for Pd [Def2-ECP] have been obtained from:
TURBOMOLE (7.0.2)

================================================================================
                                        WARNINGS
                       Please study these warnings very carefully!
================================================================================


INFO   : the flag for use of LIBINT has been found!

================================================================================
                                       INPUT FILE
================================================================================
NAME = s_4b3_c_B97-3c.in
|  1> ! DFT SP B97-3c TightSCF printbasis  Grid6 NOFINALGRID SlowConv 
|  2> 
|  3> %base "_s_4b3_c_B97-3c"
|  4> %maxcore 3000
|  5> %scf
|  6>    MaxIter 2000
|  7> end
|  8> %pal
|  9>    nprocs 32
| 10> end
| 11> 
| 12> * xyzfile 4 1 s_4b3_c.xyz
| 13> 
| 14>                          ****END OF INPUT****
================================================================================

                       ****************************
                       * Single Point Calculation *
                       ****************************

---------------------------------
CARTESIAN COORDINATES (ANGSTROEM)
---------------------------------
  Pd    -0.821500    8.043600   -1.508000
  Pd     1.129700   -5.601400    0.128300
  C      5.269600   -1.278300    0.898100
  C      5.618600   -2.432600    1.000800
  C      6.105600   -3.749900    1.082000
  C      7.447700   -3.970500    1.337800
  C      7.971600   -5.266400    1.376400
  C      7.172400   -6.359100    1.147600
  C      5.801500   -6.184200    0.885900
  C      4.927500   -7.264400    0.627400
  C      3.605100   -7.026600    0.389400
  N      3.085000   -5.774700    0.409000
  C      3.870300   -4.739300    0.632600
  C      5.247800   -4.870700    0.866500
  H      8.100100   -3.127100    1.504900
  H      9.022900   -5.400400    1.580500
  H      7.582700   -7.356500    1.163600
  H      5.316800   -8.269900    0.618400
  H      2.908000   -7.833400    0.171200
  H      3.407600   -3.754500    0.635400
  C      4.880900    0.063600    0.722800
  C      3.531900    0.405900    0.572800
  C      3.172100    1.714000    0.338800
  C      4.153100    2.710300    0.260500
  C      5.500100    2.374300    0.436800
  C      5.859800    1.063600    0.662200
  H      2.777900   -0.361900    0.639900
  H      2.135800    1.982100    0.208200
  H      6.255500    3.143600    0.384900
  H      6.899000    0.798600    0.786100
  C      3.771200    4.039500   -0.000900
  C      3.410500    5.168500   -0.241200
  C      2.941200    6.472200   -0.486700
  C      3.727200    7.608500   -0.248900
  C      3.180200    8.860000   -0.468000
  C      1.866300    8.962800   -0.900300
  N      1.123500    7.878000   -1.135400
  C      1.637400    6.662900   -0.952800
  H      4.740200    7.498900    0.106100
  H      3.760500    9.751800   -0.294600
  H      1.390500    9.925700   -1.065200
  H      0.993100    5.815100   -1.181200
  C      0.041900   -1.504300    4.519800
  C      0.208200   -2.668100    4.806000
  C      0.332600   -4.003600    5.236700
  C      0.244600   -4.293100    6.586400
  C      0.302100   -5.612500    7.047200
  C      0.437100   -6.660700    6.171400
  C      0.544300   -6.413000    4.791000
  C      0.681800   -7.447000    3.837400
  C      0.806100   -7.138400    2.514400
  N      0.822300   -5.855800    2.073100
  C      0.673600   -4.863600    2.928600
  C      0.511500   -5.072100    4.307800
  H      0.116900   -3.487200    7.292800
  H      0.227100   -5.800700    8.107200
  H      0.463700   -7.678500    6.527600
  H      0.688100   -8.473700    4.166900
  H      0.900400   -7.910900    1.752800
  H      0.688100   -3.852800    2.526500
  C     -0.168800   -0.152300    4.179100
  C     -1.061900    0.184800    3.155700
  C     -1.275900    1.506600    2.832900
  C     -0.599000    2.517600    3.524700
  C      0.283500    2.182000    4.557100
  C      0.496200    0.859300    4.881000
  H     -1.594000   -0.595900    2.635300
  H     -1.973100    1.772800    2.054200
  H      0.799400    2.962600    5.095100
  H      1.177300    0.596500    5.676100
  C     -0.784500    3.863600    3.152500
  C     -0.924700    5.008400    2.789300
  C     -1.021600    6.332400    2.319300
  C     -0.979000    7.438300    3.179100
  C     -1.022900    8.710800    2.637400
  C     -1.078600    8.862900    1.259900
  N     -1.120600    7.806600    0.443500
  C     -1.114700    6.573300    0.945900
  H     -0.909900    7.290200    4.245600
  H     -0.998500    9.580300    3.274100
  H     -1.089400    9.843500    0.791300
  H     -1.179600    5.750800    0.235700
  C     -4.936300    3.709400   -2.355100
  C     -5.281300    4.862600   -2.481700
  C     -5.765300    6.178700   -2.592800
  C     -7.098100    6.396100   -2.895600
  C     -7.620700    7.691300   -2.964500
  C     -6.830000    8.786500   -2.719100
  C     -5.468600    8.614900   -2.409800
  C     -4.604200    9.698100   -2.132000
  C     -3.290200    9.463400   -1.848600
  N     -2.769100    8.212000   -1.840500
  C     -3.546100    7.173900   -2.080000
  C     -4.915400    7.302100   -2.359800
  H     -7.744300    5.550800   -3.076400
  H     -8.664600    7.822700   -3.205200
  H     -7.239800    9.783500   -2.758200
  H     -4.994100   10.703300   -2.144700
  H     -2.601200   10.272700   -1.614500
  H     -3.083100    6.189400   -2.058500
  C     -4.553300    2.369600   -2.153500
  C     -3.208700    2.028600   -1.965400
  C     -2.855700    0.723100   -1.708600
  C     -3.839000   -0.272100   -1.644000
  C     -5.181000    0.062600   -1.856700
  C     -5.534200    1.370700   -2.106000
  H     -2.453100    2.795500   -2.021800
  H     -1.823200    0.456100   -1.549200
  H     -5.938000   -0.705800   -1.815100
  H     -6.569700    1.634700   -2.258700
  C     -3.463900   -1.598800   -1.361200
  C     -3.109200   -2.726000   -1.104100
  C     -2.644200   -4.027800   -0.841700
  C     -3.439700   -5.163800   -1.047100
  C     -2.895700   -6.414300   -0.814800
  C     -1.575200   -6.516700   -0.402600
  N     -0.823200   -5.432000   -0.198500
  C     -1.334100   -4.217500   -0.392900
  H     -4.457600   -5.055100   -1.388000
  H     -3.483300   -7.305800   -0.963000
  H     -1.101700   -7.479200   -0.229000
  H     -0.682200   -3.369300   -0.189200
  C      0.317800    3.960200   -5.896600
  C      0.175100    5.127600   -6.180800
  C      0.079300    6.467200   -6.606100
  C      0.205000    6.764000   -7.951200
  C      0.175800    8.086900   -8.404600
  C      0.031300    9.131200   -7.525700
  C     -0.113700    8.876300   -6.150100
  C     -0.263500    9.905900   -5.193600
  C     -0.424400    9.590700   -3.876100
  N     -0.465300    8.305700   -3.443600
  C     -0.307000    7.317000   -4.301400
  C     -0.109100    7.532100   -5.675000
  H      0.340200    5.960900   -8.659500
  H      0.280100    8.280700   -9.461200
  H      0.026100   10.151400   -7.875800
  H     -0.250000   10.934600   -5.516600
  H     -0.529400   10.359400   -3.112200
  H     -0.342800    6.304100   -3.906200
  C      0.503300    2.604200   -5.557200
  C     -0.168300    1.604300   -6.269400
  C      0.021300    0.277700   -5.946700
  C      0.887000   -0.073400   -4.905300
  C      1.569900    0.925900   -4.202500
  C      1.378900    2.251600   -4.523900
  H     -0.836100    1.879000   -7.071700
  H     -0.499500   -0.493800   -6.493000
  H      2.253800    0.647600   -3.416400
  H      1.915700    3.023200   -3.994900
  C      1.051700   -1.422700   -4.535600
  C      1.177100   -2.569500   -4.173400
  C      1.261100   -3.894700   -3.704600
  C      1.178800   -5.000100   -4.562400
  C      1.214700   -6.273000   -4.021100
  C      1.302100   -6.425700   -2.645400
  N      1.381200   -5.370100   -1.830900
  C      1.383200   -4.136800   -2.333700
  H      1.086300   -4.851100   -5.626900
  H      1.160300   -7.142100   -4.656500
  H      1.308500   -7.406200   -2.176500
  H      1.478900   -3.315400   -1.625700

----------------------------
CARTESIAN COORDINATES (A.U.)
----------------------------
  NO LB      ZA    FRAG     MASS         X           Y           Z
   0 Pd   18.0000*   0   106.400   -1.552410   15.200201   -2.849707
   1 Pd   18.0000*   0   106.400    2.134824  -10.585112    0.242452
   2 C     6.0000    0    12.011    9.958101   -2.415637    1.697163
   3 C     6.0000    0    12.011   10.617615   -4.596948    1.891238
   4 C     6.0000    0    12.011   11.537912   -7.086284    2.044684
   5 C     6.0000    0    12.011   14.074113   -7.503158    2.528076
   6 C     6.0000    0    12.011   15.064141   -9.952054    2.601019
   7 C     6.0000    0    12.011   13.553872  -12.016957    2.168650
   8 C     6.0000    0    12.011   10.963246  -11.686444    1.674108
   9 C     6.0000    0    12.011    9.311626  -13.727727    1.185614
  10 C     6.0000    0    12.011    6.812652  -13.278350    0.735859
  11 N     7.0000    0    14.007    5.829805  -10.912602    0.772898
  12 C     6.0000    0    12.011    7.313807   -8.955979    1.195441
  13 C     6.0000    0    12.011    9.916905   -9.204289    1.637448
  14 H     1.0000    0     1.008   15.306971   -5.909363    2.843849
  15 H     1.0000    0     1.008   17.050810  -10.205277    2.986712
  16 H     1.0000    0     1.008   14.329226  -13.901770    2.198885
  17 H     1.0000    0     1.008   10.047296  -15.627846    1.168607
  18 H     1.0000    0     1.008    5.495324  -14.802981    0.323521
  19 H     1.0000    0     1.008    6.439431   -7.094977    1.200732
  20 C     6.0000    0    12.011    9.223564    0.120187    1.365894
  21 C     6.0000    0    12.011    6.674324    0.767040    1.082435
  22 C     6.0000    0    12.011    5.994400    3.238991    0.640239
  23 C     6.0000    0    12.011    7.848222    5.121725    0.492274
  24 C     6.0000    0    12.011   10.393683    4.486777    0.825432
  25 C     6.0000    0    12.011   11.073417    2.009913    1.251377
  26 H     1.0000    0     1.008    5.249470   -0.683892    1.209236
  27 H     1.0000    0     1.008    4.036077    3.745626    0.393441
  28 H     1.0000    0     1.008   11.821182    5.940543    0.727356
  29 H     1.0000    0     1.008   13.037221    1.509135    1.485514
  30 C     6.0000    0    12.011    7.126535    7.633549   -0.001701
  31 C     6.0000    0    12.011    6.444911    9.767050   -0.455802
  32 C     6.0000    0    12.011    5.558063   12.230685   -0.919730
  33 C     6.0000    0    12.011    7.043387   14.377981   -0.470353
  34 C     6.0000    0    12.011    6.009707   16.742974   -0.884392
  35 C     6.0000    0    12.011    3.526796   16.937237   -1.701320
  36 N     7.0000    0    14.007    2.123107   14.887262   -2.145595
  37 C     6.0000    0    12.011    3.094238   12.591056   -1.800531
  38 H     1.0000    0     1.008    8.957680   14.170867    0.200500
  39 H     1.0000    0     1.008    7.106315   18.428231   -0.556713
  40 H     1.0000    0     1.008    2.627664   18.756855   -2.012936
  41 H     1.0000    0     1.008    1.876687   10.988946   -2.232145
  42 C     6.0000    0    12.011    0.079180   -2.842715    8.541184
  43 C     6.0000    0    12.011    0.393441   -5.041978    9.082024
  44 C     6.0000    0    12.011    0.628523   -7.565708    9.895929
  45 C     6.0000    0    12.011    0.462227   -8.112783   12.446492
  46 C     6.0000    0    12.011    0.570886  -10.606088   13.317278
  47 C     6.0000    0    12.011    0.825999  -12.586899   11.662256
  48 C     6.0000    0    12.011    1.028578  -12.118814    9.053678
  49 C     6.0000    0    12.011    1.288415  -14.072791    7.251635
  50 C     6.0000    0    12.011    1.523308  -13.489621    4.751527
  51 N     7.0000    0    14.007    1.553922  -11.065858    3.917591
  52 C     6.0000    0    12.011    1.272920   -9.190872    5.534252
  53 C     6.0000    0    12.011    0.966595   -9.584880    8.140562
  54 H     1.0000    0     1.008    0.220909   -6.589853   13.781395
  55 H     1.0000    0     1.008    0.429157  -10.961734   15.320388
  56 H     1.0000    0     1.008    0.876266  -14.510262   12.335376
  57 H     1.0000    0     1.008    1.300321  -16.012972    7.874300
  58 H     1.0000    0     1.008    1.701509  -14.949434    3.312312
  59 H     1.0000    0     1.008    1.300321   -7.280737    4.774393
  60 C     6.0000    0    12.011   -0.318986   -0.287805    7.897354
  61 C     6.0000    0    12.011   -2.006700    0.349221    5.963409
  62 C     6.0000    0    12.011   -2.411102    2.847061    5.353405
  63 C     6.0000    0    12.011   -1.131946    4.757575    6.660718
  64 C     6.0000    0    12.011    0.535737    4.123382    8.611671
  65 C     6.0000    0    12.011    0.937682    1.623842    9.223753
  66 H     1.0000    0     1.008   -3.012223   -1.126088    4.979995
  67 H     1.0000    0     1.008   -3.728619    3.350106    3.881875
  68 H     1.0000    0     1.008    1.510647    5.598503    9.628344
  69 H     1.0000    0     1.008    2.224775    1.127222   10.726275
  70 C     6.0000    0    12.011   -1.482490    7.301146    5.957362
  71 C     6.0000    0    12.011   -1.747430    9.464504    5.271013
  72 C     6.0000    0    12.011   -1.930544   11.966502    4.382842
  73 C     6.0000    0    12.011   -1.850042   14.056350    6.007628
  74 C     6.0000    0    12.011   -1.933001   16.461026    4.983964
  75 C     6.0000    0    12.011   -2.038259   16.748454    2.380866
  76 N     7.0000    0    14.007   -2.117627   14.752336    0.838094
  77 C     6.0000    0    12.011   -2.106478   12.421737    1.787492
  78 H     1.0000    0     1.008   -1.719462   13.776481    8.023021
  79 H     1.0000    0     1.008   -1.886892   18.104143    6.187152
  80 H     1.0000    0     1.008   -2.058668   18.601519    1.495340
  81 H     1.0000    0     1.008   -2.229121   10.867437    0.445408
  82 C     6.0000    0    12.011   -9.328255    7.009750   -4.450494
  83 C     6.0000    0    12.011   -9.980211    9.188982   -4.689733
  84 C     6.0000    0    12.011  -10.894838   11.676051   -4.899682
  85 C     6.0000    0    12.011  -13.413465   12.086877   -5.471891
  86 C     6.0000    0    12.011  -14.401036   14.534451   -5.602093
  87 C     6.0000    0    12.011  -12.906829   16.604079   -5.138354
  88 C     6.0000    0    12.011  -10.334156   16.279802   -4.553862
  89 C     6.0000    0    12.011   -8.700677   18.326753   -4.028896
  90 C     6.0000    0    12.011   -6.217577   17.883234   -3.493348
  91 N     7.0000    0    14.007   -5.232841   15.518431   -3.478041
  92 C     6.0000    0    12.011   -6.701158   13.556706   -3.930630
  93 C     6.0000    0    12.011   -9.288760   13.798969   -4.459376
  94 H     1.0000    0     1.008  -14.634606   10.489492   -5.813553
  95 H     1.0000    0     1.008  -16.373721   14.782761   -6.056950
  96 H     1.0000    0     1.008  -13.681239   18.488136   -5.212243
  97 H     1.0000    0     1.008   -9.437481   20.226306   -4.052896
  98 H     1.0000    0     1.008   -4.915556   19.412590   -3.050963
  99 H     1.0000    0     1.008   -5.826215   11.696271   -3.890001
 100 C     6.0000    0    12.011   -8.604490    4.477895   -4.069525
 101 C     6.0000    0    12.011   -6.063564    3.833498   -3.714068
 102 C     6.0000    0    12.011   -5.396491    1.366461   -3.228786
 103 C     6.0000    0    12.011   -7.254659   -0.514194   -3.106710
 104 C     6.0000    0    12.011   -9.790671    0.118297   -3.508655
 105 C     6.0000    0    12.011  -10.458122    2.590248   -3.979763
 106 H     1.0000    0     1.008   -4.635687    5.282729   -3.820648
 107 H     1.0000    0     1.008   -3.445349    0.861904   -2.927564
 108 H     1.0000    0     1.008  -11.221194   -1.333769   -3.430042
 109 H     1.0000    0     1.008  -12.414934    3.089135   -4.268324
 110 C     6.0000    0    12.011   -6.545822   -3.021294   -2.572295
 111 C     6.0000    0    12.011   -5.875536   -5.151393   -2.086447
 112 C     6.0000    0    12.011   -4.996814   -7.611439   -1.590582
 113 C     6.0000    0    12.011   -6.500091   -9.758168   -1.978732
 114 C     6.0000    0    12.011   -5.472080  -12.121270   -1.539749
 115 C     6.0000    0    12.011   -2.976697  -12.314778   -0.760804
 116 N     7.0000    0    14.007   -1.555623  -10.264992   -0.375111
 117 C     6.0000    0    12.011   -2.521084   -7.969920   -0.742473
 118 H     1.0000    0     1.008   -8.423643   -9.552755   -2.622940
 119 H     1.0000    0     1.008   -6.582483  -13.805961   -1.819806
 120 H     1.0000    0     1.008   -2.081911  -14.133640   -0.432747
 121 H     1.0000    0     1.008   -1.289171   -6.367054   -0.357536
 122 C     6.0000    0    12.011    0.600555    7.483693  -11.142959
 123 C     6.0000    0    12.011    0.330891    9.689760  -11.680019
 124 C     6.0000    0    12.011    0.149855   12.221237  -12.483720
 125 C     6.0000    0    12.011    0.387394   12.782108  -15.025590
 126 C     6.0000    0    12.011    0.332214   15.282026  -15.882392
 127 C     6.0000    0    12.011    0.059148   17.255467  -14.221512
 128 C     6.0000    0    12.011   -0.214862   16.773776  -11.622005
 129 C     6.0000    0    12.011   -0.497943   18.719438   -9.814482
 130 C     6.0000    0    12.011   -0.802000   18.123796   -7.324767
 131 N     7.0000    0    14.007   -0.879290   15.695498   -6.507461
 132 C     6.0000    0    12.011   -0.580146   13.827126   -8.128468
 133 C     6.0000    0    12.011   -0.206169   14.233606  -10.724196
 134 H     1.0000    0     1.008    0.642885   11.264469  -16.364083
 135 H     1.0000    0     1.008    0.529312   15.648255  -17.879077
 136 H     1.0000    0     1.008    0.049322   19.183366  -14.883105
 137 H     1.0000    0     1.008   -0.472432   20.663399  -10.424863
 138 H     1.0000    0     1.008   -1.000421   19.576429   -5.881206
 139 H     1.0000    0     1.008   -0.647798   11.913023   -7.381648
 140 C     6.0000    0    12.011    0.951099    4.921225  -10.501586
 141 C     6.0000    0    12.011   -0.318041    3.031688  -11.847449
 142 C     6.0000    0    12.011    0.040251    0.524777  -11.237634
 143 C     6.0000    0    12.011    1.676187   -0.138706   -9.269674
 144 C     6.0000    0    12.011    2.966681    1.749697   -7.941574
 145 C     6.0000    0    12.011    2.605743    4.254907   -8.548932
 146 H     1.0000    0     1.008   -1.580000    3.550795  -13.363576
 147 H     1.0000    0     1.008   -0.943918   -0.933147  -12.269992
 148 H     1.0000    0     1.008    4.259065    1.223787   -6.456060
 149 H     1.0000    0     1.008    3.620148    5.713020   -7.549267
 150 C     6.0000    0    12.011    1.987425   -2.688513   -8.571042
 151 C     6.0000    0    12.011    2.224397   -4.855651   -7.886583
 152 C     6.0000    0    12.011    2.383134   -7.359916   -7.000679
 153 C     6.0000    0    12.011    2.227609   -9.448820   -8.621687
 154 C     6.0000    0    12.011    2.295450  -11.854252   -7.598778
 155 C     6.0000    0    12.011    2.460612  -12.142813   -4.999082
 156 N     7.0000    0    14.007    2.610090  -10.148018   -3.459900
 157 C     6.0000    0    12.011    2.613869   -7.817419   -4.410054
 158 H     1.0000    0     1.008    2.052809   -9.167250  -10.633300
 159 H     1.0000    0     1.008    2.192649  -13.496613   -8.799510
 160 H     1.0000    0     1.008    2.472707  -13.995690   -4.112989
 161 H     1.0000    0     1.008    2.794716   -6.265198   -3.072128
* core charge reduced due to ECP

--------------------------------
INTERNAL COORDINATES (ANGSTROEM)
--------------------------------
 Pd     0   0   0     0.000000000000     0.00000000     0.00000000
 Pd     1   0   0    13.880586591711     0.00000000     0.00000000
 C      2   1   0     6.034944710600    53.64973849     0.00000000
 C      3   2   1     1.210271366265    61.66820608   184.43074215
 C      4   3   2     1.406784180320   176.20722612   144.83176818
 C      5   4   3     1.383954627146   119.71182250    34.76326229
 C      6   5   4     1.398326850203   121.07474543   182.34445476
 C      7   6   5     1.372976099573   120.98926175     0.69137941
 C      8   7   6     1.406571615667   119.95863832   359.20368336
 C      9   8   7     1.413340118301   122.79974622   179.26307721
 C     10   9   8     1.364527244140   119.86830260   179.56788406
 N     11  10   9     1.355780874625   122.01704373   359.09949503
 C     12  11  10     1.318615262311   119.93668682     1.60254520
 C     13  12  11     1.403382136127   122.63648480   359.51271892
 H      6   5   4     1.079292235680   119.35674754     2.02359794
 H      7   6   5     1.079279620858   119.02766258   180.10473140
 H      8   7   6     1.078614319393   120.79982704   179.08154512
 H     10   9   8     1.078269789988   119.40434819   359.41553598
 H     11  10   9     1.088340888693   121.77063109   179.00024651
 H     13  12  11     1.088085552703   117.24944593   179.79764333
 C      3   2   1     1.408017538953   118.51901342     1.73411980
 C     21   3   2     1.399810805073   120.82601562     9.46889926
 C     22  21   3     1.376712624334   120.16025455   183.08873569
 C     23  22  21     1.400394794335   120.15962422   359.48056859
 C     24  23  22     1.399423699242   119.76305885   359.24250495
 C     25  24  23     1.377724116070   120.02193744     1.18184838
 H     22  21   3     1.078209279315   119.54596496     2.97011954
 H     23  22  21     1.078355998731   120.52859205   179.11582942
 H     25  24  23     1.079418945544   119.76406938   180.52550964
 H     26  25  24     1.079589204281   120.23936218   179.21572737
 C     24  23  22     1.407462329869   119.48455079   178.97157925
 C     31  24  23     1.209334354097   178.17856803   337.63175397
 C     32  31  24     1.407176758620   177.51544645    58.90705132
 C     33  32  31     1.401970944777   122.29873254   126.71836313
 C     34  33  32     1.383280904227   118.99441482   182.34765457
 C     35  34  33     1.387005529910   119.40745641     0.79749257
 N     36  35  34     1.335595331678   121.43342538   358.67660242
 C     37  36  35     1.331879866955   120.15111688     0.18716429
 H     34  33  32     1.078983855301   119.98891412     1.92964838
 H     35  34  33     1.078018037882   120.67092151   180.04553424
 H     36  35  34     1.086625077936   121.85467432   178.72512288
 H     38  37  36     1.089061012983   116.94848207   181.31832054
 C     27  22  21     4.883072574722   127.43565122    98.14418762
 C     43  27  22     1.209957259576   109.63092738   237.72780614
 C     44  43  27     1.408736348647   175.07161795   174.30506574
 C     45  44  43     1.383200759109   119.41477969   331.77209149
 C     46  45  44     1.398734874807   121.08253403   177.05931866
 C     47  46  45     1.372579280042   120.94363039   359.47947227
 C     48  47  46     1.406538762352   119.94841094     1.16660312
 C     49  48  47     1.413299405646   122.73581014   180.16915008
 C     50  49  48     1.364189667898   119.84938329   181.21921056
 N     51  50  49     1.356492126774   122.03803927     0.97665864
 C     52  51  50     1.318503993168   119.94025892   357.86397194
 C     53  52  51     1.404258273965   122.58498543     0.79917564
 H     46  45  44     1.079251157053   119.33509267   357.84479697
 H     47  46  45     1.079186842025   119.02726916   180.18590461
 H     48  47  46     1.078657888304   120.81744996   181.08965661
 H     50  49  48     1.078296262629   119.40636077     1.15607737
 H     51  50  49     1.088890857708   121.71636744   180.82904336
 H     53  52  51     1.087939014835   117.24842464   180.32764924
 C     43  27  22     1.410097507267    70.57529633    58.51025001
 C     61  43  27     1.399504047868   120.19763141    82.06345991
 C     62  61  43     1.377371075636   120.11117843   179.38390780
 C     63  62  61     1.399607748621   120.14701310     0.14747854
 C     64  63  62     1.399029438575   119.77188193   359.19469333
 C     65  64  63     1.378291620086   120.06400772     0.72466013
 H     62  61  43     1.078628323381   119.55612000     0.51941732
 H     63  62  61     1.078574971896   120.42976644   180.83577742
 H     65  64  63     1.079320698402   119.72622580   180.46452299
 H     66  65  64     1.079418852902   120.27303787   179.92252453
 C     64  63  62     1.408779290734   119.72804447   177.51160197
 C     71  64  63     1.209188703222   177.68601944   297.40795132
 C     72  71  64     1.408284633872   176.66881791   328.81487931
 C     73  72  71     1.401458386824   122.34644298   239.17732778
 C     74  73  72     1.383698793090   118.98287202   177.26368071
 C     75  74  73     1.386990681295   119.40181188   358.61704657
 N     76  75  74     1.335680594304   121.43830543     1.49621153
 C     77  76  75     1.331716734144   120.10991573     0.25742044
 H     74  73  72     1.078948872746   120.00374521   357.45288880
 H     75  74  73     1.077966836225   120.65314306   179.58630808
 H     76  75  74     1.086866578748   121.83915036   181.54988005
 H     78  77  76     1.088624039786   116.95716893   178.26600412
 C     82  78  77     4.999235290522   133.74175856   282.01988058
 C     83  82  78     1.210339952245    83.06981225    39.77336059
 C     84  83  82     1.406669264611   176.18321671   235.07686333
 C     85  84  83     1.383945967153   119.71017031   325.15151703
 C     86  85  84     1.398356538941   121.07716904   177.62262018
 C     87  86  85     1.372913212843   120.98585287   359.27322260
 C     88  87  86     1.406599804493   119.96078605     0.82832116
 C     89  88  87     1.413393943669   122.79593767   180.74107955
 C     90  89  88     1.364549614342   119.86288027   180.48967998
 N     91  90  89     1.355585770064   122.01822472     0.90993993
 C     92  91  90     1.318613233666   119.94438671   358.34316559
 C     93  92  91     1.403462065750   122.62983955     0.52281625
 H     86  85  84     1.079256767410   119.35612462   357.92863976
 H     87  86  85     1.079319072379   119.02629077   179.88573975
 H     88  87  86     1.078644450224   120.80061667   180.94718282
 H     90  89  88     1.078244100378   119.40628813     0.62742920
 H     91  90  89     1.088342914710   121.76216153   181.00325505
 H     93  92  91     1.088150495106   117.25579332   180.25046200
 C     83  82  78     1.407975710018    96.31267961   222.03983271
 C    101  83  82     1.399861339562   120.81871851   331.23980036
 C    102 101  83     1.376548397260   120.15926071   177.02502069
 C    103 102 101     1.400526718774   120.16388160     0.47078318
 C    104 103 102     1.399367492834   119.75821819     0.73071207
 C    105 104 103     1.377688767465   120.03072332   358.89553781
 H    102 101  83     1.078076031642   119.53113148   357.10890341
 H    103 102 101     1.078310535050   120.52742331   180.85245398
 H    105 104 103     1.079452694656   119.76318865   179.48965587
 H    106 105 104     1.079478364767   120.24731955   180.74322859
 C    104 103 102     1.407412071854   119.47127704   180.92269765
 C    111 104 103     1.209335495220   178.22000830    19.18456609
 C    112 111 104     1.407040155788   177.36721810   302.40536064
 C    113 112 111     1.401964839074   122.33319249   232.90561643
 C    114 113 112     1.383347223223   118.99526382   177.55781600
 C    115 114 113     1.387124669956   119.40597361   359.15173004
 N    116 115 114     1.335565385895   121.43089572     1.36642118
 C    117 116 115     1.331848497390   120.15294542   359.83725681
 H    114 113 112     1.078957325384   119.99768167   357.98365225
 H    115 114 113     1.077965328756   120.67398404   179.93263402
 H    116 115 114     1.086621120722   121.84944875   181.30845938
 H    118 117 116     1.088995197418   116.95685581   178.64053479
 C    107 102 101     4.903925768198   127.32312054   263.37248994
 C    123 107 102     1.209940366299   110.37160878   122.89848640
 C    124 123 107     1.408753310555   175.14424867   184.53349719
 C    125 124 123     1.383179214708   119.43604105    28.23043011
 C    126 125 124     1.398745369966   121.08234810   182.90492115
 C    127 126 125     1.372555263004   120.94542368     0.48818985
 C    128 127 126     1.406511418368   119.94922240   358.87276447
 C    129 128 127     1.413297014077   122.73897763   179.86287493
 C    130 129 128     1.364201634657   119.85429005   178.80229897
 N    131 130 129     1.356449062811   122.03037623   359.05874311
 C    132 131 130     1.318486791743   119.95474800     2.06568037
 C    133 132 131     1.404353723248   122.57548697   359.21847627
 H    126 125 124     1.079322722822   119.33395489     2.12759711
 H    127 126 125     1.079277763136   119.02210903   179.80365575
 H    128 127 126     1.078612576415   120.81742759   178.93817561
 H    130 129 128     1.078301877954   119.40257336   358.86318664
 H    131 130 129     1.088791945231   121.72443073   179.18829475
 H    133 132 131     1.087856189944   117.25202094   179.70217757
 C    123 107 102     1.410084610937    69.86427379   302.00863176
 C    141 123 107     1.399312477612   120.10021868    99.48807458
 C    142 141 123     1.378387104554   120.16848898   179.41304082
 C    143 142 141     1.399007383826   120.06104976     0.00000000
 C    144 143 142     1.399600207202   119.77059472   359.32530402
 C    145 144 143     1.377410414510   120.15614183     0.76488501
 H    142 141 123     1.079399008708   119.56344969   359.34156318
 H    143 142 141     1.079300041694   120.20435935   179.75014580
 H    145 144 143     1.078481946998   119.41785159   181.45478329
 H    146 145 144     1.078592508782   120.33582601   180.99266887
 C    144 143 142     1.408692539201   120.53656859   177.71982727
 C    151 144 143     1.209158484236   177.67966982   239.87348769
 C    152 151 144     1.408184817416   176.80521280    33.08862618
 C    153 152 151     1.401607395100   122.33995438   121.30657204
 C    154 153 152     1.383679482395   118.98493927   182.62649667
 C    155 154 153     1.386905382497   119.40396279     1.36654573
 N    156 155 154     1.335649063190   121.43997063   358.55566610
 C    157 156 155     1.331856122109   120.11360627   359.71036479
 H    154 153 152     1.078850082264   119.99886783     2.45887856
 H    155 154 153     1.077973714893   120.64961427   180.42914187
 H    156 155 154     1.086870930700   121.84567594   178.47959628
 H    158 157 156     1.088632375965   116.95565887   181.74026679

---------------------------
INTERNAL COORDINATES (A.U.)
---------------------------
 Pd     0   0   0     0.000000000000     0.00000000     0.00000000
 Pd     1   0   0    26.230507236514     0.00000000     0.00000000
 C      2   1   0    11.404392736391    53.64973849     0.00000000
 C      3   2   1     2.287081429967    61.66820608   184.43074215
 C      4   3   2     2.658436830339   176.20722612   144.83176818
 C      5   4   3     2.615295227080   119.71182250    34.76326229
 C      6   5   4     2.642454792593   121.07474543   182.34445476
 C      7   6   5     2.594548816613   120.98926175     0.69137941
 C      8   7   6     2.658035141358   119.95863832   359.20368336
 C      9   8   7     2.670825757673   122.79974622   179.26307721
 C     10   9   8     2.578582793699   119.86830260   179.56788406
 N     11  10   9     2.562054550650   122.01704373   359.09949503
 C     12  11  10     2.491821721777   119.93668682     1.60254520
 C     13  12  11     2.652007898517   122.63648480   359.51271892
 H      6   5   4     2.039566743904   119.35674754     2.02359794
 H      7   6   5     2.039542905345   119.02766258   180.10473140
 H      8   7   6     2.038285667779   120.79982704   179.08154512
 H     10   9   8     2.037634601557   119.40434819   359.41553598
 H     11  10   9     2.056666219977   121.77063109   179.00024651
 H     13  12  11     2.056183704884   117.24944593   179.79764333
 C      3   2   1     2.660767540379   118.51901342     1.73411980
 C     21   3   2     2.645259060892   120.82601562     9.46889926
 C     22  21   3     2.601609825103   120.16025455   183.08873569
 C     23  22  21     2.646362640662   120.15962422   359.48056859
 C     24  23  22     2.644527536886   119.76305885   359.24250495
 C     25  24  23     2.603521267470   120.02193744     1.18184838
 H     22  21   3     2.037520252957   119.54596496     2.97011954
 H     23  22  21     2.037797512473   120.52859205   179.11582942
 H     25  24  23     2.039806190845   119.76406938   180.52550964
 H     26  25  24     2.040127933229   120.23936218   179.21572737
 C     24  23  22     2.659718347263   119.48455079   178.97157925
 C     31  24  23     2.285310733586   178.17856803   337.63175397
 C     32  31  24     2.659178695811   177.51544645    58.90705132
 C     33  32  31     2.649341133344   122.29873254   126.71836313
 C     34  33  32     2.614022075273   118.99441482   182.34765457
 C     35  34  33     2.621060597764   119.40745641     0.79749257
 N     36  35  34     2.523909402615   121.43342538   358.67660242
 C     37  36  35     2.516888191828   120.15111688     0.18716429
 H     34  33  32     2.038983989441   119.98891412     1.92964838
 H     35  34  33     2.037158859025   120.67092151   180.04553424
 H     36  35  34     2.053423807550   121.85467432   178.72512288
 H     38  37  36     2.058027057669   116.94848207   181.31832054
 C     27  22  21     9.227669858286   127.43565122    98.14418762
 C     43  27  22     2.286487854348   109.63092738   237.72780614
 C     44  43  27     2.662125893844   175.07161795   174.30506574
 C     45  44  43     2.613870622948   119.41477969   331.77209149
 C     46  45  44     2.643225847349   121.08253403   177.05931866
 C     47  46  45     2.593798936374   120.94363039   359.47947227
 C     48  47  46     2.657973057591   119.94841094     1.16660312
 C     49  48  47     2.670748821905   122.73581014   180.16915008
 C     50  49  48     2.577944867052   119.84938329   181.21921056
 N     51  50  49     2.563398622423   122.03803927     0.97665864
 C     52  51  50     2.491611453569   119.94025892   357.86397194
 C     53  52  51     2.653663559087   122.58498543     0.79917564
 H     46  45  44     2.039489116548   119.33509267   357.84479697
 H     47  46  45     2.039367578759   119.02726916   180.18590461
 H     48  47  46     2.038368001088   120.81744996   181.08965661
 H     50  49  48     2.037684627600   119.40636077     1.15607737
 H     51  50  49     2.057705510799   121.71636744   180.82904336
 H     53  52  51     2.055906788446   117.24842464   180.32764924
 C     43  27  22     2.664698110859    70.57529633    58.51025001
 C     61  43  27     2.644679373785   120.19763141    82.06345991
 C     62  61  43     2.602854117737   120.11117843   179.38390780
 C     63  62  61     2.644875339808   120.14701310     0.14747854
 C     64  63  62     2.643782492201   119.77188193   359.19469333
 C     65  64  63     2.604593694642   120.06400772     0.72466013
 H     62  61  43     2.038312131481   119.55612000     0.51941732
 H     63  62  61     2.038211311785   120.42976644   180.83577742
 H     65  64  63     2.039620530653   119.72622580   180.46452299
 H     66  65  64     2.039806015776   120.27303787   179.92252453
 C     64  63  62     2.662207042626   119.72804447   177.51160197
 C     71  64  63     2.285035493321   177.68601944   297.40795132
 C     72  71  64     2.661272276628   176.66881791   328.81487931
 C     73  72  71     2.648372539185   122.34644298   239.17732778
 C     74  73  72     2.614811770778   118.98287202   177.26368071
 C     75  74  73     2.621032537949   119.40181188   358.61704657
 N     76  75  74     2.524070525628   121.43830543     1.49621153
 C     77  76  75     2.516579915493   120.10991573     0.25742044
 H     74  73  72     2.038917881993   120.00374521   357.45288880
 H     75  74  73     2.037062101914   120.65314306   179.58630808
 H     76  75  74     2.053880177946   121.83915036   181.54988005
 H     78  77  76     2.057201297999   116.95716893   178.26600412
 C     82  78  77     9.447185578121   133.74175856   282.01988058
 C     83  82  78     2.287211038686    83.06981225    39.77336059
 C     84  83  82     2.658219671118   176.18321671   235.07686333
 C     85  84  83     2.615278862065   119.71017031   325.15151703
 C     86  85  84     2.642510896177   121.07716904   177.62262018
 C     87  86  85     2.594429977916   120.98585287   359.27322260
 C     88  87  86     2.658088410519   119.96078605     0.82832116
 C     89  88  87     2.670927472877   122.79593767   180.74107955
 C     90  89  88     2.578625067254   119.86288027   180.48967998
 N     91  90  89     2.561685856462   122.01822472     0.90993993
 C     92  91  90     2.491817888194   119.94438671   358.34316559
 C     93  92  91     2.652158943615   122.62983955     0.52281625
 H     86  85  84     2.039499718586   119.35612462   357.92863976
 H     87  86  85     2.039617457913   119.02629077   179.88573975
 H     88  87  86     2.038342606798   120.80061667   180.94718282
 H     90  89  88     2.037586055231   119.40628813     0.62742920
 H     91  90  89     2.056670048596   121.76216153   181.00325505
 H     93  92  91     2.056306428242   117.25579332   180.25046200
 C     83  82  78     2.660688495147    96.31267961   222.03983271
 C    101  83  82     2.645354557236   120.81871851   331.23980036
 C    102 101  83     2.601299480910   120.15926071   177.02502069
 C    103 102 101     2.646611941722   120.16388160     0.47078318
 C    104 103 102     2.644421322168   119.75821819     0.73071207
 C    105 104 103     2.603454468289   120.03072332   358.89553781
 H    102 101  83     2.037268451347   119.53113148   357.10890341
 H    103 102 101     2.037711598567   120.52742331   180.85245398
 H    105 104 103     2.039869967423   119.76318865   179.48965587
 H    106 105 104     2.039918476903   120.24731955   180.74322859
 C    104 103 102     2.659623373379   119.47127704   180.92269765
 C    111 104 103     2.285312889997   178.22000830    19.18456609
 C    112 111 104     2.658920553869   177.36721810   302.40536064
 C    113 112 111     2.649329595237   122.33319249   232.90561643
 C    114 113 112     2.614147400013   118.99526382   177.55781600
 C    115 114 113     2.621285739822   119.40597361   359.15173004
 N    116 115 114     2.523852813286   121.43089572     1.36642118
 C    117 116 115     2.516828911942   120.15294542   359.83725681
 H    114 113 112     2.038933855164   119.99768167   357.98365225
 H    115 114 113     2.037059253211   120.67398404   179.93263402
 H    116 115 114     2.053416329500   121.84944875   181.30845938
 H    118 117 116     2.057902684276   116.95685581   178.64053479
 C    107 102 101     9.267076682974   127.32312054   263.37248994
 C    123 107 102     2.286455930682   110.37160878   122.89848640
 C    124 123 107     2.662157947204   175.14424867   184.53349719
 C    125 124 123     2.613829909930   119.43604105    28.23043011
 C    126 125 124     2.643245680325   121.08234810   182.90492115
 C    127 126 125     2.593753550750   120.94542368     0.48818985
 C    128 127 126     2.657921384949   119.94922240   358.87276447
 C    129 128 127     2.670744302495   122.73897763   179.86287493
 C    130 129 128     2.577967480949   119.85429005   178.80229897
 N    131 130 129     2.563317243326   122.03037623   359.05874311
 C    132 131 130     2.491578947586   119.95474800     2.06568037
 C    133 132 131     2.653843932091   122.57548697   359.21847627
 H    126 125 124     2.039624356252   119.33395489     2.12759711
 H    127 126 125     2.039539394758   119.02210903   179.80365575
 H    128 127 126     2.038282374027   120.81742759   178.93817561
 H    130 129 128     2.037695239027   119.40257336   358.86318664
 H    131 130 129     2.057518593306   121.72443073   179.18829475
 H    133 132 131     2.055750272086   117.25202094   179.70217757
 C    123 107 102     2.664673740327    69.86427379   302.00863176
 C    141 123 107     2.644317358465   120.10021868    99.48807458
 C    142 141 123     2.604774134135   120.16848898   179.41304082
 C    143 142 141     2.643740814765   120.06104976     0.00000000
 C    144 143 142     2.644861088591   119.77059472   359.32530402
 C    145 144 143     2.602928457434   120.15614183     0.76488501
 H    142 141 123     2.039768515684   119.56344969   359.34156318
 H    143 142 141     2.039581495131   120.20435935   179.75014580
 H    145 144 143     2.038035520204   119.41785159   181.45478329
 H    146 145 144     2.038244451696   120.33582601   180.99266887
 C    144 143 142     2.662043105988   120.53656859   177.71982727
 C    151 144 143     2.284978387713   177.67966982   239.87348769
 C    152 151 144     2.661083650862   176.80521280    33.08862618
 C    153 152 151     2.648654124018   122.33995438   121.30657204
 C    154 153 152     2.614775278852   118.98493927   182.62649667
 C    155 154 153     2.620871346581   119.40396279     1.36654573
 N    156 155 154     2.524010940457   121.43997063   358.55566610
 C    157 156 155     2.516843320573   120.11360627   359.71036479
 H    154 153 152     2.038731195036   119.99886783     2.45887856
 H    155 154 153     2.037075100713   120.64961427   180.42914187
 H    156 155 154     2.053888401943   121.84567594   178.47959628
 H    158 157 156     2.057217051095   116.95565887   181.74026679

---------------------
BASIS SET INFORMATION
---------------------
There are 4 groups of distinct atoms

 Group   1 Type Pd  : 7s7p6d contracted to 6s4p3d pattern {211111/4111/411}
 Group   2 Type C   : 11s6p1d contracted to 5s3p1d pattern {62111/411/1}
 Group   3 Type N   : 11s6p1d contracted to 5s3p1d pattern {62111/411/1}
 Group   4 Type H   : 5s contracted to 3s pattern {311}

Atom   0Pd   basis set group =>   1
Atom   1Pd   basis set group =>   1
Atom   2C    basis set group =>   2
Atom   3C    basis set group =>   2
Atom   4C    basis set group =>   2
Atom   5C    basis set group =>   2
Atom   6C    basis set group =>   2
Atom   7C    basis set group =>   2
Atom   8C    basis set group =>   2
Atom   9C    basis set group =>   2
Atom  10C    basis set group =>   2
Atom  11N    basis set group =>   3
Atom  12C    basis set group =>   2
Atom  13C    basis set group =>   2
Atom  14H    basis set group =>   4
Atom  15H    basis set group =>   4
Atom  16H    basis set group =>   4
Atom  17H    basis set group =>   4
Atom  18H    basis set group =>   4
Atom  19H    basis set group =>   4
Atom  20C    basis set group =>   2
Atom  21C    basis set group =>   2
Atom  22C    basis set group =>   2
Atom  23C    basis set group =>   2
Atom  24C    basis set group =>   2
Atom  25C    basis set group =>   2
Atom  26H    basis set group =>   4
Atom  27H    basis set group =>   4
Atom  28H    basis set group =>   4
Atom  29H    basis set group =>   4
Atom  30C    basis set group =>   2
Atom  31C    basis set group =>   2
Atom  32C    basis set group =>   2
Atom  33C    basis set group =>   2
Atom  34C    basis set group =>   2
Atom  35C    basis set group =>   2
Atom  36N    basis set group =>   3
Atom  37C    basis set group =>   2
Atom  38H    basis set group =>   4
Atom  39H    basis set group =>   4
Atom  40H    basis set group =>   4
Atom  41H    basis set group =>   4
Atom  42C    basis set group =>   2
Atom  43C    basis set group =>   2
Atom  44C    basis set group =>   2
Atom  45C    basis set group =>   2
Atom  46C    basis set group =>   2
Atom  47C    basis set group =>   2
Atom  48C    basis set group =>   2
Atom  49C    basis set group =>   2
Atom  50C    basis set group =>   2
Atom  51N    basis set group =>   3
Atom  52C    basis set group =>   2
Atom  53C    basis set group =>   2
Atom  54H    basis set group =>   4
Atom  55H    basis set group =>   4
Atom  56H    basis set group =>   4
Atom  57H    basis set group =>   4
Atom  58H    basis set group =>   4
Atom  59H    basis set group =>   4
Atom  60C    basis set group =>   2
Atom  61C    basis set group =>   2
Atom  62C    basis set group =>   2
Atom  63C    basis set group =>   2
Atom  64C    basis set group =>   2
Atom  65C    basis set group =>   2
Atom  66H    basis set group =>   4
Atom  67H    basis set group =>   4
Atom  68H    basis set group =>   4
Atom  69H    basis set group =>   4
Atom  70C    basis set group =>   2
Atom  71C    basis set group =>   2
Atom  72C    basis set group =>   2
Atom  73C    basis set group =>   2
Atom  74C    basis set group =>   2
Atom  75C    basis set group =>   2
Atom  76N    basis set group =>   3
Atom  77C    basis set group =>   2
Atom  78H    basis set group =>   4
Atom  79H    basis set group =>   4
Atom  80H    basis set group =>   4
Atom  81H    basis set group =>   4
Atom  82C    basis set group =>   2
Atom  83C    basis set group =>   2
Atom  84C    basis set group =>   2
Atom  85C    basis set group =>   2
Atom  86C    basis set group =>   2
Atom  87C    basis set group =>   2
Atom  88C    basis set group =>   2
Atom  89C    basis set group =>   2
Atom  90C    basis set group =>   2
Atom  91N    basis set group =>   3
Atom  92C    basis set group =>   2
Atom  93C    basis set group =>   2
Atom  94H    basis set group =>   4
Atom  95H    basis set group =>   4
Atom  96H    basis set group =>   4
Atom  97H    basis set group =>   4
Atom  98H    basis set group =>   4
Atom  99H    basis set group =>   4
Atom 100C    basis set group =>   2
Atom 101C    basis set group =>   2
Atom 102C    basis set group =>   2
Atom 103C    basis set group =>   2
Atom 104C    basis set group =>   2
Atom 105C    basis set group =>   2
Atom 106H    basis set group =>   4
Atom 107H    basis set group =>   4
Atom 108H    basis set group =>   4
Atom 109H    basis set group =>   4
Atom 110C    basis set group =>   2
Atom 111C    basis set group =>   2
Atom 112C    basis set group =>   2
Atom 113C    basis set group =>   2
Atom 114C    basis set group =>   2
Atom 115C    basis set group =>   2
Atom 116N    basis set group =>   3
Atom 117C    basis set group =>   2
Atom 118H    basis set group =>   4
Atom 119H    basis set group =>   4
Atom 120H    basis set group =>   4
Atom 121H    basis set group =>   4
Atom 122C    basis set group =>   2
Atom 123C    basis set group =>   2
Atom 124C    basis set group =>   2
Atom 125C    basis set group =>   2
Atom 126C    basis set group =>   2
Atom 127C    basis set group =>   2
Atom 128C    basis set group =>   2
Atom 129C    basis set group =>   2
Atom 130C    basis set group =>   2
Atom 131N    basis set group =>   3
Atom 132C    basis set group =>   2
Atom 133C    basis set group =>   2
Atom 134H    basis set group =>   4
Atom 135H    basis set group =>   4
Atom 136H    basis set group =>   4
Atom 137H    basis set group =>   4
Atom 138H    basis set group =>   4
Atom 139H    basis set group =>   4
Atom 140C    basis set group =>   2
Atom 141C    basis set group =>   2
Atom 142C    basis set group =>   2
Atom 143C    basis set group =>   2
Atom 144C    basis set group =>   2
Atom 145C    basis set group =>   2
Atom 146H    basis set group =>   4
Atom 147H    basis set group =>   4
Atom 148H    basis set group =>   4
Atom 149H    basis set group =>   4
Atom 150C    basis set group =>   2
Atom 151C    basis set group =>   2
Atom 152C    basis set group =>   2
Atom 153C    basis set group =>   2
Atom 154C    basis set group =>   2
Atom 155C    basis set group =>   2
Atom 156N    basis set group =>   3
Atom 157C    basis set group =>   2
Atom 158H    basis set group =>   4
Atom 159H    basis set group =>   4
Atom 160H    basis set group =>   4
Atom 161H    basis set group =>   4

-------------------------
BASIS SET IN INPUT FORMAT
-------------------------

 # Basis set for element : H 
 NewGTO H 
 S 3 
   1      34.0613410000      0.0254393072
   2       5.1235746000      0.1900859489
   3       1.1646626000      0.8524411301
 S 1 
   1       0.3272304100      1.0000000000
 S 1 
   1       0.1030724100      1.0000000000
  end;

 # Basis set for element : C 
 NewGTO C 
 S 6 
   1   13575.3496820000      0.0006064549
   2    2035.2333680000      0.0046979088
   3     463.2256235900      0.0243324776
   4     131.2001959800      0.0973999683
   5      42.8530158910      0.3019558425
   6      15.5841857660      0.6623360915
 S 2 
   1       6.2067138508      0.6559530854
   2       2.5764896527      0.3758563329
 S 1 
   1       0.5769633942      1.0000000000
 S 1 
   1       0.2297283136      1.0000000000
 S 1 
   1       0.0951644400      1.0000000000
 P 4 
   1      34.6972322440      0.0113272200
   2       7.9582622826      0.0761696592
   3       2.3780826883      0.3019225220
   4       0.8143320818      0.7278502735
 P 1 
   1       0.2888754725      1.0000000000
 P 1 
   1       0.1005682367      1.0000000000
 D 1 
   1       0.8000000000      1.0000000000
  end;

 # Basis set for element : N 
 NewGTO N 
 S 6 
   1   19730.8006470000      0.0005862639
   2    2957.8958745000      0.0045428821
   3     673.2213359500      0.0235584136
   4     190.6824949400      0.0947091933
   5      62.2954418980      0.2971978492
   6      22.6541611820      0.6691624689
 S 2 
   1       8.9791477428      0.6459668363
   2       3.6863002370      0.3870057440
 S 1 
   1       0.8466007680      1.0000000000
 S 1 
   1       0.3364713377      1.0000000000
 S 1 
   1       0.1364765367      1.0000000000
 P 4 
   1      49.2003805100      0.0114488252
   2      11.3467905370      0.0784223379
   3       3.4273972411      0.3081809474
   4       1.1785525134      0.7202719637
 P 1 
   1       0.4164220497      1.0000000000
 P 1 
   1       0.1426082601      1.0000000000
 D 1 
   1       0.8000000000      1.0000000000
  end;

 # Basis set for element : Pd
 NewGTO Pd
 S 2 
   1      18.0000000000     -0.8955869481
   2      14.6621343080      1.8822771923
 S 1 
   1       5.6388709265      1.0000000000
 S 1 
   1       1.3198953252      1.0000000000
 S 1 
   1       0.5781790851      1.0000000000
 S 1 
   1       0.1035216624      1.0000000000
 S 1 
   1       0.0375484427      1.0000000000
 P 4 
   1      12.5528993000      0.0701895210
   2       7.2444496380     -0.2749252830
   3       1.8905941078      0.5623121361
   4       0.9073716876      0.5736959368
 P 1 
   1       0.4087721081      1.0000000000
 P 1 
   1       0.1150000000      1.0000000000
 P 1 
   1       0.0370000000      1.0000000000
 D 4 
   1      22.3574575750      0.0063445039
   2      10.6825263820     -0.0225156052
   3       2.4858232550      0.3884291800
   4       1.0735333903      0.6828976806
 D 1 
   1       0.4261384285      1.0000000000
 D 1 
   1       0.1504635538      1.0000000000
  end;

---------------------------------
AUXILIARY/J BASIS SET INFORMATION
---------------------------------
There are 4 groups of distinct atoms

 Group   1 Type Pd  : 11s5p5d3f3g contracted to 8s5p5d2f3g pattern {41111111/11111/11111/21/111}
 Group   2 Type C   : 8s3p3d contracted to 6s3p3d pattern {311111/111/111}
 Group   3 Type N   : 8s3p3d contracted to 6s3p3d pattern {311111/111/111}
 Group   4 Type H   : 5s2p contracted to 3s1p pattern {311/2}

Atom   0Pd   basis set group =>   1
Atom   1Pd   basis set group =>   1
Atom   2C    basis set group =>   2
Atom   3C    basis set group =>   2
Atom   4C    basis set group =>   2
Atom   5C    basis set group =>   2
Atom   6C    basis set group =>   2
Atom   7C    basis set group =>   2
Atom   8C    basis set group =>   2
Atom   9C    basis set group =>   2
Atom  10C    basis set group =>   2
Atom  11N    basis set group =>   3
Atom  12C    basis set group =>   2
Atom  13C    basis set group =>   2
Atom  14H    basis set group =>   4
Atom  15H    basis set group =>   4
Atom  16H    basis set group =>   4
Atom  17H    basis set group =>   4
Atom  18H    basis set group =>   4
Atom  19H    basis set group =>   4
Atom  20C    basis set group =>   2
Atom  21C    basis set group =>   2
Atom  22C    basis set group =>   2
Atom  23C    basis set group =>   2
Atom  24C    basis set group =>   2
Atom  25C    basis set group =>   2
Atom  26H    basis set group =>   4
Atom  27H    basis set group =>   4
Atom  28H    basis set group =>   4
Atom  29H    basis set group =>   4
Atom  30C    basis set group =>   2
Atom  31C    basis set group =>   2
Atom  32C    basis set group =>   2
Atom  33C    basis set group =>   2
Atom  34C    basis set group =>   2
Atom  35C    basis set group =>   2
Atom  36N    basis set group =>   3
Atom  37C    basis set group =>   2
Atom  38H    basis set group =>   4
Atom  39H    basis set group =>   4
Atom  40H    basis set group =>   4
Atom  41H    basis set group =>   4
Atom  42C    basis set group =>   2
Atom  43C    basis set group =>   2
Atom  44C    basis set group =>   2
Atom  45C    basis set group =>   2
Atom  46C    basis set group =>   2
Atom  47C    basis set group =>   2
Atom  48C    basis set group =>   2
Atom  49C    basis set group =>   2
Atom  50C    basis set group =>   2
Atom  51N    basis set group =>   3
Atom  52C    basis set group =>   2
Atom  53C    basis set group =>   2
Atom  54H    basis set group =>   4
Atom  55H    basis set group =>   4
Atom  56H    basis set group =>   4
Atom  57H    basis set group =>   4
Atom  58H    basis set group =>   4
Atom  59H    basis set group =>   4
Atom  60C    basis set group =>   2
Atom  61C    basis set group =>   2
Atom  62C    basis set group =>   2
Atom  63C    basis set group =>   2
Atom  64C    basis set group =>   2
Atom  65C    basis set group =>   2
Atom  66H    basis set group =>   4
Atom  67H    basis set group =>   4
Atom  68H    basis set group =>   4
Atom  69H    basis set group =>   4
Atom  70C    basis set group =>   2
Atom  71C    basis set group =>   2
Atom  72C    basis set group =>   2
Atom  73C    basis set group =>   2
Atom  74C    basis set group =>   2
Atom  75C    basis set group =>   2
Atom  76N    basis set group =>   3
Atom  77C    basis set group =>   2
Atom  78H    basis set group =>   4
Atom  79H    basis set group =>   4
Atom  80H    basis set group =>   4
Atom  81H    basis set group =>   4
Atom  82C    basis set group =>   2
Atom  83C    basis set group =>   2
Atom  84C    basis set group =>   2
Atom  85C    basis set group =>   2
Atom  86C    basis set group =>   2
Atom  87C    basis set group =>   2
Atom  88C    basis set group =>   2
Atom  89C    basis set group =>   2
Atom  90C    basis set group =>   2
Atom  91N    basis set group =>   3
Atom  92C    basis set group =>   2
Atom  93C    basis set group =>   2
Atom  94H    basis set group =>   4
Atom  95H    basis set group =>   4
Atom  96H    basis set group =>   4
Atom  97H    basis set group =>   4
Atom  98H    basis set group =>   4
Atom  99H    basis set group =>   4
Atom 100C    basis set group =>   2
Atom 101C    basis set group =>   2
Atom 102C    basis set group =>   2
Atom 103C    basis set group =>   2
Atom 104C    basis set group =>   2
Atom 105C    basis set group =>   2
Atom 106H    basis set group =>   4
Atom 107H    basis set group =>   4
Atom 108H    basis set group =>   4
Atom 109H    basis set group =>   4
Atom 110C    basis set group =>   2
Atom 111C    basis set group =>   2
Atom 112C    basis set group =>   2
Atom 113C    basis set group =>   2
Atom 114C    basis set group =>   2
Atom 115C    basis set group =>   2
Atom 116N    basis set group =>   3
Atom 117C    basis set group =>   2
Atom 118H    basis set group =>   4
Atom 119H    basis set group =>   4
Atom 120H    basis set group =>   4
Atom 121H    basis set group =>   4
Atom 122C    basis set group =>   2
Atom 123C    basis set group =>   2
Atom 124C    basis set group =>   2
Atom 125C    basis set group =>   2
Atom 126C    basis set group =>   2
Atom 127C    basis set group =>   2
Atom 128C    basis set group =>   2
Atom 129C    basis set group =>   2
Atom 130C    basis set group =>   2
Atom 131N    basis set group =>   3
Atom 132C    basis set group =>   2
Atom 133C    basis set group =>   2
Atom 134H    basis set group =>   4
Atom 135H    basis set group =>   4
Atom 136H    basis set group =>   4
Atom 137H    basis set group =>   4
Atom 138H    basis set group =>   4
Atom 139H    basis set group =>   4
Atom 140C    basis set group =>   2
Atom 141C    basis set group =>   2
Atom 142C    basis set group =>   2
Atom 143C    basis set group =>   2
Atom 144C    basis set group =>   2
Atom 145C    basis set group =>   2
Atom 146H    basis set group =>   4
Atom 147H    basis set group =>   4
Atom 148H    basis set group =>   4
Atom 149H    basis set group =>   4
Atom 150C    basis set group =>   2
Atom 151C    basis set group =>   2
Atom 152C    basis set group =>   2
Atom 153C    basis set group =>   2
Atom 154C    basis set group =>   2
Atom 155C    basis set group =>   2
Atom 156N    basis set group =>   3
Atom 157C    basis set group =>   2
Atom 158H    basis set group =>   4
Atom 159H    basis set group =>   4
Atom 160H    basis set group =>   4
Atom 161H    basis set group =>   4

-------------------------------------
AUXILIARY/J BASIS SET IN INPUT FORMAT
-------------------------------------

 # Auxiliary/J basis set for element : H 
 NewAuxJGTO H 
 S 3 
   1      15.6752927000      0.1007184237
   2       3.6063578000      0.3404257499
   3       1.2080016000      0.6491996172
 S 1 
   1       0.4726794000      1.0000000000
 S 1 
   1       0.2018100000      1.0000000000
 P 2 
   1       2.0281365000      0.5596620919
   2       0.5358730000      0.5596620919
  end;

 # Auxiliary/J basis set for element : C 
 NewAuxJGTO C 
 S 3 
   1     459.7023860000      0.1098751775
   2     132.9577920000      0.2844848472
   3      41.5658170000      0.6964707648
 S 1 
   1      13.9155610000      1.0000000000
 S 1 
   1       4.9305290000     -1.0000000000
 S 1 
   1       1.8229480000      1.0000000000
 S 1 
   1       0.6920510000      1.0000000000
 S 1 
   1       0.2650930000      1.0000000000
 P 1 
   1       0.3278473579      1.0000000000
 P 1 
   1       0.7868336591      1.0000000000
 P 1 
   1       1.9710183160      1.0000000000
 D 1 
   1       4.0133010000      1.0000000000
 D 1 
   1       1.2475050000      1.0000000000
 D 1 
   1       0.4081480000      1.0000000000
  end;

 # Auxiliary/J basis set for element : N 
 NewAuxJGTO N 
 S 3 
   1     680.5425300000      0.1043830093
   2     196.7562140000      0.2751518961
   3      61.2707930000      0.7090825511
 S 1 
   1      20.3644630000      1.0000000000
 S 1 
   1       7.1424770000     -1.0000000000
 S 1 
   1       2.6080260000      1.0000000000
 S 1 
   1       0.9763730000      1.0000000000
 S 1 
   1       0.3686330000      1.0000000000
 P 1 
   1       0.4707391941      1.0000000000
 P 1 
   1       1.1297740658     -1.0000000000
 P 1 
   1       2.8300840347      1.0000000000
 D 1 
   1       5.8329865000      1.0000000000
 D 1 
   1       1.7326865000      1.0000000000
 D 1 
   1       0.5452425000      1.0000000000
  end;

 # Auxiliary/J basis set for element : Pd
 NewAuxJGTO Pd
 S 4 
   1      51.0211803000      0.0154414011
   2      17.6543867000     -0.3899991562
   3      10.3849330000      1.7000917225
   4       6.2315704000     -2.2542519748
 S 1 
   1       3.6656295000     -1.0000000000
 S 1 
   1       2.1995933000      1.0000000000
 S 1 
   1       1.2683839000      1.0000000000
 S 1 
   1       0.7461081000      1.0000000000
 S 1 
   1       0.4477087000      1.0000000000
 S 1 
   1       0.2581689000      1.0000000000
 S 1 
   1       0.1518640000      1.0000000000
 P 1 
   1       5.6999676000      1.0000000000
 P 1 
   1       2.5155374000     -1.0000000000
 P 1 
   1       1.1229524000      1.0000000000
 P 1 
   1       0.5047808000     -1.0000000000
 P 1 
   1       0.2274325000     -1.0000000000
 D 1 
   1       3.8006002000      1.0000000000
 D 1 
   1       1.5882692000     -1.0000000000
 D 1 
   1       0.6550157000     -1.0000000000
 D 1 
   1       0.2680210000      1.0000000000
 D 1 
   1       0.1093843000     -1.0000000000
 F 2 
   1       2.0106185000     -1.3134732431
   2       0.8268460000      0.9210621264
 F 1 
   1       0.3451253000      1.0000000000
 G 1 
   1       7.5375072000      1.0000000000
 G 1 
   1       2.7664349000      1.0000000000
 G 1 
   1       1.0133462000      1.0000000000
  end;

-------------------------
ECP PARAMETER INFORMATION
-------------------------

 Group 1, Type Pd ECP Def2-ECP (replacing 28 core electrons, lmax=3)

Atom   0Pd   ECP group =>   1
Atom   1Pd   ECP group =>   1


-------------------------
ECP BASIS IN INPUT FORMAT
-------------------------

 #ECP Def2-ECP
 NewECP Pd
   N_core 28
   lmax f
   s 4
     1      12.4300000000    240.2290403000  2
     2       6.1707594000     35.1719435000  2
     3      13.2700000000     31.9295543000  2
     4       6.6300000000      5.3982169000  2
   p 4
     1      11.0800000000    170.4172760000  2
     2       5.8295541000     28.4721329000  2
     3      13.2700000000     31.9295543000  2
     4       6.6300000000      5.3982169000  2
   d 4
     1       9.5100000000     69.0138449000  2
     2       4.1397811000     11.7508616000  2
     3      13.2700000000     31.9295543000  2
     4       6.6300000000      5.3982169000  2
   f 2
     1      13.2700000000    -31.9295543000  2
     2       6.6300000000     -5.3982169000  2
 End




           ************************************************************
           *        Program running with 32 parallel MPI-processes    *
           *              working on a common directory               *
           ************************************************************
------------------------------------------------------------------------------
                           ORCA GTO INTEGRAL CALCULATION
                           -- RI-GTO INTEGRALS CHOSEN --
------------------------------------------------------------------------------

                         BASIS SET STATISTICS AND STARTUP INFO

Gaussian basis set:
 # of primitive gaussian shells          ... 2192
 # of primitive gaussian functions       ... 3932
 # of contracted shells                  ... 1130
 # of contracted basis functions         ... 2210
 Highest angular momentum                ...    2
 Maximum contraction depth               ...    6
Auxiliary gaussian basis set:
 # of primitive gaussian shells          ... 1902
 # of primitive gaussian functions       ... 4142
 # of contracted shells                  ... 1518
 # of contracted aux-basis functions     ... 3634
 Highest angular momentum                ...    4
 Maximum contraction depth               ...    4
Ratio of auxiliary to basis functions    ...  1.64
Integral package used                  ... LIBINT
 One Electron integrals                  
   ECP integrals                         ... done
 Ordering auxiliary basis shells         ... done
 Integral threshhold             Thresh  ...  2.500e-11
 Primitive cut-off               TCut    ...  2.500e-12
 Pre-screening matrix                    ... done
 Shell pair data                         ... 
 Ordering of the shell pairs             ... done (   0.047 sec) 213836 of 639015 pairs
 Determination of significant pairs      ... done (   0.001 sec)
 Creation of shell pair data             ... done (   0.021 sec)
 Storage of shell pair data              ... done (   0.041 sec)
 Shell pair data done in (   0.109 sec)
 Computing two index integrals           ... done
 Cholesky decomposition of the V-matrix  ... done


Timings:
 Total evaluation time                   ...   9.249 sec (  0.154 min)
 One electron matrix time                ...   5.722 sec (  0.095 min) = 61.9%
 Schwartz matrix evaluation time         ...   2.499 sec (  0.042 min) = 27.0%
 Two index repulsion integral time       ...   0.245 sec (  0.004 min) =  2.6%
 Cholesky decomposition of V             ...   0.629 sec (  0.010 min) =  6.8%
 Three index repulsion integral time     ...   0.000 sec (  0.000 min) =  0.0%



           ************************************************************
           *        Program running with 32 parallel MPI-processes    *
           *              working on a common directory               *
           ************************************************************
-------------------------------------------------------------------------------
                                 ORCA SCF
-------------------------------------------------------------------------------

------------
SCF SETTINGS
------------
Hamiltonian:
 Density Functional     Method          .... DFT(GTOs)
 Exchange Functional    Exchange        .... B973C
 Correlation Functional Correlation     .... B973C
 Gradients option       PostSCFGGA      .... off
   Density functional embedding theory  .... OFF
 RI-approximation to the Coulomb term is turned on
   Number of auxiliary basis functions  .... 3634


General Settings:
 Integral files         IntName         .... _s_4b3_c_B97-3c
 Hartree-Fock type      HFTyp           .... RHF
 Total Charge           Charge          ....    4
 Multiplicity           Mult            ....    1
 Number of Electrons    NEL             ....  720
 Basis Dimension        Dim             .... 2210
 Nuclear Repulsion      ENuc            ....  19432.1063093990 Eh

Convergence Acceleration:
 DIIS                   CNVDIIS         .... on
   Start iteration      DIISMaxIt       ....     0
   Startup error        DIISStart       ....  0.200000
   # of expansion vecs  DIISMaxEq       ....     5
   Bias factor          DIISBfac        ....   1.050
   Max. coefficient     DIISMaxC        ....  10.000
 Newton-Raphson         CNVNR           .... off
 SOSCF                  CNVSOSCF        .... off
 Level Shifting         CNVShift        .... on
   Level shift para.    LevelShift      ....    0.2500
   Turn off err/grad.   ShiftErr        ....    0.0000
 Zerner damping         CNVZerner       .... off
 Static damping         CNVDamp         .... on
   Fraction old density DampFac         ....    0.8500
   Max. Damping (<1)    DampMax         ....    0.9800
   Min. Damping (>=0)   DampMin         ....    0.0000
   Turn off err/grad.   DampErr         ....    0.0300
 Fernandez-Rico         CNVRico         .... off

SCF Procedure:
 Maximum # iterations   MaxIter         ....  2000
 SCF integral mode      SCFMode         .... Direct
   Integral package                     .... LIBINT
 Reset frequency        DirectResetFreq ....    20
 Integral Threshold     Thresh          ....  2.500e-11 Eh
 Primitive CutOff       TCut            ....  2.500e-12 Eh

Convergence Tolerance:
 Convergence Check Mode ConvCheckMode   .... Total+1el-Energy
 Convergence forced     ConvForced      .... 0
 Energy Change          TolE            ....  1.000e-08 Eh
 1-El. energy change                    ....  1.000e-05 Eh
 DIIS Error             TolErr          ....  5.000e-07


Diagonalization of the overlap matrix:
Smallest eigenvalue                        ... 5.613e-06
Time for diagonalization                   ...    0.659 sec
Threshold for overlap eigenvalues          ... 1.000e-08
Number of eigenvalues below threshold      ... 0
Time for construction of square roots      ...    0.621 sec
Total time needed                          ...    1.290 sec

--------------------------------
INITIAL GUESS: MINIMAL BASIS EHT
--------------------------------
The minimal basis has 602 functions
EHT matrix was diagonalized
Basis set overlap was calculated now projecting the orbitals
Using GuessMode=FMatrix for the initial guess
C*T matrix was formed
Effective Fockian was calculated
Effective Fockian was diagonalized
Initial density was built
                      ------------------
                      INITIAL GUESS DONE
                      ------------------
-------------------
DFT GRID GENERATION
-------------------

General Integration Accuracy     IntAcc      ...  5.340
Radial Grid Type                 RadialGrid  ... Gauss-Chebyshev
Angular Grid (max. acc.)         AngularGrid ... Lebedev-590
Angular grid pruning method      GridPruning ... 3 (G Style)
Weight generation scheme         WeightScheme... Becke
Basis function cutoff            BFCut       ...    1.0000e-11
Integration weight cutoff        WCut        ...    1.0000e-14
Grids for H and He will be reduced by one unit

# of grid points (after initial pruning)     ... 2382484 (   0.0 sec)
# of grid points (after weights+screening)   ... 1958208 (   9.9 sec)
nearest neighbour list constructed           ...    0.0 sec
Grid point re-assignment to atoms done       ...    0.3 sec
Grid point division into batches done        ...   20.3 sec
Reduced shell lists constructed in   21.8 sec

Total number of grid points                  ...  1958208
Total number of batches                      ...    30686
Average number of points per batch           ...       63
Average number of grid points per atom       ...    12088
Average number of shells per batch           ...   219.11 (19.39%)
Average number of basis functions per batch  ...   433.11 (19.60%)
Average number of large shells per batch     ...   116.58 (53.21%)
Average number of large basis fcns per batch ...   235.38 (54.35%)
Maximum spatial batch extension              ...   6.73,  3.93,  9.63 au
Average spatial batch extension              ...   0.03,  0.03,  0.03 au

Time for grid setup =   32.548 sec

--------------
SCF ITERATIONS
--------------
ITER       Energy         Delta-E        Max-DP      RMS-DP      [F,P]     Damp
               ***  Starting incremental Fock matrix formation  ***
  0  -4334.5219478285   0.00000000000020.20937999  0.08193399  5.1880765 0.8500
  1  -4344.1907969702  -9.668849141664 2.37786996  0.01193239  4.5000348 0.8500
                               ***Turning on DIIS***
  2  -4352.0598777216  -7.869080751399 2.42890179  0.01050904  3.8602355 0.8500
  3  -4356.3157127446  -4.255835023010 2.38808826  0.00922818  3.3024653 0.8500
  4  -4357.9142652262  -1.59855248158414.72940662  0.06964315  2.8099411 0.8500
  5  -4353.6170546081   4.297210618093 2.24681519  0.01256642  2.3593982 0.8500
  6  -4356.6456054451  -3.028550837065 1.97230097  0.01082116  2.0056044 0.8500
  7  -4360.8658457626  -4.220240317514 1.70150003  0.00914255  1.7042248 0.8500
  8  -4365.4536604885  -4.587814725874 1.42611731  0.00791910  1.4557865 0.8500
  9  -4367.6146789096  -2.161018421055 1.10904065  0.00669616  1.2395121 0.8500
 10  -4368.3825932388  -0.767914329212 0.99790314  0.00561017  1.0468785 0.8500
 11  -4370.0894874821  -1.706894243303 0.88367751  0.00487182  0.8910808 0.8500
 12  -4371.9122984489  -1.822810966773 0.77857231  0.00421572  0.7624521 0.8500
 13  -4373.4895627676  -1.577264318723 0.66426855  0.00363298  0.6510869 0.8500
 14  -4374.7117496808  -1.222186913197 0.55516108  0.00312144  0.5541776 0.8500
 15  -4375.2195834711  -0.507833790307 0.46317182  0.00261453  0.4652104 0.8500
 16  -4376.2371138853  -1.017530414178 0.39036339  0.00221531  0.3946099 0.8500
 17  -4377.1113142658  -0.874200380524 0.33740885  0.00188917  0.3351297 0.8500
 18  -4377.8504253651  -0.739111099327 0.29076072  0.00162521  0.2860936 0.8500
 19  -4378.4615096944  -0.611084329277 0.24738884  0.00140974  0.2426836 0.8500
               *** Restarting incremental Fock matrix formation ***
                                   *** Resetting DIIS ***
 20  -4378.9630118421  -0.501502147697 0.21130446  0.00117359  0.2062104 0.8500
 21  -4379.3951718761  -0.432160034023 0.17748937  0.00100993  0.1756284 0.8500
 22  -4379.7574989447  -0.362327068575 0.14895102  0.00087138  0.1491293 0.8500
 23  -4380.0625991186  -0.305100173879 0.12603187  0.00074466  0.1264623 0.8500
 24  -4380.3214292336  -0.258830115090 0.10738474  0.00063233  0.1073803 0.8500
 25  -4380.5417751730  -0.220345939400 0.09210321  0.00053455  0.0912576 0.8500
 26  -4380.7295385093  -0.187763336300 0.07859024  0.00045485  0.0776727 0.8500
 27  -4380.8888554678  -0.159316958438 0.06672113  0.00038802  0.0660386 0.8500
 28  -4381.0239745017  -0.135119033901 0.05661759  0.00033028  0.0560806 0.8500
 29  -4381.1387179596  -0.114743457925 0.04813234  0.00028042  0.0476314 0.8500
[...]
 41 H      0.8161     1.0000     0.1839     0.9493     0.9493    -0.0000
 42 C      5.9622     6.0000     0.0378     3.3090     3.3090    -0.0000
 43 C      5.9061     6.0000     0.0939     2.9415     2.9415    -0.0000
 44 C      6.2361     6.0000    -0.2361     3.7905     3.7905    -0.0000
 45 C      6.0754     6.0000    -0.0754     3.8349     3.8349    -0.0000
 46 C      6.1865     6.0000    -0.1865     4.1733     4.1733    -0.0000
 47 C      6.2094     6.0000    -0.2094     3.9272     3.9272    -0.0000
 48 C      6.0510     6.0000    -0.0510     3.7468     3.7468    -0.0000
 49 C      6.1162     6.0000    -0.1162     3.7808     3.7808    -0.0000
 50 C      6.1764     6.0000    -0.1764     4.0216     4.0216    -0.0000
 51 N      7.0673     7.0000    -0.0673     3.2970     3.2970    -0.0000
 52 C      6.1497     6.0000    -0.1497     3.7262     3.7262    -0.0000
 53 C      5.5718     6.0000     0.4282     3.1066     3.1066    -0.0000
 54 H      0.7489     1.0000     0.2511     0.8982     0.8982    -0.0000
 55 H      0.7729     1.0000     0.2271     0.9254     0.9254    -0.0000
 56 H      0.7552     1.0000     0.2448     0.8989     0.8989    -0.0000
 57 H      0.7484     1.0000     0.2516     0.8930     0.8930    -0.0000
 58 H      0.8228     1.0000     0.1772     0.9546     0.9546    -0.0000
 59 H      0.8301     1.0000     0.1699     0.9678     0.9678    -0.0000
 60 C      6.2302     6.0000    -0.2302     3.9032     3.9032    -0.0000
 61 C      6.1572     6.0000    -0.1572     3.8217     3.8217    -0.0000
 62 C      6.1456     6.0000    -0.1456     3.8185     3.8185    -0.0000
 63 C      6.1715     6.0000    -0.1715     3.8698     3.8698    -0.0000
 64 C      6.1198     6.0000    -0.1198     3.8256     3.8256    -0.0000
 65 C      6.1241     6.0000    -0.1241     3.8420     3.8420    -0.0000
 66 H      0.7933     1.0000     0.2067     0.9155     0.9155    -0.0000
 67 H      0.7881     1.0000     0.2119     0.9113     0.9113    -0.0000
 68 H      0.7698     1.0000     0.2302     0.9088     0.9088    -0.0000
 69 H      0.7664     1.0000     0.2336     0.9082     0.9082    -0.0000
 70 C      5.9399     6.0000     0.0601     3.1682     3.1682    -0.0000
 71 C      5.9782     6.0000     0.0218     3.1398     3.1398    -0.0000
 72 C      5.9845     6.0000     0.0155     3.8901     3.8901    -0.0000
 73 C      6.1719     6.0000    -0.1719     3.8966     3.8966    -0.0000
 74 C      6.0346     6.0000    -0.0346     3.8618     3.8618    -0.0000
 75 C      6.1103     6.0000    -0.1103     3.9329     3.9329    -0.0000
 76 N      7.0496     7.0000    -0.0496     3.3168     3.3168    -0.0000
 77 C      6.1597     6.0000    -0.1597     3.7986     3.7986    -0.0000
 78 H      0.7486     1.0000     0.2514     0.9008     0.9008    -0.0000
 79 H      0.7519     1.0000     0.2481     0.9101     0.9101    -0.0000
 80 H      0.8050     1.0000     0.1950     0.9503     0.9503    -0.0000
 81 H      0.8034     1.0000     0.1966     0.9398     0.9398    -0.0000
 82 C      5.9620     6.0000     0.0380     3.3107     3.3107    -0.0000
 83 C      5.9569     6.0000     0.0431     3.0285     3.0285    -0.0000
 84 C      6.1510     6.0000    -0.1510     3.6213     3.6213    -0.0000
 85 C      6.1026     6.0000    -0.1026     3.8275     3.8275    -0.0000
 86 C      6.1784     6.0000    -0.1784     4.1675     4.1675    -0.0000
 87 C      6.2106     6.0000    -0.2106     3.9276     3.9276    -0.0000
 88 C      6.0481     6.0000    -0.0481     3.7440     3.7440    -0.0000
 89 C      6.1207     6.0000    -0.1207     3.7929     3.7929    -0.0000
 90 C      6.1760     6.0000    -0.1760     4.0250     4.0250    -0.0000
 91 N      7.0586     7.0000    -0.0586     3.2976     3.2976    -0.0000
 92 C      6.1127     6.0000    -0.1127     3.6968     3.6968    -0.0000
 93 C      5.6406     6.0000     0.3594     3.1794     3.1794    -0.0000
 94 H      0.7518     1.0000     0.2482     0.8997     0.8997    -0.0000
 95 H      0.7725     1.0000     0.2275     0.9247     0.9247    -0.0000
 96 H      0.7548     1.0000     0.2452     0.8987     0.8987    -0.0000
 97 H      0.7485     1.0000     0.2515     0.8932     0.8932    -0.0000
 98 H      0.8195     1.0000     0.1805     0.9516     0.9516    -0.0000
 99 H      0.8450     1.0000     0.1550     0.9763     0.9763    -0.0000
100 C      6.1628     6.0000    -0.1628     3.8060     3.8060    -0.0000
101 C      6.1289     6.0000    -0.1289     3.7685     3.7685    -0.0000
102 C      6.1527     6.0000    -0.1527     3.8106     3.8106    -0.0000
103 C      6.1449     6.0000    -0.1449     3.8368     3.8368    -0.0000
104 C      6.1322     6.0000    -0.1322     3.8176     3.8176    -0.0000
105 C      6.1252     6.0000    -0.1252     3.8044     3.8044    -0.0000
106 H      0.8358     1.0000     0.1642     0.9221     0.9221    -0.0000
107 H      0.8142     1.0000     0.1858     0.9233     0.9233    -0.0000
108 H      0.7664     1.0000     0.2336     0.9084     0.9084    -0.0000
109 H      0.7656     1.0000     0.2344     0.9086     0.9086    -0.0000
110 C      5.9603     6.0000     0.0397     3.1978     3.1978    -0.0000
111 C      5.9883     6.0000     0.0117     3.1483     3.1483    -0.0000
112 C      5.9419     6.0000     0.0581     3.8334     3.8334    -0.0000
113 C      6.1885     6.0000    -0.1885     3.9008     3.9008    -0.0000
114 C      6.0265     6.0000    -0.0265     3.8466     3.8466    -0.0000
115 C      6.1159     6.0000    -0.1159     3.9351     3.9351    -0.0000
116 N      7.0443     7.0000    -0.0443     3.3016     3.3016    -0.0000
117 C      6.1546     6.0000    -0.1546     3.7719     3.7719    -0.0000
118 H      0.7499     1.0000     0.2501     0.9015     0.9015    -0.0000
119 H      0.7527     1.0000     0.2473     0.9102     0.9102    -0.0000
120 H      0.8031     1.0000     0.1969     0.9496     0.9496    -0.0000
121 H      0.8168     1.0000     0.1832     0.9502     0.9502    -0.0000
122 C      5.9611     6.0000     0.0389     3.3070     3.3070    -0.0000
123 C      5.9065     6.0000     0.0935     2.9416     2.9416    -0.0000
124 C      6.2375     6.0000    -0.2375     3.7929     3.7929    -0.0000
125 C      6.0745     6.0000    -0.0745     3.8344     3.8344    -0.0000
126 C      6.1867     6.0000    -0.1867     4.1732     4.1732    -0.0000
127 C      6.2095     6.0000    -0.2095     3.9273     3.9273    -0.0000
128 C      6.0508     6.0000    -0.0508     3.7465     3.7465    -0.0000
129 C      6.1163     6.0000    -0.1163     3.7817     3.7817    -0.0000
130 C      6.1773     6.0000    -0.1773     4.0227     4.0227    -0.0000
131 N      7.0686     7.0000    -0.0686     3.2967     3.2967    -0.0000
132 C      6.1477     6.0000    -0.1477     3.7240     3.7240    -0.0000
133 C      5.5723     6.0000     0.4277     3.1094     3.1094    -0.0000
134 H      0.7488     1.0000     0.2512     0.8981     0.8981    -0.0000
135 H      0.7729     1.0000     0.2271     0.9254     0.9254    -0.0000
136 H      0.7552     1.0000     0.2448     0.8988     0.8988    -0.0000
137 H      0.7484     1.0000     0.2516     0.8930     0.8930    -0.0000
138 H      0.8221     1.0000     0.1779     0.9538     0.9538    -0.0000
139 H      0.8303     1.0000     0.1697     0.9678     0.9678    -0.0000
140 C      6.2309     6.0000    -0.2309     3.9059     3.9059    -0.0000
141 C      6.1232     6.0000    -0.1232     3.8404     3.8404    -0.0000
142 C      6.1196     6.0000    -0.1196     3.8242     3.8242    -0.0000
143 C      6.1696     6.0000    -0.1696     3.8625     3.8625    -0.0000
144 C      6.1468     6.0000    -0.1468     3.8189     3.8189    -0.0000
145 C      6.1574     6.0000    -0.1574     3.8230     3.8230    -0.0000
146 H      0.7663     1.0000     0.2337     0.9081     0.9081    -0.0000
147 H      0.7698     1.0000     0.2302     0.9089     0.9089    -0.0000
148 H      0.7887     1.0000     0.2113     0.9112     0.9112    -0.0000
149 H      0.7930     1.0000     0.2070     0.9154     0.9154    -0.0000
150 C      5.9431     6.0000     0.0569     3.1669     3.1669    -0.0000
151 C      5.9764     6.0000     0.0236     3.1368     3.1368    -0.0000
152 C      5.9811     6.0000     0.0189     3.8826     3.8826    -0.0000
153 C      6.1733     6.0000    -0.1733     3.8962     3.8962    -0.0000
154 C      6.0348     6.0000    -0.0348     3.8618     3.8618    -0.0000
155 C      6.1092     6.0000    -0.1092     3.9316     3.9316    -0.0000
156 N      7.0502     7.0000    -0.0502     3.3146     3.3146    -0.0000
157 C      6.1633     6.0000    -0.1633     3.7964     3.7964    -0.0000
158 H      0.7489     1.0000     0.2511     0.9009     0.9009    -0.0000
159 H      0.7520     1.0000     0.2480     0.9101     0.9101    -0.0000
160 H      0.8051     1.0000     0.1949     0.9504     0.9504    -0.0000
161 H      0.8020     1.0000     0.1980     0.9394     0.9394    -0.0000

  Mayer bond orders larger than 0.100000
B(  0-Pd, 36-N ) :   0.5199 B(  0-Pd, 76-N ) :   0.5336 B(  0-Pd, 91-N ) :   0.5447 
B(  0-Pd,131-N ) :   0.5458 B(  1-Pd, 11-N ) :   0.5448 B(  1-Pd, 51-N ) :   0.5453 
B(  1-Pd,116-N ) :   0.5205 B(  1-Pd,156-N ) :   0.5327 B(  2-C ,  3-C ) :   1.8689 
B(  2-C ,  4-C ) :  -0.2927 B(  2-C , 13-C ) :   0.1028 B(  2-C , 20-C ) :   1.5638 
B(  3-C ,  4-C ) :   1.4477 B(  3-C ,  8-C ) :   0.1047 B(  3-C , 13-C ) :  -0.2262 
B(  3-C , 20-C ) :  -0.4090 B(  4-C ,  5-C ) :   1.5231 B(  4-C , 12-C ) :  -0.1260 
B(  4-C , 13-C ) :   1.0197 B(  5-C ,  6-C ) :   1.4183 B(  5-C , 14-H ) :   0.8586 
B(  6-C ,  7-C ) :   1.6268 B(  6-C , 15-H ) :   0.8727 B(  7-C ,  8-C ) :   1.3628 
B(  7-C , 13-C ) :  -0.1241 B(  7-C , 16-H ) :   0.8594 B(  8-C ,  9-C ) :   1.2841 
B(  8-C , 12-C ) :  -0.1254 B(  8-C , 13-C ) :   1.0539 B(  9-C , 10-C ) :   1.5925 
B(  9-C , 17-H ) :   0.8736 B( 10-C , 11-N ) :   1.2455 B( 10-C , 18-H ) :   0.9111 
B( 11-N , 12-C ) :   1.4287 B( 11-N ,116-N ) :   0.1008 B( 12-C , 13-C ) :   1.4050 
B( 12-C , 19-H ) :   0.9009 B( 20-C , 21-C ) :   1.2523 B( 20-C , 25-C ) :   1.2907 
B( 21-C , 22-C ) :   1.5080 B( 21-C , 26-H ) :   0.9387 B( 22-C , 23-C ) :   1.2938 
B( 22-C , 27-H ) :   0.9168 B( 23-C , 24-C ) :   1.3035 B( 23-C , 30-C ) :   1.5420 
B( 23-C , 31-C ) :  -0.4182 B( 24-C , 25-C ) :   1.5355 B( 24-C , 28-H ) :   0.8942 
B( 25-C , 29-H ) :   0.8991 B( 30-C , 31-C ) :   1.8424 B( 30-C , 32-C ) :  -0.3061 
B( 31-C , 32-C ) :   1.4390 B( 32-C , 33-C ) :   1.3534 B( 32-C , 37-C ) :   1.3071 
B( 33-C , 34-C ) :   1.4752 B( 33-C , 38-H ) :   0.9127 B( 34-C , 35-C ) :   1.4176 
B( 34-C , 39-H ) :   0.8706 B( 35-C , 36-N ) :   1.3586 B( 35-C , 40-H ) :   0.9235 
B( 36-N , 37-C ) :   1.3834 B( 36-N , 91-N ) :   0.1010 B( 37-C , 41-H ) :   0.9463 
B( 42-C , 43-C ) :   1.8603 B( 42-C , 44-C ) :  -0.2710 B( 42-C , 60-C ) :   1.5943 
B( 43-C , 44-C ) :   1.4713 B( 43-C , 53-C ) :  -0.2559 B( 43-C , 60-C ) :  -0.4454 
B( 44-C , 45-C ) :   1.5704 B( 44-C , 53-C ) :   1.0296 B( 45-C , 46-C ) :   1.4144 
B( 45-C , 54-H ) :   0.8510 B( 46-C , 47-C ) :   1.6278 B( 46-C , 55-H ) :   0.8731 
B( 47-C , 48-C ) :   1.3693 B( 47-C , 53-C ) :  -0.1231 B( 47-C , 56-H ) :   0.8596 
B( 48-C , 49-C ) :   1.2777 B( 48-C , 52-C ) :  -0.1170 B( 48-C , 53-C ) :   1.0423 
B( 49-C , 50-C ) :   1.5901 B( 49-C , 57-H ) :   0.8733 B( 50-C , 51-N ) :   1.2389 
B( 50-C , 58-H ) :   0.9129 B( 51-N , 52-C ) :   1.4391 B( 52-C , 53-C ) :   1.3767 
B( 52-C , 59-H ) :   0.8997 B( 60-C , 61-C ) :   1.3116 B( 60-C , 65-C ) :   1.3289 
B( 61-C , 62-C ) :   1.5374 B( 61-C , 66-H ) :   0.9036 B( 62-C , 63-C ) :   1.2902 
B( 62-C , 67-H ) :   0.9067 B( 63-C , 64-C ) :   1.3114 B( 63-C , 70-C ) :   1.5413 
B( 63-C , 71-C ) :  -0.4128 B( 64-C , 65-C ) :   1.5455 B( 64-C , 68-H ) :   0.8921 
B( 65-C , 69-H ) :   0.8906 B( 70-C , 71-C ) :   1.8340 B( 70-C , 72-C ) :  -0.3102 
B( 71-C , 72-C ) :   1.4443 B( 72-C , 73-C ) :   1.3592 B( 72-C , 77-C ) :   1.3368 
B( 73-C , 74-C ) :   1.4754 B( 73-C , 78-H ) :   0.9115 B( 74-C , 75-C ) :   1.4253 
B( 74-C , 79-H ) :   0.8690 B( 75-C , 76-N ) :   1.3585 B( 75-C , 80-H ) :   0.9238 
B( 76-N , 77-C ) :   1.3836 B( 77-C , 81-H ) :   0.9398 B( 82-C , 83-C ) :   1.8697 
B( 82-C , 84-C ) :  -0.2926 B( 82-C , 93-C ) :   0.1027 B( 82-C ,100-C ) :   1.5635 
B( 83-C , 84-C ) :   1.4479 B( 83-C , 88-C ) :   0.1045 B( 83-C , 93-C ) :  -0.2262 
B( 83-C ,100-C ) :  -0.4093 B( 84-C , 85-C ) :   1.5233 B( 84-C , 92-C ) :  -0.1253 
B( 84-C , 93-C ) :   1.0200 B( 85-C , 86-C ) :   1.4181 B( 85-C , 94-H ) :   0.8586 
B( 86-C , 87-C ) :   1.6269 B( 86-C , 95-H ) :   0.8727 B( 87-C , 88-C ) :   1.3626 
B( 87-C , 93-C ) :  -0.1242 B( 87-C , 96-H ) :   0.8594 B( 88-C , 89-C ) :   1.2841 
B( 88-C , 92-C ) :  -0.1255 B( 88-C , 93-C ) :   1.0542 B( 89-C , 90-C ) :   1.5919 
B( 89-C , 97-H ) :   0.8735 B( 90-C , 91-N ) :   1.2461 B( 90-C , 98-H ) :   0.9114 
B( 91-N , 92-C ) :   1.4286 B( 92-C , 93-C ) :   1.4046 B( 92-C , 99-H ) :   0.9008 
B(100-C ,101-C ) :   1.2527 B(100-C ,105-C ) :   1.2912 B(101-C ,102-C ) :   1.5078 
B(101-C ,106-H ) :   0.9388 B(102-C ,103-C ) :   1.2929 B(102-C ,107-H ) :   0.9171 
B(103-C ,104-C ) :   1.3022 B(103-C ,110-C ) :   1.5420 B(103-C ,111-C ) :  -0.4195 
B(104-C ,105-C ) :   1.5349 B(104-C ,108-H ) :   0.8947 B(105-C ,109-H ) :   0.8990 
B(110-C ,111-C ) :   1.8420 B(110-C ,112-C ) :  -0.3069 B(111-C ,112-C ) :   1.4389 
B(112-C ,113-C ) :   1.3516 B(112-C ,117-C ) :   1.3060 B(113-C ,114-C ) :   1.4746 
B(113-C ,118-H ) :   0.9131 B(114-C ,115-C ) :   1.4169 B(114-C ,119-H ) :   0.8708 
B(115-C ,116-N ) :   1.3592 B(115-C ,120-H ) :   0.9233 B(116-N ,117-C ) :   1.3839 
B(117-C ,121-H ) :   0.9465 B(122-C ,123-C ) :   1.8596 B(122-C ,124-C ) :  -0.2715 
B(122-C ,140-C ) :   1.5937 B(123-C ,124-C ) :   1.4724 B(123-C ,133-C ) :  -0.2560 
B(123-C ,140-C ) :  -0.4447 B(124-C ,125-C ) :   1.5710 B(124-C ,133-C ) :   1.0307 
B(125-C ,126-C ) :   1.4142 B(125-C ,134-H ) :   0.8506 B(126-C ,127-C ) :   1.6278 
B(126-C ,135-H ) :   0.8731 B(127-C ,128-C ) :   1.3695 B(127-C ,133-C ) :  -0.1231 
B(127-C ,136-H ) :   0.8596 B(128-C ,129-C ) :   1.2779 B(128-C ,132-C ) :  -0.1171 
B(128-C ,133-C ) :   1.0425 B(129-C ,130-C ) :   1.5905 B(129-C ,137-H ) :   0.8732 
B(130-C ,131-N ) :   1.2389 B(130-C ,138-H ) :   0.9128 B(131-N ,132-C ) :   1.4385 
B(132-C ,133-C ) :   1.3772 B(132-C ,139-H ) :   0.8995 B(140-C ,141-C ) :   1.3289 
B(140-C ,145-C ) :   1.3132 B(141-C ,142-C ) :   1.5448 B(141-C ,146-H ) :   0.8903 
B(142-C ,143-C ) :   1.3091 B(142-C ,147-H ) :   0.8925 B(143-C ,144-C ) :   1.2888 
B(143-C ,150-C ) :   1.5428 B(143-C ,151-C ) :  -0.4166 B(144-C ,145-C ) :   1.5378 
B(144-C ,148-H ) :   0.9077 B(145-C ,149-H ) :   0.9032 B(150-C ,151-C ) :   1.8325 
B(150-C ,152-C ) :  -0.3111 B(151-C ,152-C ) :   1.4438 B(152-C ,153-C ) :   1.3579 
B(152-C ,157-C ) :   1.3333 B(153-C ,154-C ) :   1.4752 B(153-C ,158-H ) :   0.9121 
B(154-C ,155-C ) :   1.4251 B(154-C ,159-H ) :   0.8692 B(155-C ,156-N ) :   1.3583 
B(155-C ,160-H ) :   0.9239 B(156-N ,157-C ) :   1.3834 B(157-C ,161-H ) :   0.9402 


-------
TIMINGS
-------

Total SCF time: 0 days 0 hours 9 min 50 sec 

Total time                  ....     590.553 sec
Sum of individual times     ....     560.397 sec  ( 94.9%)

Fock matrix formation       ....     230.411 sec  ( 39.0%)
  Split-RI-J                ....      97.913 sec  ( 42.5% of F)
  XC integration            ....     111.594 sec  ( 48.4% of F)
    Basis function eval.    ....      19.237 sec  ( 17.2% of XC)
    Density eval.           ....      42.664 sec  ( 38.2% of XC)
    XC-Functional eval.     ....       6.483 sec  (  5.8% of XC)
    XC-Potential eval.      ....      15.587 sec  ( 14.0% of XC)
Diagonalization             ....      52.603 sec  (  8.9%)
Density matrix formation    ....       2.441 sec  (  0.4%)
Population analysis         ....       8.853 sec  (  1.5%)
Initial guess               ....       8.866 sec  (  1.5%)
Orbital Transformation      ....       0.000 sec  (  0.0%)
Orbital Orthonormalization  ....       0.000 sec  (  0.0%)
DIIS solution               ....     224.675 sec  ( 38.0%)
Grid generation             ....      32.548 sec  (  5.5%)


-------------------------------------------------------------------------------
                          DFT DISPERSION CORRECTION                            
                                                                               
                              DFTD3 V3.1  Rev 1                                
                          USING Becke-Johnson damping                          
-------------------------------------------------------------------------------
The B97-3c composite method is recognized
Using three-body term ABC
Active option DFTDOPT                   ...         4   

molecular C6(AA) [au] = 420053.235583 


            DFT-D V3
 parameters
 s6 scaling factor         :     1.0000 
 a1 scaling factor         :     0.3700 
 s8 scaling factor         :     1.5000 
 a2 scaling factor         :     4.1000 
 Damping factor alpha9(ATM):    16.0000 
 ad hoc parameters k1-k3   :    16.0000     1.3333    -4.0000 

 Edisp/kcal,au: -378.234985409680  -0.602755752218 
 E6   /kcal   : -186.532393704 
 E8   /kcal   : -192.643692424 
 E6(ABC)      :   0.941100718 
 % E8         :  50.932277514 
 % E6(ABC)    :  -0.248813768 

-------------------------   ----------------
Dispersion correction           -0.602755752
-------------------------   ----------------

------------------   -----------------
SRB correction            -0.654019356
------------------   -----------------

-------------------------   --------------------
FINAL SINGLE POINT ENERGY     -4383.045217104246
-------------------------   --------------------


                            ***************************************
                            *     ORCA property calculations      *
                            ***************************************

                                    ---------------------
                                    Active property flags
                                    ---------------------
   (+) Dipole Moment


------------------------------------------------------------------------------
                       ORCA ELECTRIC PROPERTIES CALCULATION
------------------------------------------------------------------------------

Dipole Moment Calculation                       ... on
Quadrupole Moment Calculation                   ... off
Polarizability Calculation                      ... off
GBWName                                         ... _s_4b3_c_B97-3c.gbw
Electron density file                           ... _s_4b3_c_B97-3c.scfp
The origin for moment calculation is the CENTER OF MASS  = ( 0.305869,  2.308681 -1.320037)

-------------
DIPOLE MOMENT
-------------
                                X             Y             Z
Electronic contribution:     -1.11768      -0.08017       1.23519
Nuclear contribution   :      1.12351       0.09828      -1.25394
                        -----------------------------------------
Total Dipole Moment    :      0.00583       0.01811      -0.01875
                        -----------------------------------------
Magnitude (a.u.)       :      0.02672
Magnitude (Debye)      :      0.06791



--------------------
Rotational spectrum 
--------------------
 
Rotational constants in cm-1:     0.000705     0.000247     0.000244 
Rotational constants in MHz :    21.121070     7.397968     7.315323 

 Dipole components along the rotational axes: 
x,y,z [a.u.] :     0.020494     0.004665     0.016493 
x,y,z [Debye]:     0.052093     0.011857     0.041922 

 

Timings for individual modules:

Sum of individual times         ...      619.958 sec (=  10.333 min)
GTO integral calculation        ...       21.545 sec (=   0.359 min)   3.5 %
SCF iterations                  ...      598.413 sec (=   9.974 min)  96.5 %
                             ****ORCA TERMINATED NORMALLY****
TOTAL RUN TIME: 0 days 0 hours 10 minutes 26 seconds 185 msec
