Job execution start: Tue Jun 22 16:48:34 BST 2021
Shared library path: /work/e05/e05/atarzia/orca_4_2_1_linux_x86-64_openmpi314:/work/e05/e05/atarzia/openmpi-3.1.4/lib:/opt/cray/pe/papi/6.0.0.4/lib64:/opt/cray/libfabric/1.11.0.0.233/lib64
Slurm Job ID is: 344713
Slurm Job name is: s_4c1_d_B97-3c
nid001734

                                 *****************
                                 * O   R   C   A *
                                 *****************

           --- An Ab Initio, DFT and Semiempirical electronic structure package ---

                  #######################################################
                  #                        -***-                        #
                  #          Department of theory and spectroscopy      #
                  #               Directorship: Frank Neese             #
                  #        Max Planck Institute fuer Kohlenforschung    #
                  #                Kaiser Wilhelm Platz 1               #
                  #                 D-45470 Muelheim/Ruhr               #
                  #                      Germany                        #
                  #                                                     #
                  #                  All rights reserved                #
                  #                        -***-                        #
                  #######################################################


                         Program Version 4.2.1 -  RELEASE  -


 With contributions from (in alphabetic order):
   Daniel Aravena         : Magnetic Suceptibility
   Michael Atanasov       : Ab Initio Ligand Field Theory (pilot matlab implementation)
   Alexander A. Auer      : GIAO ZORA, VPT2
   Ute Becker             : Parallelization
   Giovanni Bistoni       : ED, misc. LED, open-shell LED, HFLD
   Martin Brehm           : Molecular dynamics
   Dmytro Bykov           : SCF Hessian
   Vijay G. Chilkuri      : MRCI spin determinant printing, contributions to CSF-ICE
   Dipayan Datta          : RHF DLPNO-CCSD density
   Achintya Kumar Dutta   : EOM-CC, STEOM-CC
   Dmitry Ganyushin       : Spin-Orbit,Spin-Spin,Magnetic field MRCI
   Miquel Garcia          : C-PCM Hessian, Gaussian charge scheme
   Yang Guo               : DLPNO-NEVPT2, CIM, IAO-localization
   Andreas Hansen         : Spin unrestricted coupled pair/coupled cluster methods
   Benjamin Helmich-Paris : CASSCF linear response (MC-RPA)
   Lee Huntington         : MR-EOM, pCC
   Robert Izsak           : Overlap fitted RIJCOSX, COSX-SCS-MP3, EOM
   Christian Kollmar      : KDIIS, OOCD, Brueckner-CCSD(T), CCSD density
   Simone Kossmann        : Meta GGA functionals, TD-DFT gradient, OOMP2, MP2 Hessian
   Martin Krupicka        : AUTO-CI
   Lucas Lang             : DCDCAS
   Dagmar Lenk            : GEPOL surface, SMD
   Dimitrios Liakos       : Extrapolation schemes; Compound Job, initial MDCI parallelization
   Dimitrios Manganas     : Further ROCIS development; embedding schemes
   Dimitrios Pantazis     : SARC Basis sets
   Taras Petrenko         : DFT Hessian,TD-DFT gradient, ASA, ECA, R-Raman, ABS, FL, XAS/XES, NRVS
   Peter Pinski           : DLPNO-MP2, DLPNO-MP2 Gradient
   Christoph Reimann      : Effective Core Potentials
   Marius Retegan         : Local ZFS, SOC
   Christoph Riplinger    : Optimizer, TS searches, QM/MM, DLPNO-CCSD(T), (RO)-DLPNO pert. Triples
   Tobias Risthaus        : Range-separated hybrids, TD-DFT gradient, RPA, STAB
   Michael Roemelt        : Original ROCIS implementation
   Masaaki Saitow         : Open-shell DLPNO-CCSD energy and density
   Barbara Sandhoefer     : DKH picture change effects
   Avijit Sen             : IP-ROCIS
   Kantharuban Sivalingam : CASSCF convergence, NEVPT2, FIC-MRCI
   Bernardo de Souza      : ESD, SOC TD-DFT
   Georgi Stoychev        : AutoAux, RI-MP2 NMR
   Willem Van den Heuvel  : Paramagnetic NMR
   Boris Wezisla          : Elementary symmetry handling
   Frank Wennmohs         : Technical directorship


 We gratefully acknowledge several colleagues who have allowed us to
 interface, adapt or use parts of their codes:
   Stefan Grimme, W. Hujo, H. Kruse,             : VdW corrections, initial TS optimization,
                  C. Bannwarth                     DFT functionals, gCP, sTDA/sTD-DF
   Ed Valeev, F. Pavosevic, A. Kumar             : LibInt (2-el integral package), F12 methods
   Garnet Chan, S. Sharma, J. Yang, R. Olivares  : DMRG
   Ulf Ekstrom                                   : XCFun DFT Library
   Mihaly Kallay                                 : mrcc  (arbitrary order and MRCC methods)
   Andreas Klamt, Michael Diedenhofen            : otool_cosmo (COSMO solvation model)
   Jiri Pittner, Ondrej Demel                    : Mk-CCSD
   Frank Weinhold                                : gennbo (NPA and NBO analysis)
   Christopher J. Cramer and Donald G. Truhlar   : smd solvation model
   Lars Goerigk                                  : TD-DFT with DH, B97 family of functionals
   V. Asgeirsson, H. Jonsson                     : NEB implementation
   FAccTs GmbH                                   : IRC, NEB, NEB-TS, Multilevel, MM, QM/MM, CI optimization
   S Lehtola, MJT Oliveira, MAL Marques          : LibXC Library


 Your calculation uses the libint2 library for the computation of 2-el integrals
 For citations please refer to: http://libint.valeyev.net

 Your ORCA version has been built with support for libXC version: 4.2.3
 For citations please refer to: https://tddft.org/programs/libxc/

 This ORCA versions uses:
   CBLAS   interface :  Fast vector & matrix operations
   LAPACKE interface :  Fast linear algebra routines
   SCALAPACK package :  Parallel linear algebra routines




***************************************
The coordinates will be read from file: s_4c1_d.xyz
***************************************


Your calculation utilizes the atom-pairwise dispersion correction
with the Becke-Johnson damping scheme (D3BJ)
Cite in your paper:
S.Grimme, S.Ehrlich, L.Goerigk, J Comput Chem, (2011), 32, 1456–1465 
S.Grimme, J.Antony, S.Ehrlich and H.Krieg, J.Chem.Phys., 132, (2010), 154104 
   

Your calculation employs the composite approach B97-3c by Grimme and coworkers.
For the correct reference, please check the publication list of the Grimme group:
http://www.thch.uni-bonn.de/tc/index.php?section=publikationen&subsection=grimme#2017
   

XCFun DFT library Copyright 2009-2010 Ulf Ekstrom and contributors.
See http://admol.org/xcfun for more information. This is free soft-
ware; see the source code for copying conditions. There is ABSOLUTELY
NO WARRANTY; not even for MERCHANTABILITY or FITNESS FOR A PARTICULAR
PURPOSE. For details see the documentation. Scientific users of this 
library should cite U. Ekstrom, L. Visscher, R. Bast, A. J. Thorvald-
sen and K. Ruud; J.Chem.Theor.Comp. 2010, DOI: 10.1021/ct100117s
XCFun Version 0.99 
----- Orbital basis set information -----
Your calculation utilizes the basis: def2-mTZVP
----- AuxJ basis set information -----
Your calculation utilizes the basis: def2-mTZVP/J
cite the ECPs for Pd [Def2-ECP] as follows:
Ce-Yb(ecp-28): M. Dolg, H. Stoll, H.Preuss, J. Chem. Phys., 1989, 90, 1730-1734.
Y-Cd(ecp-28), Hf-Hg(ecp-46): D. Andrae,U. Haeussermann, M. Dolg, H. Stoll, H. Preuss, Theor. Chim. Acta, 1990, 77, 123-141.
In-Sb(ecp-28), Tl-Bi(ecp-46): B. Metz, H. Stoll, M. Dolg, J. Chem. Phys., 2000, 113, 2563-2569.
Te-Xe(ecp-28), Po-Rn(ecp-46): K. A. Peterson, D. Figgen, E. Goll, H. Stoll, M. Dolg, J. Chem. Phys., 2003, 119, 11113-11123.
Rb(ecp-28), Cs(ecp-46): T. Leininger, A. Nicklass, W. Kuechle, H. Stoll, M. Dolg, A. Bergner, Chem. Phys. Lett., 1996, 255, 274-280.
Sr(ecp-28), Ba(ecp-46): M. Kaupp, P. V. Schleyer, H. Stoll and H. Preuss, J. Chem. Phys., 1991, 94, 1360-1366.
La(ecp-46): M. Dolg, H. Stoll, A. Savin, H. Preuss, Theor. Chim. Acta, 1989, 75, 173-194.
Lu(ecp-28): X. Cao, M. Dolg, J. Chem. Phys., 2001, 115, 7348-7355.

ECP parameters for Pd [Def2-ECP] have been obtained from:
TURBOMOLE (7.0.2)

================================================================================
                                        WARNINGS
                       Please study these warnings very carefully!
================================================================================


INFO   : the flag for use of LIBINT has been found!

================================================================================
                                       INPUT FILE
================================================================================
NAME = s_4c1_d_B97-3c.in
|  1> ! DFT SP B97-3c TightSCF printbasis  Grid6 NOFINALGRID SlowConv 
|  2> 
|  3> %base "_s_4c1_d_B97-3c"
|  4> %maxcore 3000
|  5> %scf
|  6>    MaxIter 2000
|  7> end
|  8> %pal
|  9>    nprocs 32
| 10> end
| 11> 
| 12> * xyzfile 4 1 s_4c1_d.xyz
| 13> 
| 14>                          ****END OF INPUT****
================================================================================

                       ****************************
                       * Single Point Calculation *
                       ****************************

---------------------------------
CARTESIAN COORDINATES (ANGSTROEM)
---------------------------------
  Pd    -0.671800    5.930600   -0.358400
  Pd     0.268900   -5.316100   -0.354600
  C      4.787700   -1.830900    0.848200
  C      4.508200   -2.600400    1.740100
  C      4.256700   -3.563700    2.738000
  C      5.071200   -3.649300    3.851700
  C      4.902400   -4.675600    4.788600
  C      3.949100   -5.649000    4.616000
  C      3.097900   -5.604600    3.497200
  C      2.120500   -6.587500    3.220700
  C      1.338400   -6.480900    2.106000
  N      1.431100   -5.423100    1.262500
  C      2.330600   -4.484100    1.489400
  C      3.223300   -4.532600    2.567400
  H      5.856300   -2.922400    3.992900
  H      5.553200   -4.708300    5.649200
  H      3.848800   -6.456200    5.324400
  H      2.008100   -7.425800    3.889400
  H      0.600600   -7.234100    1.849000
  H      2.369400   -3.640900    0.802900
  C      5.306200   -0.975200   -0.148900
  C      6.643400   -1.206200   -0.525200
  C      7.282600   -0.389100   -1.427600
  C      6.569500    0.683700   -1.944400
  N      6.995000    1.668200   -2.795500
  C      5.986600    2.567200   -2.979200
  C      5.986600    3.756600   -3.693800
  C      4.836300    4.509700   -3.689700
  C      3.675100    4.099200   -3.008600
  C      3.676800    2.894900   -2.305500
  C      4.834100    2.132300   -2.275700
  C      5.215200    0.916200   -1.599500
  C      4.576300    0.073300   -0.700600
  H      7.172300   -2.035500   -0.081000
  H      8.311200   -0.561900   -1.704100
  H      7.939100    1.775900   -3.128700
  H      6.869000    4.095500   -4.213900
  H      4.849800    5.462500   -4.193100
  H      2.793500    2.540200   -1.802100
  H      3.554300    0.247100   -0.407800
  C      2.520000    5.001700   -3.008800
  C      2.294300    5.906000   -4.056400
  C      1.280300    6.841000   -3.963200
  C      0.474200    6.850500   -2.838200
  N      0.638900    5.948700   -1.866000
  C      1.627500    5.055400   -1.936600
  H      2.910800    5.876300   -4.939700
  H      1.115400    7.556300   -4.752400
  H     -0.319300    7.580900   -2.703200
  H      1.717200    4.379300   -1.090900
  C      0.299000    2.906600    4.532600
  C      1.155300    3.724600    4.281400
  C      2.099300    4.746300    4.052400
  C      3.109600    4.985400    4.965100
  C      3.979300    6.070800    4.806800
  C      3.837100    6.952200    3.763300
  C      2.822500    6.750800    2.810300
  C      2.579100    7.631200    1.731600
  C      1.565800    7.373600    0.852600
  N      0.799200    6.259000    0.947600
  C      0.998500    5.412200    1.940300
  C      1.968000    5.617300    2.930000
  H      3.220100    4.333700    5.818200
  H      4.760300    6.223900    5.536100
  H      4.489400    7.805900    3.668100
  H      3.191100    8.511600    1.617800
  H      1.333500    8.045200    0.032500
  H      0.377200    4.519900    1.979800
  C     -0.681000    2.012200    5.017500
  C     -1.214900    2.311000    6.285900
  C     -2.116900    1.472200    6.896600
  C     -2.472500    0.309500    6.227100
  N     -3.288200   -0.707500    6.645100
  C     -3.294900   -1.692000    5.701900
  C     -3.914300   -2.933300    5.729100
  C     -3.730400   -3.767900    4.652000
  C     -2.961300   -3.390700    3.535300
  C     -2.354600   -2.135400    3.507500
  C     -2.506200   -1.288100    4.594100
  C     -1.967800    0.005200    4.938700
  C     -1.071100    0.869500    4.325700
  H     -0.893300    3.211900    6.785800
  H     -2.514300    1.698200    7.874000
  H     -3.712000   -0.771100    7.556300
  H     -4.499300   -3.247000    6.579600
  H     -4.159700   -4.755500    4.694200
  H     -1.787300   -1.807500    2.653000
  H     -0.658100    0.644300    3.356600
  C     -2.770000   -4.374400    2.465500
  C     -3.716300   -5.377600    2.211900
  C     -3.445000   -6.375300    1.294300
  C     -2.242800   -6.351400    0.609100
  N     -1.364400   -5.361600    0.794800
  C     -1.607400   -4.405500    1.693100
  H     -4.660300   -5.375400    2.731700
  H     -4.155900   -7.164500    1.111200
  H     -1.969000   -7.125700   -0.102900
  H     -0.829500   -3.656200    1.810600
  C     -4.664900   -2.464800   -0.686000
  C     -4.409300   -2.947500   -1.765000
  C     -4.108600   -3.636500   -2.958400
  C     -4.979600   -3.648500   -4.028900
  C     -4.717600   -4.435700   -5.157800
  C     -3.612900   -5.248200   -5.218100
  C     -2.697000   -5.266200   -4.150000
  C     -1.562800   -6.106900   -4.106000
  C     -0.730000   -6.077700   -3.023700
  N     -0.908200   -5.212200   -1.992800
  C     -1.954500   -4.405100   -2.006400
  C     -2.916000   -4.418800   -3.027300
  H     -5.882600   -3.059000   -3.987500
  H     -5.417200   -4.418300   -5.979700
  H     -3.439600   -5.883700   -6.072200
  H     -1.371000   -6.783000   -4.923900
  H      0.120600   -6.745600   -2.951800
  H     -2.064000   -3.703500   -1.183300
  C     -4.947600   -1.898400    0.576500
  C     -5.680500   -2.646500    1.513900
  C     -5.954400   -2.151700    2.771000
  C     -5.492800   -0.880400    3.083900
  N     -5.614400   -0.160200    4.244500
  C     -5.030800    1.063100    4.081300
  C     -4.908700    2.130300    4.961800
  C     -4.305500    3.281500    4.507100
  C     -3.829200    3.408400    3.188900
  C     -3.911900    2.318700    2.324600
  C     -4.496300    1.148600    2.772500
  C     -4.776400   -0.109300    2.137600
  C     -4.492900   -0.620100    0.882200
  H     -6.039300   -3.623700    1.229500
  H     -6.518100   -2.731000    3.485200
  H     -6.134600   -0.454500    5.054300
  H     -5.287100    2.069900    5.969900
  H     -4.188700    4.103900    5.194200
  H     -3.587100    2.383900    1.300000
  H     -3.945200   -0.044600    0.154500
  C     -3.309500    4.690900    2.710300
  C     -3.729800    5.911900    3.256200
  C     -3.238600    7.103900    2.755200
  C     -2.347200    7.075500    1.695700
  N     -1.954900    5.917000    1.160800
  C     -2.402300    4.761700    1.650500
  H     -4.454800    5.928100    4.053800
  H     -3.553000    8.047100    3.171800
  H     -1.936600    7.982800    1.258100
  H     -2.013100    3.866600    1.169800
  C     -0.257700    2.700900   -5.046700
  C     -1.391000    3.110200   -4.942300
  C     -2.657900    3.718100   -4.821800
  C     -3.626600    3.576300   -5.794800
  C     -4.832900    4.284100   -5.714300
  C     -5.072400    5.168400   -4.692000
  C     -4.113200    5.343100   -3.677400
  C     -4.254600    6.266400   -2.617800
  C     -3.268700    6.389600   -1.680300
  N     -2.162400    5.602300   -1.681500
  C     -2.003100    4.721300   -2.653500
  C     -2.913100    4.578300   -3.711000
  H     -3.444200    2.927000   -6.637300
  H     -5.571200    4.146600   -6.489600
  H     -5.985400    5.741700   -4.659100
  H     -5.136800    6.884200   -2.566000
  H     -3.338900    7.122400   -0.884900
  H     -1.122700    4.084500   -2.620900
  C      1.066500    2.221700   -5.152400
  C      2.018500    2.988000   -5.846900
  C      3.331100    2.580300   -5.950300
  C      3.687000    1.377600   -5.355100
  N      4.904700    0.749500   -5.298500
  C      4.771900   -0.436000   -4.634500
  C      5.711700   -1.414000   -4.335700
  C      5.282600   -2.550500   -3.687700
  C      3.934200   -2.750600   -3.337900
  C      3.004500   -1.745900   -3.597800
  C      3.423400   -0.589700   -4.229400
  C      2.729900    0.586500   -4.676100
  C      1.416600    1.011100   -4.564200
  H      1.701800    3.908400   -6.312800
  H      4.056300    3.172900   -6.485400
  H      5.741200    1.070200   -5.757000
  H      6.747200   -1.298500   -4.614200
  H      6.012900   -3.301800   -3.434100
  H      1.958700   -1.871600   -3.373800
  H      0.679500    0.419800   -4.046600
  C      3.500300   -4.025900   -2.764200
  C      4.178100   -5.225300   -3.024200
  C      3.718500   -6.414700   -2.488300
  C      2.570500   -6.407900   -1.713600
  N      1.911100   -5.271900   -1.475100
  C      2.357700   -4.116700   -1.965600
  H      5.047700   -5.229200   -3.661300
  H      4.235900   -7.340800   -2.679500
  H      2.160900   -7.315100   -1.274900
  H      1.772200   -3.238100   -1.702900

----------------------------
CARTESIAN COORDINATES (A.U.)
----------------------------
  NO LB      ZA    FRAG     MASS         X           Y           Z
   0 Pd   18.0000*   0   106.400   -1.269518   11.207210   -0.677278
   1 Pd   18.0000*   0   106.400    0.508147  -10.045973   -0.670097
   2 C     6.0000    0    12.011    9.047442   -3.459900    1.602866
   3 C     6.0000    0    12.011    8.519263   -4.914044    3.288312
   4 C     6.0000    0    12.011    8.043997   -6.734417    5.174070
   5 C     6.0000    0    12.011    9.583179   -6.896178    7.278658
   6 C     6.0000    0    12.011    9.264193   -8.835604    9.049143
   7 C     6.0000    0    12.011    7.462717  -10.675063    8.722976
   8 C     6.0000    0    12.011    5.854183  -10.591159    6.608750
   9 C     6.0000    0    12.011    4.007164  -12.448571    6.086241
  10 C     6.0000    0    12.011    2.529209  -12.247126    3.979763
  11 N     7.0000    0    14.007    2.704387  -10.248174    2.385779
  12 C     6.0000    0    12.011    4.404196   -8.473721    2.814558
  13 C     6.0000    0    12.011    6.091154   -8.565373    4.851683
  14 H     1.0000    0     1.008   11.066803   -5.522536    7.545487
  15 H     1.0000    0     1.008   10.494027   -8.897398   10.675441
  16 H     1.0000    0     1.008    7.273178  -12.200450   10.061658
  17 H     1.0000    0     1.008    3.794759  -14.032728    7.349901
  18 H     1.0000    0     1.008    1.134970  -13.670468    3.494104
  19 H     1.0000    0     1.008    4.477517   -6.880304    1.517261
  20 C     6.0000    0    12.011   10.027265   -1.842861   -0.281380
  21 C     6.0000    0    12.011   12.554207   -2.279388   -0.992484
  22 C     6.0000    0    12.011   13.762120   -0.735292   -2.697773
  23 C     6.0000    0    12.011   12.414556    1.292006   -3.674383
  24 N     7.0000    0    14.007   13.218634    3.152441   -5.282729
  25 C     6.0000    0    12.011   11.313034    4.851305   -5.629872
  26 C     6.0000    0    12.011   11.313034    7.098945   -6.980270
  27 C     6.0000    0    12.011    9.139283    8.522098   -6.972523
  28 C     6.0000    0    12.011    6.944933    7.746365   -5.685430
  29 C     6.0000    0    12.011    6.948145    5.470568   -4.356764
  30 C     6.0000    0    12.011    9.135125    4.029463   -4.300450
  31 C     6.0000    0    12.011    9.855300    1.731367   -3.022617
  32 C     6.0000    0    12.011    8.647954    0.138517   -1.323942
  33 H     1.0000    0     1.008   13.553683   -3.846538   -0.153068
  34 H     1.0000    0     1.008   15.705892   -1.061837   -3.220282
  35 H     1.0000    0     1.008   15.002725    3.355965   -5.912386
  36 H     1.0000    0     1.008   12.980529    7.739373   -7.963117
  37 H     1.0000    0     1.008    9.164794   10.322629   -7.923811
  38 H     1.0000    0     1.008    5.278950    4.800282   -3.405475
  39 H     1.0000    0     1.008    6.716654    0.466951   -0.770630
  40 C     6.0000    0    12.011    4.762110    9.451843   -5.685808
  41 C     6.0000    0    12.011    4.335599   11.160723   -7.665485
  42 C     6.0000    0    12.011    2.419416   12.927616   -7.489363
  43 C     6.0000    0    12.011    0.896108   12.945569   -5.363421
  44 N     7.0000    0    14.007    1.207346   11.241414   -3.526229
  45 C     6.0000    0    12.011    3.075529    9.553321   -3.659644
  46 H     1.0000    0     1.008    5.500615   11.104598   -9.334680
  47 H     1.0000    0     1.008    2.107801   14.279338   -8.980734
  48 H     1.0000    0     1.008   -0.603390   14.325825   -5.108308
  49 H     1.0000    0     1.008    3.245038    8.275678   -2.061502
  50 C     6.0000    0    12.011    0.565028    5.492678    8.565373
  51 C     6.0000    0    12.011    2.183201    7.038474    8.090673
  52 C     6.0000    0    12.011    3.967102    8.969207    7.657926
  53 C     6.0000    0    12.011    5.876292    9.421041    9.382679
  54 C     6.0000    0    12.011    7.519787   11.472149    9.083536
  55 C     6.0000    0    12.011    7.251068   13.137754    7.111606
  56 C     6.0000    0    12.011    5.333752   12.757163    5.310697
  57 C     6.0000    0    12.011    4.873793   14.420878    3.272250
  58 C     6.0000    0    12.011    2.958933   13.934085    1.611181
  59 N     7.0000    0    14.007    1.510269   11.827796    1.790704
  60 C     6.0000    0    12.011    1.886892   10.227576    3.666636
  61 C     6.0000    0    12.011    3.718981   10.615159    5.536898
  62 H     1.0000    0     1.008    6.085107    8.189506   10.994805
  63 H     1.0000    0     1.008    8.995663   11.761466   10.461713
  64 H     1.0000    0     1.008    8.483737   14.751013    6.931704
  65 H     1.0000    0     1.008    6.030305   16.084593    3.057199
  66 H     1.0000    0     1.008    2.519950   15.203225    0.061416
  67 H     1.0000    0     1.008    0.712805    8.541373    3.741280
  68 C     6.0000    0    12.011   -1.286903    3.802507    9.481701
  69 C     6.0000    0    12.011   -2.295828    4.367157   11.878630
  70 C     6.0000    0    12.011   -4.000361    2.782055   13.032685
  71 C     6.0000    0    12.011   -4.672348    0.584870   11.767514
  72 N     7.0000    0    14.007   -6.213797   -1.336981   12.557419
  73 C     6.0000    0    12.011   -6.226459   -3.197417   10.775029
  74 C     6.0000    0    12.011   -7.396955   -5.543134   10.826430
  75 C     6.0000    0    12.011   -7.049434   -7.120299    8.791006
  76 C     6.0000    0    12.011   -5.596046   -6.407494    6.680749
  77 C     6.0000    0    12.011   -4.449549   -4.035321    6.628214
  78 C     6.0000    0    12.011   -4.736032   -2.434156    8.681591
  79 C     6.0000    0    12.011   -3.718603    0.009827    9.332790
  80 C     6.0000    0    12.011   -2.024086    1.643117    8.174388
  81 H     1.0000    0     1.008   -1.688092    6.069611   12.823304
  82 H     1.0000    0     1.008   -4.751338    3.209133   14.879704
  83 H     1.0000    0     1.008   -7.014663   -1.457168   14.279338
  84 H     1.0000    0     1.008   -8.502445   -6.135941   12.433642
  85 H     1.0000    0     1.008   -7.860694   -8.986593    8.870752
  86 H     1.0000    0     1.008   -3.377508   -3.415680    5.013443
  87 H     1.0000    0     1.008   -1.243629    1.217551    6.343055
  88 C     6.0000    0    12.011   -5.234541   -8.266418    4.659120
  89 C     6.0000    0    12.011   -7.022789  -10.162191    4.179885
  90 C     6.0000    0    12.011   -6.510107  -12.047571    2.445873
  91 C     6.0000    0    12.011   -4.238278  -12.002407    1.151032
  92 N     7.0000    0    14.007   -2.578342  -10.131956    1.501954
  93 C     6.0000    0    12.011   -3.037546   -8.325188    3.199495
  94 H     1.0000    0     1.008   -8.806691  -10.158034    5.162165
  95 H     1.0000    0     1.008   -7.853513  -13.538943    2.099864
  96 H     1.0000    0     1.008   -3.720871  -13.465622   -0.194453
  97 H     1.0000    0     1.008   -1.567528   -6.909217    3.421538
  98 C     6.0000    0    12.011   -8.815383   -4.657797   -1.296352
  99 C     6.0000    0    12.011   -8.332369   -5.569968   -3.335367
 100 C     6.0000    0    12.011   -7.764129   -6.871989   -5.590566
 101 C     6.0000    0    12.011   -9.410080   -6.894666   -7.613518
 102 C     6.0000    0    12.011   -8.914972   -8.382258   -9.746829
 103 C     6.0000    0    12.011   -6.827392   -9.917661   -9.860780
 104 C     6.0000    0    12.011   -5.096591   -9.951676   -7.842363
 105 C     6.0000    0    12.011   -2.953264  -11.540369   -7.759216
 106 C     6.0000    0    12.011   -1.379500  -11.485189   -5.713965
 107 N     7.0000    0    14.007   -1.716249   -9.849631   -3.765846
 108 C     6.0000    0    12.011   -3.693470   -8.324433   -3.791547
 109 C     6.0000    0    12.011   -5.510441   -8.350322   -5.720768
 110 H     1.0000    0     1.008  -11.116503   -5.780672   -7.535283
 111 H     1.0000    0     1.008  -10.237024   -8.349377  -11.299995
 112 H     1.0000    0     1.008   -6.499902  -11.118582  -11.474795
 113 H     1.0000    0     1.008   -2.590815  -12.818012   -9.304823
 114 H     1.0000    0     1.008    0.227901  -12.747337   -5.578094
 115 H     1.0000    0     1.008   -3.900395   -6.998601   -2.236113
 116 C     6.0000    0    12.011   -9.349609   -3.587456    1.089427
 117 C     6.0000    0    12.011  -10.734589   -5.001160    2.860856
 118 C     6.0000    0    12.011  -11.252185   -4.066124    5.236431
 119 C     6.0000    0    12.011  -10.379888   -1.663715    5.827726
 120 N     7.0000    0    14.007  -10.609678   -0.302734    8.020943
 121 C     6.0000    0    12.011   -9.506834    2.008968    7.712539
 122 C     6.0000    0    12.011   -9.276099    4.025684    9.376443
 123 C     6.0000    0    12.011   -8.136216    6.201136    8.517185
 124 C     6.0000    0    12.011   -7.236139    6.440943    6.026148
 125 C     6.0000    0    12.011   -7.392420    4.381708    4.392857
 126 C     6.0000    0    12.011   -8.496776    2.170539    5.239266
 127 C     6.0000    0    12.011   -9.026088   -0.206547    4.039479
 128 C     6.0000    0    12.011   -8.490351   -1.171819    1.667116
 129 H     1.0000    0     1.008  -11.412623   -6.847801    2.323418
 130 H     1.0000    0     1.008  -12.317424   -5.160842    6.586074
 131 H     1.0000    0     1.008  -11.592714   -0.858881    9.551243
 132 H     1.0000    0     1.008   -9.991171    3.911544   11.281476
 133 H     1.0000    0     1.008   -7.915496    7.755247    9.815615
 134 H     1.0000    0     1.008   -6.778637    4.504918    2.456644
 135 H     1.0000    0     1.008   -7.455348   -0.084282    0.291963
 136 C     6.0000    0    12.011   -6.254049    8.864516    5.121725
 137 C     6.0000    0    12.011   -7.048301   11.171872    6.153326
 138 C     6.0000    0    12.011   -6.120067   13.424425    5.206573
 139 C     6.0000    0    12.011   -4.435565   13.370757    3.204409
 140 N     7.0000    0    14.007   -3.694226   11.181510    2.193594
 141 C     6.0000    0    12.011   -4.539689    8.998309    3.118993
 142 H     1.0000    0     1.008   -8.418352   11.202485    7.660572
 143 H     1.0000    0     1.008   -6.714197   15.206815    5.993833
 144 H     1.0000    0     1.008   -3.659644   15.085306    2.377464
 145 H     1.0000    0     1.008   -3.804208    7.306815    2.210602
 146 C     6.0000    0    12.011   -0.486982    5.103961   -9.536881
 147 C     6.0000    0    12.011   -2.628609    5.877426   -9.339593
 148 C     6.0000    0    12.011   -5.022703    7.026191   -9.111881
 149 C     6.0000    0    12.011   -6.853281    6.758228  -10.950585
 150 C     6.0000    0    12.011   -9.132857    8.095776  -10.798462
 151 C     6.0000    0    12.011   -9.585447    9.766861   -8.866595
 152 C     6.0000    0    12.011   -7.772822   10.096996   -6.949279
 153 C     6.0000    0    12.011   -8.040029   11.841780   -4.946925
 154 C     6.0000    0    12.011   -6.176948   12.074594   -3.175307
 155 N     7.0000    0    14.007   -4.086344   10.586813   -3.177574
 156 C     6.0000    0    12.011   -3.785310    8.921964   -5.014388
 157 C     6.0000    0    12.011   -5.504961    8.651733   -7.012774
 158 H     1.0000    0     1.008   -6.508595    5.531228  -12.542679
 159 H     1.0000    0     1.008  -10.528042    7.835938  -12.263567
 160 H     1.0000    0     1.008  -11.310767   10.850241   -8.804423
 161 H     1.0000    0     1.008   -9.707145   13.009253   -4.849037
 162 H     1.0000    0     1.008   -6.309607   13.459385   -1.672219
 163 H     1.0000    0     1.008   -2.121596    7.718586   -4.952783
 164 C     6.0000    0    12.011    2.015393    4.198405   -9.736625
 165 C     6.0000    0    12.011    3.814412    5.646502  -11.049040
 166 C     6.0000    0    12.011    6.294867    4.876060  -11.244437
 167 C     6.0000    0    12.011    6.967420    2.603287  -10.119672
 168 N     7.0000    0    14.007    9.268540    1.416350  -10.012714
 169 C     6.0000    0    12.011    9.017584   -0.823921   -8.757936
 170 C     6.0000    0    12.011   10.793549   -2.672073   -8.193286
 171 C     6.0000    0    12.011    9.982667   -4.819747   -6.968743
 172 C     6.0000    0    12.011    7.434561   -5.197881   -6.307717
 173 C     6.0000    0    12.011    5.677682   -3.299273   -6.798857
 174 C     6.0000    0    12.011    6.469288   -1.114372   -7.992408
 175 C     6.0000    0    12.011    5.158763    1.108324   -8.836548
 176 C     6.0000    0    12.011    2.676986    1.910702   -8.625088
 177 H     1.0000    0     1.008    3.215936    7.385806  -11.929463
 178 H     1.0000    0     1.008    7.665296    5.995912  -12.255630
 179 H     1.0000    0     1.008   10.849296    2.022385  -10.879153
 180 H     1.0000    0     1.008   12.750360   -2.453809   -8.719574
 181 H     1.0000    0     1.008   11.362734   -6.239498   -6.489509
 182 H     1.0000    0     1.008    3.701407   -3.536811   -6.375558
 183 H     1.0000    0     1.008    1.284069    0.793307   -7.646966
 184 C     6.0000    0    12.011    6.614608   -7.607848   -5.223581
 185 C     6.0000    0    12.011    7.895465   -9.874386   -5.714910
 186 C     6.0000    0    12.011    7.026947  -12.122026   -4.702206
 187 C     6.0000    0    12.011    4.857541  -12.109176   -3.238235
 188 N     7.0000    0    14.007    3.611456   -9.962447   -2.787535
 189 C     6.0000    0    12.011    4.455407   -7.779436   -3.714446
 190 H     1.0000    0     1.008    9.538771   -9.881756   -6.918854
 191 H     1.0000    0     1.008    8.004691  -13.872102   -5.063521
 192 H     1.0000    0     1.008    4.083509  -13.823536   -2.409212
 193 H     1.0000    0     1.008    3.348973   -6.119122   -3.218015
* core charge reduced due to ECP

--------------------------------
INTERNAL COORDINATES (ANGSTROEM)
--------------------------------
 Pd     0   0   0     0.000000000000     0.00000000     0.00000000
 Pd     1   0   0    11.285973233178     0.00000000     0.00000000
 C      2   1   0     5.832057983251    57.93626716     0.00000000
 C      3   2   1     1.210675889741    65.99795472   120.97571945
 C      4   3   2     1.409611134320   175.61232138    94.06461547
 C      5   4   3     1.382412854396   120.49832599    81.98320507
 C      6   5   4     1.399845255734   120.90009067   185.68217615
 C      7   6   5     1.373345990637   121.28073593     1.74692658
 C      8   7   6     1.406494308556   119.84712561   358.36371011
 C      9   8   7     1.413455135475   123.51418632   177.88716714
 C     10   9   8     1.365869708281   120.08791048   180.58059877
 N     11  10   9     1.356107068044   121.96203905   357.52101168
 C     12  11  10     1.319963961629   119.64070871     2.33017743
 C     13  12  11     1.400481895634   122.82383569     0.85328780
 H      6   5   4     1.079214093681   119.49291693     4.83830654
 H      7   6   5     1.079463890086   118.88794315   180.33088307
 H      8   7   6     1.078639184343   120.82533651   177.79529173
 H     10   9   8     1.078211639707   119.43410115   359.78177891
 H     11  10   9     1.085222594678   121.89683384   178.06500870
 H     13  12  11     1.088013754509   117.84973696   180.91917501
 C      3   2   1     1.412541379925   120.05591099   294.78030707
 C     21   3   2     1.408213950364   115.96442223   242.16649935
 C     22  21   3     1.374974476127   121.28746776   183.88654016
 C     23  22  21     1.387981876683   117.70029457     0.77793416
 N     24  23  22     1.369182862148   128.86957252   176.45268560
 C     25  24  23     1.363384483556   109.14916139   183.69535649
 C     26  25  24     1.387560996857   129.39109093   176.02812192
 C     27  26  25     1.374906000423   117.90362664   181.93405833
 C     28  27  26     1.407406444493   122.13809504   358.96895699
 C     29  28  27     1.394521778245   119.66156441     0.28681950
 C     30  29  28     1.386286438655   119.13841014     0.92798168
 C     24  23  22     1.416735949286   121.82486303   357.87813100
 C     32  24  23     1.388054332510   119.86771551     1.32626352
 H     22  21   3     1.079253139907   118.77773394     3.06023879
 H     23  22  21     1.079041264271   121.07488232   179.22085968
 H     25  24  23     1.006949025522   125.02757327   356.01907787
 H     27  26  25     1.078882282735   121.16675707     0.23402780
 H     28  27  26     1.077692743782   118.18990155   176.35530392
 H     30  29  28     1.076774136019   121.27776578   182.01788188
 H     33  32  24     1.077228982157   120.97969801   178.53320723
 C     29  28  27     1.465865716906   118.06725331   177.07696704
 C     41  29  28     1.402199964342   121.60086392    28.02920389
 C     42  41  29     1.382428023443   120.25712034   186.90275708
 C     43  42  41     1.384020397249   119.12084781   358.49826001
 N     44  43  42     1.336241808207   120.99599058   358.06954013
 C     45  44  43     1.334278535389   120.30860846     2.99116156
 H     42  41  29     1.077577482133   120.16888429     6.89901450
 H     43  42  41     1.077813870759   120.77836809   178.43494362
 H     44  43  42     1.086899907995   122.05845152   178.33190821
 H     46  45  44     1.086446404569   115.88829539   177.88691324
 C      1   2   3     5.831715840128    57.93390963   292.42047672
 C     51   1   2     1.210568102174    66.00425639   120.98576968
 C     52  51   1     1.409768736354   175.61374975    94.02877877
 C     53  52  51     1.382351688247   120.49708399    82.00604553
 C     54  53  52     1.399832182799   120.89873391   185.69053988
 C     55  54  53     1.373309524470   121.28120942     1.75131627
 C     56  55  54     1.406479335077   119.84433974   358.36071417
 C     57  56  55     1.413485553517   123.51280102   177.88510067
 C     58  57  56     1.365933984496   120.09117402   180.58155497
 N     59  58  57     1.356109774318   121.95669373   357.52899363
 C     60  59  58     1.319940915344   119.64484793     2.31676528
 C     61  60  59     1.400536450793   122.82221185     0.86256781
 H     54  53  52     1.079213950058   119.49194164     4.84874573
 H     55  54  53     1.079480940082   118.88605623   180.33443628
 H     56  55  54     1.078592610766   120.82595002   177.79623537
 H     58  57  56     1.078238656328   119.43130651   359.79143361
 H     59  58  57     1.085160753068   121.89869813   178.07552791
 H     61  60  59     1.088013432821   117.85422957   180.92110464
 C     51   1   2     1.412614374130   120.04775356   294.77589737
 C     69  51   1     1.408250407420   115.96681398   242.19408013
 C     70  69  51     1.374825054325   121.29017676   183.87445061
 C     71  70  69     1.388003206048   117.70407259     0.77916558
 N     72  71  70     1.369079796798   128.87550703   176.45204831
 C     73  72  71     1.363419003828   109.15359055   183.69294917
 C     74  73  72     1.387523653852   129.39164285   176.02403059
 C     75  74  73     1.374962101296   117.90242088   181.93925383
 C     76  75  74     1.407413777110   122.13820885   358.96742738
 C     77  76  75     1.394501997130   119.65795590     0.29038385
 C     78  77  76     1.386217663284   119.14430031     0.93070047
 C     72  71  70     1.416790436162   121.82257465   357.87898197
 C     80  72  71     1.388111803854   119.86604771     1.32517161
 H     70  69  51     1.079327281227   118.77041068     3.05176521
 H     71  70  69     1.079033604667   121.07817408   179.21533393
 H     73  72  71     1.006944308291   125.02696496   356.03630337
 H     75  74  73     1.078880410426   121.17344387     0.24167886
 H     76  75  74     1.077698051404   118.18360075   176.36034802
 H     78  77  76     1.076809152078   121.27466063   182.01830826
 H     81  80  72     1.077236673160   120.98237857   178.53472041
 C     77  76  75     1.465855866039   118.06834438   177.07942708
 C     89  77  76     1.402214994215   121.60319691    27.99291624
 C     90  89  77     1.382388780336   120.26184579   186.91446148
 C     91  90  89     1.383963543595   119.12078369   358.49093083
 N     92  91  90     1.336328960249   120.99638231   358.07864139
 C     93  92  91     1.334211040278   120.30617722     2.99064122
 H     90  89  77     1.077651557787   120.16341199     6.91342465
 H     91  90  89     1.077840925183   120.78159409   178.43516479
 H     92  91  90     1.086945688616   122.06132825   178.33295281
 H     94  93  92     1.086455314313   115.88926095   177.88870859
 C     89  77  76     4.143569767724   100.72679307   116.69711518
 C     99  89  77     1.209368285511   113.45258003   165.46088289
 C    100  99  89     1.410441437990   174.23563212    35.44285265
 C    101 100  99     1.380128707766   121.73511242   117.00886446
 C    102 101 100     1.400979318191   120.78898531   185.77862919
 C    103 102 101     1.372645048802   121.23182864     2.03690985
 C    104 103 102     1.407136958508   119.87209670   357.91539884
 C    105 104 103     1.412487922072   123.63605981   177.53418098
 C    106 105 104     1.365936224719   120.10121999   180.87668630
 N    107 106 105     1.357792436273   122.35739605   356.63292308
 C    108 107 106     1.321491225851   119.03930398     2.85467859
 C    109 108 107     1.402464527181   122.97938285     1.50478083
 H    102 101 100     1.079181731684   119.57516072     4.59282244
 H    103 102 101     1.079473265070   118.89882950   180.29331566
 H    104 103 102     1.078600922492   120.85374090   177.33354814
 H    106 105 104     1.078359337141   119.49587968   359.75470687
 H    107 106 105     1.083872861548   121.18890490   177.29358221
 H    109 108 107     1.087072407892   117.78404993   181.48412645
 C     99  89  77     1.412315297658    66.20080125   346.07059826
 C    117  99  89     1.405530070827   119.15067424   293.41362033
 C    118 117  99     1.378458798804   121.38437195   178.40243354
 C    119 118 117     1.388230766119   117.91742355     0.53887946
 N    120 119 118     1.371301192299   129.95867676   180.45338535
 C    121 120 119     1.365168886988   109.36172120   181.58004264
 C    122 121 120     1.388922064048   130.56515175   179.60336006
 C    123 122 121     1.376903689442   118.13666208   182.45779567
 C    124 123 122     1.407343788845   122.20634800     0.67926875
 C    125 124 123     1.393305375716   119.36827526   357.06372484
 C    126 125 124     1.382487533398   119.08214261     1.84672555
 C    120 119 118     1.415382584321   121.09889687     0.70406974
 C    128 120 119     1.384672542517   120.58526375   358.55524644
 H    118 117  99     1.079138841855   118.65808304   357.82310976
 H    119 118 117     1.078623113047   120.99112938   179.95299083
 H    121 120 119     1.006477307245   124.97540391   355.85187812
 H    123 122 121     1.078471293081   121.24523704     1.55510993
 H    124 123 122     1.078002973094   118.34754170   181.37350462
 H    126 125 124     1.076824609674   121.66694131   178.06776982
 H    129 128 120     1.077368474571   121.29290717   180.23498302
 C    125 124 123     1.464224129019   120.34862635   174.20644710
 C    137 125 124     1.401962873973   121.94811243   333.44595113
 C    138 137 125     1.383163923763   120.20192790   181.52530750
 C    139 138 137     1.384897386090   119.21019921     1.11098028
 N    140 139 138     1.334967995871   120.89611187   359.67854609
 C    141 140 139     1.332175266247   120.43823119   359.10184797
 H    138 137 125     1.077985714191   120.18664532     0.12226670
 H    139 138 137     1.077974563707   120.69629531   180.27141748
 H    140 139 138     1.087786472613   122.25013717   179.49087499
 H    142 141 140     1.088004200360   115.52602195   181.39120033
 C     41  29  28     4.142744783353   100.74760805   116.69022900
 C    147  41  29     1.209460516098   113.44472839   165.47085696
 C    148 147  41     1.410353952028   174.24549545    35.40865773
 C    149 148 147     1.380295595153   121.72978378   117.01400930
 C    150 149 148     1.400935680180   120.79000530   185.77073083
 C    151 150 149     1.372750534511   121.23050131     2.02429287
 C    152 151 150     1.407123978191   119.86888256   357.93051819
 C    153 152 151     1.412525755517   123.62836256   177.52669527
 C    154 153 152     1.366046595106   120.10055665   180.89422605
 N    155 154 153     1.357844770215   122.35197087   356.63112280
 C    156 155 154     1.321484578041   119.03954617     2.84074755
 C    157 156 155     1.402446166525   122.98247355     1.51828022
 H    150 149 148     1.079197155296   119.57129813     4.57384699
 H    151 150 149     1.079390212111   118.90340439   180.28993439
 H    152 151 150     1.078575124875   120.85084169   177.33562317
 H    154 153 152     1.078256425902   119.50224862   359.76876773
 H    155 154 153     1.083782745757   121.19187758   177.29007528
 H    157 156 155     1.087051590312   117.78226748   181.50129213
 C    147  41  29     1.412200683331    66.20658490   346.08302789
 C    165 147  41     1.405649294810   119.14730512   293.39642256
 C    166 165 147     1.378343066874   121.38430793   178.39484562
 C    167 166 165     1.388313775773   117.91808475     0.54572786
 N    168 167 166     1.371315594602   129.95028416   180.45899002
 C    169 168 167     1.365262645061   109.35491801   181.58293120
 C    170 169 168     1.388880657220   130.56129829   179.60164935
 C    171 170 169     1.376830802967   118.13930674   182.45248237
 C    172 171 170     1.407331734169   122.20526557     0.67755462
 C    173 172 171     1.393309796851   119.36867277   357.06183405
 C    174 173 172     1.382459478610   119.08499490     1.84643198
 C    168 167 166     1.415245780774   121.10263946     0.70060928
 C    176 168 167     1.384761228516   120.58066053   358.55144464
 H    166 165 147     1.079119020312   118.65429721   357.81744205
 H    167 166 165     1.078620327085   120.99605148   179.95371819
 H    169 168 167     1.006381135555   124.98225587   355.84283347
 H    171 170 169     1.078500231803   121.24612671     1.54633526
 H    172 171 170     1.078008691987   118.35064805   181.37016404
 H    174 173 172     1.076881669451   121.67031771   178.06255830
 H    177 176 168     1.077432995596   121.28970406   180.23583435
 C    173 172 171     1.464169044202   120.34262559   174.20414780
 C    185 173 172     1.401989015649   121.95209803   333.44398121
 C    186 185 173     1.383146170873   120.20962281   181.50941675
 C    187 186 185     1.384958602269   119.20515881     1.12140994
 N    188 187 186     1.334985621645   120.89984186   359.67648320
 C    189 188 187     1.332114428268   120.43466853   359.09870834
 H    186 185 173     1.078014740159   120.17771499     0.11875420
 H    187 186 185     1.077924584561   120.70267562   180.26938872
 H    188 187 186     1.087769134513   122.25064487   179.49212725
 H    190 189 188     1.088007123138   115.52885881   181.38608945

---------------------------
INTERNAL COORDINATES (A.U.)
---------------------------
 Pd     0   0   0     0.000000000000     0.00000000     0.00000000
 Pd     1   0   0    21.327398565471     0.00000000     0.00000000
 C      2   1   0    11.020992385493    57.93626716     0.00000000
 C      3   2   1     2.287845868552    65.99795472   120.97571945
 C      4   3   2     2.663778999192   175.61232138    94.06461547
 C      5   4   3     2.612381698821   120.49832599    81.98320507
 C      6   5   4     2.645324163206   120.90009067   185.68217615
 C      7   6   5     2.595247809424   121.28073593     1.74692658
 C      8   7   6     2.657889052089   119.84712561   358.36371011
 C      9   8   7     2.671043108632   123.51418632   177.88716714
 C     10   9   8     2.581119683270   120.08791048   180.58059877
 N     11  10   9     2.562670966879   121.96203905   357.52101168
 C     12  11  10     2.494370394125   119.64070871     2.33017743
 C     13  12  11     2.646527238264   122.82383569     0.85328780
 H      6   5   4     2.039419076925   119.49291693     4.83830654
 H      7   6   5     2.039891123720   118.88794315   180.33088307
 H      8   7   6     2.038332655724   120.82533651   177.79529173
 H     10   9   8     2.037524713453   119.43410115   359.78177891
 H     11  10   9     2.050773498285   121.89683384   178.06500870
 H     13  12  11     2.056048025961   117.84973696   180.91917501
 C      3   2   1     2.669316360889   120.05591099   294.78030707
 C     21   3   2     2.661138704155   115.96442223   242.16649935
 C     22  21   3     2.598325201011   121.28746776   183.88654016
 C     23  22  21     2.622905625777   117.70029457     0.77793416
 N     24  23  22     2.587380636718   128.86957252   176.45268560
 C     25  24  23     2.576423289158   109.14916139   183.69535649
 C     26  25  24     2.622110278171   129.39109093   176.02812192
 C     27  26  25     2.598195800685   117.90362664   181.93405833
 C     28  27  26     2.659612739207   122.13809504   358.96895699
 C     29  28  27     2.635264248672   119.66156441     0.28681950
 C     30  29  28     2.619701712228   119.13841014     0.92798168
 C     24  23  22     2.677242948232   121.82486303   357.87813100
 C     32  24  23     2.623042547447   119.86771551     1.32626352
 H     22  21   3     2.039492863600   118.77773394     3.06023879
 H     23  22  21     2.039092476673   121.07488232   179.22085968
 H     25  24  23     1.902857889056   125.02757327   356.01907787
 H     27  26  25     2.038792045109   121.16675707     0.23402780
 H     28  27  26     2.036544142262   118.18990155   176.35530392
 H     30  29  28     2.034808225166   121.27776578   182.01788188
 H     33  32  24     2.035667759800   120.97969801   178.53320723
 C     29  28  27     2.770084754056   118.06725331   177.07696704
 C     41  29  28     2.649773917600   121.60086392    28.02920389
 C     42  41  29     2.612410364165   120.25712034   186.90275708
 C     43  42  41     2.615419514561   119.12084781   358.49826001
 N     44  43  42     2.525131066207   120.99599058   358.06954013
 C     45  44  43     2.521421018255   120.30860846     2.99116156
 H     42  41  29     2.036326329312   120.16888429     6.89901450
 H     43  42  41     2.036773039076   120.77836809   178.43494362
 H     44  43  42     2.053943161095   122.05845152   178.33190821
 H     46  45  44     2.053086163818   115.88829539   177.88691324
 C      1   2   3    11.020345828692    57.93390963   292.42047672
 C     51   1   2     2.287642179569    66.00425639   120.98576968
 C     52  51   1     2.664076823873   175.61374975    94.02877877
 C     53  52  51     2.612266111551   120.49708399    82.00604553
 C     54  53  52     2.645299458939   120.89873391   185.69053988
 C     55  54  53     2.595178898354   121.28120942     1.75131627
 C     56  55  54     2.657860756316   119.84433974   358.36071417
 C     57  56  55     2.671100590400   123.51280102   177.88510067
 C     58  57  56     2.581241147713   120.09117402   180.58155497
 N     59  58  57     2.562676080994   121.95669373   357.52899363
 C     60  59  58     2.494326842958   119.64484793     2.31676528
 C     61  60  59     2.646630332573   122.82221185     0.86256781
 H     54  53  52     2.039418805517   119.49194164     4.84874573
 H     55  54  53     2.039923343543   118.88605623   180.33443628
 H     56  55  54     2.038244644420   120.82595002   177.79623537
 H     58  57  56     2.037575767467   119.43130651   359.79143361
 H     59  58  57     2.050656634579   121.89869813   178.07552791
 H     61  60  59     2.056047418060   117.85422957   180.92110464
 C     51   1   2     2.669454299947   120.04775356   294.77589737
 C     69  51   1     2.661207598008   115.96681398   242.19408013
 C     70  69  51     2.598042834728   121.29017676   183.87445061
 C     71  70  69     2.622945932436   117.70407259     0.77916558
 N     72  71  70     2.587185871432   128.87550703   176.45204831
 C     73  72  71     2.576488523019   109.15359055   183.69294917
 C     74  73  72     2.622039710119   129.39164285   176.02403059
 C     75  74  73     2.598301815970   117.90242088   181.93925383
 C     76  75  74     2.659626595846   122.13820885   358.96742738
 C     77  76  75     2.635226867782   119.65795590     0.29038385
 C     78  77  76     2.619571745611   119.14430031     0.93070047
 C     72  71  70     2.677345913505   121.82257465   357.87898197
 C     80  72  71     2.623151152548   119.86604771     1.32517161
 H     70  69  51     2.039632970388   118.77041068     3.05176521
 H     71  70  69     2.039078002118   121.07817408   179.21533393
 H     73  72  71     1.902848974781   125.02696496   356.03630337
 H     75  74  73     2.038788506957   121.17344387     0.24167886
 H     76  75  74     2.036554172214   118.18360075   176.36034802
 H     78  77  76     2.034874395928   121.27466063   182.01830826
 H     81  80  72     2.035682293688   120.98237857   178.53472041
 C     77  76  75     2.770066138615   118.06834438   177.07942708
 C     89  77  76     2.649802319943   121.60319691    27.99291624
 C     90  89  77     2.612336205441   120.26184579   186.91446148
 C     91  90  89     2.615312076726   119.12078369   358.49093083
 N     92  91  90     2.525295759698   120.99638231   358.07864139
 C     93  92  91     2.521293470980   120.30617722     2.99064122
 H     90  89  77     2.036466312010   120.16341199     6.91342465
 H     91  90  89     2.036824164529   120.78159409   178.43516479
 H     92  91  90     2.054029673930   122.06132825   178.33295281
 H     94  93  92     2.053103000796   115.88926095   177.88870859
 C     89  77  76     7.830212077795   100.72679307   116.69711518
 C     99  89  77     2.285374854666   113.45258003   165.46088289
 C    100  99  89     2.665348045736   174.23563212    35.44285265
 C    101 100  99     2.608065287240   121.73511242   117.00886446
 C    102 101 100     2.647467230669   120.78898531   185.77862919
 C    103 102 101     2.593923221318   121.23182864     2.03690985
 C    104 103 102     2.659103484500   119.87209670   357.91539884
 C    105 104 103     2.669215340188   123.63605981   177.53418098
 C    106 105 104     2.581245381122   120.10121999   180.87668630
 N    107 106 105     2.565855851266   122.35739605   356.63292308
 C    108 107 106     2.497256505237   119.03930398     2.85467859
 C    109 108 107     2.650273868911   122.97938285     1.50478083
 H    102 101 100     2.039357921613   119.57516072     4.59282244
 H    103 102 101     2.039908839871   118.89882950   180.29331566
 H    104 103 102     2.038260351304   120.85374090   177.33354814
 H    106 105 104     2.037803821154   119.49587968   359.75470687
 H    107 106 105     2.048222872315   121.18890490   177.29358221
 H    109 108 107     2.054269138658   117.78404993   181.48412645
 C     99  89  77     2.668889127322    66.20080125   346.07059826
 C    117  99  89     2.656066906855   119.15067424   293.41362033
 C    118 117  99     2.604909616634   121.38437195   178.40243354
 C    119 118 117     2.623375958649   117.91742355     0.53887946
 N    120 119 118     2.591383700564   129.95867676   180.45338535
 C    121 120 119     2.579795322957   109.36172120   181.58004264
 C    122 121 120     2.624682322412   130.56515175   179.60336006
 C    123 122 121     2.601970885832   118.13666208   182.45779567
 C    124 123 122     2.659494337192   122.20634800     0.67926875
 C    125 124 123     2.632965581024   119.36827526   357.06372484
 C    126 125 124     2.612522821682   119.08214261     1.84672555
 C    120 119 118     2.674685459089   121.09889687     0.70406974
 C    128 120 119     2.616651890517   120.58526375   358.55524644
 H    118 117  99     2.039276871583   118.65808304   357.82310976
 H    119 118 117     2.038302285377   120.99112938   179.95299083
 H    121 120 119     1.901966470700   124.97540391   355.85187812
 H    123 122 121     2.038015387219   121.24523704     1.55510993
 H    124 123 122     2.037130390701   118.34754170   181.37350462
 H    126 125 124     2.034903606551   121.66694131   178.06776982
 H    129 128 120     2.035931362260   121.29290717   180.23498302
 C    125 124 123     2.766982602524   120.34862635   174.20644710
 C    137 125 124     2.649325881735   121.94811243   333.44595113
 C    138 137 125     2.613801014232   120.20192790   181.52530750
 C    139 138 137     2.617076783294   119.21019921     1.11098028
 N    140 139 138     2.522723909746   120.89611187   359.67854609
 C    141 140 139     2.517446415590   120.43823119   359.10184797
 H    138 137 125     2.037097776101   120.18664532     0.12226670
 H    139 138 137     2.037076704740   120.69629531   180.27141748
 H    140 139 138     2.055618525423   122.25013717   179.49087499
 H    142 141 140     2.056029971236   115.52602195   181.39120033
 C     41  29  28     7.828653083268   100.74760805   116.69022900
 C    147  41  29     2.285549145216   113.44472839   165.47085696
 C    148 147  41     2.665182721226   174.24549545    35.40865773
 C    149 148 147     2.608380658698   121.72978378   117.01400930
 C    150 149 148     2.647384766778   120.79000530   185.77073083
 C    151 150 149     2.594122560420   121.23050131     2.02429287
 C    152 151 150     2.659078955255   119.86888256   357.93051819
 C    153 152 151     2.669286835038   123.62836256   177.52669527
 C    154 153 152     2.581453950925   120.10055665   180.89422605
 N    155 154 153     2.565954748083   122.35197087   356.63112280
 C    156 155 154     2.497243942698   119.03954617     2.84074755
 C    157 156 155     2.650239172300   122.98247355     1.51828022
 H    150 149 148     2.039387068017   119.57129813     4.57384699
 H    151 150 149     2.039751892524   118.90340439   180.28993439
 H    152 151 150     2.038211600874   120.85084169   177.33562317
 H    154 153 152     2.037609347096   119.50224862   359.76876773
 H    155 154 153     2.048052578149   121.19187758   177.29007528
 H    157 156 155     2.054229799133   117.78226748   181.50129213
 C    147  41  29     2.668672537632    66.20658490   346.08302789
 C    165 147  41     2.656292207531   119.14730512   293.39642256
 C    166 165 147     2.604690914981   121.38430793   178.39484562
 C    167 166 165     2.623532824160   117.91808475     0.54572786
 N    168 167 166     2.591410916974   129.95028416   180.45899002
 C    169 168 167     2.579972500039   109.35491801   181.58293120
 C    170 169 168     2.624604074846   130.56129829   179.60164935
 C    171 170 169     2.601833150355   118.13930674   182.45248237
 C    172 171 170     2.659471557156   122.20526557     0.67755462
 C    173 172 171     2.632973935757   119.36867277   357.06183405
 C    174 173 172     2.612469805817   119.08499490     1.84643198
 C    168 167 166     2.674426937851   121.10263946     0.70060928
 C    176 168 167     2.616819482767   120.58066053   358.55144464
 H    166 165 147     2.039239414296   118.65429721   357.81744205
 H    167 166 165     2.038297020670   120.99605148   179.95371819
 H    169 168 167     1.901784732543   124.98225587   355.84283347
 H    171 170 169     2.038070073479   121.24612671     1.54633526
 H    172 171 170     2.037141197843   118.35064805   181.37016404
 H    174 173 172     2.035011433903   121.67031771   178.06255830
 H    177 176 168     2.036053289328   121.28970406   180.23583435
 C    173 172 171     2.766878507307   120.34262559   174.20414780
 C    185 173 172     2.649375282342   121.95209803   333.44398121
 C    186 185 173     2.613767466131   120.20962281   181.50941675
 C    187 186 185     2.617192465108   119.20515881     1.12140994
 N    188 187 186     2.522757217632   120.89984186   359.67648320
 C    189 188 187     2.517331448472   120.43466853   359.09870834
 H    186 185 173     2.037152627231   120.17771499     0.11875420
 H    187 186 185     2.036982257840   120.70267562   180.26938872
 H    188 187 186     2.055585761163   122.25064487   179.49212725
 H    190 189 188     2.056035494487   115.52885881   181.38608945

---------------------
BASIS SET INFORMATION
---------------------
There are 4 groups of distinct atoms

 Group   1 Type Pd  : 7s7p6d contracted to 6s4p3d pattern {211111/4111/411}
 Group   2 Type C   : 11s6p1d contracted to 5s3p1d pattern {62111/411/1}
 Group   3 Type N   : 11s6p1d contracted to 5s3p1d pattern {62111/411/1}
 Group   4 Type H   : 5s contracted to 3s pattern {311}

Atom   0Pd   basis set group =>   1
Atom   1Pd   basis set group =>   1
Atom   2C    basis set group =>   2
Atom   3C    basis set group =>   2
Atom   4C    basis set group =>   2
Atom   5C    basis set group =>   2
Atom   6C    basis set group =>   2
Atom   7C    basis set group =>   2
Atom   8C    basis set group =>   2
Atom   9C    basis set group =>   2
Atom  10C    basis set group =>   2
Atom  11N    basis set group =>   3
Atom  12C    basis set group =>   2
Atom  13C    basis set group =>   2
Atom  14H    basis set group =>   4
Atom  15H    basis set group =>   4
Atom  16H    basis set group =>   4
Atom  17H    basis set group =>   4
Atom  18H    basis set group =>   4
Atom  19H    basis set group =>   4
Atom  20C    basis set group =>   2
Atom  21C    basis set group =>   2
Atom  22C    basis set group =>   2
Atom  23C    basis set group =>   2
Atom  24N    basis set group =>   3
Atom  25C    basis set group =>   2
Atom  26C    basis set group =>   2
Atom  27C    basis set group =>   2
Atom  28C    basis set group =>   2
Atom  29C    basis set group =>   2
Atom  30C    basis set group =>   2
Atom  31C    basis set group =>   2
Atom  32C    basis set group =>   2
Atom  33H    basis set group =>   4
Atom  34H    basis set group =>   4
Atom  35H    basis set group =>   4
Atom  36H    basis set group =>   4
Atom  37H    basis set group =>   4
Atom  38H    basis set group =>   4
Atom  39H    basis set group =>   4
Atom  40C    basis set group =>   2
Atom  41C    basis set group =>   2
Atom  42C    basis set group =>   2
Atom  43C    basis set group =>   2
Atom  44N    basis set group =>   3
Atom  45C    basis set group =>   2
Atom  46H    basis set group =>   4
Atom  47H    basis set group =>   4
Atom  48H    basis set group =>   4
Atom  49H    basis set group =>   4
Atom  50C    basis set group =>   2
Atom  51C    basis set group =>   2
Atom  52C    basis set group =>   2
Atom  53C    basis set group =>   2
Atom  54C    basis set group =>   2
Atom  55C    basis set group =>   2
Atom  56C    basis set group =>   2
Atom  57C    basis set group =>   2
Atom  58C    basis set group =>   2
Atom  59N    basis set group =>   3
Atom  60C    basis set group =>   2
Atom  61C    basis set group =>   2
Atom  62H    basis set group =>   4
Atom  63H    basis set group =>   4
Atom  64H    basis set group =>   4
Atom  65H    basis set group =>   4
Atom  66H    basis set group =>   4
Atom  67H    basis set group =>   4
Atom  68C    basis set group =>   2
Atom  69C    basis set group =>   2
Atom  70C    basis set group =>   2
Atom  71C    basis set group =>   2
Atom  72N    basis set group =>   3
Atom  73C    basis set group =>   2
Atom  74C    basis set group =>   2
Atom  75C    basis set group =>   2
Atom  76C    basis set group =>   2
Atom  77C    basis set group =>   2
Atom  78C    basis set group =>   2
Atom  79C    basis set group =>   2
Atom  80C    basis set group =>   2
Atom  81H    basis set group =>   4
Atom  82H    basis set group =>   4
Atom  83H    basis set group =>   4
Atom  84H    basis set group =>   4
Atom  85H    basis set group =>   4
Atom  86H    basis set group =>   4
Atom  87H    basis set group =>   4
Atom  88C    basis set group =>   2
Atom  89C    basis set group =>   2
Atom  90C    basis set group =>   2
Atom  91C    basis set group =>   2
Atom  92N    basis set group =>   3
Atom  93C    basis set group =>   2
Atom  94H    basis set group =>   4
Atom  95H    basis set group =>   4
Atom  96H    basis set group =>   4
Atom  97H    basis set group =>   4
Atom  98C    basis set group =>   2
Atom  99C    basis set group =>   2
Atom 100C    basis set group =>   2
Atom 101C    basis set group =>   2
Atom 102C    basis set group =>   2
Atom 103C    basis set group =>   2
Atom 104C    basis set group =>   2
Atom 105C    basis set group =>   2
Atom 106C    basis set group =>   2
Atom 107N    basis set group =>   3
Atom 108C    basis set group =>   2
Atom 109C    basis set group =>   2
Atom 110H    basis set group =>   4
Atom 111H    basis set group =>   4
Atom 112H    basis set group =>   4
Atom 113H    basis set group =>   4
Atom 114H    basis set group =>   4
Atom 115H    basis set group =>   4
Atom 116C    basis set group =>   2
Atom 117C    basis set group =>   2
Atom 118C    basis set group =>   2
Atom 119C    basis set group =>   2
Atom 120N    basis set group =>   3
Atom 121C    basis set group =>   2
Atom 122C    basis set group =>   2
Atom 123C    basis set group =>   2
Atom 124C    basis set group =>   2
Atom 125C    basis set group =>   2
Atom 126C    basis set group =>   2
Atom 127C    basis set group =>   2
Atom 128C    basis set group =>   2
Atom 129H    basis set group =>   4
Atom 130H    basis set group =>   4
Atom 131H    basis set group =>   4
Atom 132H    basis set group =>   4
Atom 133H    basis set group =>   4
Atom 134H    basis set group =>   4
Atom 135H    basis set group =>   4
Atom 136C    basis set group =>   2
Atom 137C    basis set group =>   2
Atom 138C    basis set group =>   2
Atom 139C    basis set group =>   2
Atom 140N    basis set group =>   3
Atom 141C    basis set group =>   2
Atom 142H    basis set group =>   4
Atom 143H    basis set group =>   4
Atom 144H    basis set group =>   4
Atom 145H    basis set group =>   4
Atom 146C    basis set group =>   2
Atom 147C    basis set group =>   2
Atom 148C    basis set group =>   2
Atom 149C    basis set group =>   2
Atom 150C    basis set group =>   2
Atom 151C    basis set group =>   2
Atom 152C    basis set group =>   2
Atom 153C    basis set group =>   2
Atom 154C    basis set group =>   2
Atom 155N    basis set group =>   3
Atom 156C    basis set group =>   2
Atom 157C    basis set group =>   2
Atom 158H    basis set group =>   4
Atom 159H    basis set group =>   4
Atom 160H    basis set group =>   4
Atom 161H    basis set group =>   4
Atom 162H    basis set group =>   4
Atom 163H    basis set group =>   4
Atom 164C    basis set group =>   2
Atom 165C    basis set group =>   2
Atom 166C    basis set group =>   2
Atom 167C    basis set group =>   2
Atom 168N    basis set group =>   3
Atom 169C    basis set group =>   2
Atom 170C    basis set group =>   2
Atom 171C    basis set group =>   2
Atom 172C    basis set group =>   2
Atom 173C    basis set group =>   2
Atom 174C    basis set group =>   2
Atom 175C    basis set group =>   2
Atom 176C    basis set group =>   2
Atom 177H    basis set group =>   4
Atom 178H    basis set group =>   4
Atom 179H    basis set group =>   4
Atom 180H    basis set group =>   4
Atom 181H    basis set group =>   4
Atom 182H    basis set group =>   4
Atom 183H    basis set group =>   4
Atom 184C    basis set group =>   2
Atom 185C    basis set group =>   2
Atom 186C    basis set group =>   2
Atom 187C    basis set group =>   2
Atom 188N    basis set group =>   3
Atom 189C    basis set group =>   2
Atom 190H    basis set group =>   4
Atom 191H    basis set group =>   4
Atom 192H    basis set group =>   4
Atom 193H    basis set group =>   4

-------------------------
BASIS SET IN INPUT FORMAT
-------------------------

 # Basis set for element : H 
 NewGTO H 
 S 3 
   1      34.0613410000      0.0254393072
   2       5.1235746000      0.1900859489
   3       1.1646626000      0.8524411301
 S 1 
   1       0.3272304100      1.0000000000
 S 1 
   1       0.1030724100      1.0000000000
  end;

 # Basis set for element : C 
 NewGTO C 
 S 6 
   1   13575.3496820000      0.0006064549
   2    2035.2333680000      0.0046979088
   3     463.2256235900      0.0243324776
   4     131.2001959800      0.0973999683
   5      42.8530158910      0.3019558425
   6      15.5841857660      0.6623360915
 S 2 
   1       6.2067138508      0.6559530854
   2       2.5764896527      0.3758563329
 S 1 
   1       0.5769633942      1.0000000000
 S 1 
   1       0.2297283136      1.0000000000
 S 1 
   1       0.0951644400      1.0000000000
 P 4 
   1      34.6972322440      0.0113272200
   2       7.9582622826      0.0761696592
   3       2.3780826883      0.3019225220
   4       0.8143320818      0.7278502735
 P 1 
   1       0.2888754725      1.0000000000
 P 1 
   1       0.1005682367      1.0000000000
 D 1 
   1       0.8000000000      1.0000000000
  end;

 # Basis set for element : N 
 NewGTO N 
 S 6 
   1   19730.8006470000      0.0005862639
   2    2957.8958745000      0.0045428821
   3     673.2213359500      0.0235584136
   4     190.6824949400      0.0947091933
   5      62.2954418980      0.2971978492
   6      22.6541611820      0.6691624689
 S 2 
   1       8.9791477428      0.6459668363
   2       3.6863002370      0.3870057440
 S 1 
   1       0.8466007680      1.0000000000
 S 1 
   1       0.3364713377      1.0000000000
 S 1 
   1       0.1364765367      1.0000000000
 P 4 
   1      49.2003805100      0.0114488252
   2      11.3467905370      0.0784223379
   3       3.4273972411      0.3081809474
   4       1.1785525134      0.7202719637
 P 1 
   1       0.4164220497      1.0000000000
 P 1 
   1       0.1426082601      1.0000000000
 D 1 
   1       0.8000000000      1.0000000000
  end;

 # Basis set for element : Pd
 NewGTO Pd
 S 2 
   1      18.0000000000     -0.8955869481
   2      14.6621343080      1.8822771923
 S 1 
   1       5.6388709265      1.0000000000
 S 1 
   1       1.3198953252      1.0000000000
 S 1 
   1       0.5781790851      1.0000000000
 S 1 
   1       0.1035216624      1.0000000000
 S 1 
   1       0.0375484427      1.0000000000
 P 4 
   1      12.5528993000      0.0701895210
   2       7.2444496380     -0.2749252830
   3       1.8905941078      0.5623121361
   4       0.9073716876      0.5736959368
 P 1 
   1       0.4087721081      1.0000000000
 P 1 
   1       0.1150000000      1.0000000000
 P 1 
   1       0.0370000000      1.0000000000
 D 4 
   1      22.3574575750      0.0063445039
   2      10.6825263820     -0.0225156052
   3       2.4858232550      0.3884291800
   4       1.0735333903      0.6828976806
 D 1 
   1       0.4261384285      1.0000000000
 D 1 
   1       0.1504635538      1.0000000000
  end;

---------------------------------
AUXILIARY/J BASIS SET INFORMATION
---------------------------------
There are 4 groups of distinct atoms

 Group   1 Type Pd  : 11s5p5d3f3g contracted to 8s5p5d2f3g pattern {41111111/11111/11111/21/111}
 Group   2 Type C   : 8s3p3d contracted to 6s3p3d pattern {311111/111/111}
 Group   3 Type N   : 8s3p3d contracted to 6s3p3d pattern {311111/111/111}
 Group   4 Type H   : 5s2p contracted to 3s1p pattern {311/2}

Atom   0Pd   basis set group =>   1
Atom   1Pd   basis set group =>   1
Atom   2C    basis set group =>   2
Atom   3C    basis set group =>   2
Atom   4C    basis set group =>   2
Atom   5C    basis set group =>   2
Atom   6C    basis set group =>   2
Atom   7C    basis set group =>   2
Atom   8C    basis set group =>   2
Atom   9C    basis set group =>   2
Atom  10C    basis set group =>   2
Atom  11N    basis set group =>   3
Atom  12C    basis set group =>   2
Atom  13C    basis set group =>   2
Atom  14H    basis set group =>   4
Atom  15H    basis set group =>   4
Atom  16H    basis set group =>   4
Atom  17H    basis set group =>   4
Atom  18H    basis set group =>   4
Atom  19H    basis set group =>   4
Atom  20C    basis set group =>   2
Atom  21C    basis set group =>   2
Atom  22C    basis set group =>   2
Atom  23C    basis set group =>   2
Atom  24N    basis set group =>   3
Atom  25C    basis set group =>   2
Atom  26C    basis set group =>   2
Atom  27C    basis set group =>   2
Atom  28C    basis set group =>   2
Atom  29C    basis set group =>   2
Atom  30C    basis set group =>   2
Atom  31C    basis set group =>   2
Atom  32C    basis set group =>   2
Atom  33H    basis set group =>   4
Atom  34H    basis set group =>   4
Atom  35H    basis set group =>   4
Atom  36H    basis set group =>   4
Atom  37H    basis set group =>   4
Atom  38H    basis set group =>   4
Atom  39H    basis set group =>   4
Atom  40C    basis set group =>   2
Atom  41C    basis set group =>   2
Atom  42C    basis set group =>   2
Atom  43C    basis set group =>   2
Atom  44N    basis set group =>   3
Atom  45C    basis set group =>   2
Atom  46H    basis set group =>   4
Atom  47H    basis set group =>   4
Atom  48H    basis set group =>   4
Atom  49H    basis set group =>   4
Atom  50C    basis set group =>   2
Atom  51C    basis set group =>   2
Atom  52C    basis set group =>   2
Atom  53C    basis set group =>   2
Atom  54C    basis set group =>   2
Atom  55C    basis set group =>   2
Atom  56C    basis set group =>   2
Atom  57C    basis set group =>   2
Atom  58C    basis set group =>   2
Atom  59N    basis set group =>   3
Atom  60C    basis set group =>   2
Atom  61C    basis set group =>   2
Atom  62H    basis set group =>   4
Atom  63H    basis set group =>   4
Atom  64H    basis set group =>   4
Atom  65H    basis set group =>   4
Atom  66H    basis set group =>   4
Atom  67H    basis set group =>   4
Atom  68C    basis set group =>   2
Atom  69C    basis set group =>   2
Atom  70C    basis set group =>   2
Atom  71C    basis set group =>   2
Atom  72N    basis set group =>   3
Atom  73C    basis set group =>   2
Atom  74C    basis set group =>   2
Atom  75C    basis set group =>   2
Atom  76C    basis set group =>   2
Atom  77C    basis set group =>   2
Atom  78C    basis set group =>   2
Atom  79C    basis set group =>   2
Atom  80C    basis set group =>   2
Atom  81H    basis set group =>   4
Atom  82H    basis set group =>   4
Atom  83H    basis set group =>   4
Atom  84H    basis set group =>   4
Atom  85H    basis set group =>   4
Atom  86H    basis set group =>   4
Atom  87H    basis set group =>   4
Atom  88C    basis set group =>   2
Atom  89C    basis set group =>   2
Atom  90C    basis set group =>   2
Atom  91C    basis set group =>   2
Atom  92N    basis set group =>   3
Atom  93C    basis set group =>   2
Atom  94H    basis set group =>   4
Atom  95H    basis set group =>   4
Atom  96H    basis set group =>   4
Atom  97H    basis set group =>   4
Atom  98C    basis set group =>   2
Atom  99C    basis set group =>   2
Atom 100C    basis set group =>   2
Atom 101C    basis set group =>   2
Atom 102C    basis set group =>   2
Atom 103C    basis set group =>   2
Atom 104C    basis set group =>   2
Atom 105C    basis set group =>   2
Atom 106C    basis set group =>   2
Atom 107N    basis set group =>   3
Atom 108C    basis set group =>   2
Atom 109C    basis set group =>   2
Atom 110H    basis set group =>   4
Atom 111H    basis set group =>   4
Atom 112H    basis set group =>   4
Atom 113H    basis set group =>   4
Atom 114H    basis set group =>   4
Atom 115H    basis set group =>   4
Atom 116C    basis set group =>   2
Atom 117C    basis set group =>   2
Atom 118C    basis set group =>   2
Atom 119C    basis set group =>   2
Atom 120N    basis set group =>   3
Atom 121C    basis set group =>   2
Atom 122C    basis set group =>   2
Atom 123C    basis set group =>   2
Atom 124C    basis set group =>   2
Atom 125C    basis set group =>   2
Atom 126C    basis set group =>   2
Atom 127C    basis set group =>   2
Atom 128C    basis set group =>   2
Atom 129H    basis set group =>   4
Atom 130H    basis set group =>   4
Atom 131H    basis set group =>   4
Atom 132H    basis set group =>   4
Atom 133H    basis set group =>   4
Atom 134H    basis set group =>   4
Atom 135H    basis set group =>   4
Atom 136C    basis set group =>   2
Atom 137C    basis set group =>   2
Atom 138C    basis set group =>   2
Atom 139C    basis set group =>   2
Atom 140N    basis set group =>   3
Atom 141C    basis set group =>   2
Atom 142H    basis set group =>   4
Atom 143H    basis set group =>   4
Atom 144H    basis set group =>   4
Atom 145H    basis set group =>   4
Atom 146C    basis set group =>   2
Atom 147C    basis set group =>   2
Atom 148C    basis set group =>   2
Atom 149C    basis set group =>   2
Atom 150C    basis set group =>   2
Atom 151C    basis set group =>   2
Atom 152C    basis set group =>   2
Atom 153C    basis set group =>   2
Atom 154C    basis set group =>   2
Atom 155N    basis set group =>   3
Atom 156C    basis set group =>   2
Atom 157C    basis set group =>   2
Atom 158H    basis set group =>   4
Atom 159H    basis set group =>   4
Atom 160H    basis set group =>   4
Atom 161H    basis set group =>   4
Atom 162H    basis set group =>   4
Atom 163H    basis set group =>   4
Atom 164C    basis set group =>   2
Atom 165C    basis set group =>   2
Atom 166C    basis set group =>   2
Atom 167C    basis set group =>   2
Atom 168N    basis set group =>   3
Atom 169C    basis set group =>   2
Atom 170C    basis set group =>   2
Atom 171C    basis set group =>   2
Atom 172C    basis set group =>   2
Atom 173C    basis set group =>   2
Atom 174C    basis set group =>   2
Atom 175C    basis set group =>   2
Atom 176C    basis set group =>   2
Atom 177H    basis set group =>   4
Atom 178H    basis set group =>   4
Atom 179H    basis set group =>   4
Atom 180H    basis set group =>   4
Atom 181H    basis set group =>   4
Atom 182H    basis set group =>   4
Atom 183H    basis set group =>   4
Atom 184C    basis set group =>   2
Atom 185C    basis set group =>   2
Atom 186C    basis set group =>   2
Atom 187C    basis set group =>   2
Atom 188N    basis set group =>   3
Atom 189C    basis set group =>   2
Atom 190H    basis set group =>   4
Atom 191H    basis set group =>   4
Atom 192H    basis set group =>   4
Atom 193H    basis set group =>   4

-------------------------------------
AUXILIARY/J BASIS SET IN INPUT FORMAT
-------------------------------------

 # Auxiliary/J basis set for element : H 
 NewAuxJGTO H 
 S 3 
   1      15.6752927000      0.1007184237
   2       3.6063578000      0.3404257499
   3       1.2080016000      0.6491996172
 S 1 
   1       0.4726794000      1.0000000000
 S 1 
   1       0.2018100000      1.0000000000
 P 2 
   1       2.0281365000      0.5596620919
   2       0.5358730000      0.5596620919
  end;

 # Auxiliary/J basis set for element : C 
 NewAuxJGTO C 
 S 3 
   1     459.7023860000      0.1098751775
   2     132.9577920000      0.2844848472
   3      41.5658170000      0.6964707648
 S 1 
   1      13.9155610000      1.0000000000
 S 1 
   1       4.9305290000     -1.0000000000
 S 1 
   1       1.8229480000      1.0000000000
 S 1 
   1       0.6920510000      1.0000000000
 S 1 
   1       0.2650930000      1.0000000000
 P 1 
   1       0.3278473579      1.0000000000
 P 1 
   1       0.7868336591      1.0000000000
 P 1 
   1       1.9710183160      1.0000000000
 D 1 
   1       4.0133010000      1.0000000000
 D 1 
   1       1.2475050000      1.0000000000
 D 1 
   1       0.4081480000      1.0000000000
  end;

 # Auxiliary/J basis set for element : N 
 NewAuxJGTO N 
 S 3 
   1     680.5425300000      0.1043830093
   2     196.7562140000      0.2751518961
   3      61.2707930000      0.7090825511
 S 1 
   1      20.3644630000      1.0000000000
 S 1 
   1       7.1424770000     -1.0000000000
 S 1 
   1       2.6080260000      1.0000000000
 S 1 
   1       0.9763730000      1.0000000000
 S 1 
   1       0.3686330000      1.0000000000
 P 1 
   1       0.4707391941      1.0000000000
 P 1 
   1       1.1297740658     -1.0000000000
 P 1 
   1       2.8300840347      1.0000000000
 D 1 
   1       5.8329865000      1.0000000000
 D 1 
   1       1.7326865000      1.0000000000
 D 1 
   1       0.5452425000      1.0000000000
  end;

 # Auxiliary/J basis set for element : Pd
 NewAuxJGTO Pd
 S 4 
   1      51.0211803000      0.0154414011
   2      17.6543867000     -0.3899991562
   3      10.3849330000      1.7000917225
   4       6.2315704000     -2.2542519748
 S 1 
   1       3.6656295000     -1.0000000000
 S 1 
   1       2.1995933000      1.0000000000
 S 1 
   1       1.2683839000      1.0000000000
 S 1 
   1       0.7461081000      1.0000000000
 S 1 
   1       0.4477087000      1.0000000000
 S 1 
   1       0.2581689000      1.0000000000
 S 1 
   1       0.1518640000      1.0000000000
 P 1 
   1       5.6999676000      1.0000000000
 P 1 
   1       2.5155374000     -1.0000000000
 P 1 
   1       1.1229524000      1.0000000000
 P 1 
   1       0.5047808000     -1.0000000000
 P 1 
   1       0.2274325000     -1.0000000000
 D 1 
   1       3.8006002000      1.0000000000
 D 1 
   1       1.5882692000     -1.0000000000
 D 1 
   1       0.6550157000     -1.0000000000
 D 1 
   1       0.2680210000      1.0000000000
 D 1 
   1       0.1093843000     -1.0000000000
 F 2 
   1       2.0106185000     -1.3134732431
   2       0.8268460000      0.9210621264
 F 1 
   1       0.3451253000      1.0000000000
 G 1 
   1       7.5375072000      1.0000000000
 G 1 
   1       2.7664349000      1.0000000000
 G 1 
   1       1.0133462000      1.0000000000
  end;

-------------------------
ECP PARAMETER INFORMATION
-------------------------

 Group 1, Type Pd ECP Def2-ECP (replacing 28 core electrons, lmax=3)

Atom   0Pd   ECP group =>   1
Atom   1Pd   ECP group =>   1


-------------------------
ECP BASIS IN INPUT FORMAT
-------------------------

 #ECP Def2-ECP
 NewECP Pd
   N_core 28
   lmax f
   s 4
     1      12.4300000000    240.2290403000  2
     2       6.1707594000     35.1719435000  2
     3      13.2700000000     31.9295543000  2
     4       6.6300000000      5.3982169000  2
   p 4
     1      11.0800000000    170.4172760000  2
     2       5.8295541000     28.4721329000  2
     3      13.2700000000     31.9295543000  2
     4       6.6300000000      5.3982169000  2
   d 4
     1       9.5100000000     69.0138449000  2
     2       4.1397811000     11.7508616000  2
     3      13.2700000000     31.9295543000  2
     4       6.6300000000      5.3982169000  2
   f 2
     1      13.2700000000    -31.9295543000  2
     2       6.6300000000     -5.3982169000  2
 End




           ************************************************************
           *        Program running with 32 parallel MPI-processes    *
           *              working on a common directory               *
           ************************************************************
------------------------------------------------------------------------------
                           ORCA GTO INTEGRAL CALCULATION
                           -- RI-GTO INTEGRALS CHOSEN --
------------------------------------------------------------------------------

                         BASIS SET STATISTICS AND STARTUP INFO

Gaussian basis set:
[...]
 95 H      0.7600     1.0000     0.2400     0.9136     0.9136    -0.0000
 96 H      0.8029     1.0000     0.1971     0.9524     0.9524    -0.0000
 97 H      0.8129     1.0000     0.1871     0.9579     0.9579    -0.0000
 98 C      5.9887     6.0000     0.0113     3.2891     3.2891    -0.0000
 99 C      5.9690     6.0000     0.0310     3.0429     3.0429    -0.0000
100 C      6.2425     6.0000    -0.2425     3.7886     3.7886    -0.0000
101 C      6.0797     6.0000    -0.0797     3.8251     3.8251    -0.0000
102 C      6.1801     6.0000    -0.1801     4.1458     4.1458    -0.0000
103 C      6.2156     6.0000    -0.2156     3.9083     3.9083    -0.0000
104 C      6.0516     6.0000    -0.0516     3.7747     3.7747    -0.0000
105 C      6.1315     6.0000    -0.1315     3.7653     3.7653    -0.0000
106 C      6.1368     6.0000    -0.1368     3.9919     3.9919    -0.0000
107 N      7.1190     7.0000    -0.1190     3.2817     3.2817    -0.0000
108 C      6.1364     6.0000    -0.1364     3.7553     3.7553    -0.0000
109 C      5.6462     6.0000     0.3538     3.2529     3.2529    -0.0000
110 H      0.7535     1.0000     0.2465     0.9009     0.9009    -0.0000
111 H      0.7787     1.0000     0.2213     0.9272     0.9272    -0.0000
112 H      0.7589     1.0000     0.2411     0.9004     0.9004    -0.0000
113 H      0.7524     1.0000     0.2476     0.8943     0.8943    -0.0000
114 H      0.8379     1.0000     0.1621     0.9737     0.9737    -0.0000
115 H      0.8330     1.0000     0.1670     0.9737     0.9737    -0.0000
116 C      6.1225     6.0000    -0.1225     4.0517     4.0517    -0.0000
117 C      6.2240     6.0000    -0.2240     3.9889     3.9889    -0.0000
118 C      6.0725     6.0000    -0.0725     3.8222     3.8222    -0.0000
119 C      5.9397     6.0000     0.0603     4.0252     4.0252    -0.0000
120 N      7.3059     7.0000    -0.3059     3.2520     3.2520    -0.0000
121 C      5.9402     6.0000     0.0598     4.0187     4.0187    -0.0000
122 C      6.1700     6.0000    -0.1700     4.1201     4.1201    -0.0000
123 C      6.2013     6.0000    -0.2013     4.0535     4.0535    -0.0000
124 C      5.9361     6.0000     0.0639     3.6329     3.6329    -0.0000
125 C      6.1643     6.0000    -0.1643     3.5512     3.5512    -0.0000
126 C      6.0464     6.0000    -0.0464     3.9021     3.9021    -0.0000
127 C      5.8951     6.0000     0.1049     3.5732     3.5732    -0.0000
128 C      6.2801     6.0000    -0.2801     3.4209     3.4209    -0.0000
129 H      0.7886     1.0000     0.2114     0.9185     0.9185    -0.0000
130 H      0.7887     1.0000     0.2113     0.9237     0.9237    -0.0000
131 H      0.6277     1.0000     0.3723     0.8366     0.8366    -0.0000
132 H      0.7906     1.0000     0.2094     0.9269     0.9269    -0.0000
133 H      0.7837     1.0000     0.2163     0.9170     0.9170    -0.0000
134 H      0.7804     1.0000     0.2196     0.8835     0.8835    -0.0000
135 H      0.8031     1.0000     0.1969     0.9095     0.9095    -0.0000
136 C      6.0280     6.0000    -0.0280     3.7760     3.7760    -0.0000
137 C      6.1925     6.0000    -0.1925     4.0135     4.0135    -0.0000
138 C      6.0326     6.0000    -0.0326     3.8645     3.8645    -0.0000
139 C      6.1499     6.0000    -0.1499     3.9303     3.9303    -0.0000
140 N      7.1008     7.0000    -0.1008     3.3057     3.3057    -0.0000
141 C      6.1542     6.0000    -0.1542     3.8080     3.8080    -0.0000
142 H      0.7555     1.0000     0.2445     0.9073     0.9073    -0.0000
143 H      0.7571     1.0000     0.2429     0.9129     0.9129    -0.0000
144 H      0.7996     1.0000     0.2004     0.9563     0.9563    -0.0000
145 H      0.8101     1.0000     0.1899     0.9596     0.9596    -0.0000
146 C      5.9883     6.0000     0.0117     3.2889     3.2889    -0.0000
147 C      5.9695     6.0000     0.0305     3.0433     3.0433    -0.0000
148 C      6.2422     6.0000    -0.2422     3.7876     3.7876    -0.0000
149 C      6.0799     6.0000    -0.0799     3.8252     3.8252    -0.0000
150 C      6.1801     6.0000    -0.1801     4.1456     4.1456    -0.0000
151 C      6.2156     6.0000    -0.2156     3.9082     3.9082    -0.0000
152 C      6.0517     6.0000    -0.0517     3.7748     3.7748    -0.0000
153 C      6.1317     6.0000    -0.1317     3.7655     3.7655    -0.0000
154 C      6.1366     6.0000    -0.1366     3.9918     3.9918    -0.0000
155 N      7.1189     7.0000    -0.1189     3.2818     3.2818    -0.0000
156 C      6.1359     6.0000    -0.1359     3.7554     3.7554    -0.0000
157 C      5.6466     6.0000     0.3534     3.2538     3.2538    -0.0000
158 H      0.7535     1.0000     0.2465     0.9009     0.9009    -0.0000
159 H      0.7787     1.0000     0.2213     0.9272     0.9272    -0.0000
160 H      0.7589     1.0000     0.2411     0.9004     0.9004    -0.0000
161 H      0.7524     1.0000     0.2476     0.8942     0.8942    -0.0000
162 H      0.8380     1.0000     0.1620     0.9737     0.9737    -0.0000
163 H      0.8332     1.0000     0.1668     0.9738     0.9738    -0.0000
164 C      6.1224     6.0000    -0.1224     4.0521     4.0521    -0.0000
165 C      6.2245     6.0000    -0.2245     3.9891     3.9891    -0.0000
166 C      6.0720     6.0000    -0.0720     3.8217     3.8217    -0.0000
167 C      5.9396     6.0000     0.0604     4.0246     4.0246    -0.0000
168 N      7.3061     7.0000    -0.3061     3.2523     3.2523    -0.0000
169 C      5.9406     6.0000     0.0594     4.0186     4.0186    -0.0000
170 C      6.1696     6.0000    -0.1696     4.1206     4.1206    -0.0000
171 C      6.2018     6.0000    -0.2018     4.0538     4.0538    -0.0000
172 C      5.9353     6.0000     0.0647     3.6334     3.6334    -0.0000
173 C      6.1640     6.0000    -0.1640     3.5515     3.5515    -0.0000
174 C      6.0472     6.0000    -0.0472     3.9036     3.9036    -0.0000
175 C      5.8948     6.0000     0.1052     3.5736     3.5736    -0.0000
176 C      6.2800     6.0000    -0.2800     3.4211     3.4211    -0.0000
177 H      0.7886     1.0000     0.2114     0.9185     0.9185    -0.0000
178 H      0.7887     1.0000     0.2113     0.9236     0.9236    -0.0000
179 H      0.6277     1.0000     0.3723     0.8366     0.8366    -0.0000
180 H      0.7906     1.0000     0.2094     0.9269     0.9269    -0.0000
181 H      0.7837     1.0000     0.2163     0.9171     0.9171    -0.0000
182 H      0.7806     1.0000     0.2194     0.8836     0.8836    -0.0000
183 H      0.8031     1.0000     0.1969     0.9095     0.9095    -0.0000
184 C      6.0278     6.0000    -0.0278     3.7756     3.7756    -0.0000
185 C      6.1926     6.0000    -0.1926     4.0133     4.0133    -0.0000
186 C      6.0326     6.0000    -0.0326     3.8645     3.8645    -0.0000
187 C      6.1498     6.0000    -0.1498     3.9303     3.9303    -0.0000
188 N      7.1008     7.0000    -0.1008     3.3058     3.3058    -0.0000
189 C      6.1544     6.0000    -0.1544     3.8079     3.8079    -0.0000
190 H      0.7556     1.0000     0.2444     0.9073     0.9073    -0.0000
191 H      0.7571     1.0000     0.2429     0.9129     0.9129    -0.0000
192 H      0.7996     1.0000     0.2004     0.9563     0.9563    -0.0000
193 H      0.8102     1.0000     0.1898     0.9596     0.9596    -0.0000

  Mayer bond orders larger than 0.100000
B(  0-Pd, 44-N ) :   0.4954 B(  0-Pd, 59-N ) :   0.5158 B(  0-Pd,140-N ) :   0.5048 
B(  0-Pd,155-N ) :   0.5035 B(  1-Pd, 11-N ) :   0.5158 B(  1-Pd, 92-N ) :   0.4956 
B(  1-Pd,107-N ) :   0.5035 B(  1-Pd,188-N ) :   0.5049 B(  2-C ,  3-C ) :   1.8600 
B(  2-C ,  4-C ) :  -0.3523 B(  2-C , 20-C ) :   1.5722 B(  2-C , 31-C ) :   0.1093 
B(  2-C , 32-C ) :  -0.1522 B(  3-C ,  4-C ) :   1.4883 B(  3-C ,  5-C ) :  -0.1061 
B(  3-C , 13-C ) :  -0.2243 B(  3-C , 20-C ) :  -0.3830 B(  3-C , 32-C ) :   0.1215 
B(  4-C ,  5-C ) :   1.5700 B(  4-C , 13-C ) :   1.0849 B(  5-C ,  6-C ) :   1.4101 
B(  5-C , 14-H ) :   0.8516 B(  6-C ,  7-C ) :   1.6295 B(  6-C , 15-H ) :   0.8786 
B(  7-C ,  8-C ) :   1.3649 B(  7-C , 13-C ) :  -0.1234 B(  7-C , 16-H ) :   0.8626 
B(  8-C ,  9-C ) :   1.2830 B(  8-C , 12-C ) :  -0.1080 B(  8-C , 13-C ) :   1.0496 
B(  9-C , 10-C ) :   1.5625 B(  9-C , 17-H ) :   0.8805 B( 10-C , 11-N ) :   1.2516 
B( 10-C , 18-H ) :   0.9188 B( 11-N , 12-C ) :   1.4280 B( 12-C , 13-C ) :   1.4179 
B( 12-C , 19-H ) :   0.8703 B( 20-C , 21-C ) :   1.3290 B( 20-C , 32-C ) :   1.3323 
B( 21-C , 22-C ) :   1.6058 B( 21-C , 33-H ) :   0.8974 B( 22-C , 23-C ) :   1.3292 
B( 22-C , 34-H ) :   0.8415 B( 23-C , 24-N ) :   1.1573 B( 23-C , 25-C ) :   0.1045 
B( 23-C , 30-C ) :  -0.1246 B( 23-C , 31-C ) :   1.2694 B( 24-N , 25-C ) :   1.1909 
B( 24-N , 35-H ) :   0.7951 B( 25-C , 26-C ) :   1.3486 B( 25-C , 30-C ) :   1.2193 
B( 26-C , 27-C ) :   1.6996 B( 26-C , 36-H ) :   0.8442 B( 27-C , 28-C ) :   1.2590 
B( 27-C , 37-H ) :   0.8595 B( 28-C , 29-C ) :   1.2774 B( 28-C , 30-C ) :   0.1137 
B( 28-C , 40-C ) :   0.9007 B( 29-C , 30-C ) :   1.5107 B( 29-C , 31-C ) :  -0.1529 
B( 29-C , 38-H ) :   0.8194 B( 30-C , 31-C ) :   1.1204 B( 30-C , 32-C ) :  -0.1596 
B( 31-C , 32-C ) :   1.3040 B( 32-C , 39-H ) :   0.9319 B( 40-C , 41-C ) :   1.3676 
B( 40-C , 45-C ) :   1.3410 B( 41-C , 42-C ) :   1.5109 B( 41-C , 46-H ) :   0.8784 
B( 42-C , 43-C ) :   1.4219 B( 42-C , 47-H ) :   0.8688 B( 43-C , 44-N ) :   1.3548 
B( 43-C , 48-H ) :   0.9288 B( 44-N , 45-C ) :   1.3807 B( 44-N ,140-N ) :   0.1068 
B( 45-C , 49-H ) :   0.9267 B( 50-C , 51-C ) :   1.8597 B( 50-C , 52-C ) :  -0.3527 
B( 50-C , 68-C ) :   1.5731 B( 50-C , 79-C ) :   0.1092 B( 50-C , 80-C ) :  -0.1522 
B( 51-C , 52-C ) :   1.4886 B( 51-C , 53-C ) :  -0.1061 B( 51-C , 61-C ) :  -0.2245 
B( 51-C , 68-C ) :  -0.3832 B( 51-C , 80-C ) :   0.1216 B( 52-C , 53-C ) :   1.5698 
B( 52-C , 61-C ) :   1.0848 B( 53-C , 54-C ) :   1.4100 B( 53-C , 62-H ) :   0.8516 
B( 54-C , 55-C ) :   1.6296 B( 54-C , 63-H ) :   0.8786 B( 55-C , 56-C ) :   1.3647 
B( 55-C , 61-C ) :  -0.1234 B( 55-C , 64-H ) :   0.8626 B( 56-C , 57-C ) :   1.2829 
B( 56-C , 60-C ) :  -0.1080 B( 56-C , 61-C ) :   1.0495 B( 57-C , 58-C ) :   1.5625 
B( 57-C , 65-H ) :   0.8805 B( 58-C , 59-N ) :   1.2516 B( 58-C , 66-H ) :   0.9187 
B( 59-N , 60-C ) :   1.4281 B( 60-C , 61-C ) :   1.4176 B( 60-C , 67-H ) :   0.8702 
B( 68-C , 69-C ) :   1.3290 B( 68-C , 80-C ) :   1.3316 B( 69-C , 70-C ) :   1.6061 
B( 69-C , 81-H ) :   0.8974 B( 70-C , 71-C ) :   1.3291 B( 70-C , 82-H ) :   0.8415 
B( 71-C , 72-N ) :   1.1574 B( 71-C , 73-C ) :   0.1045 B( 71-C , 78-C ) :  -0.1248 
B( 71-C , 79-C ) :   1.2696 B( 72-N , 73-C ) :   1.1908 B( 72-N , 83-H ) :   0.7950 
B( 73-C , 74-C ) :   1.3487 B( 73-C , 78-C ) :   1.2192 B( 74-C , 75-C ) :   1.6996 
B( 74-C , 84-H ) :   0.8442 B( 75-C , 76-C ) :   1.2585 B( 75-C , 85-H ) :   0.8596 
B( 76-C , 77-C ) :   1.2775 B( 76-C , 78-C ) :   0.1139 B( 76-C , 88-C ) :   0.9006 
B( 77-C , 78-C ) :   1.5104 B( 77-C , 79-C ) :  -0.1532 B( 77-C , 86-H ) :   0.8193 
B( 78-C , 79-C ) :   1.1213 B( 78-C , 80-C ) :  -0.1597 B( 79-C , 80-C ) :   1.3040 
B( 80-C , 87-H ) :   0.9322 B( 88-C , 89-C ) :   1.3679 B( 88-C , 93-C ) :   1.3407 
B( 89-C , 90-C ) :   1.5108 B( 89-C , 94-H ) :   0.8783 B( 90-C , 91-C ) :   1.4218 
B( 90-C , 95-H ) :   0.8689 B( 91-C , 92-N ) :   1.3546 B( 91-C , 96-H ) :   0.9288 
B( 92-N , 93-C ) :   1.3809 B( 92-N ,188-N ) :   0.1068 B( 93-C , 97-H ) :   0.9267 
B( 98-C , 99-C ) :   1.8842 B( 98-C ,100-C ) :  -0.3190 B( 98-C ,116-C ) :   1.5468 
B( 98-C ,128-C ) :  -0.1131 B( 99-C ,100-C ) :   1.4399 B( 99-C ,101-C ) :  -0.1065 
B( 99-C ,109-C ) :  -0.2104 B( 99-C ,116-C ) :  -0.3443 B(100-C ,101-C ) :   1.5684 
B(100-C ,109-C ) :   1.1189 B(101-C ,102-C ) :   1.3952 B(101-C ,110-H ) :   0.8501 
B(102-C ,103-C ) :   1.6310 B(102-C ,111-H ) :   0.8783 B(103-C ,104-C ) :   1.3477 
B(103-C ,109-C ) :  -0.1197 B(103-C ,112-H ) :   0.8633 B(104-C ,105-C ) :   1.2880 
B(104-C ,108-C ) :  -0.1069 B(104-C ,109-C ) :   1.0665 B(105-C ,106-C ) :   1.5839 
B(105-C ,113-H ) :   0.8813 B(106-C ,107-N ) :   1.2525 B(106-C ,114-H ) :   0.9138 
B(107-N ,108-C ) :   1.4483 B(108-C ,109-C ) :   1.4054 B(108-C ,115-H ) :   0.8826 
B(116-C ,117-C ) :   1.3221 B(116-C ,128-C ) :   1.3959 B(117-C ,118-C ) :   1.5595 
B(117-C ,129-H ) :   0.8782 B(118-C ,119-C ) :   1.4197 B(118-C ,130-H ) :   0.8104 
B(119-C ,120-N ) :   1.1542 B(119-C ,121-C ) :   0.1189 B(119-C ,126-C ) :  -0.1071 
B(119-C ,127-C ) :   1.2366 B(120-N ,121-C ) :   1.1902 B(120-N ,131-H ) :   0.7982 
B(121-C ,122-C ) :   1.4657 B(121-C ,126-C ) :   1.2421 B(121-C ,127-C ) :  -0.1533 
B(122-C ,123-C ) :   1.6858 B(122-C ,132-H ) :   0.7970 B(123-C ,124-C ) :   1.3095 
B(123-C ,133-H ) :   0.8331 B(124-C ,125-C ) :   1.2952 B(124-C ,136-C ) :   0.9443 
B(125-C ,126-C ) :   1.5328 B(125-C ,127-C ) :  -0.1593 B(125-C ,134-H ) :   0.8458 
B(126-C ,127-C ) :   1.1821 B(126-C ,128-C ) :  -0.1833 B(127-C ,128-C ) :   1.3052 
B(128-C ,135-H ) :   0.9411 B(136-C ,137-C ) :   1.4471 B(136-C ,141-C ) :   1.3447 
B(137-C ,138-C ) :   1.5121 B(137-C ,142-H ) :   0.8771 B(138-C ,139-C ) :   1.4096 
B(138-C ,143-H ) :   0.8697 B(139-C ,140-N ) :   1.3504 B(139-C ,144-H ) :   0.9241 
B(140-N ,141-C ) :   1.3738 B(141-C ,145-H ) :   0.9104 B(146-C ,147-C ) :   1.8843 
B(146-C ,148-C ) :  -0.3191 B(146-C ,164-C ) :   1.5463 B(146-C ,176-C ) :  -0.1128 
B(147-C ,148-C ) :   1.4394 B(147-C ,149-C ) :  -0.1065 B(147-C ,157-C ) :  -0.2101 
B(147-C ,164-C ) :  -0.3439 B(148-C ,149-C ) :   1.5682 B(148-C ,157-C ) :   1.1190 
B(149-C ,150-C ) :   1.3954 B(149-C ,158-H ) :   0.8502 B(150-C ,151-C ) :   1.6308 
B(150-C ,159-H ) :   0.8783 B(151-C ,152-C ) :   1.3478 B(151-C ,157-C ) :  -0.1198 
B(151-C ,160-H ) :   0.8633 B(152-C ,153-C ) :   1.2881 B(152-C ,156-C ) :  -0.1070 
B(152-C ,157-C ) :   1.0665 B(153-C ,154-C ) :   1.5840 B(153-C ,161-H ) :   0.8813 
B(154-C ,155-N ) :   1.2524 B(154-C ,162-H ) :   0.9138 B(155-N ,156-C ) :   1.4485 
B(156-C ,157-C ) :   1.4058 B(156-C ,163-H ) :   0.8825 B(164-C ,165-C ) :   1.3221 
B(164-C ,176-C ) :   1.3963 B(165-C ,166-C ) :   1.5597 B(165-C ,177-H ) :   0.8782 
B(166-C ,167-C ) :   1.4194 B(166-C ,178-H ) :   0.8104 B(167-C ,168-N ) :   1.1544 
B(167-C ,169-C ) :   0.1189 B(167-C ,174-C ) :  -0.1072 B(167-C ,175-C ) :   1.2362 
B(168-N ,169-C ) :   1.1902 B(168-N ,179-H ) :   0.7982 B(169-C ,170-C ) :   1.4662 
B(169-C ,174-C ) :   1.2420 B(169-C ,175-C ) :  -0.1535 B(170-C ,171-C ) :   1.6860 
B(170-C ,180-H ) :   0.7968 B(171-C ,172-C ) :   1.3095 B(171-C ,181-H ) :   0.8330 
B(172-C ,173-C ) :   1.2958 B(172-C ,184-C ) :   0.9444 B(173-C ,174-C ) :   1.5328 
B(173-C ,175-C ) :  -0.1595 B(173-C ,182-H ) :   0.8457 B(174-C ,175-C ) :   1.1830 
B(174-C ,176-C ) :  -0.1833 B(175-C ,176-C ) :   1.3051 B(176-C ,183-H ) :   0.9410 
B(184-C ,185-C ) :   1.4469 B(184-C ,189-C ) :   1.3445 B(185-C ,186-C ) :   1.5121 
B(185-C ,190-H ) :   0.8772 B(186-C ,187-C ) :   1.4096 B(186-C ,191-H ) :   0.8696 
B(187-C ,188-N ) :   1.3503 B(187-C ,192-H ) :   0.9241 B(188-N ,189-C ) :   1.3739 
B(189-C ,193-H ) :   0.9105 

-------
TIMINGS
-------

Total SCF time: 0 days 0 hours 14 min 57 sec 

Total time                  ....     897.210 sec
Sum of individual times     ....     880.597 sec  ( 98.1%)

Fock matrix formation       ....     316.798 sec  ( 35.3%)
  Split-RI-J                ....     146.905 sec  ( 46.4% of F)
  XC integration            ....     143.259 sec  ( 45.2% of F)
    Basis function eval.    ....      24.670 sec  ( 17.2% of XC)
    Density eval.           ....      64.948 sec  ( 45.3% of XC)
    XC-Functional eval.     ....       7.519 sec  (  5.2% of XC)
    XC-Potential eval.      ....      21.806 sec  ( 15.2% of XC)
Diagonalization             ....      74.149 sec  (  8.3%)
Density matrix formation    ....       3.286 sec  (  0.4%)
Population analysis         ....      17.876 sec  (  2.0%)
Initial guess               ....      17.223 sec  (  1.9%)
Orbital Transformation      ....       0.000 sec  (  0.0%)
Orbital Orthonormalization  ....       0.000 sec  (  0.0%)
DIIS solution               ....     407.288 sec  ( 45.4%)
Grid generation             ....      43.978 sec  (  4.9%)


-------------------------------------------------------------------------------
                          DFT DISPERSION CORRECTION                            
                                                                               
                              DFTD3 V3.1  Rev 1                                
                          USING Becke-Johnson damping                          
-------------------------------------------------------------------------------
The B97-3c composite method is recognized
Using three-body term ABC
Active option DFTDOPT                   ...         4   

molecular C6(AA) [au] = 574653.492607 


            DFT-D V3
 parameters
 s6 scaling factor         :     1.0000 
 a1 scaling factor         :     0.3700 
 s8 scaling factor         :     1.5000 
 a2 scaling factor         :     4.1000 
 Damping factor alpha9(ATM):    16.0000 
 ad hoc parameters k1-k3   :    16.0000     1.3333    -4.0000 

 Edisp/kcal,au: -506.136326285253  -0.806579491172 
 E6   /kcal   : -254.405469276 
 E8   /kcal   : -254.581235788 
 E6(ABC)      :   2.850378779 
 % E8         :  50.298945673 
 % E6(ABC)    :  -0.563164237 

-------------------------   ----------------
Dispersion correction           -0.806579491
-------------------------   ----------------

------------------   -----------------
SRB correction            -0.780162741
------------------   -----------------

-------------------------   --------------------
FINAL SINGLE POINT ENERGY     -5218.987121429207
-------------------------   --------------------


                            ***************************************
                            *     ORCA property calculations      *
                            ***************************************

                                    ---------------------
                                    Active property flags
                                    ---------------------
   (+) Dipole Moment


------------------------------------------------------------------------------
                       ORCA ELECTRIC PROPERTIES CALCULATION
------------------------------------------------------------------------------

Dipole Moment Calculation                       ... on
Quadrupole Moment Calculation                   ... off
Polarizability Calculation                      ... off
GBWName                                         ... _s_4c1_d_B97-3c.gbw
Electron density file                           ... _s_4c1_d_B97-3c.scfp
The origin for moment calculation is the CENTER OF MASS  = ( 0.079004,  0.619658 -0.163673)

-------------
DIPOLE MOMENT
-------------
                                X             Y             Z
Electronic contribution:    -33.54390      -2.84962     -37.21838
Nuclear contribution   :     33.86404       2.87707      37.57339
                        -----------------------------------------
Total Dipole Moment    :      0.32014       0.02745       0.35502
                        -----------------------------------------
Magnitude (a.u.)       :      0.47883
Magnitude (Debye)      :      1.21710



--------------------
Rotational spectrum 
--------------------
 
Rotational constants in cm-1:     0.000400     0.000326     0.000274 
Rotational constants in MHz :    11.997751     9.763966     8.228716 

 Dipole components along the rotational axes: 
x,y,z [a.u.] :    -0.000564     0.000248     0.478833 
x,y,z [Debye]:    -0.001435     0.000630     1.217097 

 

Timings for individual modules:

Sum of individual times         ...      984.172 sec (=  16.403 min)
GTO integral calculation        ...       53.349 sec (=   0.889 min)   5.4 %
SCF iterations                  ...      930.823 sec (=  15.514 min)  94.6 %
                             ****ORCA TERMINATED NORMALLY****
TOTAL RUN TIME: 0 days 0 hours 17 minutes 3 seconds 972 msec
