Job execution start: Tue Jun 22 09:53:34 BST 2021
Shared library path: /work/e05/e05/atarzia/orca_4_2_1_linux_x86-64_openmpi314:/work/e05/e05/atarzia/openmpi-3.1.4/lib:/opt/cray/pe/papi/6.0.0.4/lib64:/opt/cray/libfabric/1.11.0.0.233/lib64
Slurm Job ID is: 344314
Slurm Job name is: s_4c1_c_PBE0
nid001179

                                 *****************
                                 * O   R   C   A *
                                 *****************

           --- An Ab Initio, DFT and Semiempirical electronic structure package ---

                  #######################################################
                  #                        -***-                        #
                  #          Department of theory and spectroscopy      #
                  #               Directorship: Frank Neese             #
                  #        Max Planck Institute fuer Kohlenforschung    #
                  #                Kaiser Wilhelm Platz 1               #
                  #                 D-45470 Muelheim/Ruhr               #
                  #                      Germany                        #
                  #                                                     #
                  #                  All rights reserved                #
                  #                        -***-                        #
                  #######################################################


                         Program Version 4.2.1 -  RELEASE  -


 With contributions from (in alphabetic order):
   Daniel Aravena         : Magnetic Suceptibility
   Michael Atanasov       : Ab Initio Ligand Field Theory (pilot matlab implementation)
   Alexander A. Auer      : GIAO ZORA, VPT2
   Ute Becker             : Parallelization
   Giovanni Bistoni       : ED, misc. LED, open-shell LED, HFLD
   Martin Brehm           : Molecular dynamics
   Dmytro Bykov           : SCF Hessian
   Vijay G. Chilkuri      : MRCI spin determinant printing, contributions to CSF-ICE
   Dipayan Datta          : RHF DLPNO-CCSD density
   Achintya Kumar Dutta   : EOM-CC, STEOM-CC
   Dmitry Ganyushin       : Spin-Orbit,Spin-Spin,Magnetic field MRCI
   Miquel Garcia          : C-PCM Hessian, Gaussian charge scheme
   Yang Guo               : DLPNO-NEVPT2, CIM, IAO-localization
   Andreas Hansen         : Spin unrestricted coupled pair/coupled cluster methods
   Benjamin Helmich-Paris : CASSCF linear response (MC-RPA)
   Lee Huntington         : MR-EOM, pCC
   Robert Izsak           : Overlap fitted RIJCOSX, COSX-SCS-MP3, EOM
   Christian Kollmar      : KDIIS, OOCD, Brueckner-CCSD(T), CCSD density
   Simone Kossmann        : Meta GGA functionals, TD-DFT gradient, OOMP2, MP2 Hessian
   Martin Krupicka        : AUTO-CI
   Lucas Lang             : DCDCAS
   Dagmar Lenk            : GEPOL surface, SMD
   Dimitrios Liakos       : Extrapolation schemes; Compound Job, initial MDCI parallelization
   Dimitrios Manganas     : Further ROCIS development; embedding schemes
   Dimitrios Pantazis     : SARC Basis sets
   Taras Petrenko         : DFT Hessian,TD-DFT gradient, ASA, ECA, R-Raman, ABS, FL, XAS/XES, NRVS
   Peter Pinski           : DLPNO-MP2, DLPNO-MP2 Gradient
   Christoph Reimann      : Effective Core Potentials
   Marius Retegan         : Local ZFS, SOC
   Christoph Riplinger    : Optimizer, TS searches, QM/MM, DLPNO-CCSD(T), (RO)-DLPNO pert. Triples
   Tobias Risthaus        : Range-separated hybrids, TD-DFT gradient, RPA, STAB
   Michael Roemelt        : Original ROCIS implementation
   Masaaki Saitow         : Open-shell DLPNO-CCSD energy and density
   Barbara Sandhoefer     : DKH picture change effects
   Avijit Sen             : IP-ROCIS
   Kantharuban Sivalingam : CASSCF convergence, NEVPT2, FIC-MRCI
   Bernardo de Souza      : ESD, SOC TD-DFT
   Georgi Stoychev        : AutoAux, RI-MP2 NMR
   Willem Van den Heuvel  : Paramagnetic NMR
   Boris Wezisla          : Elementary symmetry handling
   Frank Wennmohs         : Technical directorship


 We gratefully acknowledge several colleagues who have allowed us to
 interface, adapt or use parts of their codes:
   Stefan Grimme, W. Hujo, H. Kruse,             : VdW corrections, initial TS optimization,
                  C. Bannwarth                     DFT functionals, gCP, sTDA/sTD-DF
   Ed Valeev, F. Pavosevic, A. Kumar             : LibInt (2-el integral package), F12 methods
   Garnet Chan, S. Sharma, J. Yang, R. Olivares  : DMRG
   Ulf Ekstrom                                   : XCFun DFT Library
   Mihaly Kallay                                 : mrcc  (arbitrary order and MRCC methods)
   Andreas Klamt, Michael Diedenhofen            : otool_cosmo (COSMO solvation model)
   Jiri Pittner, Ondrej Demel                    : Mk-CCSD
   Frank Weinhold                                : gennbo (NPA and NBO analysis)
   Christopher J. Cramer and Donald G. Truhlar   : smd solvation model
   Lars Goerigk                                  : TD-DFT with DH, B97 family of functionals
   V. Asgeirsson, H. Jonsson                     : NEB implementation
   FAccTs GmbH                                   : IRC, NEB, NEB-TS, Multilevel, MM, QM/MM, CI optimization
   S Lehtola, MJT Oliveira, MAL Marques          : LibXC Library


 Your calculation uses the libint2 library for the computation of 2-el integrals
 For citations please refer to: http://libint.valeyev.net

 Your ORCA version has been built with support for libXC version: 4.2.3
 For citations please refer to: https://tddft.org/programs/libxc/

 This ORCA versions uses:
   CBLAS   interface :  Fast vector & matrix operations
   LAPACKE interface :  Fast linear algebra routines
   SCALAPACK package :  Parallel linear algebra routines




***************************************
The coordinates will be read from file: s_4c1_c.xyz
***************************************


Your calculation utilizes the atom-pairwise dispersion correction
with the Becke-Johnson damping scheme (D3BJ)
Cite in your paper:
S.Grimme, S.Ehrlich, L.Goerigk, J Comput Chem, (2011), 32, 1456–1465 
S.Grimme, J.Antony, S.Ehrlich and H.Krieg, J.Chem.Phys., 132, (2010), 154104 
   

----- Orbital basis set information -----
Your calculation utilizes the basis: def2-SVP
   F. Weigend and R. Ahlrichs, Phys. Chem. Chem. Phys. 7, 3297 (2005).

cite the ECPs for Pd [Def2-ECP] as follows:
Ce-Yb(ecp-28): M. Dolg, H. Stoll, H.Preuss, J. Chem. Phys., 1989, 90, 1730-1734.
Y-Cd(ecp-28), Hf-Hg(ecp-46): D. Andrae,U. Haeussermann, M. Dolg, H. Stoll, H. Preuss, Theor. Chim. Acta, 1990, 77, 123-141.
In-Sb(ecp-28), Tl-Bi(ecp-46): B. Metz, H. Stoll, M. Dolg, J. Chem. Phys., 2000, 113, 2563-2569.
Te-Xe(ecp-28), Po-Rn(ecp-46): K. A. Peterson, D. Figgen, E. Goll, H. Stoll, M. Dolg, J. Chem. Phys., 2003, 119, 11113-11123.
Rb(ecp-28), Cs(ecp-46): T. Leininger, A. Nicklass, W. Kuechle, H. Stoll, M. Dolg, A. Bergner, Chem. Phys. Lett., 1996, 255, 274-280.
Sr(ecp-28), Ba(ecp-46): M. Kaupp, P. V. Schleyer, H. Stoll and H. Preuss, J. Chem. Phys., 1991, 94, 1360-1366.
La(ecp-46): M. Dolg, H. Stoll, A. Savin, H. Preuss, Theor. Chim. Acta, 1989, 75, 173-194.
Lu(ecp-28): X. Cao, M. Dolg, J. Chem. Phys., 2001, 115, 7348-7355.

ECP parameters for Pd [Def2-ECP] have been obtained from:
TURBOMOLE (7.0.2)

================================================================================
                                        WARNINGS
                       Please study these warnings very carefully!
================================================================================


INFO   : the flag for use of LIBINT has been found!

================================================================================
                                       INPUT FILE
================================================================================
NAME = s_4c1_c_PBE0.in
|  1> ! DFT SP RKS PBE0 def2-SVP D3BJ Grid6 NOFINALGRID SlowConv TightSCF printbasis 
|  2> 
|  3> %base "_s_4c1_c_PBE0"
|  4> %maxcore 3000
|  5> %scf
|  6>    MaxIter 2000
|  7> end
|  8> %pal
|  9>    nprocs 32
| 10> end
| 11> 
| 12> * xyzfile 4 1 s_4c1_c.xyz
| 13> 
| 14>                          ****END OF INPUT****
================================================================================

                       ****************************
                       * Single Point Calculation *
                       ****************************

---------------------------------
CARTESIAN COORDINATES (ANGSTROEM)
---------------------------------
  Pd    -0.379800    5.318700    0.261000
  Pd     0.188800   -6.906800    1.530200
  C      4.552800   -2.812600    1.637000
  C      4.378000   -3.474200    2.635200
  C      4.298700   -4.276800    3.792800
  C      5.193000   -4.088900    4.828900
  C      5.207600   -4.946700    5.934600
  C      4.352300   -6.017000    6.014200
  C      3.426800   -6.251600    4.981400
  C      2.544500   -7.355900    4.970800
  C      1.672400   -7.523600    3.933800
  N      1.591700   -6.633200    2.913800
  C      2.406500   -5.596000    2.882900
  C      3.372500   -5.359300    3.871800
  H      5.904900   -3.280500    4.769700
  H      5.921500   -4.771300    6.725400
  H      4.386400   -6.691900    6.855000
  H      2.574200   -8.065500    5.782200
  H      0.997100   -8.373600    3.881300
  H      2.309800   -4.901500    2.050900
  C      4.891800   -2.159500    0.429300
  C      5.791200   -2.838600   -0.414100
  C      6.244600   -2.268900   -1.581300
  C      5.780000   -1.002400   -1.906000
  N      6.081900   -0.225000   -2.993600
  C      5.405700    0.956300   -2.902800
  C      5.403600    2.041900   -3.767400
  C      4.628300    3.128900   -3.436500
  C      3.860400    3.165900   -2.258300
  C      3.851600    2.064000   -1.403900
  C      4.616100    0.954000   -1.725300
  C      4.857500   -0.313400   -1.081300
  C      4.411800   -0.896500    0.097600
  H      6.140200   -3.817100   -0.122800
  H      6.948400   -2.785800   -2.214000
  H      6.788000   -0.439000   -3.678100
  H      5.995700    2.039700   -4.669400
  H      4.595600    3.963900   -4.118000
  H      3.298200    2.077800   -0.479700
  H      3.725300   -0.382200    0.750200
  C      3.091400    4.376800   -1.956200
  C      3.519300    5.643200   -2.380400
  C      2.745700    6.760600   -2.124700
  C      1.561300    6.614200   -1.421900
  N      1.168900    5.418900   -0.979100
  C      1.896500    4.331800   -1.236200
  H      4.461500    5.752800   -2.893000
  H      3.060500    7.736300   -2.457300
  H      0.909800    7.457000   -1.205300
  H      1.500100    3.391300   -0.859000
  C     -0.137800   -2.620700    5.482800
  C     -1.158100   -3.264300    5.394600
  C     -2.291500   -4.102200    5.381000
  C     -3.368500   -3.863600    6.212200
  C     -4.427900   -4.775400    6.293800
  C     -4.412500   -5.948100    5.580000
  C     -3.343400   -6.224200    4.708500
  C     -3.235000   -7.419500    3.963100
  C     -2.179200   -7.603000    3.117200
  N     -1.237700   -6.646300    2.915700
  C     -1.290300   -5.529000    3.617400
  C     -2.292000   -5.274100    4.566000
  H     -3.380700   -2.974700    6.824000
  H     -5.253900   -4.559100    6.954200
  H     -5.209900   -6.667500    5.680600
  H     -3.987000   -8.184300    4.073600
  H     -2.053500   -8.526500    2.562300
  H     -0.519600   -4.782500    3.435500
  C      1.067100   -1.897600    5.619300
  C      2.142700   -2.511000    6.286700
  C      3.337500   -1.851700    6.476300
  C      3.456400   -0.562400    5.974500
  N      4.524400    0.295800    6.009400
  C      4.184900    1.464200    5.389200
  C      4.933800    2.615600    5.181100
  C      4.333400    3.666900    4.524200
  C      3.005300    3.597600    4.066700
  C      2.261800    2.436500    4.264400
  C      2.849500    1.370500    4.922600
  C      2.381500    0.063200    5.295900
  C      1.179900   -0.603700    5.120100
  H      2.016500   -3.512600    6.668700
  H      4.150800   -2.322200    7.006000
  H      5.402400    0.116500    6.468000
  H      5.953700    2.689400    5.524700
  H      4.911600    4.557500    4.335100
  H      1.230800    2.374100    3.956400
  H      0.348900   -0.138000    4.615800
  C      2.408500    4.753300    3.394300
  C      2.745700    6.066700    3.744600
  C      2.168700    7.129800    3.073400
  C      1.250600    6.873000    2.069400
  N      0.911100    5.622900    1.744400
  C      1.470500    4.591600    2.373200
  H      3.441300    6.249800    4.548000
  H      2.421300    8.146000    3.328900
  H      0.773400    7.674600    1.509900
  H      1.159500    3.605000    2.037000
  C     -4.566200    1.250900    0.423000
  C     -4.537600    1.942600    1.414800
  C     -4.583200    2.837900    2.502700
  C     -5.521300    2.697600    3.506600
  C     -5.650900    3.667200    4.508400
  C     -4.877000    4.801200    4.503800
  C     -3.897800    4.977500    3.509400
  C     -3.083000    6.127800    3.414100
  C     -2.135600    6.214000    2.434800
  N     -1.900100    5.200000    1.563700
  C     -2.661900    4.122300    1.604100
  C     -3.710300    3.967200    2.523300
  H     -6.178300    1.841500    3.504000
  H     -6.395000    3.527500    5.277800
  H     -5.011600    5.565900    5.252500
  H     -3.220900    6.935800    4.114600
  H     -1.523300    7.101500    2.317400
  H     -2.450200    3.328100    0.890900
  C     -4.630500    0.472700   -0.753300
  C     -5.164500    1.059900   -1.914600
  C     -5.279300    0.348600   -3.088900
  C     -4.837200   -0.967800   -3.098500
  N     -4.820200   -1.878300   -4.122700
  C     -4.295600   -3.055500   -3.671200
  C     -4.081300   -4.253400   -4.341300
  C     -3.537700   -5.302000   -3.632600
  C     -3.199300   -5.184900   -2.272500
  C     -3.402100   -3.978100   -1.607300
  C     -3.947500   -2.914200   -2.304100
  C     -4.292500   -1.567700   -1.936300
  C     -4.191500   -0.847700   -0.756900
  H     -5.503400    2.083900   -1.872700
  H     -5.707600    0.800400   -3.969600
  H     -5.187500   -1.723700   -5.047100
  H     -4.334600   -4.364300   -5.384000
  H     -3.344200   -6.229900   -4.147300
  H     -3.185800   -3.876300   -0.556400
  H     -3.789800   -1.292600    0.138800
  C     -2.645600   -6.338600   -1.561000
  C     -3.032700   -7.649500   -1.865900
  C     -2.473600   -8.711800   -1.178700
  C     -1.544600   -8.455800   -0.184600
  N     -1.186100   -7.206600    0.123300
  C     -1.706400   -6.177100   -0.540900
  H     -3.778500   -7.830000   -2.623700
  H     -2.758400   -9.726500   -1.405000
  H     -1.073600   -9.257100    0.380500
  H     -1.348100   -5.192900   -0.247600
  C     -0.306900    1.011600   -3.893300
  C     -1.280600    1.728600   -3.844400
  C     -2.396800    2.589000   -3.911400
  C     -3.355900    2.404900   -4.888600
  C     -4.409100    3.312800   -5.046800
  C     -4.509400    4.428800   -4.254300
  C     -3.553800    4.661400   -3.248800
  C     -3.565000    5.808400   -2.422800
  C     -2.603900    5.971300   -1.466900
  N     -1.643800    5.038300   -1.249300
  C     -1.593900    3.959600   -2.007400
  C     -2.502300    3.720700   -3.049100
  H     -3.275000    1.558700   -5.552800
  H     -5.140000    3.138800   -5.822200
  H     -5.306900    5.140700   -4.398500
  H     -4.331900    6.553600   -2.561600
  H     -2.568000    6.852000   -0.830900
  H     -0.811900    3.231900   -1.800700
  C      0.890500    0.284300   -4.086900
  C      1.846300    0.874100   -4.935600
  C      3.018100    0.226000   -5.250700
  C      3.232400   -1.028500   -4.697800
  N      4.300400   -1.872000   -4.859700
  C      4.086900   -3.010300   -4.139100
  C      4.889500   -4.134600   -4.004600
  C      4.433200   -5.162300   -3.212300
  C      3.190100   -5.102300   -2.556200
  C      2.397500   -3.961700   -2.679500
  C      2.844600   -2.910100   -3.463300
  C      2.292700   -1.627700   -3.824000
  C      1.110600   -0.966100   -3.518200
  H      1.639700    1.845800   -5.356500
  H      3.738200    0.674300   -5.916600
  H      5.056200   -1.728500   -5.508800
  H      5.840100   -4.206800   -4.509800
  H      5.063900   -6.026100   -3.076500
  H      1.427700   -3.902100   -2.214400
  H      0.372500   -1.411700   -2.871500
  C      2.756300   -6.255400   -1.761700
  C      3.150000   -7.561300   -2.087600
  C      2.767000   -8.623100   -1.288700
  C      1.969100   -8.381400   -0.182800
  N      1.556400   -7.147200    0.109500
  C      1.934900   -6.113300   -0.642200
  H      3.739000   -7.744600   -2.972000
  H      3.074700   -9.628900   -1.524500
  H      1.650500   -9.177500    0.485300
  H      1.573600   -5.136200   -0.327800

----------------------------
CARTESIAN COORDINATES (A.U.)
----------------------------
  NO LB      ZA    FRAG     MASS         X           Y           Z
   0 Pd   18.0000*   0   106.400   -0.717718   10.050886    0.493219
   1 Pd   18.0000*   0   106.400    0.356780  -13.051960    2.891659
   2 C     6.0000    0    12.011    8.603545   -5.315044    3.093482
   3 C     6.0000    0    12.011    8.273221   -6.565287    4.979806
   4 C     6.0000    0    12.011    8.123366   -8.081981    7.167353
   5 C     6.0000    0    12.011    9.813348   -7.726901    9.125299
   6 C     6.0000    0    12.011    9.840938   -9.347908   11.214769
   7 C     6.0000    0    12.011    8.224655  -11.370482   11.365191
   8 C     6.0000    0    12.011    6.475714  -11.813812    9.413482
   9 C     6.0000    0    12.011    4.808408  -13.900636    9.393451
  10 C     6.0000    0    12.011    3.160378  -14.217544    7.433805
  11 N     7.0000    0    14.007    3.007877  -12.534931    5.506284
  12 C     6.0000    0    12.011    4.547626  -10.574907    5.447891
  13 C     6.0000    0    12.011    6.373101  -10.127609    7.316642
  14 H     1.0000    0     1.008   11.158644   -6.199247    9.013427
  15 H     1.0000    0     1.008   11.190013   -9.016450   12.709164
  16 H     1.0000    0     1.008    8.289095  -12.645858   12.954073
  17 H     1.0000    0     1.008    4.864533  -15.241586   10.926774
  18 H     1.0000    0     1.008    1.884246  -15.823811    7.334594
  19 H     1.0000    0     1.008    4.364889   -9.262493    3.875639
  20 C     6.0000    0    12.011    9.244162   -4.080864    0.811259
  21 C     6.0000    0    12.011   10.943782   -5.364177   -0.782536
  22 C     6.0000    0    12.011   11.800584   -4.287600   -2.988224
  23 C     6.0000    0    12.011   10.922617   -1.894261   -3.601818
  24 N     7.0000    0    14.007   11.493125   -0.425188   -5.657084
  25 C     6.0000    0    12.011   10.215293    1.807145   -5.485497
  26 C     6.0000    0    12.011   10.211324    3.858632   -7.119354
  27 C     6.0000    0    12.011    8.746219    5.912764   -6.494044
  28 C     6.0000    0    12.011    7.295099    5.982684   -4.267569
  29 C     6.0000    0    12.011    7.278469    3.900395   -2.652987
  30 C     6.0000    0    12.011    8.723165    1.802799   -3.260344
  31 C     6.0000    0    12.011    9.179345   -0.592240   -2.043361
  32 C     6.0000    0    12.011    8.337094   -1.694139    0.184437
  33 H     1.0000    0     1.008   11.603296   -7.213274   -0.232058
  34 H     1.0000    0     1.008   13.130573   -5.264399   -4.183854
  35 H     1.0000    0     1.008   12.827461   -0.829590   -6.950602
  36 H     1.0000    0     1.008   11.330231    3.854474   -8.823887
  37 H     1.0000    0     1.008    8.684425    7.490685   -7.781892
  38 H     1.0000    0     1.008    6.232695    3.926473   -0.906502
  39 H     1.0000    0     1.008    7.039797   -0.722253    1.417673
  40 C     6.0000    0    12.011    5.841899    8.270953   -3.696682
  41 C     6.0000    0    12.011    6.650513   10.664103   -4.498304
  42 C     6.0000    0    12.011    5.188621   12.775683   -4.015101
  43 C     6.0000    0    12.011    2.950429   12.499027   -2.687002
  44 N     7.0000    0    14.007    2.208901   10.240237   -1.850231
  45 C     6.0000    0    12.011    3.583866    8.185916   -2.336079
  46 H     1.0000    0     1.008    8.431013   10.871217   -5.466978
  47 H     1.0000    0     1.008    5.783507   14.619488   -4.643624
  48 H     1.0000    0     1.008    1.719273   14.091688   -2.277687
  49 H     1.0000    0     1.008    2.834778    6.408628   -1.623275
  50 C     6.0000    0    12.011   -0.260404   -4.952405   10.360990
  51 C     6.0000    0    12.011   -2.188492   -6.168633   10.194317
  52 C     6.0000    0    12.011   -4.330307   -7.752035   10.168616
  53 C     6.0000    0    12.011   -6.365542   -7.301146   11.739357
  54 C     6.0000    0    12.011   -8.367518   -9.024198   11.893558
  55 C     6.0000    0    12.011   -8.338417  -11.240280   10.544672
  56 C     6.0000    0    12.011   -6.318110  -11.762033    8.897776
  57 C     6.0000    0    12.011   -6.113264  -14.020823    7.489174
  58 C     6.0000    0    12.011   -4.118091  -14.367588    5.890654
  59 N     7.0000    0    14.007   -2.338914  -12.559687    5.509874
  60 C     6.0000    0    12.011   -2.438314  -10.448296    6.835895
  61 C     6.0000    0    12.011   -4.331252   -9.966605    8.628490
  62 H     1.0000    0     1.008   -6.388597   -5.621368   12.895491
  63 H     1.0000    0     1.008   -9.928432   -8.615450   13.141533
  64 H     1.0000    0     1.008   -9.845284  -12.599749   10.734778
  65 H     1.0000    0     1.008   -7.534338  -15.466086    7.697988
  66 H     1.0000    0     1.008   -3.880553  -16.112750    4.842045
  67 H     1.0000    0     1.008   -0.981902   -9.037615    6.492154
  68 C     6.0000    0    12.011    2.016527   -3.585944   10.618938
  69 C     6.0000    0    12.011    4.049116   -4.745102   11.880141
  70 C     6.0000    0    12.011    6.306961   -3.499206   12.238433
  71 C     6.0000    0    12.011    6.531649   -1.062782   11.290169
  72 N     7.0000    0    14.007    8.549877    0.558981   11.356120
  73 C     6.0000    0    12.011    7.908315    2.766937   10.184112
  74 C     6.0000    0    12.011    9.323531    4.942768    9.790860
  75 C     6.0000    0    12.011    8.188939    6.929437    8.549499
  76 C     6.0000    0    12.011    5.679194    6.798479    7.684949
  77 C     6.0000    0    12.011    4.274183    4.604318    8.058548
  78 C     6.0000    0    12.011    5.384775    2.589870    9.302366
  79 C     6.0000    0    12.011    4.500383    0.119431   10.007801
  80 C     6.0000    0    12.011    2.229688   -1.140828    9.675587
  81 H     1.0000    0     1.008    3.810633   -6.637852   12.602017
  82 H     1.0000    0     1.008    7.843875   -4.388322   13.239421
  83 H     1.0000    0     1.008   10.209056    0.220153   12.222749
  84 H     1.0000    0     1.008   11.250862    5.082229   10.440170
  85 H     1.0000    0     1.008    9.281579    8.612427    8.192152
  86 H     1.0000    0     1.008    2.325875    4.486399    7.476512
  87 H     1.0000    0     1.008    0.659325   -0.260782    8.722598
  88 C     6.0000    0    12.011    4.551405    8.982435    6.414297
  89 C     6.0000    0    12.011    5.188621   11.464402    7.076268
  90 C     6.0000    0    12.011    4.098249   13.473369    5.807884
  91 C     6.0000    0    12.011    2.363292   12.988088    3.910599
  92 N     7.0000    0    14.007    1.721729   10.625741    3.296438
  93 C     6.0000    0    12.011    2.778842    8.676867    4.484698
  94 H     1.0000    0     1.008    6.503115   11.810410    8.594474
  95 H     1.0000    0     1.008    4.575594   15.393709    6.290709
  96 H     1.0000    0     1.008    1.461514   14.502892    2.853297
  97 H     1.0000    0     1.008    2.191137    6.812463    3.849372
  98 C     6.0000    0    12.011   -8.628867    2.363858    0.799354
  99 C     6.0000    0    12.011   -8.574821    3.670982    2.673585
 100 C     6.0000    0    12.011   -8.660993    5.362854    4.729418
 101 C     6.0000    0    12.011  -10.433745    5.097725    6.626514
 102 C     6.0000    0    12.011  -10.678653    6.930004    8.519641
 103 C     6.0000    0    12.011   -9.216194    9.072953    8.510949
 104 C     6.0000    0    12.011   -7.365775    9.406112    6.631805
 105 C     6.0000    0    12.011   -5.826026   11.579864    6.451714
 106 C     6.0000    0    12.011   -4.035699   11.742758    4.601105
 107 N     7.0000    0    14.007   -3.590669    9.826576    2.954965
 108 C     6.0000    0    12.011   -5.030262    7.790018    3.031310
 109 C     6.0000    0    12.011   -7.011451    7.496922    4.768346
 110 H     1.0000    0     1.008  -11.675295    3.479931    6.621600
 111 H     1.0000    0     1.008  -12.084799    6.666009    9.973597
 112 H     1.0000    0     1.008   -9.470551   10.518027    9.925787
 113 H     1.0000    0     1.008   -6.086619   13.106763    7.775467
 114 H     1.0000    0     1.008   -2.878620   13.419890    4.379251
 115 H     1.0000    0     1.008   -4.630207    6.289198    1.683557
 116 C     6.0000    0    12.011   -8.750377    0.893274   -1.423531
 117 C     6.0000    0    12.011   -9.759491    2.002921   -3.618070
 118 C     6.0000    0    12.011   -9.976431    0.658759   -5.837175
 119 C     6.0000    0    12.011   -9.140983   -1.828877   -5.855316
 120 N     7.0000    0    14.007   -9.108858   -3.549473   -7.790774
 121 C     6.0000    0    12.011   -8.117508   -5.774058   -6.937563
 122 C     6.0000    0    12.011   -7.712539   -8.037761   -8.203868
 123 C     6.0000    0    12.011   -6.685284  -10.019328   -6.864619
 124 C     6.0000    0    12.011   -6.045801   -9.798041   -4.294403
 125 C     6.0000    0    12.011   -6.429037   -7.517520   -3.037357
 126 C     6.0000    0    12.011   -7.459694   -5.507040   -4.354118
 127 C     6.0000    0    12.011   -8.111649   -2.962524   -3.659077
 128 C     6.0000    0    12.011   -7.920787   -1.601921   -1.430334
 129 H     1.0000    0     1.008  -10.399919    3.938000   -3.538890
 130 H     1.0000    0     1.008  -10.785801    1.512537   -7.501457
 131 H     1.0000    0     1.008   -9.802954   -3.257321   -9.537637
 132 H     1.0000    0     1.008   -8.191207   -8.247332  -10.174286
 133 H     1.0000    0     1.008   -6.319622  -11.772805   -7.837261
 134 H     1.0000    0     1.008   -6.020290   -7.325145   -1.051444
 135 H     1.0000    0     1.008   -7.161684   -2.442660    0.262294
 136 C     6.0000    0    12.011   -4.999459  -11.978218   -2.949862
 137 C     6.0000    0    12.011   -5.730972  -14.455460   -3.526040
 138 C     6.0000    0    12.011   -4.674427  -16.462916   -2.227420
 139 C     6.0000    0    12.011   -2.918871  -15.979146   -0.348843
 140 N     7.0000    0    14.007   -2.241404  -13.618500    0.233003
 141 C     6.0000    0    12.011   -3.224629  -11.673027   -1.022153
 142 H     1.0000    0     1.008   -7.140330  -14.796556   -4.958074
 143 H     1.0000    0     1.008   -5.212621  -18.380421   -2.655065
 144 H     1.0000    0     1.008   -2.028810  -17.493384    0.719041
 145 H     1.0000    0     1.008   -2.547540   -9.813159   -0.467896
 146 C     6.0000    0    12.011   -0.579957    1.911647   -7.357271
 147 C     6.0000    0    12.011   -2.419983    3.266581   -7.264863
 148 C     6.0000    0    12.011   -4.529296    4.892501   -7.391475
 149 C     6.0000    0    12.011   -6.341732    4.544602   -9.238115
 150 C     6.0000    0    12.011   -8.331991    6.260285   -9.537070
 151 C     6.0000    0    12.011   -8.521531    8.369219   -8.039462
 152 C     6.0000    0    12.011   -6.715709    8.808769   -6.139342
 153 C     6.0000    0    12.011   -6.736874   10.976285   -4.578428
 154 C     6.0000    0    12.011   -4.920658   11.284122   -2.772039
 155 N     7.0000    0    14.007   -3.106332    9.521007   -2.360835
 156 C     6.0000    0    12.011   -3.012034    7.482560   -3.793436
 157 C     6.0000    0    12.011   -4.728662    7.031104   -5.761964
 158 H     1.0000    0     1.008   -6.188853    2.945516  -10.493271
 159 H     1.0000    0     1.008   -9.713192    5.931472  -11.002363
 160 H     1.0000    0     1.008  -10.028588    9.714515   -8.311960
 161 H     1.0000    0     1.008   -8.186105   12.384509   -4.840722
 162 H     1.0000    0     1.008   -4.852817   12.948403   -1.570173
 163 H     1.0000    0     1.008   -1.534269    6.107406   -3.402830
 164 C     6.0000    0    12.011    1.682801    0.537249   -7.723122
 165 C     6.0000    0    12.011    3.489001    1.651810   -9.326932
 166 C     6.0000    0    12.011    5.703382    0.427078   -9.922385
 167 C     6.0000    0    12.011    6.108351   -1.943583   -8.877555
 168 N     7.0000    0    14.007    8.126578   -3.537567   -9.183502
 169 C     6.0000    0    12.011    7.723122   -5.688643   -7.821765
 170 C     6.0000    0    12.011    9.239816   -7.813262   -7.567597
 171 C     6.0000    0    12.011    8.377534   -9.755333   -6.070367
 172 C     6.0000    0    12.011    6.028415   -9.641950   -4.830518
 173 C     6.0000    0    12.011    4.530618   -7.486528   -5.063521
 174 C     6.0000    0    12.011    5.375515   -5.499292   -6.544689
 175 C     6.0000    0    12.011    4.332575   -3.075907   -7.226313
 176 C     6.0000    0    12.011    2.098730   -1.825664   -6.648434
 177 H     1.0000    0     1.008    3.098584    3.488056  -10.122318
 178 H     1.0000    0     1.008    7.064174    1.274242  -11.180754
 179 H     1.0000    0     1.008    9.554833   -3.266392  -10.410123
 180 H     1.0000    0     1.008   11.036190   -7.949700   -8.522287
 181 H     1.0000    0     1.008    9.569384  -11.387679   -5.813742
 182 H     1.0000    0     1.008    2.697962   -7.373900   -4.184610
 183 H     1.0000    0     1.008    0.703923   -2.667726   -5.426349
 184 C     6.0000    0    12.011    5.208652  -11.820993   -3.329131
 185 C     6.0000    0    12.011    5.952637  -14.288786   -3.944992
 186 C     6.0000    0    12.011    5.228872  -16.295297   -2.435290
 187 C     6.0000    0    12.011    3.721060  -15.838551   -0.345442
 188 N     7.0000    0    14.007    2.941170  -13.506251    0.206925
 189 C     6.0000    0    12.011    3.656431  -11.552463   -1.213582
 190 H     1.0000    0     1.008    7.065686  -14.635173   -5.616266
 191 H     1.0000    0     1.008    5.810341  -18.195984   -2.880887
 192 H     1.0000    0     1.008    3.118993  -17.342962    0.917084
 193 H     1.0000    0     1.008    2.973673   -9.706011   -0.619452
* core charge reduced due to ECP

--------------------------------
INTERNAL COORDINATES (ANGSTROEM)
--------------------------------
 Pd     0   0   0     0.000000000000     0.00000000     0.00000000
 Pd     1   0   0    12.304349834510     0.00000000     0.00000000
 C      2   1   0     5.984845518474    49.89624301     0.00000000
 C      3   2   1     1.210236687595    62.31738295   118.41455566
 C      4   3   2     1.410848329907   174.77965295   125.80559738
 C      5   4   3     1.381514426273   120.10559224    51.69662160
 C      6   5   4     1.399502229366   121.05881063   185.58304276
 C      7   6   5     1.372376165634   121.15413089     1.26695734
 C      8   7   6     1.406507465320   119.84016695   358.96973661
 C      9   8   7     1.413521892296   123.12972510   177.87651710
 C     10   9   8     1.365302420711   120.02381858   180.11320481
 N     11  10   9     1.356364497471   121.90769210   357.99516786
 C     12  11  10     1.319332289456   119.79829775     2.55698384
 C     13  12  11     1.402535596696   122.78756732   359.93326922
 H      6   5   4     1.078803415827   119.20510528     4.14813786
 H      7   6   5     1.079714318697   119.07696741   179.88240440
 H      8   7   6     1.078701747472   120.89408576   178.22773439
 H     10   9   8     1.078324723819   119.42386932   359.55560464
 H     11  10   9     1.086869973824   121.98024880   178.49298941
 H     13  12  11     1.088074050789   117.69809620   180.20360486
 C      3   2   1     1.414213527018   118.39018035   289.94872003
 C     21   3   2     1.407629471843   116.23368264   276.18359223
 C     22  21   3     1.375676375460   121.27584058   183.36432789
 C     23  22  21     1.387553782741   117.78692957   359.64449145
 N     24  23  22     1.370535709130   129.02654293   179.55210276
 C     25  24  23     1.364170359596   109.21882693   180.58654026
 C     26  25  24     1.387827413622   129.54273710   179.91097322
 C     27  26  25     1.375555851283   117.97763432   180.30765818
 C     28  27  26     1.406838530180   121.99813058     0.46293413
 C     29  28  27     1.394367387025   119.72437856   358.58576707
 C     30  29  28     1.385589481051   119.17358043     0.77493728
 C     24  23  22     1.416282930773   121.72712538   359.26401246
 C     32  24  23     1.388689781773   119.94122949     1.04467735
 H     22  21   3     1.078943436886   118.84490694     2.25653062
 H     23  22  21     1.078345649595   120.95841096   178.79965471
 H     25  24  23     1.006436018831   125.00526386   352.62562159
 H     27  26  25     1.078976946000   121.22354680   359.91852212
 H     28  27  26     1.078302619861   118.48838971   181.94454214
 H     30  29  28     1.077305731907   121.25088132   177.98112223
 H     33  32  24     1.077809584296   121.20364651   178.76074464
 C     29  28  27     1.465914124361   118.72805246   178.19439986
 C     41  29  28     1.402431107042   121.56874926   330.10740889
 C     42  41  29     1.382903543274   120.20046284   177.48773868
 C     43  42  41     1.384978035927   119.13070264     1.34491398
 N     44  43  42     1.333713496220   120.98518556     0.76253211
 C     45  44  43     1.333149871545   120.41151705   358.25363480
 H     42  41  29     1.078198386198   120.14713210   356.44646445
 H     43  42  41     1.077827578975   120.73092925   180.74849313
 H     44  43  42     1.087050895773   122.11952112   180.81285159
 H     46  45  44     1.088096066531   116.04921800   181.21574616
 C     13  12  11     4.699505568674    98.65045473   272.86993101
 C     51  13  12     1.209550449547    94.55814826   344.46898660
 C     52  51  13     1.409559126110   174.42902658    74.75125863
 C     53  52  51     1.381214103606   121.23084022    94.08110131
 C     54  53  52     1.400130765322   120.83500211   186.70429527
 C     55  54  53     1.372943148859   121.16180731     1.76751345
 C     56  55  54     1.406669211293   119.88649932   357.47470928
 C     57  56  55     1.412838918632   123.45199055   178.42714346
 C     58  57  56     1.365259206158   119.99569416   178.70778698
 N     59  58  57     1.357313298395   122.25355817   357.24105626
 C     60  59  58     1.320419986217   119.33382994     4.23941854
 C     61  60  59     1.402932236425   122.78635509   359.43815048
 H     54  53  52     1.079162309386   119.49006749     5.18583559
 H     55  54  53     1.079439599978   118.95711857   179.93083801
 H     56  55  54     1.078658184969   120.85628424   177.20730408
 H     58  57  56     1.078254742628   119.50534807   358.28655004
 H     59  58  57     1.084696616571   121.40032648   177.67422932
 H     61  60  59     1.088268510065   117.60644338   179.80488494
 C     51  13  12     1.411839179935    85.16444041   162.61831699
 C     69  51  13     1.406626346973   118.36669952   296.23095376
 C     70  69  51     1.377741517847   121.31523025   181.23488528
 C     71  70  69     1.388608994642   117.95893568   359.30617846
 N     72  71  70     1.370528821295   129.71143871   180.94875549
 C     73  72  71     1.365674503679   109.29569745   180.05426608
 C     74  73  72     1.389200770227   130.02419862   180.01339474
 C     75  74  73     1.377399528096   117.97292742   180.44579204
 C     76  75  74     1.406399072099   121.94848043   359.85055201
 C     77  76  75     1.392849866281   119.93272693   359.47053784
 C     78  77  76     1.383826047594   118.87947300     0.51062993
 C     72  71  70     1.416786268285   121.20528489     0.43094579
 C     80  72  71     1.385461587342   120.41319630     0.10976668
 H     70  69  51     1.079376208743   118.89267318     0.25934055
 H     71  70  69     1.078614495545   120.84664843   178.79801607
 H     73  72  71     1.006651106392   125.43219970   356.64686384
 H     75  74  73     1.078750856315   121.24279461     0.25083468
 H     76  75  74     1.078537162086   118.69769204   181.47049531
 H     78  77  76     1.077830580379   121.21866543   177.61553159
 H     81  80  72     1.077847846405   121.33609124   179.31610542
 C     77  76  75     1.464218047287   119.69543466   178.95244856
 C     89  77  76     1.400511867140   121.81674457   326.58212862
 C     90  89  77     1.383336564253   119.92831795   179.29428778
 C     91  90  89     1.384510689738   119.07170239     0.68439004
 N     92  91  90     1.335528082820   121.24207815     0.28064385
 C     93  92  91     1.331126398957   120.22628422   358.98033825
 H     90  89  77     1.078348983400   120.05918397   358.23313118
 H     91  90  89     1.077844817216   120.78269593   180.25557226
 H     92  91  90     1.087806347656   121.81643409   180.28900192
 H     94  93  92     1.087718253961   115.88519675   181.34804743
 C      1   2   3     5.839450813219    48.55700779   183.24505188
 C     99   1   2     1.209518123056    66.88491452   108.84573866
 C    100  99   1     1.409669415147   174.42441576    85.44176801
 C    101 100  99     1.381133921819   121.22549426    94.08490644
 C    102 101 100     1.400186973229   120.83580996   186.70226686
 C    103 102 101     1.372916009813   121.15809408     1.77348807
 C    104 103 102     1.406678957687   119.88616962   357.48937923
 C    105 104 103     1.412859235734   123.44729688   178.41143073
 C    106 105 104     1.365293261538   119.99797895   178.72606648
 N    107 106 105     1.357376683165   122.24526642   357.22744677
 C    108 107 106     1.320382024264   119.34007298     4.23370782
 C    109 108 107     1.402899572314   122.78225115   359.45211517
 H    102 101 100     1.079149188018   119.49557959     5.19234725
 H    103 102 101     1.079433768232   118.95759681   179.92899897
 H    104 103 102     1.078626413546   120.85827122   177.21218592
 H    106 105 104     1.078230337173   119.50742602   358.29523183
 H    107 106 105     1.084596837539   121.40263164   177.66479616
 H    109 108 107     1.088220919667   117.60576223   179.80833476
 C     99   1   2     1.411882225966   113.17192778   286.79803357
 C    117  99   1     1.406619184428   118.36176147   286.40407845
 C    118 117  99     1.377718120662   121.31915354   181.23687113
 C    119 118 117     1.388687700673   117.95500228   359.31303574
 N    120 119 118     1.370505341106   129.70879694   180.94293214
 C    121 120 119     1.365597762886   109.29206304   180.05379090
 C    122 121 120     1.389216653370   130.02365799   180.00966531
 C    123 122 121     1.377431889423   117.97808253   180.44839213
 C    124 123 122     1.406449067688   121.94630641   359.84446270
 C    125 124 123     1.392833486099   119.93087739   359.46934895
 C    126 125 124     1.383789944320   118.88428452     0.52003549
 C    120 119 118     1.416787542294   121.20536898     0.41705788
 C    128 120 119     1.385491017654   120.41584642     0.11610353
 H    118 117  99     1.079437270063   118.89188212     0.25684759
 H    119 118 117     1.078515934050   120.85252169   178.79801371
 H    121 120 119     1.006640854526   125.42970467   356.62917208
 H    123 122 121     1.078741391623   121.24292219     0.24284035
 H    124 123 122     1.078590167765   118.69797961   181.46270480
 H    126 125 124     1.077747530732   121.21888169   177.62102418
 H    129 128 120     1.077764997576   121.33902335   179.30906207
 C    125 124 123     1.464185654212   119.68993201   178.94691234
 C    137 125 124     1.400453223067   121.81895423   326.58153253
 C    138 137 125     1.383227363813   119.93313610   179.29542115
 C    139 138 137     1.384489729106   119.07388470     0.67867577
 N    140 139 138     1.335599228811   121.23729052     0.28375854
 C    141 140 139     1.331068736016   120.22837062   358.98162366
 H    138 137 125     1.078452006350   120.05297671   358.22993274
 H    139 138 137     1.077932660234   120.78665013   180.26026079
 H    140 139 138     1.087777872546   121.82630570   180.29178568
 H    142 141 140     1.087682591568   115.88273500   181.34552437
 C     50  46  45     4.258544068106   112.99102563   103.27935734
 C    147  50  46     1.210194984290    88.94215368   282.40791573
 C    148 147  50     1.410914455238   174.80746812   121.39786535
 C    149 148 147     1.381551830370   120.10168686    51.76949744
 C    150 149 148     1.399478434989   121.06125963   185.57797930
 C    151 150 149     1.372433000186   121.14802830     1.28398042
 C    152 151 150     1.406522083012   119.84298184   358.96676437
 C    153 152 151     1.413509971666   123.13128200   177.87028518
 C    154 153 152     1.365281813400   120.02522308   180.11587128
 N    155 154 153     1.356329889813   121.90811517   357.99046626
 C    156 155 154     1.319393538714   119.80082204     2.55528393
 C    157 156 155     1.402641315519   122.78454592   359.94144884
 H    150 149 148     1.078777497911   119.20663983     4.15332526
 H    151 150 149     1.079692534938   119.08358335   179.88564684
 H    152 151 150     1.078703620092   120.89638285   178.22086494
 H    154 153 152     1.078296846884   119.41974448   359.56161699
 H    155 154 153     1.086930218551   121.97904667   178.48069210
 H    157 156 155     1.088023979515   117.69986375   180.20443430
 C    147  50  46     1.414288870776    91.46988716    94.89864452
 C    165 147  50     1.407731995090   116.22598801   276.65925286
 C    166 165 147     1.375658700405   121.26895052   183.36222211
 C    167 166 165     1.387585366743   117.78914607   359.64656867
 N    168 167 166     1.370521017716   129.02872020   179.55101745
 C    169 168 167     1.364028408795   109.22206583   180.58365004
 C    170 169 168     1.387914802861   129.54557085   179.91165341
 C    171 170 169     1.375542173108   117.98288150   180.31272157
 C    172 171 170     1.406899008458   121.99535261     0.45299191
 C    173 172 171     1.394412424643   119.72792331   358.58976660
 C    174 173 172     1.385677960422   119.16876622     0.78177903
 C    168 167 166     1.416193196566   121.72893382   359.25955986
 C    176 168 167     1.388736335666   119.94071846     1.04777702
 H    166 165 147     1.078907438106   118.85015108     2.26527242
 H    167 166 165     1.078396823994   120.95643835   178.80286286
 H    169 168 167     1.006556853834   124.99941922   352.61198229
 H    171 170 169     1.078925502526   121.22029330   359.91330443
 H    172 171 170     1.078134764304   118.49548447   181.93767740
 H    174 173 172     1.077210383351   121.25266760   177.97426693
 H    177 176 168     1.077762432079   121.20512254   178.75833343
 C    173 172 171     1.465964631224   118.72845932   178.18421204
 C    185 173 172     1.402349924234   121.56436811   330.10480703
 C    186 185 173     1.382877236055   120.19865317   177.48307940
 C    187 186 185     1.384946970104   119.13516733     1.33567375
 N    188 187 186     1.333795419095   120.98036073     0.76762927
 C    189 188 187     1.333140784013   120.41169863   358.25800954
 H    186 185 173     1.078277909446   120.14997779   356.43781171
 H    187 186 185     1.077921411792   120.73114486   180.74447329
 H    188 187 186     1.087032097042   122.12850866   180.81712153
 H    190 189 188     1.088167937407   116.05276295   181.21006293

---------------------------
INTERNAL COORDINATES (A.U.)
---------------------------
 Pd     0   0   0     0.000000000000     0.00000000     0.00000000
 Pd     1   0   0    23.251851443183     0.00000000     0.00000000
 C      2   1   0    11.309718983742    49.89624301     0.00000000
 C      3   2   1     2.287015896778    62.31738295   118.41455566
 C      4   3   2     2.666116960023   174.77965295   125.80559738
 C      5   4   3     2.610683915717   120.10559224    51.69662160
 C      6   5   4     2.644675937314   121.05881063   185.58304276
 C      7   6   5     2.593415105769   121.15413089     1.26695734
 C      8   7   6     2.657913914770   119.84016695   358.96973661
 C      9   8   7     2.671169260742   123.12972510   177.87651710
 C     10   9   8     2.580047665124   120.02381858   180.11320481
 N     11  10   9     2.563157437994   121.90769210   357.99516786
 C     12  11  10     2.493176706710   119.79829775     2.55698384
 C     13  12  11     2.650408170832   122.78756732   359.93326922
 H      6   5   4     2.038643008252   119.20510528     4.14813786
 H      7   6   5     2.040364365211   119.07696741   179.88240440
 H      8   7   6     2.038450882905   120.89408576   178.22773439
 H     10   9   8     2.037738411455   119.42386932   359.55560464
 H     11  10   9     2.053886593709   121.98024880   178.49298941
 H     13  12  11     2.056161969417   117.69809620   180.20360486
 C      3   2   1     2.672476260950   118.39018035   289.94872003
 C     21   3   2     2.660034199819   116.23368264   276.18359223
 C     22  21   3     2.599651598526   121.27584058   183.36432789
 C     23  22  21     2.622096645468   117.78692957   359.64449145
 N     24  23  22     2.589937147015   129.02654293   179.55210276
 C     25  24  23     2.577908379649   109.21882693   180.58654026
 C     26  25  24     2.622613732893   129.54273710   179.91097322
 C     27  26  25     2.599423840839   117.97763432   180.30765818
 C     28  27  26     2.658539536689   121.99813058     0.46293413
 C     29  28  27     2.634972491549   119.72437856   358.58576707
 C     30  29  28     2.618384653229   119.17358043     0.77493728
 C     24  23  22     2.676386867309   121.72712538   359.26401246
 C     32  24  23     2.624243372525   119.94122949     1.04467735
 H     22  21   3     2.038907609707   118.84490694     2.25653062
 H     23  22  21     2.037777955440   120.95841096   178.79965471
 H     25  24  23     1.901888446904   125.00526386   352.62562159
 H     27  26  25     2.038970932755   121.22354680   359.91852212
 H     28  27  26     2.037696641028   118.48838971   181.94454214
 H     30  29  28     2.035812795808   121.25088132   177.98112223
 H     33  32  24     2.036764938835   121.20364651   178.76074464
 C     29  28  27     2.770176230889   118.72805246   178.19439986
 C     41  29  28     2.650210714002   121.56874926   330.10740889
 C     42  41  29     2.613308966417   120.20046284   177.48773868
 C     43  42  41     2.617229189398   119.13070264     1.34491398
 N     44  43  42     2.520353248971   120.98518556     0.76253211
 C     45  44  43     2.519288152692   120.41151705   358.25363480
 H     42  41  29     2.037499667950   120.14713210   356.44646445
 H     43  42  41     2.036798943851   120.73092925   180.74849313
 H     44  43  42     2.054228486644   122.11952112   180.81285159
 H     46  45  44     2.056203573140   116.04921800   181.21574616
 C     13  12  11     8.880778489632    98.65045473   272.86993101
 C     51  13  12     2.285719094806    94.55814826   344.46898660
 C     52  51  13     2.663680717917   174.42902658    74.75125863
 C     53  52  51     2.610116388125   121.23084022    94.08110131
 C     54  53  52     2.645863698135   120.83500211   186.70429527
 C     55  54  53     2.594486548788   121.16180731     1.76751345
 C     56  55  54     2.658219570363   119.88649932   357.47470928
 C     57  56  55     2.669878627559   123.45199055   178.42714346
 C     58  57  56     2.579966001454   119.99569416   178.70778698
 N     59  58  57     2.564950411896   122.25355817   357.24105626
 C     60  59  58     2.495232155705   119.33382994     4.23941854
 C     61  60  59     2.651157711293   122.78635509   359.43815048
 H     54  53  52     2.039321218790   119.49006749     5.18583559
 H     55  54  53     2.039845222067   118.95711857   179.93083801
 H     56  55  54     2.038368561703   120.85628424   177.20730408
 H     58  57  56     2.037606166169   119.50534807   358.28655004
 H     59  58  57     2.049779543710   121.40032648   177.67422932
 H     61  60  59     2.056529444194   117.60644338   179.80488494
 C     51  13  12     2.667989395217    85.16444041   162.61831699
 C     69  51  13     2.658138568538   118.36669952   296.23095376
 C     70  69  51     2.603554152064   121.31523025   181.23488528
 C     71  70  69     2.624090706973   117.95893568   359.30617846
 N     72  71  70     2.589924130893   129.71143871   180.94875549
 C     73  72  71     2.580750800033   109.29569745   180.05426608
 C     74  73  72     2.625209000762   130.02419862   180.01339474
 C     75  74  73     2.602907885094   117.97292742   180.44579204
 C     76  75  74     2.657709081267   121.94848043   359.85055201
 C     77  76  75     2.632104792941   119.93272693   359.47053784
 C     78  77  76     2.615052246940   118.87947300     0.51062993
 C     72  71  70     2.677338037358   121.20528489     0.43094579
 C     80  72  71     2.618142969144   120.41319630     0.10976668
 H     70  69  51     2.039725429994   118.89267318     0.25934055
 H     71  70  69     2.038286000658   120.84664843   178.79801607
 H     73  72  71     1.902294903489   125.43219970   356.64686384
 H     75  74  73     2.038543685168   121.24279461     0.25083468
 H     76  75  74     2.038139861599   118.69769204   181.47049531
 H     78  77  76     2.036804615682   121.21866543   177.61553159
 H     81  80  72     2.036837243742   121.33609124   179.31610542
 C     77  76  75     2.766971109717   119.69543466   178.95244856
 C     89  77  76     2.646583876201   121.81674457   326.58212862
 C     90  89  77     2.614127257478   119.92831795   179.29428778
 C     91  90  89     2.616346033092   119.07170239     0.68439004
 N     92  91  90     2.523782320690   121.24207815     0.28064385
 C     93  92  91     2.515464343661   120.22628422   358.98033825
 H     90  89  77     2.037784255419   120.05918397   358.23313118
 H     91  90  89     2.036831519405   120.78269593   180.25557226
 H     92  91  90     2.055656083810   121.81643409   180.28900192
 H     94  93  92     2.055489610853   115.88519675   181.34804743
 C      1   2   3    11.034962809487    48.55700779   183.24505188
 C     99   1   2     2.285658006590    66.88491452   108.84573866
 C    100  99   1     2.663889133992   174.42441576    85.44176801
 C    101 100  99     2.609964866507   121.22549426    94.08490644
 C    102 101 100     2.645969915687   120.83580996   186.70226686
 C    103 102 101     2.594435263422   121.15809408     1.77348807
 C    104 103 102     2.658237988379   119.88616962   357.48937923
 C    105 104 103     2.669917021319   123.44729688   178.41143073
 C    106 105 104     2.580030356794   119.99797895   178.72606648
 N    107 106 105     2.565070191752   122.24526642   357.22744677
 C    108 107 106     2.495160418012   119.34007298     4.23370782
 C    109 108 107     2.651095985070   122.78225115   359.45211517
 H    102 101 100     2.039296422998   119.49557959     5.19234725
 H    103 102 101     2.039834201666   118.95759681   179.92899897
 H    104 103 102     2.038308522416   120.85827122   177.21218592
 H    106 105 104     2.037560046542   119.50742602   358.29523183
 H    107 106 105     2.049590988666   121.40263164   177.66479616
 H    109 108 107     2.056439511374   117.60576223   179.80833476
 C     99   1   2     2.668070740428   113.17192778   286.79803357
 C    117  99   1     2.658125033288   118.36176147   286.40407845
 C    118 117  99     2.603509937792   121.31915354   181.23687113
 C    119 118 117     2.624239439816   117.95500228   359.31303574
 N    120 119 118     2.589879759767   129.70879694   180.94293214
 C    121 120 119     2.580605780951   109.29206304   180.05379090
 C    122 121 120     2.625239015552   130.02365799   180.00966531
 C    123 122 121     2.602969039140   117.97808253   180.44839213
 C    124 123 122     2.657803559239   121.94630641   359.84446270
 C    125 124 123     2.632073838883   119.93087739   359.46934895
 C    126 125 124     2.614984021638   118.88428452     0.52003549
 C    120 119 118     2.677340444887   121.20536898     0.41705788
 C    128 120 119     2.618198584374   120.41584642     0.11610353
 H    118 117  99     2.039840819166   118.89188212     0.25684759
 H    119 118 117     2.038099746425   120.85252169   178.79801371
 H    121 120 119     1.902275530270   125.42970467   356.62917208
 H    123 122 121     2.038525799492   121.24292219     0.24284035
 H    124 123 122     2.038240027817   118.69797961   181.46270480
 H    126 125 124     2.036647674594   121.21888169   177.62102418
 H    129 128 120     2.036680682145   121.33902335   179.30906207
 C    125 124 123     2.766909895677   119.68993201   178.94691234
 C    137 125 124     2.646473054965   121.81895423   326.58153253
 C    138 137 125     2.613920898552   119.93313610   179.29542115
 C    139 138 137     2.616306423237   119.07388470     0.67867577
 N    140 139 138     2.523916767129   121.23729052     0.28375854
 C    141 140 139     2.515355376496   120.22837062   358.98162366
 H    138 137 125     2.037978940579   120.05297671   358.22993274
 H    139 138 137     2.036997518652   120.78665013   180.26026079
 H    140 139 138     2.055602273651   121.82630570   180.29178568
 H    142 141 140     2.055422218697   115.88273500   181.34552437
 C     50  46  45     8.047482017955   112.99102563   103.27935734
 C    147  50  46     2.286937088953    88.94215368   282.40791573
 C    148 147  50     2.666241918791   174.80746812   121.39786535
 C    149 148 147     2.610754599218   120.10168686    51.76949744
 C    150 149 148     2.644630972458   121.06125963   185.57797930
 C    151 150 149     2.593522507508   121.14802830     1.28398042
 C    152 151 150     2.657941538205   119.84298184   358.96676437
 C    153 152 151     2.671146734016   123.13128200   177.87028518
 C    154 153 152     2.580008722949   120.02522308   180.11587128
 N    155 154 153     2.563092038998   121.90811517   357.99046626
 C    156 155 154     2.493292451035   119.80082204     2.55528393
 C    157 156 155     2.650607950453   122.78454592   359.94144884
 H    150 149 148     2.038594030489   119.20663983     4.15332526
 H    151 150 149     2.040323199871   119.08358335   179.88564684
 H    152 151 150     2.038454421644   120.89638285   178.22086494
 H    154 153 152     2.037685731682   119.41974448   359.56161699
 H    155 154 153     2.054000439745   121.97904667   178.48069210
 H    157 156 155     2.056067348423   117.69986375   180.20443430
 C    147  50  46     2.672618640019    91.46988716    94.89864452
 C    165 147  50     2.660227940679   116.22598801   276.65925286
 C    166 165 147     2.599618197511   121.26895052   183.36222211
 C    167 166 165     2.622156330581   117.78914607   359.64656867
 N    168 167 166     2.589909384265   129.02872020   179.55101745
 C    169 168 167     2.577640131511   109.22206583   180.58365004
 C    170 169 168     2.622778874622   129.54557085   179.91165341
 C    171 170 169     2.599397992834   117.98288150   180.31272157
 C    172 171 170     2.658653824071   121.99535261     0.45299191
 C    173 172 171     2.635057600313   119.72792331   358.58976660
 C    174 173 172     2.618551855009   119.16876622     0.78177903
 C    168 167 166     2.676217294232   121.72893382   359.25955986
 C    176 168 167     2.624331346635   119.94071846     1.04777702
 H    166 165 147     2.038839581871   118.85015108     2.26527242
 H    167 166 165     2.037874661039   120.95643835   178.80286286
 H    169 168 167     1.902116791967   124.99941922   352.61198229
 H    171 170 169     2.038873718677   121.22029330   359.91330443
 H    172 171 170     2.037379439994   118.49548447   181.93767740
 H    174 173 172     2.035632613150   121.25266760   177.97426693
 H    177 176 168     2.036675834057   121.20512254   178.75833343
 C    173 172 171     2.770271675028   118.72845932   178.18421204
 C    185 173 172     2.650057300728   121.56436811   330.10480703
 C    186 185 173     2.613259252979   120.19865317   177.48307940
 C    187 186 185     2.617170483500   119.13516733     1.33567375
 N    188 187 186     2.520508060769   120.98036073     0.76762927
 C    189 188 187     2.519270979746   120.41169863   358.25800954
 H    186 185 173     2.037649945111   120.14997779   356.43781171
 H    187 186 185     2.036976262177   120.73114486   180.74447329
 H    188 187 186     2.054192962192   122.12850866   180.81712153
 H    190 189 188     2.056339389413   116.05276295   181.21006293

---------------------
BASIS SET INFORMATION
---------------------
There are 4 groups of distinct atoms

 Group   1 Type Pd  : 7s6p5d1f contracted to 5s3p2d1f pattern {31111/411/41/1}
 Group   2 Type C   : 7s4p1d contracted to 3s2p1d pattern {511/31/1}
 Group   3 Type N   : 7s4p1d contracted to 3s2p1d pattern {511/31/1}
 Group   4 Type H   : 4s1p contracted to 2s1p pattern {31/1}

Atom   0Pd   basis set group =>   1
Atom   1Pd   basis set group =>   1
Atom   2C    basis set group =>   2
Atom   3C    basis set group =>   2
Atom   4C    basis set group =>   2
Atom   5C    basis set group =>   2
Atom   6C    basis set group =>   2
Atom   7C    basis set group =>   2
Atom   8C    basis set group =>   2
Atom   9C    basis set group =>   2
Atom  10C    basis set group =>   2
Atom  11N    basis set group =>   3
Atom  12C    basis set group =>   2
Atom  13C    basis set group =>   2
Atom  14H    basis set group =>   4
Atom  15H    basis set group =>   4
Atom  16H    basis set group =>   4
Atom  17H    basis set group =>   4
Atom  18H    basis set group =>   4
Atom  19H    basis set group =>   4
Atom  20C    basis set group =>   2
Atom  21C    basis set group =>   2
Atom  22C    basis set group =>   2
Atom  23C    basis set group =>   2
Atom  24N    basis set group =>   3
Atom  25C    basis set group =>   2
Atom  26C    basis set group =>   2
Atom  27C    basis set group =>   2
Atom  28C    basis set group =>   2
Atom  29C    basis set group =>   2
Atom  30C    basis set group =>   2
Atom  31C    basis set group =>   2
Atom  32C    basis set group =>   2
Atom  33H    basis set group =>   4
Atom  34H    basis set group =>   4
Atom  35H    basis set group =>   4
Atom  36H    basis set group =>   4
Atom  37H    basis set group =>   4
Atom  38H    basis set group =>   4
Atom  39H    basis set group =>   4
Atom  40C    basis set group =>   2
Atom  41C    basis set group =>   2
Atom  42C    basis set group =>   2
Atom  43C    basis set group =>   2
Atom  44N    basis set group =>   3
Atom  45C    basis set group =>   2
Atom  46H    basis set group =>   4
Atom  47H    basis set group =>   4
Atom  48H    basis set group =>   4
Atom  49H    basis set group =>   4
Atom  50C    basis set group =>   2
Atom  51C    basis set group =>   2
Atom  52C    basis set group =>   2
Atom  53C    basis set group =>   2
Atom  54C    basis set group =>   2
Atom  55C    basis set group =>   2
Atom  56C    basis set group =>   2
Atom  57C    basis set group =>   2
Atom  58C    basis set group =>   2
Atom  59N    basis set group =>   3
Atom  60C    basis set group =>   2
Atom  61C    basis set group =>   2
Atom  62H    basis set group =>   4
Atom  63H    basis set group =>   4
Atom  64H    basis set group =>   4
Atom  65H    basis set group =>   4
Atom  66H    basis set group =>   4
Atom  67H    basis set group =>   4
Atom  68C    basis set group =>   2
Atom  69C    basis set group =>   2
Atom  70C    basis set group =>   2
Atom  71C    basis set group =>   2
Atom  72N    basis set group =>   3
Atom  73C    basis set group =>   2
Atom  74C    basis set group =>   2
Atom  75C    basis set group =>   2
Atom  76C    basis set group =>   2
Atom  77C    basis set group =>   2
Atom  78C    basis set group =>   2
Atom  79C    basis set group =>   2
Atom  80C    basis set group =>   2
Atom  81H    basis set group =>   4
Atom  82H    basis set group =>   4
Atom  83H    basis set group =>   4
Atom  84H    basis set group =>   4
Atom  85H    basis set group =>   4
Atom  86H    basis set group =>   4
Atom  87H    basis set group =>   4
Atom  88C    basis set group =>   2
Atom  89C    basis set group =>   2
Atom  90C    basis set group =>   2
Atom  91C    basis set group =>   2
Atom  92N    basis set group =>   3
Atom  93C    basis set group =>   2
Atom  94H    basis set group =>   4
Atom  95H    basis set group =>   4
Atom  96H    basis set group =>   4
Atom  97H    basis set group =>   4
Atom  98C    basis set group =>   2
Atom  99C    basis set group =>   2
Atom 100C    basis set group =>   2
Atom 101C    basis set group =>   2
Atom 102C    basis set group =>   2
Atom 103C    basis set group =>   2
Atom 104C    basis set group =>   2
Atom 105C    basis set group =>   2
Atom 106C    basis set group =>   2
Atom 107N    basis set group =>   3
Atom 108C    basis set group =>   2
Atom 109C    basis set group =>   2
Atom 110H    basis set group =>   4
Atom 111H    basis set group =>   4
Atom 112H    basis set group =>   4
Atom 113H    basis set group =>   4
Atom 114H    basis set group =>   4
Atom 115H    basis set group =>   4
Atom 116C    basis set group =>   2
Atom 117C    basis set group =>   2
Atom 118C    basis set group =>   2
Atom 119C    basis set group =>   2
Atom 120N    basis set group =>   3
Atom 121C    basis set group =>   2
Atom 122C    basis set group =>   2
Atom 123C    basis set group =>   2
Atom 124C    basis set group =>   2
Atom 125C    basis set group =>   2
Atom 126C    basis set group =>   2
Atom 127C    basis set group =>   2
Atom 128C    basis set group =>   2
Atom 129H    basis set group =>   4
Atom 130H    basis set group =>   4
Atom 131H    basis set group =>   4
Atom 132H    basis set group =>   4
Atom 133H    basis set group =>   4
Atom 134H    basis set group =>   4
Atom 135H    basis set group =>   4
Atom 136C    basis set group =>   2
Atom 137C    basis set group =>   2
Atom 138C    basis set group =>   2
Atom 139C    basis set group =>   2
Atom 140N    basis set group =>   3
Atom 141C    basis set group =>   2
Atom 142H    basis set group =>   4
Atom 143H    basis set group =>   4
Atom 144H    basis set group =>   4
Atom 145H    basis set group =>   4
Atom 146C    basis set group =>   2
Atom 147C    basis set group =>   2
Atom 148C    basis set group =>   2
Atom 149C    basis set group =>   2
Atom 150C    basis set group =>   2
Atom 151C    basis set group =>   2
Atom 152C    basis set group =>   2
Atom 153C    basis set group =>   2
Atom 154C    basis set group =>   2
Atom 155N    basis set group =>   3
Atom 156C    basis set group =>   2
Atom 157C    basis set group =>   2
Atom 158H    basis set group =>   4
Atom 159H    basis set group =>   4
Atom 160H    basis set group =>   4
Atom 161H    basis set group =>   4
Atom 162H    basis set group =>   4
Atom 163H    basis set group =>   4
Atom 164C    basis set group =>   2
Atom 165C    basis set group =>   2
Atom 166C    basis set group =>   2
Atom 167C    basis set group =>   2
Atom 168N    basis set group =>   3
Atom 169C    basis set group =>   2
Atom 170C    basis set group =>   2
Atom 171C    basis set group =>   2
Atom 172C    basis set group =>   2
Atom 173C    basis set group =>   2
Atom 174C    basis set group =>   2
Atom 175C    basis set group =>   2
Atom 176C    basis set group =>   2
Atom 177H    basis set group =>   4
Atom 178H    basis set group =>   4
Atom 179H    basis set group =>   4
Atom 180H    basis set group =>   4
Atom 181H    basis set group =>   4
Atom 182H    basis set group =>   4
Atom 183H    basis set group =>   4
Atom 184C    basis set group =>   2
Atom 185C    basis set group =>   2
Atom 186C    basis set group =>   2
Atom 187C    basis set group =>   2
Atom 188N    basis set group =>   3
Atom 189C    basis set group =>   2
Atom 190H    basis set group =>   4
Atom 191H    basis set group =>   4
Atom 192H    basis set group =>   4
Atom 193H    basis set group =>   4

-------------------------
BASIS SET IN INPUT FORMAT
-------------------------

 # Basis set for element : H 
 NewGTO H 
 S 3 
   1      13.0107010000      0.0334854848
   2       1.9622572000      0.2347218709
   3       0.4445379600      0.8137702853
 S 1 
   1       0.1219496200      1.0000000000
 P 1 
   1       0.8000000000      1.0000000000
  end;

 # Basis set for element : C 
 NewGTO C 
 S 5 
   1    1238.4016938000      0.0055173650
   2     186.2900499200      0.0410888285
   3      42.2511763460      0.1822538213
   4      11.6765579320      0.4682845944
   5       3.5930506482      0.4457581734
 S 1 
   1       0.4024514736      1.0000000000
 S 1 
   1       0.1309018267      1.0000000000
 P 3 
   1       9.4680970621      0.0568883320
   2       2.0103545142      0.3129405934
   3       0.5477100471      0.7606501651
 P 1 
   1       0.1526861379      1.0000000000
 D 1 
   1       0.8000000000      1.0000000000
  end;

 # Basis set for element : N 
 NewGTO N 
 S 5 
   1    1712.8415853000     -0.0054477995
   2     257.6481267700     -0.0406271746
   3      58.4582458530     -0.1811196225
   4      16.1983679050     -0.4684397556
   5       5.0052600809     -0.4461684629
 S 1 
   1       0.5873185657      1.0000000000
 S 1 
   1       0.1876459225      1.0000000000
 P 3 
   1      13.5714702330     -0.0588481170
   2       2.9257372874     -0.3202462476
   3       0.7992775075     -0.7532822652
 P 1 
   1       0.2195434803      1.0000000000
 D 1 
   1       1.0000000000      1.0000000000
  end;

 # Basis set for element : Pd
 NewGTO Pd
 S 3 
   1       8.4756400000      2.1727229431
   2       7.1657170000     -2.9039633126
   3       3.1821100000     -0.2310570076
 S 1 
   1       1.3973644196      1.0000000000
 S 1 
   1       0.6053295587      1.0000000000
 S 1 
   1       0.1022951421      1.0000000000
 S 1 
   1       0.0373389729      1.0000000000
 P 4 
   1       4.2460970000     -0.8346018694
   2       3.3925940000      0.8828643810
   3       1.1975891264      0.6438870170
   4       0.5267375059      0.2760105151
 P 1 
   1       0.2060709410      1.0000000000
 P 1 
   1       0.0370000000      1.0000000000
 D 4 
   1       7.3613290985     -0.0186922795
   2       2.6291037258      0.2533662423
   3       1.1292744634      0.4840070353
   4       0.4447165990      0.4270306822
 D 1 
   1       0.1554489384      1.0000000000
 F 1 
   1       1.2462900000      1.0000000000
  end;

-------------------------
ECP PARAMETER INFORMATION
-------------------------

 Group 1, Type Pd ECP Def2-ECP (replacing 28 core electrons, lmax=3)

Atom   0Pd   ECP group =>   1
Atom   1Pd   ECP group =>   1


-------------------------
ECP BASIS IN INPUT FORMAT
-------------------------

 #ECP Def2-ECP
 NewECP Pd
   N_core 28
   lmax f
   s 4
     1      12.4300000000    240.2290403000  2
     2       6.1707594000     35.1719435000  2
     3      13.2700000000     31.9295543000  2
     4       6.6300000000      5.3982169000  2
   p 4
     1      11.0800000000    170.4172760000  2
     2       5.8295541000     28.4721329000  2
     3      13.2700000000     31.9295543000  2
     4       6.6300000000      5.3982169000  2
   d 4
     1       9.5100000000     69.0138449000  2
     2       4.1397811000     11.7508616000  2
     3      13.2700000000     31.9295543000  2
     4       6.6300000000      5.3982169000  2
   f 2
     1      13.2700000000    -31.9295543000  2
     2       6.6300000000     -5.3982169000  2
 End




           ************************************************************
           *        Program running with 32 parallel MPI-processes    *
           *              working on a common directory               *
           ************************************************************
------------------------------------------------------------------------------
                           ORCA GTO INTEGRAL CALCULATION
------------------------------------------------------------------------------

                         BASIS SET STATISTICS AND STARTUP INFO

 # of primitive gaussian shells          ... 1866
 # of primitive gaussian functions       ... 3566
 # of contracted shells                  ...  970
 # of contracted basis functions         ... 2138
 Highest angular momentum                ...    3
 Maximum contraction depth               ...    5
 Integral package used                   ... LIBINT
 Integral threshhold            Thresh   ...  2.500e-11
 Primitive cut-off              TCut     ...  2.500e-12


------------------------------ INTEGRAL EVALUATION ----------------------------


 * One electron integrals 

   ECP integrals                         ... done
 Pre-screening matrix                    ... done
 Shell pair data                         ... done (   0.050 sec)



           ************************************************************
           *        Program running with 32 parallel MPI-processes    *
           *              working on a common directory               *
           ************************************************************
-------------------------------------------------------------------------------
                                 ORCA SCF
-------------------------------------------------------------------------------

------------
SCF SETTINGS
------------
Hamiltonian:
 Density Functional     Method          .... DFT(GTOs)
 Exchange Functional    Exchange        .... PBE
   PBE kappa parameter   XKappa         ....  0.804000
   PBE mue parameter    XMuePBE         ....  0.219520
 Correlation Functional Correlation     .... PBE
   PBE beta parameter  CBetaPBE         ....  0.066725
 LDA part of GGA corr.  LDAOpt          .... PW91-LDA
 Gradients option       PostSCFGGA      .... off
 Hybrid DFT is turned on
   Fraction HF Exchange ScalHFX         ....  0.250000
   Scaling of DF-GGA-X  ScalDFX         ....  0.750000
   Scaling of DF-GGA-C  ScalDFC         ....  1.000000
   Scaling of DF-LDA-C  ScalLDAC        ....  1.000000
   Perturbative correction              ....  0.000000
   Density functional embedding theory  .... OFF
   NL short-range parameter             ....  6.900000


General Settings:
 Integral files         IntName         .... _s_4c1_c_PBE0
 Hartree-Fock type      HFTyp           .... RHF
 Total Charge           Charge          ....    4
 Multiplicity           Mult            ....    1
 Number of Electrons    NEL             ....  856
 Basis Dimension        Dim             .... 2138
 Nuclear Repulsion      ENuc            ....  27609.1227063963 Eh

Convergence Acceleration:
 DIIS                   CNVDIIS         .... on
   Start iteration      DIISMaxIt       ....     0
   Startup error        DIISStart       ....  0.200000
   # of expansion vecs  DIISMaxEq       ....     5
   Bias factor          DIISBfac        ....   1.050
   Max. coefficient     DIISMaxC        ....  10.000
 Newton-Raphson         CNVNR           .... off
 SOSCF                  CNVSOSCF        .... off
 Level Shifting         CNVShift        .... on
   Level shift para.    LevelShift      ....    0.2500
   Turn off err/grad.   ShiftErr        ....    0.0000
 Zerner damping         CNVZerner       .... off
 Static damping         CNVDamp         .... on
   Fraction old density DampFac         ....    0.8500
   Max. Damping (<1)    DampMax         ....    0.9800
   Min. Damping (>=0)   DampMin         ....    0.0000
   Turn off err/grad.   DampErr         ....    0.0300
 Fernandez-Rico         CNVRico         .... off

SCF Procedure:
 Maximum # iterations   MaxIter         ....  2000
 SCF integral mode      SCFMode         .... Direct
   Integral package                     .... LIBINT
 Reset frequency        DirectResetFreq ....    20
 Integral Threshold     Thresh          ....  2.500e-11 Eh
 Primitive CutOff       TCut            ....  2.500e-12 Eh

Convergence Tolerance:
 Convergence Check Mode ConvCheckMode   .... Total+1el-Energy
 Convergence forced     ConvForced      .... 0
 Energy Change          TolE            ....  1.000e-08 Eh
 1-El. energy change                    ....  1.000e-05 Eh
 DIIS Error             TolErr          ....  5.000e-07


Diagonalization of the overlap matrix:
Smallest eigenvalue                        ... 1.986e-04
Time for diagonalization                   ...    0.586 sec
Threshold for overlap eigenvalues          ... 1.000e-08
Number of eigenvalues below threshold      ... 0
Time for construction of square roots      ...    0.881 sec
Total time needed                          ...    1.476 sec

-------------------
DFT GRID GENERATION
-------------------

General Integration Accuracy     IntAcc      ...  5.340
Radial Grid Type                 RadialGrid  ... Gauss-Chebyshev
Angular Grid (max. acc.)         AngularGrid ... Lebedev-590
Angular grid pruning method      GridPruning ... 3 (G Style)
Weight generation scheme         WeightScheme... Becke
Basis function cutoff            BFCut       ...    1.0000e-11
Integration weight cutoff        WCut        ...    1.0000e-14
Grids for H and He will be reduced by one unit

# of grid points (after initial pruning)     ... 2843772 (   0.0 sec)
# of grid points (after weights+screening)   ... 2293758 (  17.8 sec)
nearest neighbour list constructed           ...    0.0 sec
Grid point re-assignment to atoms done       ...    0.3 sec
Grid point division into batches done        ...   23.1 sec
Reduced shell lists constructed in   24.6 sec

Total number of grid points                  ...  2293758
Total number of batches                      ...    35943
Average number of points per batch           ...       63
Average number of grid points per atom       ...    11823
Average number of shells per batch           ...   179.80 (18.54%)
Average number of basis functions per batch  ...   358.82 (16.78%)
Average number of large shells per batch     ...    89.41 (49.73%)
Average number of large basis fcns per batch ...   182.60 (50.89%)
Maximum spatial batch extension              ...  19.62, 12.32, 15.89 au
Average spatial batch extension              ...   0.03,  0.03,  0.03 au

Time for grid setup =   44.954 sec

------------------------------
INITIAL GUESS: MODEL POTENTIAL
------------------------------
Loading Hartree-Fock densities                     ... done
  calling /work/e05/e05/atarzia/orca_4_2_1_linux_x86-64_openmpi314/orca _s_4c1_c_PBE0_atom46.inp > _s_4c1_c_PBE0_atom46.out in order to generate an atomic fitting density for atom 0 (Pd with ECP) on-the-fly... 
    atom 0 (Pd), assumed electronic state with S=3: 1s2 2s2 2p6 3s2 3p6 4s2 3d10 4p6 5s2 4d8           ... done
Calculating cut-offs                               ... done
Setting up the integral package                    ... done
Initializing the effective Hamiltonian             ... done
Starting the Coulomb interaction                   ... done (   1.2 sec)
Reading the grid                                   ... done
Mapping shells                                     ... done
Starting the XC term evaluation                    ... done (   1.4 sec)
  promolecular density results
     # of electrons  =    915.954065701
     EX              =   -949.515114750
     EC              =    -32.823083240
     EX+EC           =   -982.338197990
Transforming the Hamiltonian                       ... done (   0.4 sec)
Diagonalizing the Hamiltonian                      ... done (   0.6 sec)
Back transforming the eigenvectors                 ... done (   0.2 sec)
Now organizing SCF variables                       ... done
                      ------------------
                      INITIAL GUESS DONE (  50.0 sec)
                      ------------------
--------------
SCF ITERATIONS
--------------
ITER       Energy         Delta-E        Max-DP      RMS-DP      [F,P]     Damp
               ***  Starting incremental Fock matrix formation  ***
  0  -5209.8176593436   0.000000000000 0.03362399  0.00036280  0.4576911 0.8500
  1  -5210.1830736997  -0.365414356158 0.02829662  0.00033269  0.3871784 0.8500
                               ***Turning on DIIS***
  2  -5210.4499446500  -0.266870950294 0.02241509  0.00026608  0.3266744 0.8500
  3  -5210.6365062298  -0.186561579765 0.01712107  0.00018274  0.2756716 0.8500
  4  -5210.7763089309  -0.139802701113 0.01370060  0.00013801  0.2333675 0.8500
  5  -5210.8843843323  -0.108075401346 0.01132581  0.00011233  0.1980073 0.8500
  6  -5210.9714942613  -0.087109929038 0.00973714  0.00009443  0.1682481 0.8500
  7  -5211.0434136043  -0.071919342990 0.00850435  0.00008110  0.1430555 0.8500
  8  -5211.1036277091  -0.060214104811 0.00732421  0.00006963  0.1216413 0.8500
  9  -5211.1540372942  -0.050409585132 0.00622446  0.00005930  0.1033722 0.8500
 10  -5211.1962296289  -0.042192334673 0.00527222  0.00005027  0.0878076 0.8500
 11  -5211.2316126868  -0.035383057875 0.00447678  0.00004258  0.0745914 0.8500
 12  -5211.2613640690  -0.029751382212 0.00381268  0.00003613  0.0633835 0.8500
 13  -5211.2864315782  -0.025067509196 0.00324610  0.00003067  0.0538692 0.8500
 14  -5211.3075797105  -0.021148132360 0.00275838  0.00002604  0.0457782 0.8500
 15  -5211.3254400101  -0.017860299569 0.00234125  0.00002209  0.0388953 0.8500
 16  -5211.3405390349  -0.015099024804 0.00198789  0.00001873  0.0330463 0.8500
 17  -5211.3533158033  -0.012776768435 0.01126485  0.00010593  0.0280803 0.0000
 18  -5211.4247858436  -0.071470040235 0.00021908  0.00000231  0.0002245 0.0000
 19  -5211.4247905838  -0.000004740170 0.00011686  0.00000085  0.0000683 0.0000
               *** Restarting incremental Fock matrix formation ***
                                   *** Resetting DIIS ***
 20  -5211.4247908429  -0.000000259184 0.00011424  0.00000069  0.0000512 0.0000
 21  -5211.4247904984   0.000000344553 0.00003887  0.00000021  0.0000642 0.0000
 22  -5211.4247907238  -0.000000225395 0.00001412  0.00000012  0.0000183 0.0000
 23  -5211.4247908840  -0.000000160235 0.00001584  0.00000012  0.0000061 0.0000
 24  -5211.4247908598   0.000000024196 0.00000777  0.00000005  0.0000023 0.0000
                            ***DIIS convergence achieved***

               *****************************************************
               *                     SUCCESS                       *
               *           SCF CONVERGED AFTER  25 CYCLES          *
               *****************************************************


----------------
TOTAL SCF ENERGY
----------------

Total Energy       :        -5211.42479084 Eh         -141810.07804 eV

Components:
Nuclear Repulsion  :        27609.12270640 Eh          751282.42330 eV
Electronic Energy  :       -32820.54749724 Eh         -893092.50135 eV
One Electron Energy:       -62018.12980774 Eh        -1687599.10795 eV
Two Electron Energy:        29197.58231050 Eh          794506.60660 eV

Virial components:
Potential Energy   :       -10215.66433159 Eh         -277982.35881 eV
Kinetic Energy     :         5004.23954074 Eh          136172.28077 eV
Virial Ratio       :            2.04140194


DFT components:
N(Alpha)           :      428.000090365023 electrons
N(Beta)            :      428.000090365023 electrons
N(Total)           :      856.000180730045 electrons
E(X)               :     -528.785674539224 Eh       
E(C)               :      -29.412412340615 Eh       
E(XC)              :     -558.198086879839 Eh       
DFET-embed. en.    :        0.000000000000 Eh       

---------------
SCF CONVERGENCE
---------------

  Last Energy change         ...    1.6193e-08  Tolerance :   1.0000e-08
  Last MAX-Density change    ...    6.3641e-06  Tolerance :   1.0000e-07
  Last RMS-Density change    ...    4.0595e-08  Tolerance :   5.0000e-09
  Last DIIS Error            ...    5.8557e-07  Tolerance :   5.0000e-07

             **** THE GBW FILE WAS UPDATED (_s_4c1_c_PBE0.gbw) ****
             **** DENSITY FILE WAS UPDATED (_s_4c1_c_PBE0.scfp) ****
             **** ENERGY FILE WAS UPDATED (_s_4c1_c_PBE0.en.tmp) ****
             **** THE GBW FILE WAS UPDATED (_s_4c1_c_PBE0.gbw) ****
             **** DENSITY FILE WAS UPDATED (_s_4c1_c_PBE0.scfp) ****
----------------
ORBITAL ENERGIES
----------------

  NO   OCC          E(Eh)            E(eV) 
   0   2.0000     -14.736869      -401.0106 
[...]
 70 C      6.0173     6.0000    -0.0173     3.8232     3.8232    -0.0000
 71 C      5.8762     6.0000     0.1238     3.8881     3.8881    -0.0000
 72 N      7.1303     7.0000    -0.1303     3.3665     3.3665    -0.0000
 73 C      5.8722     6.0000     0.1278     3.8658     3.8658    -0.0000
 74 C      6.0224     6.0000    -0.0224     3.8571     3.8571    -0.0000
 75 C      6.0330     6.0000    -0.0330     3.8840     3.8840    -0.0000
 76 C      5.9583     6.0000     0.0417     3.7743     3.7743    -0.0000
 77 C      6.0678     6.0000    -0.0678     3.8668     3.8668    -0.0000
 78 C      5.9782     6.0000     0.0218     3.8856     3.8856    -0.0000
 79 C      5.9610     6.0000     0.0390     3.8256     3.8256    -0.0000
 80 C      6.0264     6.0000    -0.0264     3.8458     3.8458    -0.0000
 81 H      0.9739     1.0000     0.0261     0.9936     0.9936    -0.0000
 82 H      0.9898     1.0000     0.0102     0.9988     0.9988    -0.0000
 83 H      0.8473     1.0000     0.1527     0.9886     0.9886    -0.0000
 84 H      0.9703     1.0000     0.0297     0.9922     0.9922    -0.0000
 85 H      0.9667     1.0000     0.0333     0.9894     0.9894    -0.0000
 86 H      1.0059     1.0000    -0.0059     0.9946     0.9946    -0.0000
 87 H      1.0025     1.0000    -0.0025     0.9957     0.9957    -0.0000
 88 C      6.0249     6.0000    -0.0249     3.9026     3.9026    -0.0000
 89 C      5.9392     6.0000     0.0608     3.8823     3.8823    -0.0000
 90 C      6.0187     6.0000    -0.0187     3.9273     3.9273    -0.0000
 91 C      5.8864     6.0000     0.1136     3.8754     3.8754    -0.0000
 92 N      7.3008     7.0000    -0.3008     3.3763     3.3763    -0.0000
 93 C      5.8714     6.0000     0.1286     3.8662     3.8662    -0.0000
 94 H      0.9294     1.0000     0.0706     0.9921     0.9921    -0.0000
 95 H      0.9220     1.0000     0.0780     0.9859     0.9859    -0.0000
 96 H      0.9189     1.0000     0.0811     0.9837     0.9837    -0.0000
 97 H      0.9452     1.0000     0.0548     1.0042     1.0042    -0.0000
 98 C      5.9707     6.0000     0.0293     3.6862     3.6862    -0.0000
 99 C      6.0967     6.0000    -0.0967     3.6654     3.6654    -0.0000
100 C      6.0134     6.0000    -0.0134     3.7687     3.7687    -0.0000
101 C      5.9765     6.0000     0.0235     3.8412     3.8412    -0.0000
102 C      5.9729     6.0000     0.0271     3.8247     3.8247    -0.0000
103 C      5.9825     6.0000     0.0175     3.8277     3.8277    -0.0000
104 C      5.9672     6.0000     0.0328     3.8781     3.8781    -0.0000
105 C      6.0069     6.0000    -0.0069     3.9124     3.9124    -0.0000
106 C      5.8726     6.0000     0.1274     3.8629     3.8629    -0.0000
107 N      7.3178     7.0000    -0.3178     3.3576     3.3576    -0.0000
108 C      5.8462     6.0000     0.1538     3.8183     3.8183    -0.0000
109 C      6.0166     6.0000    -0.0166     3.9538     3.9538    -0.0000
110 H      0.9527     1.0000     0.0473     0.9919     0.9919    -0.0000
111 H      0.9298     1.0000     0.0702     0.9814     0.9814    -0.0000
112 H      0.9497     1.0000     0.0503     0.9915     0.9915    -0.0000
113 H      0.9403     1.0000     0.0597     0.9942     0.9942    -0.0000
114 H      0.9320     1.0000     0.0680     0.9922     0.9922    -0.0000
115 H      0.9292     1.0000     0.0708     1.0118     1.0118    -0.0000
116 C      6.0738     6.0000    -0.0738     3.7181     3.7181    -0.0000
117 C      5.9909     6.0000     0.0091     3.8694     3.8694    -0.0000
118 C      6.0172     6.0000    -0.0172     3.8232     3.8232    -0.0000
119 C      5.8763     6.0000     0.1237     3.8882     3.8882    -0.0000
120 N      7.1301     7.0000    -0.1301     3.3666     3.3666    -0.0000
121 C      5.8723     6.0000     0.1277     3.8658     3.8658    -0.0000
122 C      6.0224     6.0000    -0.0224     3.8572     3.8572    -0.0000
123 C      6.0331     6.0000    -0.0331     3.8840     3.8840    -0.0000
124 C      5.9583     6.0000     0.0417     3.7743     3.7743    -0.0000
125 C      6.0678     6.0000    -0.0678     3.8668     3.8668    -0.0000
126 C      5.9782     6.0000     0.0218     3.8856     3.8856    -0.0000
127 C      5.9611     6.0000     0.0389     3.8256     3.8256    -0.0000
128 C      6.0263     6.0000    -0.0263     3.8458     3.8458    -0.0000
129 H      0.9739     1.0000     0.0261     0.9936     0.9936    -0.0000
130 H      0.9899     1.0000     0.0101     0.9988     0.9988    -0.0000
131 H      0.8473     1.0000     0.1527     0.9886     0.9886    -0.0000
132 H      0.9703     1.0000     0.0297     0.9922     0.9922    -0.0000
133 H      0.9667     1.0000     0.0333     0.9894     0.9894    -0.0000
134 H      1.0060     1.0000    -0.0060     0.9946     0.9946    -0.0000
135 H      1.0025     1.0000    -0.0025     0.9957     0.9957    -0.0000
136 C      6.0249     6.0000    -0.0249     3.9025     3.9025    -0.0000
137 C      5.9393     6.0000     0.0607     3.8822     3.8822    -0.0000
138 C      6.0187     6.0000    -0.0187     3.9273     3.9273    -0.0000
139 C      5.8864     6.0000     0.1136     3.8754     3.8754    -0.0000
140 N      7.3008     7.0000    -0.3008     3.3762     3.3762    -0.0000
141 C      5.8714     6.0000     0.1286     3.8662     3.8662    -0.0000
142 H      0.9293     1.0000     0.0707     0.9921     0.9921    -0.0000
143 H      0.9219     1.0000     0.0781     0.9859     0.9859    -0.0000
144 H      0.9189     1.0000     0.0811     0.9837     0.9837    -0.0000
145 H      0.9452     1.0000     0.0548     1.0042     1.0042    -0.0000
146 C      5.9886     6.0000     0.0114     3.6911     3.6911    -0.0000
147 C      6.0797     6.0000    -0.0797     3.6625     3.6625    -0.0000
148 C      5.9970     6.0000     0.0030     3.7709     3.7709    -0.0000
149 C      5.9801     6.0000     0.0199     3.8505     3.8505    -0.0000
150 C      5.9845     6.0000     0.0155     3.8160     3.8160    -0.0000
151 C      5.9876     6.0000     0.0124     3.8285     3.8285    -0.0000
152 C      5.9717     6.0000     0.0283     3.8696     3.8696    -0.0000
153 C      6.0035     6.0000    -0.0035     3.9033     3.9033    -0.0000
154 C      5.8722     6.0000     0.1278     3.8564     3.8564    -0.0000
155 N      7.3152     7.0000    -0.3152     3.3612     3.3612    -0.0000
156 C      5.8413     6.0000     0.1587     3.8255     3.8255    -0.0000
157 C      6.0108     6.0000    -0.0108     3.9561     3.9561    -0.0000
158 H      0.9624     1.0000     0.0376     0.9928     0.9928    -0.0000
159 H      0.9330     1.0000     0.0670     0.9809     0.9809    -0.0000
160 H      0.9494     1.0000     0.0506     0.9915     0.9915    -0.0000
161 H      0.9394     1.0000     0.0606     0.9943     0.9943    -0.0000
162 H      0.9087     1.0000     0.0913     0.9804     0.9804    -0.0000
163 H      0.9458     1.0000     0.0542     1.0207     1.0207    -0.0000
164 C      6.0753     6.0000    -0.0753     3.7263     3.7263    -0.0000
165 C      5.9890     6.0000     0.0110     3.8810     3.8810    -0.0000
166 C      6.0041     6.0000    -0.0041     3.8223     3.8223    -0.0000
167 C      5.8909     6.0000     0.1091     3.8901     3.8901    -0.0000
168 N      7.1394     7.0000    -0.1394     3.3504     3.3504    -0.0000
169 C      5.8738     6.0000     0.1262     3.8629     3.8629    -0.0000
170 C      6.0367     6.0000    -0.0367     3.8627     3.8627    -0.0000
171 C      6.0412     6.0000    -0.0412     3.8845     3.8845    -0.0000
172 C      5.9421     6.0000     0.0579     3.7734     3.7734    -0.0000
173 C      6.0567     6.0000    -0.0567     3.8682     3.8682    -0.0000
174 C      5.9661     6.0000     0.0339     3.8953     3.8953    -0.0000
175 C      5.9513     6.0000     0.0487     3.8257     3.8257    -0.0000
176 C      6.0249     6.0000    -0.0249     3.8386     3.8386    -0.0000
177 H      0.9706     1.0000     0.0294     0.9923     0.9923    -0.0000
178 H      0.9860     1.0000     0.0140     0.9976     0.9976    -0.0000
179 H      0.8554     1.0000     0.1446     0.9959     0.9959    -0.0000
180 H      0.9784     1.0000     0.0216     0.9922     0.9922    -0.0000
181 H      0.9691     1.0000     0.0309     0.9895     0.9895    -0.0000
182 H      1.0138     1.0000    -0.0138     0.9964     0.9964    -0.0000
183 H      1.0041     1.0000    -0.0041     0.9968     0.9968    -0.0000
184 C      6.0247     6.0000    -0.0247     3.9121     3.9121    -0.0000
185 C      5.9493     6.0000     0.0507     3.8816     3.8816    -0.0000
186 C      6.0186     6.0000    -0.0186     3.9228     3.9228    -0.0000
187 C      5.8711     6.0000     0.1289     3.8684     3.8684    -0.0000
188 N      7.2990     7.0000    -0.2990     3.3813     3.3813    -0.0000
189 C      5.8806     6.0000     0.1194     3.8675     3.8675    -0.0000
190 H      0.9307     1.0000     0.0693     0.9918     0.9918    -0.0000
191 H      0.9223     1.0000     0.0777     0.9859     0.9859    -0.0000
192 H      0.9128     1.0000     0.0872     0.9822     0.9822    -0.0000
193 H      0.9448     1.0000     0.0552     1.0025     1.0025    -0.0000

  Mayer bond orders larger than 0.100000
B(  0-Pd, 44-N ) :   0.5529 B(  0-Pd, 92-N ) :   0.5467 B(  0-Pd,107-N ) :   0.5483 
B(  0-Pd,155-N ) :   0.5554 B(  1-Pd, 11-N ) :   0.5554 B(  1-Pd, 59-N ) :   0.5483 
B(  1-Pd,140-N ) :   0.5467 B(  1-Pd,188-N ) :   0.5529 B(  2-C ,  3-C ) :   2.5816 
B(  2-C , 20-C ) :   0.9985 B(  3-C ,  4-C ) :   0.9804 B(  4-C ,  5-C ) :   1.4760 
B(  4-C , 13-C ) :   1.2218 B(  5-C ,  6-C ) :   1.2542 B(  5-C , 14-H ) :   0.9915 
B(  6-C ,  7-C ) :   1.4604 B(  6-C , 15-H ) :   0.9811 B(  7-C ,  8-C ) :   1.2639 
B(  7-C , 16-H ) :   0.9965 B(  8-C ,  9-C ) :   1.2479 B(  8-C , 13-C ) :   1.2195 
B(  9-C , 10-C ) :   1.5502 B(  9-C , 17-H ) :   0.9751 B( 10-C , 11-N ) :   1.1999 
B( 10-C , 18-H ) :   0.9443 B( 11-N , 12-C ) :   1.4034 B( 12-C , 13-C ) :   1.3314 
B( 12-C , 19-H ) :   0.9337 B( 20-C , 21-C ) :   1.3016 B( 20-C , 32-C ) :   1.3485 
B( 21-C , 22-C ) :   1.4193 B( 21-C , 33-H ) :   0.9871 B( 22-C , 23-C ) :   1.3153 
B( 22-C , 34-H ) :   0.9927 B( 23-C , 24-N ) :   1.1320 B( 23-C , 31-C ) :   1.2646 
B( 24-N , 25-C ) :   1.1509 B( 24-N , 35-H ) :   0.9294 B( 25-C , 26-C ) :   1.3025 
B( 25-C , 30-C ) :   1.2535 B( 26-C , 27-C ) :   1.4318 B( 26-C , 36-H ) :   1.0025 
B( 27-C , 28-C ) :   1.3076 B( 27-C , 37-H ) :   0.9816 B( 28-C , 29-C ) :   1.3578 
B( 28-C , 40-C ) :   1.0271 B( 29-C , 30-C ) :   1.3884 B( 29-C , 38-H ) :   0.9776 
B( 30-C , 31-C ) :   1.1113 B( 31-C , 32-C ) :   1.3385 B( 32-C , 39-H ) :   0.9970 
B( 40-C , 41-C ) :   1.3613 B( 40-C , 45-C ) :   1.3955 B( 41-C , 42-C ) :   1.4122 
B( 41-C , 46-H ) :   0.9786 B( 42-C , 43-C ) :   1.4150 B( 42-C , 47-H ) :   0.9730 
B( 43-C , 44-N ) :   1.3182 B( 43-C , 48-H ) :   0.9535 B( 44-N , 45-C ) :   1.3253 
B( 45-C , 49-H ) :   0.9538 B( 50-C , 51-C ) :   2.5816 B( 50-C , 68-C ) :   0.9890 
B( 51-C , 52-C ) :   0.9866 B( 52-C , 53-C ) :   1.4668 B( 52-C , 61-C ) :   1.2196 
B( 53-C , 54-C ) :   1.2600 B( 53-C , 62-H ) :   0.9927 B( 54-C , 55-C ) :   1.4591 
B( 54-C , 63-H ) :   0.9808 B( 55-C , 56-C ) :   1.2679 B( 55-C , 64-H ) :   0.9946 
B( 56-C , 57-C ) :   1.2485 B( 56-C , 61-C ) :   1.2218 B( 57-C , 58-C ) :   1.5570 
B( 57-C , 65-H ) :   0.9734 B( 58-C , 59-N ) :   1.2063 B( 58-C , 66-H ) :   0.9437 
B( 59-N , 60-C ) :   1.3994 B( 60-C , 61-C ) :   1.3327 B( 60-C , 67-H ) :   0.9339 
B( 68-C , 69-C ) :   1.3020 B( 68-C , 80-C ) :   1.3505 B( 69-C , 70-C ) :   1.4132 
B( 69-C , 81-H ) :   0.9874 B( 70-C , 71-C ) :   1.3159 B( 70-C , 82-H ) :   0.9931 
B( 71-C , 72-N ) :   1.1488 B( 71-C , 79-C ) :   1.2511 B( 72-N , 73-C ) :   1.1574 
B( 72-N , 83-H ) :   0.9277 B( 73-C , 74-C ) :   1.3062 B( 73-C , 78-C ) :   1.2462 
B( 74-C , 75-C ) :   1.4355 B( 74-C , 84-H ) :   1.0021 B( 75-C , 76-C ) :   1.3106 
B( 75-C , 85-H ) :   0.9818 B( 76-C , 77-C ) :   1.3589 B( 76-C , 88-C ) :   1.0224 
B( 77-C , 78-C ) :   1.3841 B( 77-C , 86-H ) :   0.9816 B( 78-C , 79-C ) :   1.1183 
B( 79-C , 80-C ) :   1.3454 B( 80-C , 87-H ) :   0.9971 B( 88-C , 89-C ) :   1.3669 
B( 88-C , 93-C ) :   1.3878 B( 89-C , 90-C ) :   1.4080 B( 89-C , 94-H ) :   0.9796 
B( 90-C , 91-C ) :   1.4215 B( 90-C , 95-H ) :   0.9729 B( 91-C , 92-N ) :   1.3164 
B( 91-C , 96-H ) :   0.9532 B( 92-N , 93-C ) :   1.3278 B( 93-C , 97-H ) :   0.9562 
B( 98-C , 99-C ) :   2.5818 B( 98-C ,116-C ) :   0.9889 B( 99-C ,100-C ) :   0.9865 
B(100-C ,101-C ) :   1.4670 B(100-C ,109-C ) :   1.2196 B(101-C ,102-C ) :   1.2599 
B(101-C ,110-H ) :   0.9927 B(102-C ,103-C ) :   1.4592 B(102-C ,111-H ) :   0.9808 
B(103-C ,104-C ) :   1.2678 B(103-C ,112-H ) :   0.9946 B(104-C ,105-C ) :   1.2485 
B(104-C ,109-C ) :   1.2219 B(105-C ,106-C ) :   1.5570 B(105-C ,113-H ) :   0.9735 
B(106-C ,107-N ) :   1.2062 B(106-C ,114-H ) :   0.9437 B(107-N ,108-C ) :   1.3995 
B(108-C ,109-C ) :   1.3326 B(108-C ,115-H ) :   0.9340 B(116-C ,117-C ) :   1.3021 
B(116-C ,128-C ) :   1.3505 B(117-C ,118-C ) :   1.4132 B(117-C ,129-H ) :   0.9873 
B(118-C ,119-C ) :   1.3159 B(118-C ,130-H ) :   0.9931 B(119-C ,120-N ) :   1.1488 
B(119-C ,127-C ) :   1.2511 B(120-N ,121-C ) :   1.1575 B(120-N ,131-H ) :   0.9277 
B(121-C ,122-C ) :   1.3061 B(121-C ,126-C ) :   1.2461 B(122-C ,123-C ) :   1.4355 
B(122-C ,132-H ) :   1.0021 B(123-C ,124-C ) :   1.3106 B(123-C ,133-H ) :   0.9818 
B(124-C ,125-C ) :   1.3589 B(124-C ,136-C ) :   1.0224 B(125-C ,126-C ) :   1.3841 
B(125-C ,134-H ) :   0.9816 B(126-C ,127-C ) :   1.1183 B(127-C ,128-C ) :   1.3453 
B(128-C ,135-H ) :   0.9971 B(136-C ,137-C ) :   1.3670 B(136-C ,141-C ) :   1.3877 
B(137-C ,138-C ) :   1.4079 B(137-C ,142-H ) :   0.9796 B(138-C ,139-C ) :   1.4215 
B(138-C ,143-H ) :   0.9728 B(139-C ,140-N ) :   1.3163 B(139-C ,144-H ) :   0.9533 
B(140-N ,141-C ) :   1.3279 B(141-C ,145-H ) :   0.9562 B(146-C ,147-C ) :   2.5818 
B(146-C ,164-C ) :   0.9985 B(147-C ,148-C ) :   0.9803 B(148-C ,149-C ) :   1.4758 
B(148-C ,157-C ) :   1.2220 B(149-C ,150-C ) :   1.2543 B(149-C ,158-H ) :   0.9915 
B(150-C ,151-C ) :   1.4603 B(150-C ,159-H ) :   0.9811 B(151-C ,152-C ) :   1.2640 
B(151-C ,160-H ) :   0.9965 B(152-C ,153-C ) :   1.2480 B(152-C ,157-C ) :   1.2194 
B(153-C ,154-C ) :   1.5502 B(153-C ,161-H ) :   0.9751 B(154-C ,155-N ) :   1.1999 
B(154-C ,162-H ) :   0.9443 B(155-N ,156-C ) :   1.4035 B(156-C ,157-C ) :   1.3313 
B(156-C ,163-H ) :   0.9338 B(164-C ,165-C ) :   1.3015 B(164-C ,176-C ) :   1.3488 
B(165-C ,166-C ) :   1.4194 B(165-C ,177-H ) :   0.9871 B(166-C ,167-C ) :   1.3152 
B(166-C ,178-H ) :   0.9927 B(167-C ,168-N ) :   1.1320 B(167-C ,175-C ) :   1.2647 
B(168-N ,169-C ) :   1.1511 B(168-N ,179-H ) :   0.9293 B(169-C ,170-C ) :   1.3024 
B(169-C ,174-C ) :   1.2535 B(170-C ,171-C ) :   1.4319 B(170-C ,180-H ) :   1.0026 
B(171-C ,172-C ) :   1.3075 B(171-C ,181-H ) :   0.9817 B(172-C ,173-C ) :   1.3578 
B(172-C ,184-C ) :   1.0270 B(173-C ,174-C ) :   1.3883 B(173-C ,182-H ) :   0.9777 
B(174-C ,175-C ) :   1.1114 B(175-C ,176-C ) :   1.3383 B(176-C ,183-H ) :   0.9970 
B(184-C ,185-C ) :   1.3614 B(184-C ,189-C ) :   1.3955 B(185-C ,186-C ) :   1.4121 
B(185-C ,190-H ) :   0.9786 B(186-C ,187-C ) :   1.4150 B(186-C ,191-H ) :   0.9730 
B(187-C ,188-N ) :   1.3181 B(187-C ,192-H ) :   0.9535 B(188-N ,189-C ) :   1.3254 
B(189-C ,193-H ) :   0.9538 

-------
TIMINGS
-------

Total SCF time: 0 days 0 hours 27 min 45 sec 

Total time                  ....    1665.169 sec
Sum of individual times     ....    1654.525 sec  ( 99.4%)

Fock matrix formation       ....    1444.414 sec  ( 86.7%)
  XC integration            ....      45.494 sec  (  3.1% of F)
    Basis function eval.    ....      10.065 sec  ( 22.1% of XC)
    Density eval.           ....      16.893 sec  ( 37.1% of XC)
    XC-Functional eval.     ....       2.030 sec  (  4.5% of XC)
    XC-Potential eval.      ....       6.005 sec  ( 13.2% of XC)
Diagonalization             ....      26.976 sec  (  1.6%)
Density matrix formation    ....       1.438 sec  (  0.1%)
Population analysis         ....       8.270 sec  (  0.5%)
Initial guess               ....       5.002 sec  (  0.3%)
Orbital Transformation      ....       0.000 sec  (  0.0%)
Orbital Orthonormalization  ....       0.000 sec  (  0.0%)
DIIS solution               ....     123.470 sec  (  7.4%)
Grid generation             ....      44.954 sec  (  2.7%)


-------------------------------------------------------------------------------
                          DFT DISPERSION CORRECTION                            
                                                                               
                              DFTD3 V3.1  Rev 1                                
                          USING Becke-Johnson damping                          
-------------------------------------------------------------------------------
The PBE0 functional is recognized
Active option DFTDOPT                   ...         4   

molecular C6(AA) [au] = 574876.708891 


            DFT-D V3
 parameters
 s6 scaling factor         :     1.0000 
 a1 scaling factor         :     0.4145 
 s8 scaling factor         :     1.2177 
 a2 scaling factor         :     4.8593 
 ad hoc parameters k1-k3   :    16.0000     1.3333    -4.0000 

 Edisp/kcal,au: -214.616965538995  -0.342013868342 
 E6   /kcal   : -134.554775545 
 E8   /kcal   : -80.062189994 
 % E8         :  37.304688282 

-------------------------   ----------------
Dispersion correction           -0.342013868
-------------------------   ----------------


-------------------------   --------------------
FINAL SINGLE POINT ENERGY     -5211.766804711965
-------------------------   --------------------


                            ***************************************
                            *     ORCA property calculations      *
                            ***************************************

                                    ---------------------
                                    Active property flags
                                    ---------------------
   (+) Dipole Moment


------------------------------------------------------------------------------
                       ORCA ELECTRIC PROPERTIES CALCULATION
------------------------------------------------------------------------------

Dipole Moment Calculation                       ... on
Quadrupole Moment Calculation                   ... off
Polarizability Calculation                      ... off
GBWName                                         ... _s_4c1_c_PBE0.gbw
Electron density file                           ... _s_4c1_c_PBE0.scfp
The origin for moment calculation is the CENTER OF MASS  = ( 0.655082, -1.540120  0.929479)

-------------
DIPOLE MOMENT
-------------
                                X             Y             Z
Electronic contribution:    -62.97813       2.98164      57.51181
Nuclear contribution   :     62.80585      -2.97147     -57.35700
                        -----------------------------------------
Total Dipole Moment    :     -0.17228       0.01017       0.15481
                        -----------------------------------------
Magnitude (a.u.)       :      0.23184
Magnitude (Debye)      :      0.58929



--------------------
Rotational spectrum 
--------------------
 
Rotational constants in cm-1:     0.000431     0.000282     0.000277 
Rotational constants in MHz :    12.925090     8.460416     8.297970 

 Dipole components along the rotational axes: 
x,y,z [a.u.] :     0.002231     0.001388     0.231823 
x,y,z [Debye]:     0.005670     0.003529     0.589248 

 

Timings for individual modules:

Sum of individual times         ...     1672.818 sec (=  27.880 min)
GTO integral calculation        ...        7.183 sec (=   0.120 min)   0.4 %
SCF iterations                  ...     1665.635 sec (=  27.761 min)  99.6 %
                             ****ORCA TERMINATED NORMALLY****
TOTAL RUN TIME: 0 days 0 hours 27 minutes 55 seconds 373 msec
