Job execution start: Tue Jun 22 16:48:03 BST 2021
Shared library path: /work/e05/e05/atarzia/orca_4_2_1_linux_x86-64_openmpi314:/work/e05/e05/atarzia/openmpi-3.1.4/lib:/opt/cray/pe/papi/6.0.0.4/lib64:/opt/cray/libfabric/1.11.0.0.233/lib64
Slurm Job ID is: 344710
Slurm Job name is: s_4c1_a_B97-3c
nid001787

                                 *****************
                                 * O   R   C   A *
                                 *****************

           --- An Ab Initio, DFT and Semiempirical electronic structure package ---

                  #######################################################
                  #                        -***-                        #
                  #          Department of theory and spectroscopy      #
                  #               Directorship: Frank Neese             #
                  #        Max Planck Institute fuer Kohlenforschung    #
                  #                Kaiser Wilhelm Platz 1               #
                  #                 D-45470 Muelheim/Ruhr               #
                  #                      Germany                        #
                  #                                                     #
                  #                  All rights reserved                #
                  #                        -***-                        #
                  #######################################################


                         Program Version 4.2.1 -  RELEASE  -


 With contributions from (in alphabetic order):
   Daniel Aravena         : Magnetic Suceptibility
   Michael Atanasov       : Ab Initio Ligand Field Theory (pilot matlab implementation)
   Alexander A. Auer      : GIAO ZORA, VPT2
   Ute Becker             : Parallelization
   Giovanni Bistoni       : ED, misc. LED, open-shell LED, HFLD
   Martin Brehm           : Molecular dynamics
   Dmytro Bykov           : SCF Hessian
   Vijay G. Chilkuri      : MRCI spin determinant printing, contributions to CSF-ICE
   Dipayan Datta          : RHF DLPNO-CCSD density
   Achintya Kumar Dutta   : EOM-CC, STEOM-CC
   Dmitry Ganyushin       : Spin-Orbit,Spin-Spin,Magnetic field MRCI
   Miquel Garcia          : C-PCM Hessian, Gaussian charge scheme
   Yang Guo               : DLPNO-NEVPT2, CIM, IAO-localization
   Andreas Hansen         : Spin unrestricted coupled pair/coupled cluster methods
   Benjamin Helmich-Paris : CASSCF linear response (MC-RPA)
   Lee Huntington         : MR-EOM, pCC
   Robert Izsak           : Overlap fitted RIJCOSX, COSX-SCS-MP3, EOM
   Christian Kollmar      : KDIIS, OOCD, Brueckner-CCSD(T), CCSD density
   Simone Kossmann        : Meta GGA functionals, TD-DFT gradient, OOMP2, MP2 Hessian
   Martin Krupicka        : AUTO-CI
   Lucas Lang             : DCDCAS
   Dagmar Lenk            : GEPOL surface, SMD
   Dimitrios Liakos       : Extrapolation schemes; Compound Job, initial MDCI parallelization
   Dimitrios Manganas     : Further ROCIS development; embedding schemes
   Dimitrios Pantazis     : SARC Basis sets
   Taras Petrenko         : DFT Hessian,TD-DFT gradient, ASA, ECA, R-Raman, ABS, FL, XAS/XES, NRVS
   Peter Pinski           : DLPNO-MP2, DLPNO-MP2 Gradient
   Christoph Reimann      : Effective Core Potentials
   Marius Retegan         : Local ZFS, SOC
   Christoph Riplinger    : Optimizer, TS searches, QM/MM, DLPNO-CCSD(T), (RO)-DLPNO pert. Triples
   Tobias Risthaus        : Range-separated hybrids, TD-DFT gradient, RPA, STAB
   Michael Roemelt        : Original ROCIS implementation
   Masaaki Saitow         : Open-shell DLPNO-CCSD energy and density
   Barbara Sandhoefer     : DKH picture change effects
   Avijit Sen             : IP-ROCIS
   Kantharuban Sivalingam : CASSCF convergence, NEVPT2, FIC-MRCI
   Bernardo de Souza      : ESD, SOC TD-DFT
   Georgi Stoychev        : AutoAux, RI-MP2 NMR
   Willem Van den Heuvel  : Paramagnetic NMR
   Boris Wezisla          : Elementary symmetry handling
   Frank Wennmohs         : Technical directorship


 We gratefully acknowledge several colleagues who have allowed us to
 interface, adapt or use parts of their codes:
   Stefan Grimme, W. Hujo, H. Kruse,             : VdW corrections, initial TS optimization,
                  C. Bannwarth                     DFT functionals, gCP, sTDA/sTD-DF
   Ed Valeev, F. Pavosevic, A. Kumar             : LibInt (2-el integral package), F12 methods
   Garnet Chan, S. Sharma, J. Yang, R. Olivares  : DMRG
   Ulf Ekstrom                                   : XCFun DFT Library
   Mihaly Kallay                                 : mrcc  (arbitrary order and MRCC methods)
   Andreas Klamt, Michael Diedenhofen            : otool_cosmo (COSMO solvation model)
   Jiri Pittner, Ondrej Demel                    : Mk-CCSD
   Frank Weinhold                                : gennbo (NPA and NBO analysis)
   Christopher J. Cramer and Donald G. Truhlar   : smd solvation model
   Lars Goerigk                                  : TD-DFT with DH, B97 family of functionals
   V. Asgeirsson, H. Jonsson                     : NEB implementation
   FAccTs GmbH                                   : IRC, NEB, NEB-TS, Multilevel, MM, QM/MM, CI optimization
   S Lehtola, MJT Oliveira, MAL Marques          : LibXC Library


 Your calculation uses the libint2 library for the computation of 2-el integrals
 For citations please refer to: http://libint.valeyev.net

 Your ORCA version has been built with support for libXC version: 4.2.3
 For citations please refer to: https://tddft.org/programs/libxc/

 This ORCA versions uses:
   CBLAS   interface :  Fast vector & matrix operations
   LAPACKE interface :  Fast linear algebra routines
   SCALAPACK package :  Parallel linear algebra routines




***************************************
The coordinates will be read from file: s_4c1_a.xyz
***************************************


Your calculation utilizes the atom-pairwise dispersion correction
with the Becke-Johnson damping scheme (D3BJ)
Cite in your paper:
S.Grimme, S.Ehrlich, L.Goerigk, J Comput Chem, (2011), 32, 1456–1465 
S.Grimme, J.Antony, S.Ehrlich and H.Krieg, J.Chem.Phys., 132, (2010), 154104 
   

Your calculation employs the composite approach B97-3c by Grimme and coworkers.
For the correct reference, please check the publication list of the Grimme group:
http://www.thch.uni-bonn.de/tc/index.php?section=publikationen&subsection=grimme#2017
   

XCFun DFT library Copyright 2009-2010 Ulf Ekstrom and contributors.
See http://admol.org/xcfun for more information. This is free soft-
ware; see the source code for copying conditions. There is ABSOLUTELY
NO WARRANTY; not even for MERCHANTABILITY or FITNESS FOR A PARTICULAR
PURPOSE. For details see the documentation. Scientific users of this 
library should cite U. Ekstrom, L. Visscher, R. Bast, A. J. Thorvald-
sen and K. Ruud; J.Chem.Theor.Comp. 2010, DOI: 10.1021/ct100117s
XCFun Version 0.99 
----- Orbital basis set information -----
Your calculation utilizes the basis: def2-mTZVP
----- AuxJ basis set information -----
Your calculation utilizes the basis: def2-mTZVP/J
cite the ECPs for Pd [Def2-ECP] as follows:
Ce-Yb(ecp-28): M. Dolg, H. Stoll, H.Preuss, J. Chem. Phys., 1989, 90, 1730-1734.
Y-Cd(ecp-28), Hf-Hg(ecp-46): D. Andrae,U. Haeussermann, M. Dolg, H. Stoll, H. Preuss, Theor. Chim. Acta, 1990, 77, 123-141.
In-Sb(ecp-28), Tl-Bi(ecp-46): B. Metz, H. Stoll, M. Dolg, J. Chem. Phys., 2000, 113, 2563-2569.
Te-Xe(ecp-28), Po-Rn(ecp-46): K. A. Peterson, D. Figgen, E. Goll, H. Stoll, M. Dolg, J. Chem. Phys., 2003, 119, 11113-11123.
Rb(ecp-28), Cs(ecp-46): T. Leininger, A. Nicklass, W. Kuechle, H. Stoll, M. Dolg, A. Bergner, Chem. Phys. Lett., 1996, 255, 274-280.
Sr(ecp-28), Ba(ecp-46): M. Kaupp, P. V. Schleyer, H. Stoll and H. Preuss, J. Chem. Phys., 1991, 94, 1360-1366.
La(ecp-46): M. Dolg, H. Stoll, A. Savin, H. Preuss, Theor. Chim. Acta, 1989, 75, 173-194.
Lu(ecp-28): X. Cao, M. Dolg, J. Chem. Phys., 2001, 115, 7348-7355.

ECP parameters for Pd [Def2-ECP] have been obtained from:
TURBOMOLE (7.0.2)

================================================================================
                                        WARNINGS
                       Please study these warnings very carefully!
================================================================================


INFO   : the flag for use of LIBINT has been found!

================================================================================
                                       INPUT FILE
================================================================================
NAME = s_4c1_a_B97-3c.in
|  1> ! DFT SP B97-3c TightSCF printbasis  Grid6 NOFINALGRID SlowConv 
|  2> 
|  3> %base "_s_4c1_a_B97-3c"
|  4> %maxcore 3000
|  5> %scf
|  6>    MaxIter 2000
|  7> end
|  8> %pal
|  9>    nprocs 32
| 10> end
| 11> 
| 12> * xyzfile 4 1 s_4c1_a.xyz
| 13> 
| 14>                          ****END OF INPUT****
================================================================================

                       ****************************
                       * Single Point Calculation *
                       ****************************

---------------------------------
CARTESIAN COORDINATES (ANGSTROEM)
---------------------------------
  Pd     0.429400    5.555500    0.082100
  Pd    -0.437800   -6.910800   -0.009900
  C      4.253600    1.512800    1.722500
  C      3.879800    2.206200    2.640800
  C      3.522600    3.090000    3.679300
  C      4.043700    2.951500    4.950500
  C      3.776600    3.901100    5.943900
  C      3.011100    5.010200    5.682200
  C      2.456000    5.192100    4.402500
  C      1.687700    6.322200    4.041300
  C      1.175300    6.426100    2.779700
  N      1.344800    5.449400    1.853400
  C      2.067800    4.385300    2.149400
  C      2.682300    4.208800    3.397000
  H      4.685700    2.112800    5.170300
  H      4.203900    3.765800    6.926200
  H      2.835600    5.753800    6.443600
  H      1.517500    7.101900    4.766500
  H      0.603500    7.291600    2.459000
  H      2.177000    3.620600    1.382100
  C      4.770400    0.780700    0.630600
  C      5.691600    1.434600   -0.208900
  C      6.279300    0.783700   -1.270200
  C      5.925800   -0.539900   -1.497100
  N      6.360800   -1.401100   -2.468800
  C      5.751000   -2.611700   -2.303700
  C      5.893600   -3.782700   -3.036700
  C      5.159100   -4.880300   -2.647100
  C      4.276100   -4.830300   -1.554700
  C      4.125700   -3.652100   -0.828400
  C      4.868700   -2.541500   -1.195600
  C      4.984600   -1.205300   -0.672000
  C      4.407200   -0.543000    0.401400
  H      5.951000    2.460900    0.001600
  H      6.999700    1.284600   -1.897500
  H      7.063300   -1.194800   -3.159700
  H      6.561800   -3.835500   -3.882000
  H      5.244300   -5.793700   -3.214800
  H      3.479900   -3.609700    0.033500
  H      3.703000   -1.036300    1.051600
  C      3.523700   -6.036600   -1.196300
  C      4.104500   -7.308600   -1.266000
  C      3.355400   -8.426800   -0.945500
  C      2.034600   -8.264000   -0.562700
  N      1.479300   -7.052700   -0.489600
  C      2.191600   -5.967600   -0.789700
  H      5.139000   -7.412700   -1.553000
  H      3.788900   -9.412600   -0.990300
  H      1.403100   -9.111400   -0.305100
  H      1.670200   -5.015000   -0.719900
  C     -1.489900    1.893600    4.152400
  C     -2.354900    2.630100    3.736200
  C     -3.326000    3.565700    3.325200
  C     -4.601100    3.555800    3.854900
  C     -5.522100    4.558700    3.529600
  C     -5.182200    5.595100    2.696100
  C     -3.895600    5.645600    2.129700
  C     -3.454900    6.695300    1.291900
  C     -2.191800    6.672100    0.773100
  N     -1.340300    5.641200    1.002700
  C     -1.711300    4.649300    1.791000
  C     -2.965200    4.605600    2.416400
  H     -4.879500    2.777500    4.548200
  H     -6.509400    4.524300    3.965200
  H     -5.886700    6.381400    2.474900
  H     -4.120700    7.515100    1.073800
  H     -1.810400    7.473700    0.148100
  H     -1.002900    3.837400    1.947200
  C     -0.454700    1.113000    4.713100
  C      0.437600    1.755600    5.591600
  C      1.448500    1.062000    6.218100
  C      1.570600   -0.294500    5.947300
  N      2.475100   -1.199900    6.434400
  C      2.213700   -2.429400    5.900800
  C      2.854700   -3.642600    6.115400
  C      2.377700   -4.750000    5.450200
  C      1.287900   -4.670100    4.566100
  C      0.654100   -3.450700    4.343500
  C      1.109800   -2.328200    5.016300
  C      0.691700   -0.950800    5.049400
  C     -0.330300   -0.244400    4.432500
  H      0.308500    2.809200    5.786900
  H      2.116300    1.556400    6.905800
  H      3.183600   -1.004800    7.122400
  H      3.696800   -3.719500    6.785300
  H      2.873600   -5.697600    5.591500
  H     -0.205300   -3.381500    3.696700
  H     -1.020400   -0.728300    3.760500
  C      0.833600   -5.888900    3.889700
  C      0.808700   -7.124700    4.547400
  C      0.399100   -8.258500    3.868700
  C      0.022400   -8.147800    2.540700
  N      0.039300   -6.970700    1.912300
  C      0.425900   -5.870400    2.556200
  H      1.092700   -7.187200    5.586100
  H      0.370600   -9.216500    4.361900
  H     -0.303100   -9.009900    1.962700
  H      0.426500   -4.949000    1.977400
  C     -3.917400    2.104600   -1.608800
  C     -3.450300    2.752200   -2.517800
  C     -2.973700    3.592400   -3.544500
  C     -3.508400    3.545200   -4.816700
  C     -3.111700    4.462100   -5.797300
  C     -2.199900    5.450600   -5.521500
  C     -1.625500    5.536100   -4.240300
  C     -0.708000    6.543700   -3.864700
  C     -0.186700    6.558000   -2.602500
  N     -0.490500    5.601600   -1.689400
  C     -1.353900    4.652200   -1.999100
  C     -1.986500    4.579900   -3.248000
  H     -4.260300    2.806600   -5.047000
  H     -3.553200    4.401000   -6.780700
  H     -1.922600    6.173200   -6.272800
  H     -0.431100    7.302200   -4.579400
  H      0.499500    7.331300   -2.270800
  H     -1.568400    3.899500   -1.242200
  C     -4.531000    1.434900   -0.527100
  C     -5.352900    2.197300    0.324000
  C     -6.025500    1.618100    1.376300
  C     -5.859100    0.254900    1.582400
  N     -6.409700   -0.552300    2.541700
  C     -5.973600   -1.833100    2.357100
  C     -6.277700   -2.984200    3.072400
  C     -5.702300   -4.167000    2.664800
  C     -4.820300   -4.223100    1.571900
  C     -4.507700   -3.066200    0.863400
  C     -5.089800   -1.869100    1.248600
  C     -5.019000   -0.521900    0.745600
  C     -4.355100    0.070200   -0.318700
  H     -5.467200    3.252900    0.129600
  H     -6.669600    2.204400    2.012400
  H     -7.076900   -0.261200    3.237000
  H     -6.947200   -2.956800    3.917900
  H     -5.913600   -5.068300    3.218700
  H     -3.862000   -3.100600    0.001000
  H     -3.726000   -0.505900   -0.977600
  C     -4.241700   -5.516300    1.194300
  C     -4.992500   -6.696900    1.245900
  C     -4.404800   -7.902800    0.907800
  C     -3.073900   -7.918200    0.525600
  N     -2.356700   -6.794200    0.469700
  C     -2.912500   -5.625800    0.787000
  H     -6.031700   -6.661400    1.532800
  H     -4.970300   -8.819900    0.938600
  H     -2.565300   -8.840800    0.254600
  H     -2.264600   -4.753400    0.730600
  C      1.825000    1.721900   -4.043400
  C      2.783500    2.324600   -3.617000
  C      3.874800    3.110100   -3.193700
  C      5.136600    2.930800   -3.724900
  C      6.187800    3.791100   -3.386100
  C      5.994700    4.852400   -2.537100
  C      4.727000    5.072900   -1.968500
  C      4.435800    6.161300   -1.115000
  C      3.181300    6.306400   -0.595200
  N      2.194900    5.407400   -0.839000
  C      2.425200    4.385200   -1.642100
  C      3.661300    4.176800   -2.269300
  H      5.304800    2.131600   -4.429800
  H      7.161100    3.626300   -3.823500
  H      6.801500    5.529700   -2.305300
  H      5.208900    6.877300   -0.885600
  H      2.914500    7.144100    0.041800
  H      1.610800    3.682100   -1.809400
  C      0.692100    1.100500   -4.614100
  C     -0.102100    1.873300   -5.481900
  C     -1.198700    1.335400   -6.117400
  C     -1.507400    0.005000   -5.866500
  N     -2.527800   -0.759400   -6.366000
  C     -2.439300   -2.021000   -5.851100
  C     -3.241300   -3.130900   -6.083200
  C     -2.922300   -4.303300   -5.435200
  C     -1.832900   -4.387800   -4.551100
  C     -1.037000   -3.271000   -4.311000
  C     -1.332700   -2.086500   -4.966400
  C     -0.728300   -0.779800   -4.979500
  C      0.381000   -0.230600   -4.353500
  H      0.171600    2.901700   -5.661700
  H     -1.791100    1.927500   -6.796900
  H     -3.202000   -0.458000   -7.050100
  H     -4.085200   -3.080800   -6.753300
  H     -3.544100   -5.171200   -5.590200
  H     -0.176900   -3.330800   -3.664200
  H      0.997000   -0.815300   -3.689600
  C     -1.552000   -5.667500   -3.893100
  C     -1.697100   -6.885100   -4.568700
  C     -1.448700   -8.074400   -3.906900
  C     -1.061600   -8.036100   -2.577900
  N     -0.916600   -6.877100   -1.932300
  C     -1.147100   -5.724800   -2.559800
  H     -1.986000   -6.892700   -5.607900
  H     -1.552200   -9.019900   -4.414000
  H     -0.858800   -8.943100   -2.012800
  H     -1.021200   -4.820600   -1.967600

----------------------------
CARTESIAN COORDINATES (A.U.)
----------------------------
  NO LB      ZA    FRAG     MASS         X           Y           Z
   0 Pd   18.0000*   0   106.400    0.811448   10.498374    0.155147
   1 Pd   18.0000*   0   106.400   -0.827322  -13.059519   -0.018708
   2 C     6.0000    0    12.011    8.038139    2.858778    3.255053
   3 C     6.0000    0    12.011    7.331759    4.169114    4.990389
   4 C     6.0000    0    12.011    6.656749    5.839254    6.952869
   5 C     6.0000    0    12.011    7.641486    5.577527    9.355089
   6 C     6.0000    0    12.011    7.136740    7.372011   11.232343
   7 C     6.0000    0    12.011    5.690154    9.467906   10.737802
   8 C     6.0000    0    12.011    4.641167    9.811647    8.319519
   9 C     6.0000    0    12.011    3.189291   11.947227    7.636950
  10 C     6.0000    0    12.011    2.220995   12.143569    5.252872
  11 N     7.0000    0    14.007    2.541304   10.297874    3.502418
  12 C     6.0000    0    12.011    3.907576    8.287016    4.061777
  13 C     6.0000    0    12.011    5.068812    7.953479    6.419400
  14 H     1.0000    0     1.008    8.854690    3.992613    9.770451
  15 H     1.0000    0     1.008    7.944220    7.116331   13.088621
  16 H     1.0000    0     1.008    5.358507   10.873106   12.176639
  17 H     1.0000    0     1.008    2.867659   13.420646    9.007380
  18 H     1.0000    0     1.008    1.140450   13.779127    4.646837
  19 H     1.0000    0     1.008    4.113934    6.841942    2.611790
  20 C     6.0000    0    12.011    9.014750    1.475309    1.191661
  21 C     6.0000    0    12.011   10.755565    2.711001   -0.394764
  22 C     6.0000    0    12.011   11.866157    1.480978   -2.400330
  23 C     6.0000    0    12.011   11.198139   -1.020263   -2.829109
  24 N     7.0000    0    14.007   12.020170   -2.647695   -4.665356
  25 C     6.0000    0    12.011   10.867815   -4.935398   -4.353362
  26 C     6.0000    0    12.011   11.137290   -7.148267   -5.738531
  27 C     6.0000    0    12.011    9.749286   -9.222430   -5.002294
  28 C     6.0000    0    12.011    8.080658   -9.127944   -2.937957
  29 C     6.0000    0    12.011    7.796443   -6.901469   -1.565449
  30 C     6.0000    0    12.011    9.200510   -4.802739   -2.259357
  31 C     6.0000    0    12.011    9.419529   -2.277687   -1.269896
  32 C     6.0000    0    12.011    8.328401   -1.026121    0.758536
  33 H     1.0000    0     1.008   11.245760    4.650427    0.003024
  34 H     1.0000    0     1.008   13.227516    2.427542   -3.585755
  35 H     1.0000    0     1.008   13.347703   -2.257845   -5.970968
  36 H     1.0000    0     1.008   12.400005   -7.248045   -7.335917
  37 H     1.0000    0     1.008    9.910291  -10.948506   -6.075092
  38 H     1.0000    0     1.008    6.576058   -6.821344    0.063306
  39 H     1.0000    0     1.008    6.997656   -1.958323    1.987236
  40 C     6.0000    0    12.011    6.658828  -11.407521   -2.260679
  41 C     6.0000    0    12.011    7.756381  -13.811252   -2.392393
  42 C     6.0000    0    12.011    6.340787  -15.924344   -1.786736
  43 C     6.0000    0    12.011    3.844837  -15.616697   -1.063349
  44 N     7.0000    0    14.007    2.795472  -13.327672   -0.925210
  45 C     6.0000    0    12.011    4.141524  -11.277130   -1.492317
  46 H     1.0000    0     1.008    9.711303  -14.007973   -2.934745
  47 H     1.0000    0     1.008    7.159983  -17.787236   -1.871396
  48 H     1.0000    0     1.008    2.651475  -17.218051   -0.576555
  49 H     1.0000    0     1.008    3.156221   -9.476977   -1.360414
  50 C     6.0000    0    12.011   -2.815503    3.578385    7.846899
  51 C     6.0000    0    12.011   -4.450116    4.970169    7.060395
  52 C     6.0000    0    12.011   -6.285229    6.738196    6.283717
  53 C     6.0000    0    12.011   -8.694819    6.719488    7.284705
  54 C     6.0000    0    12.011  -10.435257    8.614695    6.669977
  55 C     6.0000    0    12.011   -9.792939   10.573207    5.094891
  56 C     6.0000    0    12.011   -7.361617   10.668638    4.024550
  57 C     6.0000    0    12.011   -6.528815   12.652283    2.441337
  58 C     6.0000    0    12.011   -4.141902   12.608442    1.460947
  59 N     7.0000    0    14.007   -2.532800   10.660323    1.894828
  60 C     6.0000    0    12.011   -3.233888    8.785904    3.384500
  61 C     6.0000    0    12.011   -5.603416    8.703323    4.566334
  62 H     1.0000    0     1.008   -9.220919    5.248714    8.594852
  63 H     1.0000    0     1.008  -12.300983    8.549688    7.493142
  64 H     1.0000    0     1.008  -11.124251   12.059098    4.676883
  65 H     1.0000    0     1.008   -7.786994   14.201481    2.029188
  66 H     1.0000    0     1.008   -3.421160   14.123246    0.279868
  67 H     1.0000    0     1.008   -1.895206    7.251635    3.679675
  68 C     6.0000    0    12.011   -0.859258    2.103265    8.906468
  69 C     6.0000    0    12.011    0.826944    3.317603   10.566593
  70 C     6.0000    0    12.011    2.737268    2.006889   11.750506
  71 C     6.0000    0    12.011    2.968004   -0.556524   11.238768
  72 N     7.0000    0    14.007    4.677261   -2.267482   12.159254
  73 C     6.0000    0    12.011    4.183287   -4.590901   11.150896
  74 C     6.0000    0    12.011    5.394601   -6.883516   11.556431
  75 C     6.0000    0    12.011    4.493202   -8.976199   10.299385
  76 C     6.0000    0    12.011    2.433778   -8.825210    8.628679
  77 C     6.0000    0    12.011    1.236070   -6.520878    8.208025
  78 C     6.0000    0    12.011    2.097218   -4.399660    9.479433
  79 C     6.0000    0    12.011    1.307124   -1.796752    9.541983
  80 C     6.0000    0    12.011   -0.624177   -0.461849    8.376211
  81 H     1.0000    0     1.008    0.582981    5.308619   10.935656
  82 H     1.0000    0     1.008    3.999227    2.941170   13.050071
  83 H     1.0000    0     1.008    6.016132   -1.898797   13.459385
  84 H     1.0000    0     1.008    6.985940   -7.028836   12.822359
  85 H     1.0000    0     1.008    5.430317  -10.766904   10.566404
  86 H     1.0000    0     1.008   -0.387961   -6.390109    6.985751
  87 H     1.0000    0     1.008   -1.928277   -1.376288    7.106315
  88 C     6.0000    0    12.011    1.575276  -11.128408    7.350468
  89 C     6.0000    0    12.011    1.528222  -13.463732    8.593341
  90 C     6.0000    0    12.011    0.754190  -15.606303    7.310783
  91 C     6.0000    0    12.011    0.042330  -15.397111    4.801227
  92 N     7.0000    0    14.007    0.074266  -13.172714    3.613723
  93 C     6.0000    0    12.011    0.804834  -11.093448    4.830518
  94 H     1.0000    0     1.008    2.064904  -13.581840   10.556199
  95 H     1.0000    0     1.008    0.700333  -17.416661    8.242796
  96 H     1.0000    0     1.008   -0.572776  -17.026243    3.708965
  97 H     1.0000    0     1.008    0.805968   -9.352255    3.736744
  98 C     6.0000    0    12.011   -7.402813    3.977118   -3.040191
  99 C     6.0000    0    12.011   -6.520122    5.200904   -4.757952
 100 C     6.0000    0    12.011   -5.619479    6.788652   -6.698134
 101 C     6.0000    0    12.011   -6.629915    6.699457   -9.102244
 102 C     6.0000    0    12.011   -5.880261    8.432147  -10.955309
 103 C     6.0000    0    12.011   -4.157209   10.300141  -10.434123
 104 C     6.0000    0    12.011   -3.071750   10.461713   -8.013006
 105 C     6.0000    0    12.011   -1.337926   12.365801   -7.303225
 106 C     6.0000    0    12.011   -0.352812   12.392824   -4.918012
 107 N     7.0000    0    14.007   -0.926911   10.585490   -3.192503
 108 C     6.0000    0    12.011   -2.558500    8.791384   -3.777752
 109 C     6.0000    0    12.011   -3.753941    8.654757   -6.137830
 110 H     1.0000    0     1.008   -8.050800    5.303705   -9.537448
 111 H     1.0000    0     1.008   -6.714575    8.316685  -12.813666
 112 H     1.0000    0     1.008   -3.633187   11.665657  -11.853874
 113 H     1.0000    0     1.008   -0.814661   13.799158   -8.653812
 114 H     1.0000    0     1.008    0.943918   13.854149   -4.291190
 115 H     1.0000    0     1.008   -2.963846    7.368987   -2.347418
 116 C     6.0000    0    12.011   -8.562349    2.711568   -0.996075
 117 C     6.0000    0    12.011  -10.115515    4.152295    0.612271
 118 C     6.0000    0    12.011  -11.386545    3.057766    2.600830
 119 C     6.0000    0    12.011  -11.072094    0.481691    2.990303
 120 N     7.0000    0    14.007  -12.112578   -1.043696    4.803117
 121 C     6.0000    0    12.011  -11.288468   -3.464057    4.454273
 122 C     6.0000    0    12.011  -11.863134   -5.639321    5.805995
 123 C     6.0000    0    12.011  -10.775785   -7.874489    5.035742
 124 C     6.0000    0    12.011   -9.109047   -7.980502    2.970461
 125 C     6.0000    0    12.011   -8.518318   -5.794278    1.631590
 126 C     6.0000    0    12.011   -9.618328   -3.532087    2.359512
 127 C     6.0000    0    12.011   -9.484535   -0.986248    1.408980
 128 C     6.0000    0    12.011   -8.229946    0.132659   -0.602256
 129 H     1.0000    0     1.008  -10.331511    6.147090    0.244909
 130 H     1.0000    0     1.008  -12.603717    4.165712    3.802885
 131 H     1.0000    0     1.008  -13.373403   -0.493596    6.117043
 132 H     1.0000    0     1.008  -13.128305   -5.587542    7.403758
 133 H     1.0000    0     1.008  -11.175084   -9.577699    6.082462
 134 H     1.0000    0     1.008   -7.298122   -5.859285    0.001890
 135 H     1.0000    0     1.008   -7.041120   -0.956012   -1.847396
 136 C     6.0000    0    12.011   -8.015651  -10.424296    2.256900
 137 C     6.0000    0    12.011   -9.434458  -12.655307    2.354410
 138 C     6.0000    0    12.011   -8.323866  -14.934128    1.715493
 139 C     6.0000    0    12.011   -5.808829  -14.963229    0.993240
 140 N     7.0000    0    14.007   -4.453518  -12.839177    0.887604
 141 C     6.0000    0    12.011   -5.503827  -10.631221    1.487214
 142 H     1.0000    0     1.008  -11.398261  -12.588222    2.896572
 143 H     1.0000    0     1.008   -9.392506  -16.667196    1.773697
 144 H     1.0000    0     1.008   -4.847714  -16.706691    0.481124
 145 H     1.0000    0     1.008   -4.279474   -8.982624    1.380634
 146 C     6.0000    0    12.011    3.448750    3.253919   -7.640919
 147 C     6.0000    0    12.011    5.260053    4.392857   -6.835139
 148 C     6.0000    0    12.011    7.322311    5.877237   -6.035218
 149 C     6.0000    0    12.011    9.706767    5.538409   -7.039041
 150 C     6.0000    0    12.011   11.693247    7.164141   -6.398802
 151 C     6.0000    0    12.011   11.328341    9.169707   -4.794424
 152 C     6.0000    0    12.011    8.932735    9.586392   -3.719926
 153 C     6.0000    0    12.011    8.382447   11.643170   -2.107045
 154 C     6.0000    0    12.011    6.011786   11.917369   -1.124765
 155 N     7.0000    0    14.007    4.147760   10.218505   -1.585480
 156 C     6.0000    0    12.011    4.582964    8.286827   -3.103119
 157 C     6.0000    0    12.011    6.918854    7.893008   -4.288356
 158 H     1.0000    0     1.008   10.024619    4.028140   -8.371109
 159 H     1.0000    0     1.008   13.532518    6.852714   -7.225368
 160 H     1.0000    0     1.008   12.852972   10.449619   -4.356386
 161 H     1.0000    0     1.008    9.843394   12.996214   -1.673541
 162 H     1.0000    0     1.008    5.507607   13.500392    0.078991
 163 H     1.0000    0     1.008    3.043971    6.958161   -3.419270
 164 C     6.0000    0    12.011    1.307879    2.079644   -8.719385
 165 C     6.0000    0    12.011   -0.192941    3.540024  -10.359290
 166 C     6.0000    0    12.011   -2.265215    2.523540  -11.560211
 167 C     6.0000    0    12.011   -2.848573    0.009449  -11.086078
 168 N     7.0000    0    14.007   -4.776850   -1.435058  -12.029997
 169 C     6.0000    0    12.011   -4.609609   -3.819137  -11.056977
 170 C     6.0000    0    12.011   -6.125169   -5.916544  -11.495582
 171 C     6.0000    0    12.011   -5.522347   -8.132058  -10.271039
 172 C     6.0000    0    12.011   -3.463679   -8.291740   -8.600333
 173 C     6.0000    0    12.011   -1.959646   -6.181294   -8.146609
 174 C     6.0000    0    12.011   -2.518438   -3.942914   -9.385136
 175 C     6.0000    0    12.011   -1.376288   -1.473608   -9.409891
 176 C     6.0000    0    12.011    0.719986   -0.435771   -8.226923
 177 H     1.0000    0     1.008    0.324277    5.483418  -10.699062
 178 H     1.0000    0     1.008   -3.384688    3.642447  -12.844280
 179 H     1.0000    0     1.008   -6.050903   -0.865495  -13.322758
 180 H     1.0000    0     1.008   -7.719909   -5.821868  -12.761888
 181 H     1.0000    0     1.008   -6.697378   -9.772152  -10.563947
 182 H     1.0000    0     1.008   -0.334293   -6.294300   -6.924334
 183 H     1.0000    0     1.008    1.884057   -1.540694   -6.972334
 184 C     6.0000    0    12.011   -2.932855  -10.710023   -7.356893
 185 C     6.0000    0    12.011   -3.207054  -13.010953   -8.633592
 186 C     6.0000    0    12.011   -2.737646  -15.258405   -7.382971
 187 C     6.0000    0    12.011   -2.006133  -15.186028   -4.871525
 188 N     7.0000    0    14.007   -1.732123  -12.995836   -3.651518
 189 C     6.0000    0    12.011   -2.167705  -10.818304   -4.837321
 190 H     1.0000    0     1.008   -3.752996  -13.025315  -10.597395
 191 H     1.0000    0     1.008   -2.933233  -17.045141   -8.341251
 192 H     1.0000    0     1.008   -1.622897  -16.900010   -3.803641
 193 H     1.0000    0     1.008   -1.929788   -9.109614   -3.718225
* core charge reduced due to ECP

--------------------------------
INTERNAL COORDINATES (ANGSTROEM)
--------------------------------
 Pd     0   0   0     0.000000000000     0.00000000     0.00000000
 Pd     1   0   0    12.496765002592     0.00000000     0.00000000
 C      1   2   0     5.801624004535    49.66165193     0.00000000
 C      3   1   2     1.209878047573    67.14470891   244.31326290
 C      4   3   1     1.409672490332   175.38525994   276.54927096
 C      5   4   3     1.380824717334   121.31200662   264.44734911
 C      6   5   4     1.399973617609   120.87819774   174.30708511
 C      7   6   5     1.372800040064   121.27342591   358.78862370
 C      8   7   6     1.406718063437   119.86307531     1.35444968
 C      9   8   7     1.413462535761   123.39073215   181.77107800
 C     10   9   8     1.365643998266   120.05625740   180.31908149
 N     11  10   9     1.356725775535   121.94358455     2.03172166
 C     12  11  10     1.320096136651   119.71103109   357.29940123
 C     13  12  11     1.401880258795   122.75921643     0.00000000
 H      6   5   4     1.078839065848   119.34803670   355.91366481
 H      7   6   5     1.079724349082   119.01616068   180.32476490
 H      8   7   6     1.078643207924   120.87211561   181.98032133
 H     10   9   8     1.078339079325   119.47466746     0.79866495
 H     11  10   9     1.085768842802   122.08025339   181.68000170
 H     13  12  11     1.088779141975   117.58452069   179.70023923
 C      3   1   2     1.412550268132   112.56608790    69.28975943
 C     21   3   1     1.407463995987   117.37002812    73.17375668
 C     22  21   3     1.376742455944   121.30162218   177.82760530
 C     23  22  21     1.388655039958   117.89967848     0.58431101
 N     24  23  22     1.369339742358   129.38536941   180.16996773
 C     25  24  23     1.365527886936   109.26294645   179.53079614
 C     26  25  24     1.388835757028   129.63004394   180.81453953
 C     27  26  25     1.376954672457   117.90410289   179.46959841
 C     28  27  26     1.405534332558   121.78031828     0.76166223
 C     29  28  27     1.392223793074   120.22726431   359.78871185
 C     30  29  28     1.385755101019   118.82121871   359.43429439
 C     24  23  22     1.417534694461   121.42156583     0.36685537
 C     32  24  23     1.387162431008   120.17650717   359.07958343
 H     22  21   3     1.079300838506   118.86549263   358.99353709
 H     23  22  21     1.078601993323   120.92293573   181.26447795
 H     25  24  23     1.006682050103   125.43755432     3.18083193
 H     27  26  25     1.078800801817   121.22553137   359.78522193
 H     28  27  26     1.078815039754   118.93906370   178.96940129
 H     30  29  28     1.077834407504   121.00991978   182.28362539
 H     33  32  24     1.077962230322   121.34376489   181.12350676
 C     29  28  27     1.466190986877   118.88827674   179.90850546
 C     41  29  28     1.400060973672   121.49596473    38.53145512
 C     42  41  29     1.383561455086   119.87708847   181.29141188
 C     43  42  41     1.384757133941   119.04140244     0.17561380
 N     44  43  42     1.334522157928   121.24765160   359.53153415
 C     45  44  43     1.332243712689   120.29626944     0.16701892
 H     42  41  29     1.078608390474   119.92108180     2.33376038
 H     43  42  41     1.077836225964   120.78403395   180.24676341
 H     44  43  42     1.087766873002   121.84422781   179.73665380
 H     46  45  44     1.088198860503   116.25527745   179.25556713
 C     13  12  11     4.783075075723    96.11026570    86.24404065
 C     51  13  12     1.209908959385    94.04901194    12.87923726
 C     52  51  13     1.409717549724   175.39717255   288.82408746
 C     53  52  51     1.380782426742   121.30102145   264.96012514
 C     54  53  52     1.399953392081   120.88051261   174.32585013
 C     55  54  53     1.372726928417   121.26886082   358.77853029
 C     56  55  54     1.406662280009   119.87215817     1.36259193
 C     57  56  55     1.413504658641   123.40036228   181.76826414
 C     58  57  56     1.365691506161   120.05965560   180.31528976
 N     59  58  57     1.356658844367   121.94559475     2.03177996
 C     60  59  58     1.320198280562   119.70888861   357.30835123
 C     61  60  59     1.401891600660   122.76191905   359.97116133
 H     54  53  52     1.078852325390   119.34060175   355.91926354
 H     55  54  53     1.079672177098   119.01376663   180.31659552
 H     56  55  54     1.078664628140   120.87408652   181.98269318
 H     58  57  56     1.078391992737   119.46731220     0.79629384
 H     59  58  57     1.085658104561   122.07757424   181.67979913
 H     61  60  59     1.088765635938   117.58669558   179.69035505
 C     51  13  12     1.412572083116    84.77892889   197.27885301
 C     69  51  13     1.407443178249   117.39156967    62.65461238
 C     70  69  51     1.376772319594   121.30040868   177.80788506
 C     71  70  69     1.388644410927   117.90111196     0.58398475
 N     72  71  70     1.369355987317   129.38974525   180.16787934
 C     73  72  71     1.365550866867   109.26102140   179.53504084
 C     74  73  72     1.388808266104   129.62722783   180.81746882
 C     75  74  73     1.377081987392   117.90242914   179.48123911
 C     76  75  74     1.405589150499   121.78171528     0.75493581
 C     77  76  75     1.392188765937   120.22079224   359.78763170
 C     78  77  76     1.385759207077   118.82612869   359.43719236
 C     72  71  70     1.417539879510   121.41782182     0.37441437
 C     80  72  71     1.387101499531   120.18200131   359.07069496
 H     70  69  51     1.079296928560   118.86936392   358.96823868
 H     71  70  69     1.078572895079   120.91909043   181.26829337
 H     73  72  71     1.006667899558   125.44019658     3.17904233
 H     75  74  73     1.078801200407   121.23169348   359.78975435
 H     76  75  74     1.078808722620   118.93820032   178.96115190
 H     78  77  76     1.077825236298   121.00956061   182.29100026
 H     81  80  72     1.077952327332   121.35436219   181.12979034
 C     77  76  75     1.466076017811   118.89425142   179.90244719
 C     89  77  76     1.400139614467   121.50321545    38.48259978
 C     90  89  77     1.383440743220   119.87926535   181.29887319
 C     91  90  89     1.384825396936   119.04406521     0.17385469
 N     92  91  90     1.334442422887   121.24190013   359.52815388
 C     93  92  91     1.332188747888   120.30583959     0.17534916
 H     90  89  77     1.078638002297   119.92104674     2.34165663
 H     91  90  89     1.077878699112   120.78078549   180.24362232
 H     92  91  90     1.087773257623   121.84350147   179.73918474
 H     94  93  92     1.088112016292   116.26015372   179.24905846
 C     61  60  59     4.785500531815    96.01912961    86.18466820
 C     99  61  60     1.209896346800    94.08049391    12.95631441
 C    100  99  61     1.409679569973   175.37133497   289.06590682
 C    101 100  99     1.380805840805   121.31486798   264.69900123
 C    102 101 100     1.399876015939   120.88179681   174.32493858
 C    103 102 101     1.372799012966   121.27321321   358.78045139
 C    104 103 102     1.406669488544   119.86552923     1.35897771
 C    105 104 103     1.413555577259   123.39315205   181.77123455
 C    106 105 104     1.365689210619   120.05296117   180.32107758
 N    107 106 105     1.356741320223   121.94848680     2.02395323
 C    108 107 106     1.320126512877   119.70437374   357.31302931
 C    109 108 107     1.401842095245   122.76769405   359.97179480
 H    102 101 100     1.078852010241   119.33814535   355.91365603
 H    103 102 101     1.079690242616   119.01731228   180.32368662
 H    104 103 102     1.078655524252   120.87671222   181.98728054
 H    106 105 104     1.078328312714   119.46930337     0.80249578
 H    107 106 105     1.085766190301   122.07619261   181.67669338
 H    109 108 107     1.088790682363   117.57688924   179.69324291
 C     99  61  60     1.412472279374    84.73961273   197.35823556
 C    117  99  61     1.407531377981   117.38216974    62.64830490
 C    118 117  99     1.376662155360   121.30590773   177.81892966
 C    119 118 117     1.388697378841   117.89833812     0.58306847
 N    120 119 118     1.369302263929   129.38040360   180.17040089
 C    121 120 119     1.365543485210   109.25613363   179.53426637
 C    122 121 120     1.388942802998   129.62700883   180.82778553
 C    123 122 121     1.377039854180   117.90031351   179.46784897
 C    124 123 122     1.405525389312   121.77978932     0.76404892
 C    125 124 123     1.392159696299   120.22926591   359.77705420
 C    126 125 124     1.385737298336   118.82246407   359.43511993
 C    120 119 118     1.417540295724   121.42170656     0.37089248
 C    128 120 119     1.387112147593   120.17719728   359.06958957
 H    118 117  99     1.079419848808   118.85777172   358.97504513
 H    119 118 117     1.078534056022   120.92296006   181.26457375
 H    121 120 119     1.006646482138   125.44604082     3.17416951
 H    123 122 121     1.078819382473   121.22770879   359.78190371
 H    124 123 122     1.078793117331   118.93393389   178.96059853
 H    126 125 124     1.077889423828   121.00871799   182.30348550
 H    129 128 120     1.077871620370   121.34799862   181.12787812
 C    125 124 123     1.466194380019   118.88784586   179.87371143
 C    137 125 124     1.400064127103   121.50941224    38.52346613
 C    138 137 125     1.383436919415   119.88202955   181.30622903
 C    139 138 137     1.384777530869   119.04061246     0.17682520
 N    140 139 138     1.334494904449   121.24619218   359.52946819
 C    141 140 139     1.332197992042   120.29887244     0.17557299
 H    138 137 125     1.078660511931   119.91361005     2.34946847
 H    139 138 137     1.077873508349   120.78345481   180.24562582
 H    140 139 138     1.087798565912   121.84007985   179.73366687
 H    142 141 140     1.088134702139   116.25736557   179.25540051
 C    109 108 107     4.782387038917    96.09636167    86.20080617
 C    147 109 108     1.209870447610    94.05537780    12.95920003
 C    148 147 109     1.409655571407   175.36662104   288.59025698
 C    149 148 147     1.380746598765   121.30431026   265.16045109
 C    150 149 148     1.399972489015   120.88282797   174.33349092
 C    151 150 149     1.372751361318   121.27459173   358.78670593
 C    152 151 150     1.406765616583   119.86241443     1.35822845
 C    153 152 151     1.413461796442   123.39535547   181.77346235
 C    154 153 152     1.365655996216   120.05949209   180.30901095
 N    155 154 153     1.356696133996   121.94323160     2.02653302
 C    156 155 154     1.320189584870   119.70631857   357.31496700
 C    157 156 155     1.401696689730   122.76209303   359.96649504
 H    150 149 148     1.078840066924   119.34357635   355.93021294
 H    151 150 149     1.079717875188   119.01465562   180.33323714
 H    152 151 150     1.078606865359   120.87493438   181.97798534
 H    154 153 152     1.078408072114   119.47257769     0.78704590
 H    155 154 153     1.085676070474   122.07628329   181.68516677
 H    157 156 155     1.088846297693   117.57889474   179.69075895
 C    147 109 108     1.412550480514    84.78680435   197.31578023
 C    165 147 109     1.407497893426   117.39458177    62.65612760
 C    166 165 147     1.376854465802   121.29761762   177.79089457
 C    167 166 165     1.388600252052   117.90204827     0.59039725
 N    168 167 166     1.369315073312   129.38963789   180.18045792
 C    169 168 167     1.365499476382   109.26343295   179.52166535
 C    170 169 168     1.388867315477   129.63496355   180.83519287
 C    171 170 169     1.377020972970   117.90313435   179.46891668
 C    172 171 170     1.405548085268   121.78524977     0.75757055
 C    173 172 171     1.392245330393   120.22076069   359.77468933
 C    174 173 172     1.385650713564   118.82568478   359.44602137
 C    168 167 166     1.417630717077   121.41769726     0.36530246
 C    176 168 167     1.387098817677   120.17876699   359.07941291
 H    166 165 147     1.079280450115   118.86805572   358.95339797
 H    167 166 165     1.078536239539   120.91597272   181.27320504
 H    169 168 167     1.006667974061   125.43896110     3.15314173
 H    171 170 169     1.078754480871   121.22681493   359.77818574
 H    172 171 170     1.078846907582   118.93392504   178.95860514
 H    174 173 172     1.077821084411   121.00908479   182.30024916
 H    177 176 168     1.078004313535   121.34381404   181.12799203
 C    173 172 171     1.466117628296   118.89953856   179.87999422
 C    185 173 172     1.400013974930   121.51265503    38.49045208
 C    186 185 173     1.383515916063   119.87936192   181.29979545
 C    187 186 185     1.384757848867   119.04523585     0.15756854
 N    188 187 186     1.334580593295   121.24245042   359.54445604
 C    189 188 187     1.332171832010   120.29941186     0.16962898
 H    186 185 173     1.078636922231   119.92131518     2.32776048
 H    187 186 185     1.077883532669   120.78127391   180.23727403
 H    188 187 186     1.087710830138   121.84809933   179.74385805
 H    190 189 188     1.088177049014   116.25552452   179.24861168

---------------------------
INTERNAL COORDINATES (A.U.)
---------------------------
 Pd     0   0   0     0.000000000000     0.00000000     0.00000000
 Pd     1   0   0    23.615463414870     0.00000000     0.00000000
 C      1   2   0    10.963480500555    49.66165193     0.00000000
 C      3   1   2     2.286338165357    67.14470891   244.31326290
 C      4   3   1     2.663894945251   175.38525994   276.54927096
 C      5   4   3     2.609380554710   121.31200662   264.44734911
 C      6   5   4     2.645566731995   120.87819774   174.30708511
 C      7   6   5     2.594216112357   121.27342591   358.78862370
 C      8   7   6     2.658311887536   119.86307531     1.35444968
 C      9   8   7     2.671057093146   123.39073215   181.77107800
 C     10   9   8     2.580693153156   120.05625740   180.31908149
 N     11  10   9     2.563840154592   121.94358455     2.03172166
 C     12  11  10     2.494620168717   119.71103109   357.29940123
 C     13  12  11     2.649169761674   122.75921643     0.00000000
 H      6   5   4     2.038710377028   119.34803670   355.91366481
 H      7   6   5     2.040383319891   119.01616068   180.32476490
 H      8   7   6     2.038340259190   120.87211561   181.98032133
 H     10   9   8     2.037765539429   119.47466746     0.79866495
 H     11  10   9     2.051805757641   122.08025339   181.68000170
 H     13  12  11     2.057494398659   117.58452069   179.70023923
 C      3   1   2     2.669333157167   112.56608790    69.28975943
 C     21   3   1     2.659721495770   117.37002812    73.17375668
 C     22  21   3     2.601666198677   121.30162218   177.82760530
 C     23  22  21     2.624177720010   117.89967848     0.58431101
 N     24  23  22     2.587677097350   129.38536941   180.16996773
 C     25  24  23     2.580473734541   109.26294645   179.53079614
 C     26  25  24     2.624519225780   129.63004394   180.81453953
 C     27  26  25     2.602067229766   117.90410289   179.46959841
 C     28  27  26     2.656074960359   121.78031828     0.76166223
 C     29  28  27     2.630921686038   120.22726431   359.78871185
 C     30  29  28     2.618697629610   118.82121871   359.43429439
 C     24  23  22     2.678752357863   121.42156583     0.36685537
 C     32  24  23     2.621357097870   120.17650717   359.07958343
 H     22  21   3     2.039583000888   118.86549263   358.99353709
 H     23  22  21     2.038262374882   120.92293573   181.26447795
 H     25  24  23     1.902353378629   125.43755432     3.18083193
 H     27  26  25     2.038638068488   121.22553137   359.78522193
 H     28  27  26     2.038664974291   118.93906370   178.96940129
 H     30  29  28     2.036811847900   121.00991978   182.28362539
 H     33  32  24     2.037053398019   121.34376489   181.12350676
 C     29  28  27     2.770699425222   118.88827674   179.90850546
 C     41  29  28     2.645731811032   121.49596473    38.53145512
 C     42  41  29     2.614552239562   119.87708847   181.29141188
 C     43  42  41     2.616811745142   119.04140244     0.17561380
 N     44  43  42     2.521881398133   121.24765160   359.53153415
 C     45  44  43     2.517575760621   120.29626944     0.16701892
 H     42  41  29     2.038274463745   119.92108180     2.33376038
 H     43  42  41     2.036815284291   120.78403395   180.24676341
 H     44  43  42     2.055581487525   121.84422781   179.73665380
 H     46  45  44     2.056397825596   116.25527745   179.25556713
 C     13  12  11     9.038701971101    96.11026570    86.24404065
 C     51  13  12     2.286396580215    94.04901194    12.87923726
 C     52  51  13     2.663980095161   175.39717255   288.82408746
 C     53  52  51     2.609300637074   121.30102145   264.96012514
 C     54  53  52     2.645528511288   120.88051261   174.32585013
 C     55  54  53     2.594077951366   121.26886082   358.77853029
 C     56  55  54     2.658206472134   119.87215817     1.36259193
 C     57  56  55     2.671136693853   123.40036228   181.76826414
 C     58  57  56     2.580782930067   120.05965560   180.31528976
 N     59  58  57     2.563713673016   121.94559475     2.03177996
 C     60  59  58     2.494813192737   119.70888861   357.30835123
 C     61  60  59     2.649191194691   122.76191905   359.97116133
 H     54  53  52     2.038735433932   119.34060175   355.91926354
 H     55  54  53     2.040284729130   119.01376663   180.31659552
 H     56  55  54     2.038380737532   120.87408652   181.98269318
 H     58  57  56     2.037865531287   119.46731220     0.79629384
 H     59  58  57     2.051596492693   122.07757424   181.67979913
 H     61  60  59     2.057468875948   117.58669558   179.69035505
 C     51  13  12     2.669374381513    84.77892889   197.27885301
 C     69  51  13     2.659682155947   117.39156967    62.65461238
 C     70  69  51     2.601722632796   121.30040868   177.80788506
 C     71  70  69     2.624157634053   117.90111196     0.58398475
 N     72  71  70     2.587707795874   129.38974525   180.16787934
 C     73  72  71     2.580517160317   109.26102140   179.53504084
 C     74  73  72     2.624467275463   129.62722783   180.81746882
 C     75  74  73     2.602307820127   117.90242914   179.48123911
 C     76  75  74     2.656178551254   121.78171528     0.75493581
 C     77  76  75     2.630855494342   120.22079224   359.78763170
 C     78  77  76     2.618705388936   118.82612869   359.43719236
 C     72  71  70     2.678762156185   121.41782182     0.37441437
 C     80  72  71     2.621241954064   120.18200131   359.07069496
 H     70  69  51     2.039575612162   118.86936392   358.96823868
 H     71  70  69     2.038207387171   120.91909043   181.26829337
 H     73  72  71     1.902326637974   125.44019658     3.17904233
 H     75  74  73     2.038638821715   121.23169348   359.78975435
 H     76  75  74     2.038653036636   118.93820032   178.96115190
 H     78  77  76     2.036794516831   121.00956061   182.29100026
 H     81  80  72     2.037034684080   121.35436219   181.12979034
 C     77  76  75     2.770482165172   118.89425142   179.90244719
 C     89  77  76     2.645880420597   121.50321545    38.48259978
 C     90  89  77     2.614324127194   119.87926535   181.29887319
 C     91  90  89     2.616940743509   119.04406521     0.17385469
 N     92  91  90     2.521730720742   121.24190013   359.52815388
 C     93  92  91     2.517471892200   120.30583959     0.17534916
 H     90  89  77     2.038330421982   119.92104674     2.34165663
 H     91  90  89     2.036895546910   120.78078549   180.24362232
 H     92  91  90     2.055593552711   121.84350147   179.73918474
 H     94  93  92     2.056233713822   116.26015372   179.24905846
 C     61  60  59     9.043285418865    96.01912961    86.18466820
 C     99  61  60     2.286372745884    94.08049391    12.95631441
 C    100  99  61     2.663908323833   175.37133497   289.06590682
 C    101 100  99     2.609344883239   121.31486798   264.69900123
 C    102 101 100     2.645382291569   120.88179681   174.32493858
 C    103 102 101     2.594214171423   121.27321321   358.78045139
 C    104 103 102     2.658220094291   119.86552923     1.35897771
 C    105 104 103     2.671232916096   123.39315205   181.77123455
 C    106 105 104     2.580778592120   120.05296117   180.32107758
 N    107 106 105     2.563869529796   121.94848680     2.02395323
 C    108 107 106     2.494677571465   119.70437374   357.31302931
 C    109 108 107     2.649097643015   122.76769405   359.97179480
 H    102 101 100     2.038734838385   119.33814535   355.91365603
 H    103 102 101     2.040318868011   119.01731228   180.32368662
 H    104 103 102     2.038363533678   120.87671222   181.98728054
 H    106 105 104     2.037745193482   119.46930337     0.80249578
 H    107 106 105     2.051800745139   122.07619261   181.67669338
 H    109 108 107     2.057516206831   117.57688924   179.69324291
 C     99  61  60     2.669185779772    84.73961273   197.35823556
 C    117  99  61     2.659848829284   117.38216974    62.64830490
 C    118 117  99     2.601514452564   121.30590773   177.81892966
 C    119 118 117     2.624257728904   117.89833812     0.58306847
 N    120 119 118     2.587606273383   129.38040360   180.17040089
 C    121 120 119     2.580503211008   109.25613363   179.53426637
 C    122 121 120     2.624721513347   129.62700883   180.82778553
 C    123 122 121     2.602228199895   117.90031351   179.46784897
 C    124 123 122     2.656058060072   121.77978932     0.76404892
 C    125 124 123     2.630800560689   120.22926591   359.77705420
 C    126 125 124     2.618663987415   118.82246407   359.43511993
 C    120 119 118     2.678762942715   121.42170656     0.37089248
 C    128 120 119     2.621262075986   120.17719728   359.06958957
 H    118 117  99     2.039807897765   118.85777172   358.97504513
 H    119 118 117     2.038133991990   120.92296006   181.26457375
 H    121 120 119     1.902286164915   125.44604082     3.17416951
 H    123 122 121     2.038673180841   121.22770879   359.78190371
 H    124 123 122     2.038623546914   118.93393389   178.96059853
 H    126 125 124     2.036915813685   121.00871799   182.30348550
 H    129 128 120     2.036882170026   121.34799862   181.12787812
 C    125 124 123     2.770705837331   118.88784586   179.87371143
 C    137 125 124     2.645737770152   121.50941224    38.52346613
 C    138 137 125     2.614316901250   119.88202955   181.30622903
 C    139 138 137     2.616850289750   119.04061246     0.17682520
 N    140 139 138     2.521829896522   121.24619218   359.52946819
 C    141 140 139     2.517489361119   120.29887244     0.17557299
 H    138 137 125     2.038372959026   119.91361005     2.34946847
 H    139 138 137     2.036885737788   120.78345481   180.24562582
 H    140 139 138     2.055641378446   121.84007985   179.73366687
 H    142 141 140     2.056276583859   116.25736557   179.25540051
 C    109 108 107     9.037401769967    96.09636167    86.20080617
 C    147 109 108     2.286323803508    94.05537780    12.95920003
 C    148 147 109     2.663862973116   175.36662104   288.59025698
 C    149 148 147     2.609232932008   121.30431026   265.16045109
 C    150 149 148     2.645564599263   120.88282797   174.33349092
 C    151 150 149     2.594124122858   121.27459173   358.78670593
 C    152 151 150     2.658401749959   119.86241443     1.35822845
 C    153 152 151     2.671055696035   123.39535547   181.77346235
 C    154 153 152     2.580715825995   120.05949209   180.30901095
 N    155 154 153     2.563784140202   121.94323160     2.02653302
 C    156 155 154     2.494796760260   119.70631857   357.31496700
 C    157 156 155     2.648822866414   122.76209303   359.96649504
 H    150 149 148     2.038712268787   119.34357635   355.93021294
 H    151 150 149     2.040371086004   119.01465562   180.33323714
 H    152 151 150     2.038271581696   120.87493438   181.97798534
 H    154 153 152     2.037895916905   119.47257769     0.78704590
 H    155 154 153     2.051630443348   122.07628329   181.68516677
 H    157 156 155     2.057621304574   117.57889474   179.69075895
 C    147 109 108     2.669333558510    84.78680435   197.31578023
 C    165 147 109     2.659785552647   117.39458177    62.65612760
 C    166 165 147     2.601877866633   121.29761762   177.79089457
 C    167 166 165     2.624074185873   117.90204827     0.59039725
 N    168 167 166     2.587630479610   129.38963789   180.18045792
 C    169 168 167     2.580420046375   109.26343295   179.52166535
 C    170 169 168     2.624578862606   129.63496355   180.83519287
 C    171 170 169     2.602192519580   117.90313435   179.46891668
 C    172 171 170     2.656100949214   121.78524977     0.75757055
 C    173 172 171     2.630962385673   120.22076069   359.77468933
 C    174 173 172     2.618500365908   118.82568478   359.44602137
 C    168 167 166     2.678933814310   121.41769726     0.36530246
 C    176 168 167     2.621236886095   120.17876699   359.07941291
 H    166 165 147     2.039544472412   118.86805572   358.95339797
 H    167 166 165     2.038138118239   120.91597272   181.27320504
 H    169 168 167     1.902326778765   125.43896110     3.15314173
 H    171 170 169     2.038550534587   121.22681493   359.77818574
 H    172 171 170     2.038725195758   118.93392504   178.95860514
 H    174 173 172     2.036786670902   121.00908479   182.30024916
 H    177 176 168     2.037132923767   121.34381404   181.12799203
 C    173 172 171     2.770560797593   118.89953856   179.87999422
 C    185 173 172     2.645642996281   121.51265503    38.49045208
 C    186 185 173     2.614466183280   119.87936192   181.29979545
 C    187 186 185     2.616813096157   119.04523585     0.15756854
 N    188 187 186     2.521991824974   121.24245042   359.54445604
 C    189 188 187     2.517439925822   120.29941186     0.16962898
 H    186 185 173     2.038328380952   119.92131518     2.32776048
 H    187 186 185     2.036904681009   120.78127391   180.23727403
 H    188 187 186     2.055475581861   121.84809933   179.74385805
 H    190 189 188     2.056356607854   116.25552452   179.24861168

---------------------
BASIS SET INFORMATION
---------------------
There are 4 groups of distinct atoms

 Group   1 Type Pd  : 7s7p6d contracted to 6s4p3d pattern {211111/4111/411}
 Group   2 Type C   : 11s6p1d contracted to 5s3p1d pattern {62111/411/1}
 Group   3 Type N   : 11s6p1d contracted to 5s3p1d pattern {62111/411/1}
 Group   4 Type H   : 5s contracted to 3s pattern {311}

Atom   0Pd   basis set group =>   1
Atom   1Pd   basis set group =>   1
Atom   2C    basis set group =>   2
Atom   3C    basis set group =>   2
Atom   4C    basis set group =>   2
Atom   5C    basis set group =>   2
Atom   6C    basis set group =>   2
Atom   7C    basis set group =>   2
Atom   8C    basis set group =>   2
Atom   9C    basis set group =>   2
Atom  10C    basis set group =>   2
Atom  11N    basis set group =>   3
Atom  12C    basis set group =>   2
Atom  13C    basis set group =>   2
Atom  14H    basis set group =>   4
Atom  15H    basis set group =>   4
Atom  16H    basis set group =>   4
Atom  17H    basis set group =>   4
Atom  18H    basis set group =>   4
Atom  19H    basis set group =>   4
Atom  20C    basis set group =>   2
Atom  21C    basis set group =>   2
Atom  22C    basis set group =>   2
Atom  23C    basis set group =>   2
Atom  24N    basis set group =>   3
Atom  25C    basis set group =>   2
Atom  26C    basis set group =>   2
Atom  27C    basis set group =>   2
Atom  28C    basis set group =>   2
Atom  29C    basis set group =>   2
Atom  30C    basis set group =>   2
Atom  31C    basis set group =>   2
Atom  32C    basis set group =>   2
Atom  33H    basis set group =>   4
Atom  34H    basis set group =>   4
Atom  35H    basis set group =>   4
Atom  36H    basis set group =>   4
Atom  37H    basis set group =>   4
Atom  38H    basis set group =>   4
Atom  39H    basis set group =>   4
Atom  40C    basis set group =>   2
Atom  41C    basis set group =>   2
Atom  42C    basis set group =>   2
Atom  43C    basis set group =>   2
Atom  44N    basis set group =>   3
Atom  45C    basis set group =>   2
Atom  46H    basis set group =>   4
Atom  47H    basis set group =>   4
Atom  48H    basis set group =>   4
Atom  49H    basis set group =>   4
Atom  50C    basis set group =>   2
Atom  51C    basis set group =>   2
Atom  52C    basis set group =>   2
Atom  53C    basis set group =>   2
Atom  54C    basis set group =>   2
Atom  55C    basis set group =>   2
Atom  56C    basis set group =>   2
Atom  57C    basis set group =>   2
Atom  58C    basis set group =>   2
Atom  59N    basis set group =>   3
Atom  60C    basis set group =>   2
Atom  61C    basis set group =>   2
Atom  62H    basis set group =>   4
Atom  63H    basis set group =>   4
Atom  64H    basis set group =>   4
Atom  65H    basis set group =>   4
Atom  66H    basis set group =>   4
Atom  67H    basis set group =>   4
Atom  68C    basis set group =>   2
Atom  69C    basis set group =>   2
Atom  70C    basis set group =>   2
Atom  71C    basis set group =>   2
Atom  72N    basis set group =>   3
Atom  73C    basis set group =>   2
Atom  74C    basis set group =>   2
Atom  75C    basis set group =>   2
Atom  76C    basis set group =>   2
Atom  77C    basis set group =>   2
Atom  78C    basis set group =>   2
Atom  79C    basis set group =>   2
Atom  80C    basis set group =>   2
Atom  81H    basis set group =>   4
Atom  82H    basis set group =>   4
Atom  83H    basis set group =>   4
Atom  84H    basis set group =>   4
Atom  85H    basis set group =>   4
Atom  86H    basis set group =>   4
Atom  87H    basis set group =>   4
Atom  88C    basis set group =>   2
Atom  89C    basis set group =>   2
Atom  90C    basis set group =>   2
Atom  91C    basis set group =>   2
Atom  92N    basis set group =>   3
Atom  93C    basis set group =>   2
Atom  94H    basis set group =>   4
Atom  95H    basis set group =>   4
Atom  96H    basis set group =>   4
Atom  97H    basis set group =>   4
Atom  98C    basis set group =>   2
Atom  99C    basis set group =>   2
Atom 100C    basis set group =>   2
Atom 101C    basis set group =>   2
Atom 102C    basis set group =>   2
Atom 103C    basis set group =>   2
Atom 104C    basis set group =>   2
Atom 105C    basis set group =>   2
Atom 106C    basis set group =>   2
Atom 107N    basis set group =>   3
Atom 108C    basis set group =>   2
Atom 109C    basis set group =>   2
Atom 110H    basis set group =>   4
Atom 111H    basis set group =>   4
Atom 112H    basis set group =>   4
Atom 113H    basis set group =>   4
Atom 114H    basis set group =>   4
Atom 115H    basis set group =>   4
Atom 116C    basis set group =>   2
Atom 117C    basis set group =>   2
Atom 118C    basis set group =>   2
Atom 119C    basis set group =>   2
Atom 120N    basis set group =>   3
Atom 121C    basis set group =>   2
Atom 122C    basis set group =>   2
Atom 123C    basis set group =>   2
Atom 124C    basis set group =>   2
Atom 125C    basis set group =>   2
Atom 126C    basis set group =>   2
Atom 127C    basis set group =>   2
Atom 128C    basis set group =>   2
Atom 129H    basis set group =>   4
Atom 130H    basis set group =>   4
Atom 131H    basis set group =>   4
Atom 132H    basis set group =>   4
Atom 133H    basis set group =>   4
Atom 134H    basis set group =>   4
Atom 135H    basis set group =>   4
Atom 136C    basis set group =>   2
Atom 137C    basis set group =>   2
Atom 138C    basis set group =>   2
Atom 139C    basis set group =>   2
Atom 140N    basis set group =>   3
Atom 141C    basis set group =>   2
Atom 142H    basis set group =>   4
Atom 143H    basis set group =>   4
Atom 144H    basis set group =>   4
Atom 145H    basis set group =>   4
Atom 146C    basis set group =>   2
Atom 147C    basis set group =>   2
Atom 148C    basis set group =>   2
Atom 149C    basis set group =>   2
Atom 150C    basis set group =>   2
Atom 151C    basis set group =>   2
Atom 152C    basis set group =>   2
Atom 153C    basis set group =>   2
Atom 154C    basis set group =>   2
Atom 155N    basis set group =>   3
Atom 156C    basis set group =>   2
Atom 157C    basis set group =>   2
Atom 158H    basis set group =>   4
Atom 159H    basis set group =>   4
Atom 160H    basis set group =>   4
Atom 161H    basis set group =>   4
Atom 162H    basis set group =>   4
Atom 163H    basis set group =>   4
Atom 164C    basis set group =>   2
Atom 165C    basis set group =>   2
Atom 166C    basis set group =>   2
Atom 167C    basis set group =>   2
Atom 168N    basis set group =>   3
Atom 169C    basis set group =>   2
Atom 170C    basis set group =>   2
Atom 171C    basis set group =>   2
Atom 172C    basis set group =>   2
Atom 173C    basis set group =>   2
Atom 174C    basis set group =>   2
Atom 175C    basis set group =>   2
Atom 176C    basis set group =>   2
Atom 177H    basis set group =>   4
Atom 178H    basis set group =>   4
Atom 179H    basis set group =>   4
Atom 180H    basis set group =>   4
Atom 181H    basis set group =>   4
Atom 182H    basis set group =>   4
Atom 183H    basis set group =>   4
Atom 184C    basis set group =>   2
Atom 185C    basis set group =>   2
Atom 186C    basis set group =>   2
Atom 187C    basis set group =>   2
Atom 188N    basis set group =>   3
Atom 189C    basis set group =>   2
Atom 190H    basis set group =>   4
Atom 191H    basis set group =>   4
Atom 192H    basis set group =>   4
Atom 193H    basis set group =>   4

-------------------------
BASIS SET IN INPUT FORMAT
-------------------------

 # Basis set for element : H 
 NewGTO H 
 S 3 
   1      34.0613410000      0.0254393072
   2       5.1235746000      0.1900859489
   3       1.1646626000      0.8524411301
 S 1 
   1       0.3272304100      1.0000000000
 S 1 
   1       0.1030724100      1.0000000000
  end;

 # Basis set for element : C 
 NewGTO C 
 S 6 
   1   13575.3496820000      0.0006064549
   2    2035.2333680000      0.0046979088
   3     463.2256235900      0.0243324776
   4     131.2001959800      0.0973999683
   5      42.8530158910      0.3019558425
   6      15.5841857660      0.6623360915
 S 2 
   1       6.2067138508      0.6559530854
   2       2.5764896527      0.3758563329
 S 1 
   1       0.5769633942      1.0000000000
 S 1 
   1       0.2297283136      1.0000000000
 S 1 
   1       0.0951644400      1.0000000000
 P 4 
   1      34.6972322440      0.0113272200
   2       7.9582622826      0.0761696592
   3       2.3780826883      0.3019225220
   4       0.8143320818      0.7278502735
 P 1 
   1       0.2888754725      1.0000000000
 P 1 
   1       0.1005682367      1.0000000000
 D 1 
   1       0.8000000000      1.0000000000
  end;

 # Basis set for element : N 
 NewGTO N 
 S 6 
   1   19730.8006470000      0.0005862639
   2    2957.8958745000      0.0045428821
   3     673.2213359500      0.0235584136
   4     190.6824949400      0.0947091933
   5      62.2954418980      0.2971978492
   6      22.6541611820      0.6691624689
 S 2 
   1       8.9791477428      0.6459668363
   2       3.6863002370      0.3870057440
 S 1 
   1       0.8466007680      1.0000000000
 S 1 
   1       0.3364713377      1.0000000000
 S 1 
   1       0.1364765367      1.0000000000
 P 4 
   1      49.2003805100      0.0114488252
   2      11.3467905370      0.0784223379
   3       3.4273972411      0.3081809474
   4       1.1785525134      0.7202719637
 P 1 
   1       0.4164220497      1.0000000000
 P 1 
   1       0.1426082601      1.0000000000
 D 1 
   1       0.8000000000      1.0000000000
  end;

 # Basis set for element : Pd
 NewGTO Pd
 S 2 
   1      18.0000000000     -0.8955869481
   2      14.6621343080      1.8822771923
 S 1 
   1       5.6388709265      1.0000000000
 S 1 
   1       1.3198953252      1.0000000000
 S 1 
   1       0.5781790851      1.0000000000
 S 1 
   1       0.1035216624      1.0000000000
 S 1 
   1       0.0375484427      1.0000000000
 P 4 
   1      12.5528993000      0.0701895210
   2       7.2444496380     -0.2749252830
   3       1.8905941078      0.5623121361
   4       0.9073716876      0.5736959368
 P 1 
   1       0.4087721081      1.0000000000
 P 1 
   1       0.1150000000      1.0000000000
 P 1 
   1       0.0370000000      1.0000000000
 D 4 
   1      22.3574575750      0.0063445039
   2      10.6825263820     -0.0225156052
   3       2.4858232550      0.3884291800
   4       1.0735333903      0.6828976806
 D 1 
   1       0.4261384285      1.0000000000
 D 1 
   1       0.1504635538      1.0000000000
  end;

---------------------------------
AUXILIARY/J BASIS SET INFORMATION
---------------------------------
There are 4 groups of distinct atoms

 Group   1 Type Pd  : 11s5p5d3f3g contracted to 8s5p5d2f3g pattern {41111111/11111/11111/21/111}
 Group   2 Type C   : 8s3p3d contracted to 6s3p3d pattern {311111/111/111}
 Group   3 Type N   : 8s3p3d contracted to 6s3p3d pattern {311111/111/111}
 Group   4 Type H   : 5s2p contracted to 3s1p pattern {311/2}

Atom   0Pd   basis set group =>   1
Atom   1Pd   basis set group =>   1
Atom   2C    basis set group =>   2
Atom   3C    basis set group =>   2
Atom   4C    basis set group =>   2
Atom   5C    basis set group =>   2
Atom   6C    basis set group =>   2
Atom   7C    basis set group =>   2
Atom   8C    basis set group =>   2
Atom   9C    basis set group =>   2
Atom  10C    basis set group =>   2
Atom  11N    basis set group =>   3
Atom  12C    basis set group =>   2
Atom  13C    basis set group =>   2
Atom  14H    basis set group =>   4
Atom  15H    basis set group =>   4
Atom  16H    basis set group =>   4
Atom  17H    basis set group =>   4
Atom  18H    basis set group =>   4
Atom  19H    basis set group =>   4
Atom  20C    basis set group =>   2
Atom  21C    basis set group =>   2
Atom  22C    basis set group =>   2
Atom  23C    basis set group =>   2
Atom  24N    basis set group =>   3
Atom  25C    basis set group =>   2
Atom  26C    basis set group =>   2
Atom  27C    basis set group =>   2
Atom  28C    basis set group =>   2
Atom  29C    basis set group =>   2
Atom  30C    basis set group =>   2
Atom  31C    basis set group =>   2
Atom  32C    basis set group =>   2
Atom  33H    basis set group =>   4
Atom  34H    basis set group =>   4
Atom  35H    basis set group =>   4
Atom  36H    basis set group =>   4
Atom  37H    basis set group =>   4
Atom  38H    basis set group =>   4
Atom  39H    basis set group =>   4
Atom  40C    basis set group =>   2
Atom  41C    basis set group =>   2
Atom  42C    basis set group =>   2
Atom  43C    basis set group =>   2
Atom  44N    basis set group =>   3
Atom  45C    basis set group =>   2
Atom  46H    basis set group =>   4
Atom  47H    basis set group =>   4
Atom  48H    basis set group =>   4
Atom  49H    basis set group =>   4
Atom  50C    basis set group =>   2
Atom  51C    basis set group =>   2
Atom  52C    basis set group =>   2
Atom  53C    basis set group =>   2
Atom  54C    basis set group =>   2
Atom  55C    basis set group =>   2
Atom  56C    basis set group =>   2
Atom  57C    basis set group =>   2
Atom  58C    basis set group =>   2
Atom  59N    basis set group =>   3
Atom  60C    basis set group =>   2
Atom  61C    basis set group =>   2
Atom  62H    basis set group =>   4
Atom  63H    basis set group =>   4
Atom  64H    basis set group =>   4
Atom  65H    basis set group =>   4
Atom  66H    basis set group =>   4
Atom  67H    basis set group =>   4
Atom  68C    basis set group =>   2
Atom  69C    basis set group =>   2
Atom  70C    basis set group =>   2
Atom  71C    basis set group =>   2
Atom  72N    basis set group =>   3
Atom  73C    basis set group =>   2
Atom  74C    basis set group =>   2
Atom  75C    basis set group =>   2
Atom  76C    basis set group =>   2
Atom  77C    basis set group =>   2
Atom  78C    basis set group =>   2
Atom  79C    basis set group =>   2
Atom  80C    basis set group =>   2
Atom  81H    basis set group =>   4
Atom  82H    basis set group =>   4
Atom  83H    basis set group =>   4
Atom  84H    basis set group =>   4
Atom  85H    basis set group =>   4
Atom  86H    basis set group =>   4
Atom  87H    basis set group =>   4
Atom  88C    basis set group =>   2
Atom  89C    basis set group =>   2
Atom  90C    basis set group =>   2
Atom  91C    basis set group =>   2
Atom  92N    basis set group =>   3
Atom  93C    basis set group =>   2
Atom  94H    basis set group =>   4
Atom  95H    basis set group =>   4
Atom  96H    basis set group =>   4
Atom  97H    basis set group =>   4
Atom  98C    basis set group =>   2
Atom  99C    basis set group =>   2
Atom 100C    basis set group =>   2
Atom 101C    basis set group =>   2
Atom 102C    basis set group =>   2
Atom 103C    basis set group =>   2
Atom 104C    basis set group =>   2
Atom 105C    basis set group =>   2
Atom 106C    basis set group =>   2
Atom 107N    basis set group =>   3
Atom 108C    basis set group =>   2
Atom 109C    basis set group =>   2
Atom 110H    basis set group =>   4
Atom 111H    basis set group =>   4
Atom 112H    basis set group =>   4
Atom 113H    basis set group =>   4
Atom 114H    basis set group =>   4
Atom 115H    basis set group =>   4
Atom 116C    basis set group =>   2
Atom 117C    basis set group =>   2
Atom 118C    basis set group =>   2
Atom 119C    basis set group =>   2
Atom 120N    basis set group =>   3
Atom 121C    basis set group =>   2
Atom 122C    basis set group =>   2
Atom 123C    basis set group =>   2
Atom 124C    basis set group =>   2
Atom 125C    basis set group =>   2
Atom 126C    basis set group =>   2
Atom 127C    basis set group =>   2
Atom 128C    basis set group =>   2
Atom 129H    basis set group =>   4
Atom 130H    basis set group =>   4
Atom 131H    basis set group =>   4
Atom 132H    basis set group =>   4
Atom 133H    basis set group =>   4
Atom 134H    basis set group =>   4
Atom 135H    basis set group =>   4
Atom 136C    basis set group =>   2
Atom 137C    basis set group =>   2
Atom 138C    basis set group =>   2
Atom 139C    basis set group =>   2
Atom 140N    basis set group =>   3
Atom 141C    basis set group =>   2
Atom 142H    basis set group =>   4
Atom 143H    basis set group =>   4
Atom 144H    basis set group =>   4
Atom 145H    basis set group =>   4
Atom 146C    basis set group =>   2
Atom 147C    basis set group =>   2
Atom 148C    basis set group =>   2
Atom 149C    basis set group =>   2
Atom 150C    basis set group =>   2
Atom 151C    basis set group =>   2
Atom 152C    basis set group =>   2
Atom 153C    basis set group =>   2
Atom 154C    basis set group =>   2
Atom 155N    basis set group =>   3
Atom 156C    basis set group =>   2
Atom 157C    basis set group =>   2
Atom 158H    basis set group =>   4
Atom 159H    basis set group =>   4
Atom 160H    basis set group =>   4
Atom 161H    basis set group =>   4
Atom 162H    basis set group =>   4
Atom 163H    basis set group =>   4
Atom 164C    basis set group =>   2
Atom 165C    basis set group =>   2
Atom 166C    basis set group =>   2
Atom 167C    basis set group =>   2
Atom 168N    basis set group =>   3
Atom 169C    basis set group =>   2
Atom 170C    basis set group =>   2
Atom 171C    basis set group =>   2
Atom 172C    basis set group =>   2
Atom 173C    basis set group =>   2
Atom 174C    basis set group =>   2
Atom 175C    basis set group =>   2
Atom 176C    basis set group =>   2
Atom 177H    basis set group =>   4
Atom 178H    basis set group =>   4
Atom 179H    basis set group =>   4
Atom 180H    basis set group =>   4
Atom 181H    basis set group =>   4
Atom 182H    basis set group =>   4
Atom 183H    basis set group =>   4
Atom 184C    basis set group =>   2
Atom 185C    basis set group =>   2
Atom 186C    basis set group =>   2
Atom 187C    basis set group =>   2
Atom 188N    basis set group =>   3
Atom 189C    basis set group =>   2
Atom 190H    basis set group =>   4
Atom 191H    basis set group =>   4
Atom 192H    basis set group =>   4
Atom 193H    basis set group =>   4

-------------------------------------
AUXILIARY/J BASIS SET IN INPUT FORMAT
-------------------------------------

 # Auxiliary/J basis set for element : H 
 NewAuxJGTO H 
 S 3 
   1      15.6752927000      0.1007184237
   2       3.6063578000      0.3404257499
   3       1.2080016000      0.6491996172
 S 1 
   1       0.4726794000      1.0000000000
 S 1 
   1       0.2018100000      1.0000000000
 P 2 
   1       2.0281365000      0.5596620919
   2       0.5358730000      0.5596620919
  end;

 # Auxiliary/J basis set for element : C 
 NewAuxJGTO C 
 S 3 
   1     459.7023860000      0.1098751775
   2     132.9577920000      0.2844848472
   3      41.5658170000      0.6964707648
 S 1 
   1      13.9155610000      1.0000000000
 S 1 
   1       4.9305290000     -1.0000000000
 S 1 
   1       1.8229480000      1.0000000000
 S 1 
   1       0.6920510000      1.0000000000
 S 1 
   1       0.2650930000      1.0000000000
 P 1 
   1       0.3278473579      1.0000000000
 P 1 
   1       0.7868336591      1.0000000000
 P 1 
   1       1.9710183160      1.0000000000
 D 1 
   1       4.0133010000      1.0000000000
 D 1 
   1       1.2475050000      1.0000000000
 D 1 
   1       0.4081480000      1.0000000000
  end;

 # Auxiliary/J basis set for element : N 
 NewAuxJGTO N 
 S 3 
   1     680.5425300000      0.1043830093
   2     196.7562140000      0.2751518961
   3      61.2707930000      0.7090825511
 S 1 
   1      20.3644630000      1.0000000000
 S 1 
   1       7.1424770000     -1.0000000000
 S 1 
   1       2.6080260000      1.0000000000
 S 1 
   1       0.9763730000      1.0000000000
 S 1 
   1       0.3686330000      1.0000000000
 P 1 
   1       0.4707391941      1.0000000000
 P 1 
   1       1.1297740658     -1.0000000000
 P 1 
   1       2.8300840347      1.0000000000
 D 1 
   1       5.8329865000      1.0000000000
 D 1 
   1       1.7326865000      1.0000000000
 D 1 
   1       0.5452425000      1.0000000000
  end;

 # Auxiliary/J basis set for element : Pd
 NewAuxJGTO Pd
 S 4 
   1      51.0211803000      0.0154414011
   2      17.6543867000     -0.3899991562
   3      10.3849330000      1.7000917225
   4       6.2315704000     -2.2542519748
 S 1 
   1       3.6656295000     -1.0000000000
 S 1 
   1       2.1995933000      1.0000000000
 S 1 
   1       1.2683839000      1.0000000000
 S 1 
   1       0.7461081000      1.0000000000
 S 1 
   1       0.4477087000      1.0000000000
 S 1 
   1       0.2581689000      1.0000000000
 S 1 
   1       0.1518640000      1.0000000000
 P 1 
   1       5.6999676000      1.0000000000
 P 1 
   1       2.5155374000     -1.0000000000
 P 1 
   1       1.1229524000      1.0000000000
 P 1 
   1       0.5047808000     -1.0000000000
 P 1 
   1       0.2274325000     -1.0000000000
 D 1 
   1       3.8006002000      1.0000000000
 D 1 
   1       1.5882692000     -1.0000000000
 D 1 
   1       0.6550157000     -1.0000000000
 D 1 
   1       0.2680210000      1.0000000000
 D 1 
   1       0.1093843000     -1.0000000000
 F 2 
   1       2.0106185000     -1.3134732431
   2       0.8268460000      0.9210621264
 F 1 
   1       0.3451253000      1.0000000000
 G 1 
   1       7.5375072000      1.0000000000
 G 1 
   1       2.7664349000      1.0000000000
 G 1 
   1       1.0133462000      1.0000000000
  end;

-------------------------
ECP PARAMETER INFORMATION
-------------------------

 Group 1, Type Pd ECP Def2-ECP (replacing 28 core electrons, lmax=3)

Atom   0Pd   ECP group =>   1
Atom   1Pd   ECP group =>   1


-------------------------
ECP BASIS IN INPUT FORMAT
-------------------------

 #ECP Def2-ECP
 NewECP Pd
   N_core 28
   lmax f
   s 4
     1      12.4300000000    240.2290403000  2
     2       6.1707594000     35.1719435000  2
     3      13.2700000000     31.9295543000  2
     4       6.6300000000      5.3982169000  2
   p 4
     1      11.0800000000    170.4172760000  2
     2       5.8295541000     28.4721329000  2
     3      13.2700000000     31.9295543000  2
     4       6.6300000000      5.3982169000  2
   d 4
     1       9.5100000000     69.0138449000  2
     2       4.1397811000     11.7508616000  2
     3      13.2700000000     31.9295543000  2
     4       6.6300000000      5.3982169000  2
   f 2
     1      13.2700000000    -31.9295543000  2
     2       6.6300000000     -5.3982169000  2
 End




           ************************************************************
           *        Program running with 32 parallel MPI-processes    *
           *              working on a common directory               *
           ************************************************************
------------------------------------------------------------------------------
                           ORCA GTO INTEGRAL CALCULATION
                           -- RI-GTO INTEGRALS CHOSEN --
------------------------------------------------------------------------------

                         BASIS SET STATISTICS AND STARTUP INFO

Gaussian basis set:
[...]
 95 H      0.7579     1.0000     0.2421     0.9140     0.9140    -0.0000
 96 H      0.8079     1.0000     0.1921     0.9509     0.9509    -0.0000
 97 H      0.8065     1.0000     0.1935     0.9473     0.9473    -0.0000
 98 C      6.0161     6.0000    -0.0161     3.3207     3.3207    -0.0000
 99 C      5.8765     6.0000     0.1235     2.8516     2.8516    -0.0000
100 C      6.2298     6.0000    -0.2298     3.8966     3.8966    -0.0000
101 C      6.0539     6.0000    -0.0539     3.8350     3.8350    -0.0000
102 C      6.2161     6.0000    -0.2161     4.1913     4.1913    -0.0000
103 C      6.1989     6.0000    -0.1989     3.8942     3.8942    -0.0000
104 C      6.0760     6.0000    -0.0760     3.7492     3.7492    -0.0000
105 C      6.1249     6.0000    -0.1249     3.7270     3.7270    -0.0000
106 C      6.1543     6.0000    -0.1543     3.9835     3.9835    -0.0000
107 N      7.1347     7.0000    -0.1347     3.2820     3.2820    -0.0000
108 C      6.1974     6.0000    -0.1974     3.7137     3.7137    -0.0000
109 C      5.5230     6.0000     0.4770     3.0892     3.0892    -0.0000
110 H      0.7657     1.0000     0.2343     0.9058     0.9058    -0.0000
111 H      0.7855     1.0000     0.2145     0.9309     0.9309    -0.0000
112 H      0.7569     1.0000     0.2431     0.8991     0.8991    -0.0000
113 H      0.7527     1.0000     0.2473     0.8962     0.8962    -0.0000
114 H      0.8074     1.0000     0.1926     0.9555     0.9555    -0.0000
115 H      0.8251     1.0000     0.1749     0.9714     0.9714    -0.0000
116 C      6.2687     6.0000    -0.2687     4.0143     4.0143    -0.0000
117 C      6.2217     6.0000    -0.2217     3.9494     3.9494    -0.0000
118 C      6.1169     6.0000    -0.1169     3.8174     3.8174    -0.0000
119 C      5.8770     6.0000     0.1230     3.9765     3.9765    -0.0000
120 N      7.3113     7.0000    -0.3113     3.2004     3.2004    -0.0000
121 C      5.8436     6.0000     0.1564     3.8620     3.8620    -0.0000
122 C      6.2483     6.0000    -0.2483     4.0077     4.0077    -0.0000
123 C      6.2189     6.0000    -0.2189     4.0476     4.0476    -0.0000
124 C      5.9872     6.0000     0.0128     3.6336     3.6336    -0.0000
125 C      6.1969     6.0000    -0.1969     3.5578     3.5578    -0.0000
126 C      6.0578     6.0000    -0.0578     3.7090     3.7090    -0.0000
127 C      5.9481     6.0000     0.0519     3.4623     3.4623    -0.0000
128 C      6.2002     6.0000    -0.2002     3.3450     3.3450    -0.0000
129 H      0.7936     1.0000     0.2064     0.9163     0.9163    -0.0000
130 H      0.8076     1.0000     0.1924     0.9397     0.9397    -0.0000
131 H      0.6234     1.0000     0.3766     0.8314     0.8314    -0.0000
132 H      0.7810     1.0000     0.2190     0.9218     0.9218    -0.0000
133 H      0.7680     1.0000     0.2320     0.9080     0.9080    -0.0000
134 H      0.7756     1.0000     0.2244     0.8868     0.8868    -0.0000
135 H      0.7919     1.0000     0.2081     0.9043     0.9043    -0.0000
136 C      5.9928     6.0000     0.0072     3.7401     3.7401    -0.0000
137 C      6.1755     6.0000    -0.1755     4.0169     4.0169    -0.0000
138 C      6.0559     6.0000    -0.0559     3.9244     3.9244    -0.0000
139 C      6.1323     6.0000    -0.1323     3.9571     3.9571    -0.0000
140 N      7.0589     7.0000    -0.0589     3.3076     3.3076    -0.0000
141 C      6.1517     6.0000    -0.1517     3.8702     3.8702    -0.0000
142 H      0.7405     1.0000     0.2595     0.8973     0.8973    -0.0000
143 H      0.7579     1.0000     0.2421     0.9139     0.9139    -0.0000
144 H      0.8079     1.0000     0.1921     0.9509     0.9509    -0.0000
145 H      0.8068     1.0000     0.1932     0.9475     0.9475    -0.0000
146 C      6.0161     6.0000    -0.0161     3.3208     3.3208    -0.0000
147 C      5.8770     6.0000     0.1230     2.8528     2.8528    -0.0000
148 C      6.2329     6.0000    -0.2329     3.8993     3.8993    -0.0000
149 C      6.0516     6.0000    -0.0516     3.8309     3.8309    -0.0000
150 C      6.2179     6.0000    -0.2179     4.1927     4.1927    -0.0000
151 C      6.1979     6.0000    -0.1979     3.8924     3.8924    -0.0000
152 C      6.0768     6.0000    -0.0768     3.7500     3.7500    -0.0000
153 C      6.1252     6.0000    -0.1252     3.7273     3.7273    -0.0000
154 C      6.1541     6.0000    -0.1541     3.9838     3.9838    -0.0000
155 N      7.1344     7.0000    -0.1344     3.2822     3.2822    -0.0000
156 C      6.1972     6.0000    -0.1972     3.7139     3.7139    -0.0000
157 C      5.5212     6.0000     0.4788     3.0863     3.0863    -0.0000
158 H      0.7655     1.0000     0.2345     0.9056     0.9056    -0.0000
159 H      0.7856     1.0000     0.2144     0.9310     0.9310    -0.0000
160 H      0.7569     1.0000     0.2431     0.8991     0.8991    -0.0000
161 H      0.7527     1.0000     0.2473     0.8962     0.8962    -0.0000
162 H      0.8074     1.0000     0.1926     0.9554     0.9554    -0.0000
163 H      0.8251     1.0000     0.1749     0.9712     0.9712    -0.0000
164 C      6.2682     6.0000    -0.2682     4.0153     4.0153    -0.0000
165 C      6.2205     6.0000    -0.2205     3.9489     3.9489    -0.0000
166 C      6.1174     6.0000    -0.1174     3.8174     3.8174    -0.0000
167 C      5.8768     6.0000     0.1232     3.9771     3.9771    -0.0000
168 N      7.3113     7.0000    -0.3113     3.2004     3.2004    -0.0000
169 C      5.8439     6.0000     0.1561     3.8622     3.8622    -0.0000
170 C      6.2482     6.0000    -0.2482     4.0077     4.0077    -0.0000
171 C      6.2188     6.0000    -0.2188     4.0475     4.0475    -0.0000
172 C      5.9873     6.0000     0.0127     3.6329     3.6329    -0.0000
173 C      6.1966     6.0000    -0.1966     3.5579     3.5579    -0.0000
174 C      6.0576     6.0000    -0.0576     3.7096     3.7096    -0.0000
175 C      5.9483     6.0000     0.0517     3.4628     3.4628    -0.0000
176 C      6.2004     6.0000    -0.2004     3.3458     3.3458    -0.0000
177 H      0.7937     1.0000     0.2063     0.9163     0.9163    -0.0000
178 H      0.8076     1.0000     0.1924     0.9397     0.9397    -0.0000
179 H      0.6234     1.0000     0.3766     0.8314     0.8314    -0.0000
180 H      0.7809     1.0000     0.2191     0.9218     0.9218    -0.0000
181 H      0.7680     1.0000     0.2320     0.9080     0.9080    -0.0000
182 H      0.7757     1.0000     0.2243     0.8869     0.8869    -0.0000
183 H      0.7921     1.0000     0.2079     0.9044     0.9044    -0.0000
184 C      5.9932     6.0000     0.0068     3.7407     3.7407    -0.0000
185 C      6.1753     6.0000    -0.1753     4.0164     4.0164    -0.0000
186 C      6.0557     6.0000    -0.0557     3.9238     3.9238    -0.0000
187 C      6.1323     6.0000    -0.1323     3.9568     3.9568    -0.0000
188 N      7.0592     7.0000    -0.0592     3.3081     3.3081    -0.0000
189 C      6.1517     6.0000    -0.1517     3.8701     3.8701    -0.0000
190 H      0.7406     1.0000     0.2594     0.8973     0.8973    -0.0000
191 H      0.7579     1.0000     0.2421     0.9139     0.9139    -0.0000
192 H      0.8080     1.0000     0.1920     0.9509     0.9509    -0.0000
193 H      0.8064     1.0000     0.1936     0.9473     0.9473    -0.0000

  Mayer bond orders larger than 0.100000
B(  0-Pd, 11-N ) :   0.5052 B(  0-Pd, 59-N ) :   0.5051 B(  0-Pd,107-N ) :   0.5050 
B(  0-Pd,155-N ) :   0.5052 B(  1-Pd, 44-N ) :   0.5274 B(  1-Pd, 92-N ) :   0.5274 
B(  1-Pd,140-N ) :   0.5273 B(  1-Pd,188-N ) :   0.5274 B(  2-C ,  3-C ) :   1.8317 
B(  2-C ,  4-C ) :  -0.2703 B(  2-C , 20-C ) :   1.6266 B(  2-C , 32-C ) :  -0.1593 
B(  3-C ,  4-C ) :   1.4989 B(  3-C , 13-C ) :  -0.2367 B(  3-C , 20-C ) :  -0.5074 
B(  3-C , 32-C ) :   0.1213 B(  4-C ,  5-C ) :   1.5879 B(  4-C , 13-C ) :   1.0890 
B(  5-C ,  6-C ) :   1.3888 B(  5-C , 14-H ) :   0.8409 B(  6-C ,  7-C ) :   1.6383 
B(  6-C , 15-H ) :   0.8793 B(  7-C ,  8-C ) :   1.3550 B(  7-C , 13-C ) :  -0.1206 
B(  7-C , 16-H ) :   0.8575 B(  8-C ,  9-C ) :   1.3004 B(  8-C , 12-C ) :  -0.1187 
B(  8-C , 13-C ) :   1.0128 B(  9-C , 10-C ) :   1.5565 B(  9-C , 17-H ) :   0.8803 
B( 10-C , 11-N ) :   1.2643 B( 10-C , 18-H ) :   0.9177 B( 11-N , 12-C ) :   1.4229 
B( 11-N ,107-N ) :   0.1053 B( 12-C , 13-C ) :   1.3626 B( 12-C , 19-H ) :   0.9012 
B( 20-C , 21-C ) :   1.3294 B( 20-C , 32-C ) :   1.3618 B( 21-C , 22-C ) :   1.5516 
B( 21-C , 33-H ) :   0.9019 B( 22-C , 23-C ) :   1.3929 B( 22-C , 34-H ) :   0.8123 
B( 23-C , 24-N ) :   1.1518 B( 23-C , 25-C ) :   0.1213 B( 23-C , 30-C ) :  -0.1053 
B( 23-C , 31-C ) :   1.2744 B( 24-N , 25-C ) :   1.1539 B( 24-N , 35-H ) :   0.8065 
B( 25-C , 26-C ) :   1.3728 B( 25-C , 30-C ) :   1.2632 B( 25-C , 31-C ) :  -0.1176 
B( 26-C , 27-C ) :   1.6646 B( 26-C , 36-H ) :   0.8523 B( 27-C , 28-C ) :   1.3097 
B( 27-C , 37-H ) :   0.8600 B( 28-C , 29-C ) :   1.3440 B( 28-C , 30-C ) :   0.1032 
B( 28-C , 40-C ) :   0.8701 B( 29-C , 30-C ) :   1.4437 B( 29-C , 31-C ) :  -0.1310 
B( 29-C , 38-H ) :   0.8612 B( 30-C , 31-C ) :   1.0357 B( 30-C , 32-C ) :  -0.1545 
B( 31-C , 32-C ) :   1.2702 B( 32-C , 39-H ) :   0.9290 B( 40-C , 41-C ) :   1.4454 
B( 40-C , 45-C ) :   1.3794 B( 41-C , 42-C ) :   1.5171 B( 41-C , 46-H ) :   0.8708 
B( 42-C , 43-C ) :   1.4426 B( 42-C , 47-H ) :   0.8673 B( 43-C , 44-N ) :   1.3528 
B( 43-C , 48-H ) :   0.9215 B( 44-N , 45-C ) :   1.3773 B( 45-C , 49-H ) :   0.9136 
B( 50-C , 51-C ) :   1.8318 B( 50-C , 52-C ) :  -0.2703 B( 50-C , 68-C ) :   1.6265 
B( 50-C , 80-C ) :  -0.1592 B( 51-C , 52-C ) :   1.4990 B( 51-C , 61-C ) :  -0.2368 
B( 51-C , 68-C ) :  -0.5069 B( 51-C , 80-C ) :   0.1209 B( 52-C , 53-C ) :   1.5880 
B( 52-C , 61-C ) :   1.0886 B( 53-C , 54-C ) :   1.3886 B( 53-C , 62-H ) :   0.8410 
B( 54-C , 55-C ) :   1.6382 B( 54-C , 63-H ) :   0.8793 B( 55-C , 56-C ) :   1.3548 
B( 55-C , 61-C ) :  -0.1205 B( 55-C , 64-H ) :   0.8576 B( 56-C , 57-C ) :   1.3007 
B( 56-C , 60-C ) :  -0.1187 B( 56-C , 61-C ) :   1.0125 B( 57-C , 58-C ) :   1.5566 
B( 57-C , 65-H ) :   0.8804 B( 58-C , 59-N ) :   1.2645 B( 58-C , 66-H ) :   0.9177 
B( 59-N , 60-C ) :   1.4226 B( 59-N ,155-N ) :   0.1052 B( 60-C , 61-C ) :   1.3629 
B( 60-C , 67-H ) :   0.9011 B( 68-C , 69-C ) :   1.3295 B( 68-C , 80-C ) :   1.3622 
B( 69-C , 70-C ) :   1.5513 B( 69-C , 81-H ) :   0.9017 B( 70-C , 71-C ) :   1.3932 
B( 70-C , 82-H ) :   0.8120 B( 71-C , 72-N ) :   1.1518 B( 71-C , 73-C ) :   0.1215 
B( 71-C , 78-C ) :  -0.1054 B( 71-C , 79-C ) :   1.2746 B( 72-N , 73-C ) :   1.1539 
B( 72-N , 83-H ) :   0.8065 B( 73-C , 74-C ) :   1.3730 B( 73-C , 78-C ) :   1.2632 
B( 73-C , 79-C ) :  -0.1176 B( 74-C , 75-C ) :   1.6645 B( 74-C , 84-H ) :   0.8524 
B( 75-C , 76-C ) :   1.3097 B( 75-C , 85-H ) :   0.8600 B( 76-C , 77-C ) :   1.3440 
B( 76-C , 78-C ) :   0.1031 B( 76-C , 88-C ) :   0.8701 B( 77-C , 78-C ) :   1.4438 
B( 77-C , 79-C ) :  -0.1308 B( 77-C , 86-H ) :   0.8611 B( 78-C , 79-C ) :   1.0355 
B( 78-C , 80-C ) :  -0.1545 B( 79-C , 80-C ) :   1.2710 B( 80-C , 87-H ) :   0.9289 
B( 88-C , 89-C ) :   1.4451 B( 88-C , 93-C ) :   1.3790 B( 89-C , 90-C ) :   1.5173 
B( 89-C , 94-H ) :   0.8708 B( 90-C , 91-C ) :   1.4427 B( 90-C , 95-H ) :   0.8673 
B( 91-C , 92-N ) :   1.3526 B( 91-C , 96-H ) :   0.9215 B( 92-N , 93-C ) :   1.3774 
B( 93-C , 97-H ) :   0.9138 B( 98-C , 99-C ) :   1.8318 B( 98-C ,100-C ) :  -0.2700 
B( 98-C ,116-C ) :   1.6266 B( 98-C ,128-C ) :  -0.1593 B( 99-C ,100-C ) :   1.4985 
B( 99-C ,109-C ) :  -0.2367 B( 99-C ,116-C ) :  -0.5077 B( 99-C ,128-C ) :   0.1210 
B(100-C ,101-C ) :   1.5883 B(100-C ,109-C ) :   1.0888 B(101-C ,102-C ) :   1.3890 
B(101-C ,110-H ) :   0.8408 B(102-C ,103-C ) :   1.6380 B(102-C ,111-H ) :   0.8792 
B(103-C ,104-C ) :   1.3550 B(103-C ,109-C ) :  -0.1205 B(103-C ,112-H ) :   0.8575 
B(104-C ,105-C ) :   1.3004 B(104-C ,108-C ) :  -0.1186 B(104-C ,109-C ) :   1.0128 
B(105-C ,106-C ) :   1.5564 B(105-C ,113-H ) :   0.8803 B(106-C ,107-N ) :   1.2643 
B(106-C ,114-H ) :   0.9177 B(107-N ,108-C ) :   1.4230 B(108-C ,109-C ) :   1.3624 
B(108-C ,115-H ) :   0.9013 B(116-C ,117-C ) :   1.3289 B(116-C ,128-C ) :   1.3621 
B(117-C ,118-C ) :   1.5516 B(117-C ,129-H ) :   0.9020 B(118-C ,119-C ) :   1.3929 
B(118-C ,130-H ) :   0.8121 B(119-C ,120-N ) :   1.1519 B(119-C ,121-C ) :   0.1215 
B(119-C ,126-C ) :  -0.1054 B(119-C ,127-C ) :   1.2745 B(120-N ,121-C ) :   1.1539 
B(120-N ,131-H ) :   0.8065 B(121-C ,122-C ) :   1.3728 B(121-C ,126-C ) :   1.2634 
B(121-C ,127-C ) :  -0.1176 B(122-C ,123-C ) :   1.6646 B(122-C ,132-H ) :   0.8524 
B(123-C ,124-C ) :   1.3099 B(123-C ,133-H ) :   0.8600 B(124-C ,125-C ) :   1.3442 
B(124-C ,126-C ) :   0.1032 B(124-C ,136-C ) :   0.8701 B(125-C ,126-C ) :   1.4431 
B(125-C ,127-C ) :  -0.1308 B(125-C ,134-H ) :   0.8612 B(126-C ,127-C ) :   1.0357 
B(126-C ,128-C ) :  -0.1546 B(127-C ,128-C ) :   1.2706 B(128-C ,135-H ) :   0.9289 
B(136-C ,137-C ) :   1.4452 B(136-C ,141-C ) :   1.3786 B(137-C ,138-C ) :   1.5173 
B(137-C ,142-H ) :   0.8708 B(138-C ,139-C ) :   1.4427 B(138-C ,143-H ) :   0.8673 
B(139-C ,140-N ) :   1.3526 B(139-C ,144-H ) :   0.9215 B(140-N ,141-C ) :   1.3772 
B(141-C ,145-H ) :   0.9143 B(146-C ,147-C ) :   1.8321 B(146-C ,148-C ) :  -0.2700 
B(146-C ,164-C ) :   1.6264 B(146-C ,176-C ) :  -0.1590 B(147-C ,148-C ) :   1.4987 
B(147-C ,157-C ) :  -0.2372 B(147-C ,164-C ) :  -0.5068 B(147-C ,176-C ) :   0.1205 
B(148-C ,149-C ) :   1.5885 B(148-C ,157-C ) :   1.0881 B(149-C ,150-C ) :   1.3879 
B(149-C ,158-H ) :   0.8409 B(150-C ,151-C ) :   1.6378 B(150-C ,159-H ) :   0.8794 
B(151-C ,152-C ) :   1.3544 B(151-C ,157-C ) :  -0.1203 B(151-C ,160-H ) :   0.8575 
B(152-C ,153-C ) :   1.3007 B(152-C ,156-C ) :  -0.1187 B(152-C ,157-C ) :   1.0125 
B(153-C ,154-C ) :   1.5564 B(153-C ,161-H ) :   0.8804 B(154-C ,155-N ) :   1.2647 
B(154-C ,162-H ) :   0.9177 B(155-N ,156-C ) :   1.4226 B(156-C ,157-C ) :   1.3626 
B(156-C ,163-H ) :   0.9013 B(164-C ,165-C ) :   1.3289 B(164-C ,176-C ) :   1.3626 
B(165-C ,166-C ) :   1.5511 B(165-C ,177-H ) :   0.9018 B(166-C ,167-C ) :   1.3933 
B(166-C ,178-H ) :   0.8120 B(167-C ,168-N ) :   1.1518 B(167-C ,169-C ) :   0.1215 
B(167-C ,174-C ) :  -0.1054 B(167-C ,175-C ) :   1.2746 B(168-N ,169-C ) :   1.1539 
B(168-N ,179-H ) :   0.8065 B(169-C ,170-C ) :   1.3729 B(169-C ,174-C ) :   1.2634 
B(169-C ,175-C ) :  -0.1177 B(170-C ,171-C ) :   1.6646 B(170-C ,180-H ) :   0.8523 
B(171-C ,172-C ) :   1.3097 B(171-C ,181-H ) :   0.8601 B(172-C ,173-C ) :   1.3437 
B(172-C ,174-C ) :   0.1033 B(172-C ,184-C ) :   0.8702 B(173-C ,174-C ) :   1.4437 
B(173-C ,175-C ) :  -0.1307 B(173-C ,182-H ) :   0.8611 B(174-C ,175-C ) :   1.0356 
B(174-C ,176-C ) :  -0.1546 B(175-C ,176-C ) :   1.2711 B(176-C ,183-H ) :   0.9290 
B(184-C ,185-C ) :   1.4451 B(184-C ,189-C ) :   1.3788 B(185-C ,186-C ) :   1.5170 
B(185-C ,190-H ) :   0.8708 B(186-C ,187-C ) :   1.4424 B(186-C ,191-H ) :   0.8673 
B(187-C ,188-N ) :   1.3526 B(187-C ,192-H ) :   0.9217 B(188-N ,189-C ) :   1.3774 
B(189-C ,193-H ) :   0.9139 

-------
TIMINGS
-------

Total SCF time: 0 days 0 hours 13 min 55 sec 

Total time                  ....     835.562 sec
Sum of individual times     ....     818.103 sec  ( 97.9%)

Fock matrix formation       ....     319.779 sec  ( 38.3%)
  Split-RI-J                ....     144.759 sec  ( 45.3% of F)
  XC integration            ....     136.285 sec  ( 42.6% of F)
    Basis function eval.    ....      24.825 sec  ( 18.2% of XC)
    Density eval.           ....      60.086 sec  ( 44.1% of XC)
    XC-Functional eval.     ....       7.868 sec  (  5.8% of XC)
    XC-Potential eval.      ....      20.835 sec  ( 15.3% of XC)
Diagonalization             ....      72.906 sec  (  8.7%)
Density matrix formation    ....       3.390 sec  (  0.4%)
Population analysis         ....      14.755 sec  (  1.8%)
Initial guess               ....      14.519 sec  (  1.7%)
Orbital Transformation      ....       0.000 sec  (  0.0%)
Orbital Orthonormalization  ....       0.000 sec  (  0.0%)
DIIS solution               ....     345.940 sec  ( 41.4%)
Grid generation             ....      46.816 sec  (  5.6%)


-------------------------------------------------------------------------------
                          DFT DISPERSION CORRECTION                            
                                                                               
                              DFTD3 V3.1  Rev 1                                
                          USING Becke-Johnson damping                          
-------------------------------------------------------------------------------
The B97-3c composite method is recognized
Using three-body term ABC
Active option DFTDOPT                   ...         4   

molecular C6(AA) [au] = 574917.661215 


            DFT-D V3
 parameters
 s6 scaling factor         :     1.0000 
 a1 scaling factor         :     0.3700 
 s8 scaling factor         :     1.5000 
 a2 scaling factor         :     4.1000 
 Damping factor alpha9(ATM):    16.0000 
 ad hoc parameters k1-k3   :    16.0000     1.3333    -4.0000 

 Edisp/kcal,au: -482.098329715768  -0.768272509367 
 E6   /kcal   : -241.508167572 
 E8   /kcal   : -242.921230564 
 E6(ABC)      :   2.331068420 
 % E8         :  50.388316157 
 % E6(ABC)    :  -0.483525513 

-------------------------   ----------------
Dispersion correction           -0.768272509
-------------------------   ----------------

------------------   -----------------
SRB correction            -0.780225080
------------------   -----------------

-------------------------   --------------------
FINAL SINGLE POINT ENERGY     -5218.981679394553
-------------------------   --------------------


                            ***************************************
                            *     ORCA property calculations      *
                            ***************************************

                                    ---------------------
                                    Active property flags
                                    ---------------------
   (+) Dipole Moment


------------------------------------------------------------------------------
                       ORCA ELECTRIC PROPERTIES CALCULATION
------------------------------------------------------------------------------

Dipole Moment Calculation                       ... on
Quadrupole Moment Calculation                   ... off
Polarizability Calculation                      ... off
GBWName                                         ... _s_4c1_a_B97-3c.gbw
Electron density file                           ... _s_4c1_a_B97-3c.scfp
The origin for moment calculation is the CENTER OF MASS  = ( 0.041154, -0.566030  0.074591)

-------------
DIPOLE MOMENT
-------------
                                X             Y             Z
Electronic contribution:     -2.78185     -40.58653      -0.37765
Nuclear contribution   :      2.60356      38.01447       0.35878
                        -----------------------------------------
Total Dipole Moment    :     -0.17829      -2.57206      -0.01887
                        -----------------------------------------
Magnitude (a.u.)       :      2.57830
Magnitude (Debye)      :      6.55352



--------------------
Rotational spectrum 
--------------------
 
Rotational constants in cm-1:     0.000437     0.000277     0.000277 
Rotational constants in MHz :    13.114062     8.315657     8.312570 

 Dipole components along the rotational axes: 
x,y,z [a.u.] :    -2.578300     0.000992     0.000224 
x,y,z [Debye]:    -6.553517     0.002521     0.000571 

 

Timings for individual modules:

Sum of individual times         ...      874.885 sec (=  14.581 min)
GTO integral calculation        ...       29.426 sec (=   0.490 min)   3.4 %
SCF iterations                  ...      845.459 sec (=  14.091 min)  96.6 %
                             ****ORCA TERMINATED NORMALLY****
TOTAL RUN TIME: 0 days 0 hours 15 minutes 13 seconds 503 msec
