Job execution start: Tue Jun 22 16:49:35 BST 2021
Shared library path: /work/e05/e05/atarzia/orca_4_2_1_linux_x86-64_openmpi314:/work/e05/e05/atarzia/openmpi-3.1.4/lib:/opt/cray/pe/papi/6.0.0.4/lib64:/opt/cray/libfabric/1.11.0.0.233/lib64
Slurm Job ID is: 344714
Slurm Job name is: s_4c3_a_B97-3c
nid001523

                                 *****************
                                 * O   R   C   A *
                                 *****************

           --- An Ab Initio, DFT and Semiempirical electronic structure package ---

                  #######################################################
                  #                        -***-                        #
                  #          Department of theory and spectroscopy      #
                  #               Directorship: Frank Neese             #
                  #        Max Planck Institute fuer Kohlenforschung    #
                  #                Kaiser Wilhelm Platz 1               #
                  #                 D-45470 Muelheim/Ruhr               #
                  #                      Germany                        #
                  #                                                     #
                  #                  All rights reserved                #
                  #                        -***-                        #
                  #######################################################


                         Program Version 4.2.1 -  RELEASE  -


 With contributions from (in alphabetic order):
   Daniel Aravena         : Magnetic Suceptibility
   Michael Atanasov       : Ab Initio Ligand Field Theory (pilot matlab implementation)
   Alexander A. Auer      : GIAO ZORA, VPT2
   Ute Becker             : Parallelization
   Giovanni Bistoni       : ED, misc. LED, open-shell LED, HFLD
   Martin Brehm           : Molecular dynamics
   Dmytro Bykov           : SCF Hessian
   Vijay G. Chilkuri      : MRCI spin determinant printing, contributions to CSF-ICE
   Dipayan Datta          : RHF DLPNO-CCSD density
   Achintya Kumar Dutta   : EOM-CC, STEOM-CC
   Dmitry Ganyushin       : Spin-Orbit,Spin-Spin,Magnetic field MRCI
   Miquel Garcia          : C-PCM Hessian, Gaussian charge scheme
   Yang Guo               : DLPNO-NEVPT2, CIM, IAO-localization
   Andreas Hansen         : Spin unrestricted coupled pair/coupled cluster methods
   Benjamin Helmich-Paris : CASSCF linear response (MC-RPA)
   Lee Huntington         : MR-EOM, pCC
   Robert Izsak           : Overlap fitted RIJCOSX, COSX-SCS-MP3, EOM
   Christian Kollmar      : KDIIS, OOCD, Brueckner-CCSD(T), CCSD density
   Simone Kossmann        : Meta GGA functionals, TD-DFT gradient, OOMP2, MP2 Hessian
   Martin Krupicka        : AUTO-CI
   Lucas Lang             : DCDCAS
   Dagmar Lenk            : GEPOL surface, SMD
   Dimitrios Liakos       : Extrapolation schemes; Compound Job, initial MDCI parallelization
   Dimitrios Manganas     : Further ROCIS development; embedding schemes
   Dimitrios Pantazis     : SARC Basis sets
   Taras Petrenko         : DFT Hessian,TD-DFT gradient, ASA, ECA, R-Raman, ABS, FL, XAS/XES, NRVS
   Peter Pinski           : DLPNO-MP2, DLPNO-MP2 Gradient
   Christoph Reimann      : Effective Core Potentials
   Marius Retegan         : Local ZFS, SOC
   Christoph Riplinger    : Optimizer, TS searches, QM/MM, DLPNO-CCSD(T), (RO)-DLPNO pert. Triples
   Tobias Risthaus        : Range-separated hybrids, TD-DFT gradient, RPA, STAB
   Michael Roemelt        : Original ROCIS implementation
   Masaaki Saitow         : Open-shell DLPNO-CCSD energy and density
   Barbara Sandhoefer     : DKH picture change effects
   Avijit Sen             : IP-ROCIS
   Kantharuban Sivalingam : CASSCF convergence, NEVPT2, FIC-MRCI
   Bernardo de Souza      : ESD, SOC TD-DFT
   Georgi Stoychev        : AutoAux, RI-MP2 NMR
   Willem Van den Heuvel  : Paramagnetic NMR
   Boris Wezisla          : Elementary symmetry handling
   Frank Wennmohs         : Technical directorship


 We gratefully acknowledge several colleagues who have allowed us to
 interface, adapt or use parts of their codes:
   Stefan Grimme, W. Hujo, H. Kruse,             : VdW corrections, initial TS optimization,
                  C. Bannwarth                     DFT functionals, gCP, sTDA/sTD-DF
   Ed Valeev, F. Pavosevic, A. Kumar             : LibInt (2-el integral package), F12 methods
   Garnet Chan, S. Sharma, J. Yang, R. Olivares  : DMRG
   Ulf Ekstrom                                   : XCFun DFT Library
   Mihaly Kallay                                 : mrcc  (arbitrary order and MRCC methods)
   Andreas Klamt, Michael Diedenhofen            : otool_cosmo (COSMO solvation model)
   Jiri Pittner, Ondrej Demel                    : Mk-CCSD
   Frank Weinhold                                : gennbo (NPA and NBO analysis)
   Christopher J. Cramer and Donald G. Truhlar   : smd solvation model
   Lars Goerigk                                  : TD-DFT with DH, B97 family of functionals
   V. Asgeirsson, H. Jonsson                     : NEB implementation
   FAccTs GmbH                                   : IRC, NEB, NEB-TS, Multilevel, MM, QM/MM, CI optimization
   S Lehtola, MJT Oliveira, MAL Marques          : LibXC Library


 Your calculation uses the libint2 library for the computation of 2-el integrals
 For citations please refer to: http://libint.valeyev.net

 Your ORCA version has been built with support for libXC version: 4.2.3
 For citations please refer to: https://tddft.org/programs/libxc/

 This ORCA versions uses:
   CBLAS   interface :  Fast vector & matrix operations
   LAPACKE interface :  Fast linear algebra routines
   SCALAPACK package :  Parallel linear algebra routines




***************************************
The coordinates will be read from file: s_4c3_a.xyz
***************************************


Your calculation utilizes the atom-pairwise dispersion correction
with the Becke-Johnson damping scheme (D3BJ)
Cite in your paper:
S.Grimme, S.Ehrlich, L.Goerigk, J Comput Chem, (2011), 32, 1456–1465 
S.Grimme, J.Antony, S.Ehrlich and H.Krieg, J.Chem.Phys., 132, (2010), 154104 
   

Your calculation employs the composite approach B97-3c by Grimme and coworkers.
For the correct reference, please check the publication list of the Grimme group:
http://www.thch.uni-bonn.de/tc/index.php?section=publikationen&subsection=grimme#2017
   

XCFun DFT library Copyright 2009-2010 Ulf Ekstrom and contributors.
See http://admol.org/xcfun for more information. This is free soft-
ware; see the source code for copying conditions. There is ABSOLUTELY
NO WARRANTY; not even for MERCHANTABILITY or FITNESS FOR A PARTICULAR
PURPOSE. For details see the documentation. Scientific users of this 
library should cite U. Ekstrom, L. Visscher, R. Bast, A. J. Thorvald-
sen and K. Ruud; J.Chem.Theor.Comp. 2010, DOI: 10.1021/ct100117s
XCFun Version 0.99 
----- Orbital basis set information -----
Your calculation utilizes the basis: def2-mTZVP
----- AuxJ basis set information -----
Your calculation utilizes the basis: def2-mTZVP/J
cite the ECPs for Pd [Def2-ECP] as follows:
Ce-Yb(ecp-28): M. Dolg, H. Stoll, H.Preuss, J. Chem. Phys., 1989, 90, 1730-1734.
Y-Cd(ecp-28), Hf-Hg(ecp-46): D. Andrae,U. Haeussermann, M. Dolg, H. Stoll, H. Preuss, Theor. Chim. Acta, 1990, 77, 123-141.
In-Sb(ecp-28), Tl-Bi(ecp-46): B. Metz, H. Stoll, M. Dolg, J. Chem. Phys., 2000, 113, 2563-2569.
Te-Xe(ecp-28), Po-Rn(ecp-46): K. A. Peterson, D. Figgen, E. Goll, H. Stoll, M. Dolg, J. Chem. Phys., 2003, 119, 11113-11123.
Rb(ecp-28), Cs(ecp-46): T. Leininger, A. Nicklass, W. Kuechle, H. Stoll, M. Dolg, A. Bergner, Chem. Phys. Lett., 1996, 255, 274-280.
Sr(ecp-28), Ba(ecp-46): M. Kaupp, P. V. Schleyer, H. Stoll and H. Preuss, J. Chem. Phys., 1991, 94, 1360-1366.
La(ecp-46): M. Dolg, H. Stoll, A. Savin, H. Preuss, Theor. Chim. Acta, 1989, 75, 173-194.
Lu(ecp-28): X. Cao, M. Dolg, J. Chem. Phys., 2001, 115, 7348-7355.

ECP parameters for Pd [Def2-ECP] have been obtained from:
TURBOMOLE (7.0.2)

================================================================================
                                        WARNINGS
                       Please study these warnings very carefully!
================================================================================


INFO   : the flag for use of LIBINT has been found!

================================================================================
                                       INPUT FILE
================================================================================
NAME = s_4c3_a_B97-3c.in
|  1> ! DFT SP B97-3c TightSCF printbasis  Grid6 NOFINALGRID SlowConv 
|  2> 
|  3> %base "_s_4c3_a_B97-3c"
|  4> %maxcore 3000
|  5> %scf
|  6>    MaxIter 2000
|  7> end
|  8> %pal
|  9>    nprocs 32
| 10> end
| 11> 
| 12> * xyzfile 4 1 s_4c3_a.xyz
| 13> 
| 14>                          ****END OF INPUT****
================================================================================

                       ****************************
                       * Single Point Calculation *
                       ****************************

---------------------------------
CARTESIAN COORDINATES (ANGSTROEM)
---------------------------------
  Pd    -0.526600    6.835800   -1.602200
  Pd     0.237400   -7.085400    0.885500
  C      4.238300    4.123700    0.395200
  C      3.717600    4.851900    1.209300
  C      3.203400    5.810600    2.107400
  C      3.817900    6.048500    3.321300
  C      3.409300    7.110600    4.137100
  C      2.407000    7.963400    3.746500
  C      1.740100    7.748700    2.526700
  C      0.719800    8.595500    2.037400
  C      0.118600    8.322900    0.841900
  N      0.433100    7.222100    0.112100
  C      1.386700    6.411800    0.534100
  C      2.109900    6.639000    1.713600
  H      4.641500    5.423300    3.630100
  H      3.915700    7.271400    5.076700
  H      2.124700    8.804100    4.360500
  H      0.430000    9.462400    2.609500
  H     -0.642700    8.972700    0.422000
  H      1.606300    5.532900   -0.068700
  C      4.931100    3.374600   -0.582500
  C      5.855100    4.070500   -1.383900
  C      6.612000    3.420800   -2.333000
  C      6.433000    2.051900   -2.480100
  N      7.064000    1.179000   -3.326700
  C      6.587800   -0.083500   -3.110000
  C      6.954900   -1.280000   -3.715700
  C      6.324700   -2.431200   -3.302100
  C      5.330400   -2.400900   -2.304800
  C      4.954200   -1.200100   -1.702300
  C      5.590200   -0.037100   -2.101600
  C      5.493400    1.340500   -1.693000
  C      4.738600    2.005300   -0.737900
  H      5.978800    5.131900   -1.232500
  H      7.332800    3.957300   -2.929700
  H      7.804300    1.418400   -3.965400
  H      7.716800   -1.308100   -4.479600
  H      6.590800   -3.379100   -3.744700
  H      4.197300   -1.187200   -0.934600
  H      4.031500    1.477300   -0.118700
  C      4.734700   -3.612700   -1.912700
  C      4.249800   -4.672700   -1.587500
  C      3.700400   -5.905000   -1.197700
  C      4.334300   -7.120100   -1.501400
  C      3.758700   -8.304000   -1.080300
  C      2.566200   -8.265600   -0.372100
  N      1.960800   -7.108700   -0.092500
  C      2.498400   -5.956500   -0.484900
  H      5.261200   -7.117700   -2.053300
  H      4.226700   -9.250800   -1.296000
  H      2.078500   -9.171300   -0.020300
  H      1.963600   -5.043900   -0.225900
  C     -2.211700    4.248100    3.532300
  C     -3.078600    4.732000    2.840300
  C     -4.115400    5.394500    2.150800
  C     -5.399000    5.394100    2.662300
  C     -6.410500    6.159000    2.071400
  C     -6.154800    6.953200    0.981700
  C     -4.864200    6.981900    0.423900
  C     -4.512400    7.809000   -0.666700
  C     -3.240100    7.784300   -1.160100
  N     -2.291900    6.948100   -0.663700
  C     -2.577100    6.175800    0.368400
  C     -3.837200    6.169100    0.985400
  H     -5.612900    4.814000    3.546500
  H     -7.399700    6.142200    2.503100
  H     -6.928700    7.568500    0.550500
  H     -5.253300    8.464100   -1.096400
  H     -2.927200    8.431400   -1.974400
  H     -1.791000    5.522100    0.739800
  C     -1.203600    3.807400    4.419300
  C     -0.770900    4.728000    5.392300
  C      0.186800    4.390200    6.322200
  C      0.713000    3.106100    6.273400
  N      1.654700    2.523700    7.080100
  C      1.845000    1.228800    6.689100
  C      2.680300    0.258900    7.232300
  C      2.670000   -0.992800    6.661400
  C      1.846700   -1.283800    5.555900
  C      1.018700   -0.307700    5.000200
  C      1.013900    0.953400    5.571600
  C      0.285400    2.166700    5.302200
  C     -0.676300    2.520800    4.366600
  H     -1.210700    5.713600    5.407400
  H      0.509700    5.098400    7.069600
  H      2.102900    2.966400    7.865200
  H      3.309400    0.476900    8.081800
  H      3.298500   -1.772900    7.063400
  H      0.388900   -0.540900    4.156800
  H     -1.019300    1.817300    3.625200
  C      1.856700   -2.592100    5.041400
  C      1.875600   -3.734700    4.643000
  C      1.868500   -5.067700    4.201800
  C      2.469100   -6.092100    4.950600
  C      2.406700   -7.392100    4.485700
  C      1.752400   -7.656000    3.290900
  N      1.191100   -6.678300    2.575400
  C      1.241700   -5.418900    3.002100
  H      2.965800   -5.856700    5.878900
  H      2.856200   -8.198000    5.042800
  H      1.672500   -8.663500    2.890600
  H      0.768300   -4.662200    2.378400
  C     -4.817800    2.955700   -2.308500
  C     -4.355500    3.354400   -3.353100
  C     -3.909300    3.921100   -4.564900
  C     -4.456900    3.541900   -5.774600
  C     -4.113800    4.207500   -6.957100
  C     -3.245200    5.270400   -6.950800
  C     -2.653700    5.684200   -5.744000
  C     -1.780200    6.790800   -5.643500
  C     -1.240300    7.128900   -4.435800
  N     -1.477400    6.403400   -3.313100
  C     -2.301200    5.372900   -3.365100
  C     -2.955600    4.982400   -4.541900
  H     -5.178700    2.740400   -5.800200
  H     -4.570600    3.894200   -7.883500
  H     -3.014900    5.803100   -7.860000
  H     -1.552200    7.368900   -6.524800
  H     -0.591900    7.991200   -4.317300
  H     -2.464200    4.810100   -2.448200
  C     -5.438800    2.560700   -1.102600
  C     -6.394700    3.432600   -0.549600
  C     -7.088700    3.102100    0.593100
  C     -6.810000    1.881200    1.192700
  N     -7.362700    1.313500    2.310400
  C     -6.796500    0.087500    2.521200
  C     -7.062200   -0.849200    3.514000
  C     -6.348600   -2.026000    3.498100
  C     -5.371000   -2.273000    2.515000
  C     -5.099600   -1.332700    1.520500
  C     -5.819800   -0.150900    1.519800
  C     -5.832700    1.004000    0.660100
  C     -5.145900    1.343200   -0.495600
  H     -6.596500    4.368200   -1.048300
  H     -7.836400    3.765500    0.998400
  H     -8.108500    1.710100    2.858000
  H     -7.810000   -0.664500    4.270000
  H     -6.533800   -2.777800    4.250300
  H     -4.355500   -1.533500    0.766700
  H     -4.413600    0.678900   -0.925300
  C     -4.670500   -3.491700    2.540400
  C     -4.076100   -4.545300    2.570000
  C     -3.374200   -5.761500    2.588200
  C     -3.831300   -6.872400    3.313800
  C     -3.096600   -8.043000    3.286100
  C     -1.922000   -8.092000    2.549100
  N     -1.486200   -7.031300    1.865200
  C     -2.180600   -5.896400    1.872100
  H     -4.747000   -6.803600    3.880100
  H     -3.426800   -8.912700    3.830700
  H     -1.311600   -8.989800    2.500900
  H     -1.782200   -5.065100    1.291900
  C      1.118000    2.712000   -5.408900
  C      2.031300    3.401000   -5.015100
  C      3.067300    4.294100   -4.672200
  C      4.336800    4.148600   -5.195900
  C      5.318600    5.121700   -4.977100
  C      5.045700    6.261600   -4.262900
  C      3.770600    6.446400   -3.699600
  C      3.394100    7.607200   -2.986500
  C      2.138600    7.709600   -2.459900
  N      1.234100    6.700900   -2.552800
  C      1.543200    5.610400   -3.230200
  C      2.780400    5.436400   -3.866300
  H      4.561800    3.287000   -5.805000
  H      6.296900    4.982800   -5.411400
  H      5.794400    7.027300   -4.134000
  H      4.102200    8.412100   -2.870600
  H      1.806400    8.601300   -1.937700
  H      0.797600    4.820000   -3.282000
  C      0.046700    1.975900   -5.962700
  C     -0.665300    2.569800   -7.021200
  C     -1.690600    1.905300   -7.656600
  C     -2.009100    0.628100   -7.214800
  N     -2.961000   -0.241600   -7.678200
  C     -2.905500   -1.399600   -6.954100
  C     -3.659400   -2.560600   -7.085600
  C     -3.396000   -3.601700   -6.224700
  C     -2.402300   -3.494000   -5.232700
  C     -1.648700   -2.327900   -5.095100
  C     -1.896600   -1.279300   -5.963500
  C     -1.315500    0.026700   -6.135300
  C     -0.279800    0.702100   -5.507600
  H     -0.382400    3.558500   -7.348400
  H     -2.217000    2.358300   -8.481900
  H     -3.567400   -0.077600   -8.464800
  H     -4.422300   -2.647900   -7.844100
  H     -3.957600   -4.520100   -6.303400
  H     -0.884400   -2.257100   -4.338000
  H      0.270600    0.251700   -4.697500
  C     -2.165200   -4.588200   -4.382200
  C     -1.962800   -5.537500   -3.659700
  C     -1.704800   -6.631400   -2.817600
  C     -2.126000   -7.931000   -3.138700
  C     -1.826200   -8.968100   -2.275300
  C     -1.120800   -8.701400   -1.110700
  N     -0.729200   -7.462400   -0.803500
  C     -1.004400   -6.449300   -1.620800
  H     -2.672300   -8.107600   -4.052000
  H     -2.133700   -9.976600   -2.499400
  H     -0.862000   -9.485900   -0.404400
  H     -0.658800   -5.460400   -1.322600

----------------------------
CARTESIAN COORDINATES (A.U.)
----------------------------
  NO LB      ZA    FRAG     MASS         X           Y           Z
   0 Pd   18.0000*   0   106.400   -0.995130   12.917790   -3.027719
   1 Pd   18.0000*   0   106.400    0.448621  -13.389466    1.673352
   2 C     6.0000    0    12.011    8.009226    7.792664    0.746820
   3 C     6.0000    0    12.011    7.025246    9.168762    2.285246
   4 C     6.0000    0    12.011    6.053549   10.980443    3.982409
   5 C     6.0000    0    12.011    7.214785   11.430009    6.276347
   6 C     6.0000    0    12.011    6.442643   13.437087    7.817986
   7 C     6.0000    0    12.011    4.548571   15.048645    7.079859
   8 C     6.0000    0    12.011    3.288312   14.642921    4.774771
   9 C     6.0000    0    12.011    1.360225   16.243141    3.850128
  10 C     6.0000    0    12.011    0.224122   15.728002    1.590960
  11 N     7.0000    0    14.007    0.818440   13.647791    0.211838
  12 C     6.0000    0    12.011    2.620483   12.116546    1.009303
  13 C     6.0000    0    12.011    3.987133   12.545892    3.238235
  14 H     1.0000    0     1.008    8.771164   10.248552    6.859895
  15 H     1.0000    0     1.008    7.399601   13.740955    9.593573
  16 H     1.0000    0     1.008    4.015101   16.637338    8.240151
  17 H     1.0000    0     1.008    0.812582   17.881345    4.931240
  18 H     1.0000    0     1.008   -1.214527   16.955946    0.797464
  19 H     1.0000    0     1.008    3.035467   10.455666   -0.129824
  20 C     6.0000    0    12.011    9.318429    6.377070   -1.100765
  21 C     6.0000    0    12.011   11.064535    7.692130   -2.615192
  22 C     6.0000    0    12.011   12.494869    6.464375   -4.408731
  23 C     6.0000    0    12.011   12.156608    3.877529   -4.686710
  24 N     7.0000    0    14.007   13.349025    2.227987   -6.286552
  25 C     6.0000    0    12.011   12.449138   -0.157792   -5.877048
  26 C     6.0000    0    12.011   13.142856   -2.418849   -7.021655
  27 C     6.0000    0    12.011   11.951951   -4.594302   -6.240065
  28 C     6.0000    0    12.011   10.072996   -4.537043   -4.355441
  29 C     6.0000    0    12.011    9.362081   -2.267860   -3.216881
  30 C     6.0000    0    12.011   10.563947   -0.070109   -3.971448
  31 C     6.0000    0    12.011   10.381022    2.533178   -3.199306
  32 C     6.0000    0    12.011    8.954656    3.789468   -1.394429
  33 H     1.0000    0     1.008   11.298295    9.697886   -2.329087
  34 H     1.0000    0     1.008   13.856984    7.478213   -5.536331
  35 H     1.0000    0     1.008   14.747990    2.680388   -7.493520
  36 H     1.0000    0     1.008   14.582639   -2.471951   -8.465217
  37 H     1.0000    0     1.008   12.454807   -6.385574   -7.076457
  38 H     1.0000    0     1.008    7.931748   -2.243483   -1.766138
  39 H     1.0000    0     1.008    7.618431    2.791692   -0.224310
  40 C     6.0000    0    12.011    8.947286   -6.827014   -3.614479
  41 C     6.0000    0    12.011    8.030958   -8.830123   -2.999940
  42 C     6.0000    0    12.011    6.992743  -11.158833   -2.263325
  43 C     6.0000    0    12.011    8.190640  -13.455039   -2.837235
  44 C     6.0000    0    12.011    7.102914  -15.692286   -2.041471
  45 C     6.0000    0    12.011    4.849415  -15.619720   -0.703167
  46 N     7.0000    0    14.007    3.705375  -13.433496   -0.174800
  47 C     6.0000    0    12.011    4.721292  -11.256154   -0.916328
  48 H     1.0000    0     1.008    9.942227  -13.450504   -3.880175
  49 H     1.0000    0     1.008    7.987305  -17.481479   -2.449085
  50 H     1.0000    0     1.008    3.927796  -17.331245   -0.038361
  51 H     1.0000    0     1.008    3.710666   -9.531590   -0.426889
  52 C     6.0000    0    12.011   -4.179507    8.027746    6.675080
  53 C     6.0000    0    12.011   -5.817711    8.942184    5.367389
  54 C     6.0000    0    12.011   -7.776979   10.194128    4.064423
  55 C     6.0000    0    12.011  -10.202631   10.193372    5.031018
  56 C     6.0000    0    12.011  -12.114089   11.638823    3.914379
  57 C     6.0000    0    12.011  -11.630886   13.139644    1.855144
  58 C     6.0000    0    12.011   -9.192006   13.193879    0.801055
  59 C     6.0000    0    12.011   -8.527200   14.756871   -1.259880
  60 C     6.0000    0    12.011   -6.122902   14.710195   -2.192271
  61 N     7.0000    0    14.007   -4.331063   13.130006   -1.254211
  62 C     6.0000    0    12.011   -4.870013   11.670571    0.696175
  63 C     6.0000    0    12.011   -7.251257   11.657909    1.862136
  64 H     1.0000    0     1.008  -10.606844    9.097142    6.701914
  65 H     1.0000    0     1.008  -13.983406   11.607076    4.730173
  66 H     1.0000    0     1.008  -13.093345   14.302392    1.040294
  67 H     1.0000    0     1.008   -9.927298   15.994831   -2.071896
  68 H     1.0000    0     1.008   -5.531606   15.933037   -3.731075
  69 H     1.0000    0     1.008   -3.384500   10.435257    1.398019
  70 C     6.0000    0    12.011   -2.274474    7.194943    8.351267
  71 C     6.0000    0    12.011   -1.456790    8.934625   10.189970
  72 C     6.0000    0    12.011    0.353001    8.296276   11.947227
  73 C     6.0000    0    12.011    1.347375    5.869678   11.855008
  74 N     7.0000    0    14.007    3.126930    4.769102   13.379450
  75 C     6.0000    0    12.011    3.486545    2.322095   12.640567
  76 C     6.0000    0    12.011    5.065033    0.489250   13.667066
  77 C     6.0000    0    12.011    5.045569   -1.876120   12.588222
  78 C     6.0000    0    12.011    3.489757   -2.426030   10.499129
  79 C     6.0000    0    12.011    1.925064   -0.581469    9.449009
  80 C     6.0000    0    12.011    1.915993    1.801665   10.528798
  81 C     6.0000    0    12.011    0.539328    4.094470   10.019706
  82 C     6.0000    0    12.011   -1.278022    4.763622    8.251678
  83 H     1.0000    0     1.008   -2.287891   10.797139   10.218505
  84 H     1.0000    0     1.008    0.963193    9.634580   13.359608
  85 H     1.0000    0     1.008    3.973905    5.605684   14.863074
  86 H     1.0000    0     1.008    6.253860    0.901210   15.272389
  87 H     1.0000    0     1.008    6.233262   -3.350295   13.347892
  88 H     1.0000    0     1.008    0.734914   -1.022153    7.855214
  89 H     1.0000    0     1.008   -1.926198    3.434199    6.850635
  90 C     6.0000    0    12.011    3.508655   -4.898359    9.526865
  91 C     6.0000    0    12.011    3.544370   -7.057560    8.773998
  92 C     6.0000    0    12.011    3.530953   -9.576565    7.940251
  93 C     6.0000    0    12.011    4.665923  -11.512401    9.355278
  94 C     6.0000    0    12.011    4.548004  -13.969045    8.476745
  95 C     6.0000    0    12.011    3.311556  -14.467743    6.218900
  96 N     7.0000    0    14.007    2.250853  -12.620158    4.866801
  97 C     6.0000    0    12.011    2.346473  -10.240237    5.673147
  98 H     1.0000    0     1.008    5.604550  -11.067559   11.109511
  99 H     1.0000    0     1.008    5.397436  -15.491975    9.529511
 100 H     1.0000    0     1.008    3.160567  -16.371642    5.462442
 101 H     1.0000    0     1.008    1.451877   -8.810281    4.494525
 102 C     6.0000    0    12.011   -9.104323    5.585464   -4.362433
 103 C     6.0000    0    12.011   -8.230702    6.338897   -6.336441
 104 C     6.0000    0    12.011   -7.387506    7.409805   -8.626411
 105 C     6.0000    0    12.011   -8.422320    6.693221  -10.912413
 106 C     6.0000    0    12.011   -7.773955    7.951023  -13.147014
 107 C     6.0000    0    12.011   -6.132539    9.959613  -13.135108
 108 C     6.0000    0    12.011   -5.014766   10.741581  -10.854587
 109 C     6.0000    0    12.011   -3.364090   12.832752  -10.664669
 110 C     6.0000    0    12.011   -2.343827   13.471669   -8.382447
 111 N     7.0000    0    14.007   -2.791881   12.100672   -6.260852
 112 C     6.0000    0    12.011   -4.348638   10.153310   -6.359117
 113 C     6.0000    0    12.011   -5.585275    9.415371   -8.582947
 114 H     1.0000    0     1.008   -9.786325    5.178605  -10.960790
 115 H     1.0000    0     1.008   -8.637182    7.358972  -14.897656
 116 H     1.0000    0     1.008   -5.697335   10.966270  -14.853247
 117 H     1.0000    0     1.008   -2.933233   13.925203  -12.330085
 118 H     1.0000    0     1.008   -1.118529   15.101179   -8.158515
 119 H     1.0000    0     1.008   -4.656663    9.089772   -4.626428
 120 C     6.0000    0    12.011  -10.277842    4.839022   -2.083612
 121 C     6.0000    0    12.011  -12.084232    6.486674   -1.038593
 122 C     6.0000    0    12.011  -13.395702    5.862119    1.120797
 123 C     6.0000    0    12.011  -12.869035    3.554953    2.253876
 124 N     7.0000    0    14.007  -13.913487    2.482155    4.366023
 125 C     6.0000    0    12.011  -12.843524    0.165351    4.764378
 126 C     6.0000    0    12.011  -13.345624   -1.604755    6.640498
 127 C     6.0000    0    12.011  -11.997115   -3.828585    6.610451
 128 C     6.0000    0    12.011  -10.149719   -4.295348    4.752661
 129 C     6.0000    0    12.011   -9.636847   -2.518438    2.873329
 130 C     6.0000    0    12.011  -10.997828   -0.285160    2.872006
 131 C     6.0000    0    12.011  -11.022206    1.897285    1.247408
 132 C     6.0000    0    12.011   -9.724342    2.538280   -0.936548
 133 H     1.0000    0     1.008  -12.465578    8.254702   -1.981000
 134 H     1.0000    0     1.008  -14.808650    7.115764    1.886703
 135 H     1.0000    0     1.008  -15.322844    3.231621    5.400837
 136 H     1.0000    0     1.008  -14.758761   -1.255723    8.069131
 137 H     1.0000    0     1.008  -12.347093   -5.249281    8.031903
 138 H     1.0000    0     1.008   -8.230702   -2.897895    1.448853
 139 H     1.0000    0     1.008   -8.340495    1.282935   -1.748564
 140 C     6.0000    0    12.011   -8.825966   -6.598357    4.800660
 141 C     6.0000    0    12.011   -7.702713   -8.589372    4.856596
 142 C     6.0000    0    12.011   -6.376314  -10.887657    4.890989
 143 C     6.0000    0    12.011   -7.240108  -12.986954    6.262174
 144 C     6.0000    0    12.011   -5.851726  -15.199067    6.209829
 145 C     6.0000    0    12.011   -3.632054  -15.291664    4.817101
 146 N     7.0000    0    14.007   -2.808511  -13.287231    3.524717
 147 C     6.0000    0    12.011   -4.120737  -11.142581    3.537756
 148 H     1.0000    0     1.008   -8.970530  -12.856941    7.332326
 149 H     1.0000    0     1.008   -6.475714  -16.842562    7.238974
 150 H     1.0000    0     1.008   -2.478565  -16.988260    4.726016
 151 H     1.0000    0     1.008   -3.367870   -9.571652    2.441337
 152 C     6.0000    0    12.011    2.112714    5.124937  -10.221340
 153 C     6.0000    0    12.011    3.838601    6.426959   -9.477166
 154 C     6.0000    0    12.011    5.796357    8.114673   -8.829178
 155 C     6.0000    0    12.011    8.195364    7.839718   -9.818828
 156 C     6.0000    0    12.011   10.050697    9.678610   -9.405356
 157 C     6.0000    0    12.011    9.534991   11.832709   -8.055714
 158 C     6.0000    0    12.011    7.125401   12.181931   -6.991231
 159 C     6.0000    0    12.011    6.413919   14.375525   -5.643667
 160 C     6.0000    0    12.011    4.041368   14.569033   -4.648537
 161 N     7.0000    0    14.007    2.332111   12.662866   -4.824093
 162 C     6.0000    0    12.011    2.916225   10.602120   -6.104193
 163 C     6.0000    0    12.011    5.254195   10.273307   -7.306248
 164 H     1.0000    0     1.008    8.620553    6.211530  -10.969860
 165 H     1.0000    0     1.008   11.899416    9.416127  -10.226064
 166 H     1.0000    0     1.008   10.949829   13.279672   -7.812128
 167 H     1.0000    0     1.008    7.752035   15.896565   -5.424648
 168 H     1.0000    0     1.008    3.413601   16.254101   -3.661722
 169 H     1.0000    0     1.008    1.507246    9.108480   -6.202081
 170 C     6.0000    0    12.011    0.088250    3.733910  -11.267870
 171 C     6.0000    0    12.011   -1.257235    4.856218  -13.268145
 172 C     6.0000    0    12.011   -3.194771    3.600495  -14.468877
 173 C     6.0000    0    12.011   -3.796649    1.186937  -13.633996
 174 N     7.0000    0    14.007   -5.595479   -0.456558  -14.509695
 175 C     6.0000    0    12.011   -5.490599   -2.644861  -13.141345
 176 C     6.0000    0    12.011   -6.915264   -4.838833  -13.389843
 177 C     6.0000    0    12.011   -6.417510   -6.806227  -11.762978
 178 C     6.0000    0    12.011   -4.539689   -6.602703   -9.888370
 179 C     6.0000    0    12.011   -3.115591   -4.399093   -9.628344
 180 C     6.0000    0    12.011   -3.584055   -2.417527  -11.269382
 181 C     6.0000    0    12.011   -2.485935    0.050456  -11.594037
 182 C     6.0000    0    12.011   -0.528745    1.326777  -10.407856
 183 H     1.0000    0     1.008   -0.722631    6.724590  -13.886464
 184 H     1.0000    0     1.008   -4.189523    4.456541  -16.028468
 185 H     1.0000    0     1.008   -6.741409   -0.146643  -15.996154
 186 H     1.0000    0     1.008   -8.356936   -5.003806  -14.823201
 187 H     1.0000    0     1.008   -7.478780   -8.541751  -11.911700
 188 H     1.0000    0     1.008   -1.671274   -4.265301   -8.197632
 189 H     1.0000    0     1.008    0.511360    0.475644   -8.876989
 190 C     6.0000    0    12.011   -4.091635   -8.670441   -8.281158
 191 C     6.0000    0    12.011   -3.709154  -10.464358   -6.915831
 192 C     6.0000    0    12.011   -3.221605  -12.531530   -5.324492
 193 C     6.0000    0    12.011   -4.017558  -14.987418   -5.931283
 194 C     6.0000    0    12.011   -3.451018  -16.947253   -4.299694
 195 C     6.0000    0    12.011   -2.118005  -16.443263   -2.098919
 196 N     7.0000    0    14.007   -1.377988  -14.101892   -1.518395
 197 C     6.0000    0    12.011   -1.898041  -12.187411   -3.062868
 198 H     1.0000    0     1.008   -5.049915  -15.321144   -7.657170
 199 H     1.0000    0     1.008   -4.032109  -18.853042   -4.723181
 200 H     1.0000    0     1.008   -1.628944  -17.925753   -0.764205
 201 H     1.0000    0     1.008   -1.244952  -10.318661   -2.499352
* core charge reduced due to ECP

--------------------------------
INTERNAL COORDINATES (ANGSTROEM)
--------------------------------
 Pd     0   0   0     0.000000000000     0.00000000     0.00000000
 Pd     1   0   0    14.162349972021     0.00000000     0.00000000
 C      1   2   0     5.835183388721    55.87165630     0.00000000
 C      3   1   2     1.210025842699    66.37167920   249.00475618
 C      4   3   1     1.410705830427   173.80193583   268.33419243
 C      5   4   3     1.381216807746   120.95731926   274.88975930
 C      6   5   4     1.400192847432   120.85565021   171.97225341
 C      7   6   5     1.372749609361   121.23276798   358.65686741
 C      8   7   6     1.406685373493   119.87256776     2.20048331
 C      9   8   7     1.413328277507   123.43670179   181.49043452
 C     10   9   8     1.365639941566   120.08491010   179.92539809
 N     11  10   9     1.357674088285   122.03485981     2.50613380
 C     12  11  10     1.320614648563   119.53716264   357.15652636
 C     13  12  11     1.402090699634   122.80934291   359.55340209
 H      6   5   4     1.079142919172   119.42261524   353.69570762
 H      7   6   5     1.079419177150   118.89851636   180.37995429
 H      8   7   6     1.078640709412   120.88500521   182.57691024
 H     10   9   8     1.078331145799   119.47297002     0.65617257
 H     11  10   9     1.085418693408   121.86581702   182.22488432
 H     13  12  11     1.088143928899   117.66464934   179.34158849
 C      3   1   2     1.413159559286   114.19737184    74.95317364
 C     21   3   1     1.407229466008   116.98557024    84.73429632
 C     22  21   3     1.376879991139   121.34309978   177.77051966
 C     23  22  21     1.388368330091   117.86607227     0.19970426
 N     24  23  22     1.369980645849   129.36949393   180.93970067
 C     25  24  23     1.366613178628   109.27716380   178.82736137
 C     26  25  24     1.390412582653   129.33860511   181.39522700
 C     27  26  25     1.376037223334   117.90934299   179.27848657
 C     28  27  26     1.408601387902   121.20429480     0.53053036
 C     29  28  27     1.395153514851   120.97117849   359.89479264
 C     30  29  28     1.384379099091   118.33453503   359.51257258
 C     24  23  22     1.417203065901   121.43763648     0.66784943
 C     32  24  23     1.387046534908   120.17406509   359.17343938
 H     22  21   3     1.079256044690   118.79683381   358.85977182
 H     23  22  21     1.078626802930   120.92954200   181.26483560
 H     25  24  23     1.006625123867   125.40095522     2.51271902
 H     27  26  25     1.079270322950   121.13940028   359.86277232
 H     28  27  26     1.079452815087   119.90131418   180.51984301
 H     30  29  28     1.078159222935   120.47071011   180.45179653
 H     33  32  24     1.078045940580   121.17746434   181.05910487
 C     29  28  27     1.406079706133   118.55152442   180.78874916
 C     41  29  28     1.210158274772   178.35045310    21.69627884
 C     42  41  29     1.404402965676   179.25194583    66.43866501
 C     43  42  41     1.403756000878   121.52204639   289.20872559
 C     44  43  42     1.382121478018   119.17529111   179.23677430
 C     45  44  43     1.387471819534   119.32390846     0.24028306
 N     46  45  44     1.335328772250   121.36690740     0.21363950
 C     47  46  45     1.330622546029   120.35036013   359.61242077
 H     44  43  42     1.078769196816   119.78586330   359.51029296
 H     45  44  43     1.077952100049   120.70297855   180.28355455
 H     46  45  44     1.087155471862   121.84869652   180.07594319
 H     48  47  46     1.089004499532   117.19991500   180.24299607
 C     13  12  11     5.159387898772    86.52536127    83.12016063
 C     53  13  12     1.210181316993    89.97874857    18.72157251
 C     54  53  13     1.410415094928   173.69066597   253.07613499
 C     55  54  53     1.381760243313   120.11768145   298.30804801
 C     56  55  54     1.399059351850   121.00541910   173.25604297
 C     57  56  55     1.372436599629   121.13278599   358.73613839
 C     58  57  56     1.406276249533   119.85004356     1.46252534
 C     59  58  57     1.413246620375   123.12671678   182.32079818
 C     60  59  58     1.364844657827   120.02870480   180.12990982
 N     61  60  59     1.358207141787   121.99241109     2.26307153
 C     62  61  60     1.320233592968   119.67326106   356.70570291
 C     63  62  61     1.403063042062   122.72334893     0.40408006
 H     56  55  54     1.078924863000   119.18915431   354.89813453
 H     57  56  55     1.079427519568   119.02093754   180.57909735
 H     58  57  56     1.078632810552   120.91985938   182.20699286
 H     60  59  58     1.078300009274   119.47448389     0.75336436
 H     61  60  59     1.086153446802   121.92375346   182.14851532
 H     63  62  61     1.087756801863   117.53890241   180.20345880
 C     53  13  12     1.413241345277    89.88526590   204.69709187
 C     71  53  13     1.407644362046   116.69028516    84.47132599
 C     72  71  53     1.376957566521   121.34305654   178.64789142
 C     73  72  71     1.388589460568   117.81988453   359.82168141
 N     74  73  72     1.369946546402   129.26650432   180.66691745
 C     75  74  73     1.365965263102   109.28196967   178.38100375
 C     76  75  74     1.390502909022   129.27894449   181.36926642
 C     77  76  75     1.375785517441   117.90480650   178.80698379
 C     78  77  76     1.408770435522   121.19420516     0.39644987
 C     79  78  77     1.395405926603   120.98328547     0.30272842
 C     80  79  78     1.384519487042   118.35001343   359.29033866
 C     74  73  72     1.417230948011   121.51444177     0.00000000
 C     82  74  73     1.387660282634   120.13191156     0.26414969
 H     72  71  53     1.079379178046   118.78994511   359.18652641
 H     73  72  71     1.079082207248   120.98871334   180.39915131
 H     75  74  73     1.006602473671   125.33670533     1.11273997
 H     77  76  75     1.079324353473   121.11258823   359.46187542
 H     78  77  76     1.079431452201   119.90839165   180.60223565
 H     80  79  78     1.078125150435   120.45462791   180.26433991
 H     83  82  74     1.078070132227   121.17500598   180.47458882
 C     79  78  77     1.405865975120   118.37593335   181.65400597
 C     91  79  78     1.210212597026   177.70278817    29.66113111
 C     92  91  79     1.404135623791   178.50694414    64.72976825
 C     93  92  91     1.403857955778   121.53196703   277.16346475
 C     94  93  92     1.382036819336   119.18607088   178.51670915
 C     95  94  93     1.387551346798   119.33077208     0.00000000
 N     96  95  94     1.335250998876   121.35773285     0.55165282
 C     97  96  95     1.330684639575   120.34356118   359.60608258
 H     94  93  92     1.078825722719   119.78296651   358.85450628
 H     95  94  93     1.077907913507   120.70292199   180.23057937
 H     96  95  94     1.087051217745   121.87190128   180.43631298
 H     98  97  96     1.088900427036   117.22552168   179.94163589
 C     64  63  62     4.705028494069    83.25668576    87.30561498
 C    103  64  63     1.209905839311   107.44179381   316.67380624
 C    104 103  64     1.410213661117   174.39491609   293.47691724
 C    105 104 103     1.380953471338   121.12629974   270.10379991
 C    106 105 104     1.399659680065   120.81668690   173.08673175
 C    107 106 105     1.372684253570   121.29601642   358.76284712
 C    108 107 106     1.406225063779   119.86492349     1.78623034
 C    109 108 107     1.413388149094   123.46100959   181.87954210
 C    110 109 108     1.365409429439   120.07514769   180.24189369
 N    111 110 109     1.357579445189   122.01083171     2.32457088
 C    112 111 110     1.320333552554   119.57061005   356.86882905
 C    113 112 111     1.401994240359   122.79788205     0.00000000
 H    106 105 104     1.078912809267   119.34454705   354.81825603
 H    107 106 105     1.079370228420   118.90381666   180.82552822
 H    108 107 106     1.078634330995   120.90702480   182.40645722
 H    110 109 108     1.078366032477   119.49073817     0.79976458
 H    111 110 109     1.085369107723   121.97270001   182.01853168
 H    113 112 111     1.088126118609   117.64291664   179.66610235
 C    103  64  63     1.412749379756    71.63868494   141.19483742
 C    121 103  64     1.407040660393   117.44198293    60.74698962
 C    122 121 103     1.377181738189   121.31544273   177.27765092
 C    123 122 121     1.388449012388   117.91702694     0.44626377
 N    124 123 122     1.370041557764   129.47156795   180.91710041
 C    125 124 123     1.366782747916   109.29248431   179.01109076
 C    126 125 124     1.390559319123   129.43406839   181.27872432
 C    127 126 125     1.376348796636   117.94577879   179.57106987
 C    128 127 126     1.408260050559   121.19470432     0.51328245
 C    129 128 127     1.395296491789   120.95716121   359.68635097
 C    130 129 128     1.383958008756   118.33373870   359.72903624
 C    124 123 122     1.417130159865   121.36093617     0.70245274
 C    132 124 123     1.386504010092   120.22791109   358.87612722
 H    122 121 103     1.079246167471   118.85622012   358.53578815
 H    123 122 121     1.078620850902   120.89743754   181.43147871
 H    125 124 123     1.006665267107   125.40903481     2.50812886
 H    127 126 125     1.079284452774   121.14552647     0.04890405
 H    128 127 126     1.079493918464   119.89850170   180.38353105
 H    130 129 128     1.078063026914   120.47093742   180.52932912
 H    133 132 124     1.078053741703   121.19592274   181.24244379
 C    129 128 127     1.405907216000   119.03278334   180.10158959
 C    141 129 128     1.210066312233   179.41195424    15.40158534
 C    142 141 129     1.404328056403   179.13495894   168.91677164
 C    143 142 141     1.403401075958   121.96779224   192.66856285
 C    144 143 142     1.382337057305   119.13419162   179.73260015
 C    145 144 143     1.387535642785   119.37185132     0.34829437
 N    146 145 144     1.335187380108   121.35355233     0.00000000
 C    147 146 145     1.330502529122   120.30641484   359.67839599
 H    144 143 142     1.078858480061   119.82572780   359.91097432
 H    145 144 143     1.077960708931   120.68322721   180.26831174
 H    146 145 144     1.086718105122   121.88569462   179.83951717
 H    148 147 146     1.089226464056   117.21579143   180.38124869
 C    114 113 112     4.743482067005    83.44755551    83.58932139
 C    153 114 113     1.209924100925   108.43260679   322.53236439
 C    154 153 114     1.410143262226   173.91671192   288.00022490
 C    155 154 153     1.380964224736   121.09327306   271.91883428
 C    156 155 154     1.399545744161   120.82024980   172.53815141
 C    157 156 155     1.372562588737   121.28578874   358.56368239
 C    158 157 156     1.406178487959   119.85966692     2.03916906
 C    159 158 157     1.413407407650   123.47593368   182.03899835
 C    160 159 158     1.365310796119   120.07579461   180.46552869
 N    161 160 159     1.358022956360   122.03105181     2.51712475
 C    162 161 160     1.320455913690   119.51168508   356.42082970
 C    163 162 161     1.401985395787   122.80798915     0.18351348
 H    156 155 154     1.078880146263   119.33782337   354.36012350
 H    157 156 155     1.079342665700   118.91149248   180.77254834
 H    158 157 156     1.078639601535   120.91188820   182.66118858
 H    160 159 158     1.078286803221   119.49543105     1.03070446
 H    161 160 159     1.085439344229   121.91148313   182.21390113
 H    163 162 161     1.087811913890   117.64833274   179.77867971
 C    153 114 113     1.412876972705    70.72202319   147.43913071
 C    171 153 114     1.407154383854   117.29790521    65.51569448
 C    172 171 153     1.377146869437   121.34096291   177.44333987
 C    173 172 171     1.388477342271   117.89293823     0.39369683
 N    174 173 172     1.370120892476   129.46750308   180.85776365
 C    175 174 173     1.366881509129   109.29187032   179.02258267
 C    176 175 174     1.390531718444   129.43707494   181.27861541
 C    177 176 175     1.376378429067   117.94613335   179.51109270
 C    178 177 176     1.408226892230   121.18477606     0.53129543
 C    179 178 177     1.395218954143   120.96603587   359.73903107
 C    180 179 178     1.383884001642   118.33652701   359.66034127
 C    174 173 172     1.417068512811   121.36581983     0.68699837
 C    182 174 173     1.386667566506   120.24530020   358.93796788
 H    172 171 153     1.079175583490   118.82283356   358.69063338
 H    173 172 171     1.078622292557   120.91213427   181.40005657
 H    175 174 173     1.006656108112   125.40732418     2.53805028
 H    177 176 175     1.079333104282   121.14508073     0.02323841
 H    178 177 176     1.079373341342   119.89561940   180.43062957
 H    180 179 178     1.078131504038   120.46725441   180.50147380
 H    183 182 174     1.077989948933   121.19977683   181.18817454
 C    179 178 177     1.406001529160   119.05125744   180.36560775
 C    191 179 178     1.210017561856   179.41991749    38.57099916
 C    192 191 179     1.404390835914   178.99414831   115.85098115
 C    193 192 191     1.403379781100   121.93660378   223.55423212
 C    194 193 192     1.382358857171   119.12783672   179.20477156
 C    195 194 193     1.387447732349   119.36128810     0.20623860
 N    196 195 194     1.335231590399   121.37236998     0.24537280
 C    197 196 195     1.330445767403   120.30441927   359.62440074
 H    194 193 192     1.078771588428   119.82135658   359.46132957
 H    195 194 193     1.077891140144   120.67824337   180.27129073
 H    196 195 194     1.086865851888   121.85612534   180.10694238
 H    198 197 196     1.089167484825   117.22916381   180.17912438

---------------------------
INTERNAL COORDINATES (A.U.)
---------------------------
 Pd     0   0   0     0.000000000000     0.00000000     0.00000000
 Pd     1   0   0    26.762962859867     0.00000000     0.00000000
 C      1   2   0    11.026898545888    55.87165630     0.00000000
 C      3   1   2     2.286617457669    66.37167920   249.00475618
 C      4   3   1     2.665847675032   173.80193583   268.33419243
 C      5   4   3     2.610121498209   120.95731926   274.88975930
 C      6   5   4     2.645981016322   120.85565021   171.97225341
 C      7   6   5     2.594120812139   121.23276798   358.65686741
 C      8   7   6     2.658250112495   119.87256776     2.20048331
 C      9   8   7     2.670803381814   123.43670179   181.49043452
 C     10   9   8     2.580685487104   120.08491010   179.92539809
 N     11  10   9     2.565632205980   122.03485981     2.50613380
 C     12  11  10     2.495600014229   119.53716264   357.15652636
 C     13  12  11     2.649567437226   122.80934291   359.55340209
 H      6   5   4     2.039284576596   119.42261524   353.69570762
 H      7   6   5     2.039806628517   118.89851636   180.37995429
 H      8   7   6     2.038335537686   120.88500521   182.57691024
 H     10   9   8     2.037750547237   119.47297002     0.65617257
 H     11  10   9     2.051144071180   121.86581702   182.22488432
 H     13  12  11     2.056294019908   117.66464934   179.34158849
 C      3   1   2     2.670484550582   114.19737184    74.95317364
 C     21   3   1     2.659278298339   116.98557024    84.73429632
 C     22  21   3     2.601926102529   121.34309978   177.77051966
 C     23  22  21     2.623635916882   117.86607227     0.19970426
 N     24  23  22     2.588888229427   129.36949393   180.93970067
 C     25  24  23     2.582524638615   109.27716380   178.82736137
 C     26  25  24     2.627498994372   129.33860511   181.39522700
 C     27  26  25     2.600333502182   117.90934299   179.27848657
 C     28  27  26     2.661870854997   121.20429480     0.53053036
 C     29  28  27     2.636458057845   120.97117849   359.89479264
 C     30  29  28     2.616097362807   118.33453503   359.51257258
 C     24  23  22     2.678125670707   121.43763648     0.66784943
 C     32  24  23     2.621138085980   120.17406509   359.17343938
 H     22  21   3     2.039498352843   118.79683381   358.85977182
 H     23  22  21     2.038309258246   120.92954200   181.26483560
 H     25  24  23     1.902245803633   125.40095522     2.51271902
 H     27  26  25     2.039525334844   121.13940028   359.86277232
 H     28  27  26     2.039870195005   119.90131418   180.51984301
 H     30  29  28     2.037425660109   120.47071011   180.45179653
 H     33  32  24     2.037211587481   121.17746434   181.05910487
 C     29  28  27     2.657105567056   118.55152442   180.78874916
 C     41  29  28     2.286867718018   178.35045310    21.69627884
 C     42  41  29     2.653936986795   179.25194583    66.43866501
 C     43  42  41     2.652714400507   121.52204639   289.20872559
 C     44  43  42     2.611831077265   119.17529111   179.23677430
 C     45  44  43     2.621941757452   119.32390846     0.24028306
 N     46  45  44     2.523405678299   121.36690740     0.21363950
 C     47  46  45     2.514512199615   120.35036013   359.61242077
 H     44  43  42     2.038578343693   119.78586330   359.51029296
 H     45  44  43     2.037034254578   120.70297855   180.28355455
 H     46  45  44     2.054426106814   121.84869652   180.07594319
 H     48  47  46     2.057920262723   117.19991500   180.24299607
 C     13  12  11     9.749830147347    86.52536127    83.12016063
 C     53  13  12     2.286911261506    89.97874857    18.72157251
 C     54  53  13     2.665298264562   173.69066597   253.07613499
 C     55  54  53     2.611148442602   120.11768145   298.30804801
 C     56  55  54     2.643839020099   121.00541910   173.25604297
 C     57  56  55     2.593529309468   121.13278599   358.73613839
 C     58  57  56     2.657476980255   119.85004356     1.46252534
 C     59  58  57     2.670649072198   123.12671678   182.32079818
 C     60  59  58     2.579182618639   120.02870480   180.12990982
 N     61  60  59     2.566639531113   121.99241109     2.26307153
 C     62  61  60     2.494879923512   119.67326106   356.70570291
 C     63  62  61     2.651404898123   122.72334893     0.40408006
 H     56  55  54     2.038872510149   119.18915431   354.89813453
 H     57  56  55     2.039822393401   119.02093754   180.57909735
 H     58  57  56     2.038320611006   120.91985938   182.20699286
 H     60  59  58     2.037691707732   119.47448389     0.75336436
 H     61  60  59     2.052532553871   121.92375346   182.14851532
 H     63  62  61     2.055562455832   117.53890241   180.20345880
 C     53  13  12     2.670639103708    89.88526590   204.69709187
 C     71  53  13     2.660062338225   116.69028516    84.47132599
 C     72  71  53     2.602072698756   121.34305654   178.64789142
 C     73  72  71     2.624053792923   117.81988453   359.82168141
 N     74  73  72     2.588823790812   129.26650432   180.66691745
 C     75  74  73     2.581300255712   109.28196967   178.38100375
 C     76  75  74     2.627669686473   129.27894449   181.36926642
 C     77  76  75     2.599857846978   117.90480650   178.80698379
 C     78  77  76     2.662190308701   121.19420516     0.39644987
 C     79  78  77     2.636935046931   120.98328547     0.30272842
 C     80  79  78     2.616362657587   118.35001343   359.29033866
 C     74  73  72     2.678178360258   121.51444177     0.00000000
 C     82  74  73     2.622297901098   120.13191156     0.26414969
 H     72  71  53     2.039731041165   118.78994511   359.18652641
 H     73  72  71     2.039169847687   120.98871334   180.39915131
 H     75  74  73     1.902203000965   125.33670533     1.11273997
 H     77  76  75     2.039627437736   121.11258823   359.46187542
 H     78  77  76     2.039829825000   119.90839165   180.60223565
 H     80  79  78     2.037361272414   120.45462791   180.26433991
 H     83  82  74     2.037257303069   121.17500598   180.47458882
 C     79  78  77     2.656701673975   118.37593335   181.65400597
 C     91  79  78     2.286970372200   177.70278817    29.66113111
 C     92  91  79     2.653431783848   178.50694414    64.72976825
 C     93  92  91     2.652907067346   121.53196703   277.16346475
 C     94  93  92     2.611671095540   119.18607088   178.51670915
 C     95  94  93     2.622092042201   119.33077208     0.00000000
 N     96  95  94     2.523258707921   121.35773285     0.55165282
 C     97  96  95     2.514629539412   120.34356118   359.60608258
 H     94  93  92     2.038685162168   119.78296651   358.85450628
 H     95  94  93     2.036950754114   120.70292199   180.23057937
 H     96  95  94     2.054229095083   121.87190128   180.43631298
 H     98  97  96     2.057723594209   117.22552168   179.94163589
 C     64  63  62     8.891215306086    83.25668576    87.30561498
 C    103  64  63     2.286390684131   107.44179381   316.67380624
 C    104 103  64     2.664917609825   174.39491609   293.47691724
 C    105 104 103     2.609623864516   121.12629974   270.10379991
 C    106 105 104     2.644973476015   120.81668690   173.08673175
 C    107 106 105     2.593997307594   121.29601642   358.76284712
 C    108 107 106     2.657380253198   119.86492349     1.78623034
 C    109 108 107     2.670916522718   123.46100959   181.87954210
 C    110 109 108     2.580249882313   120.07514769   180.24189369
 N    111 110 109     2.565453356448   122.01083171     2.32457088
 C    112 111 110     2.495068819754   119.57061005   356.86882905
 C    113 112 111     2.649385155614   122.79788205     0.00000000
 H    106 105 104     2.038849731894   119.34454705   354.81825603
 H    107 106 105     2.039714128822   118.90381666   180.82552822
 H    108 107 106     2.038323484225   120.90702480   182.40645722
 H    110 109 108     2.037816473505   119.49073817     0.79976458
 H    111 110 109     2.051050367815   121.97270001   182.01853168
 H    113 112 111     2.056260363339   117.64291664   179.66610235
 C    103  64  63     2.669709423605    71.63868494   141.19483742
 C    121 103  64     2.658921507435   117.44198293    60.74698962
 C    122 121 103     2.602496321814   121.31544273   177.27765092
 C    123 122 121     2.623788384326   117.91702694     0.44626377
 N    124 123 122     2.589003336265   129.47156795   180.91710041
 C    125 124 123     2.582845078129   109.29248431   179.01109076
 C    126 125 124     2.627776286115   129.43406839   181.27872432
 C    127 126 125     2.600922290393   117.94577879   179.57106987
 C    128 127 126     2.661225820898   121.19470432     0.51328245
 C    129 128 127     2.636728245103   120.95716121   359.68635097
 C    130 129 128     2.615301617396   118.33373870   359.72903624
 C    124 123 122     2.677987898266   121.36093617     0.70245274
 C    132 124 123     2.620112862657   120.22791109   358.87612722
 H    122 121 103     2.039479687604   118.85622012   358.53578815
 H    123 122 121     2.038298010541   120.89743754   181.43147871
 H    125 124 123     1.902321663363   125.40903481     2.50812886
 H    127 126 125     2.039552036342   121.14552647     0.04890405
 H    128 127 126     2.039947869130   119.89850170   180.38353105
 H    130 129 128     2.037243875975   120.47093742   180.52932912
 H    133 132 124     2.037226329468   121.19592274   181.24244379
 C    129 128 127     2.656779607943   119.03278334   180.10158959
 C    141 129 128     2.286693934003   179.41195424    15.40158534
 C    142 141 129     2.653795428783   179.13495894   168.91677164
 C    143 142 141     2.652043689611   121.96779224   192.66856285
 C    144 143 142     2.612238463078   119.13419162   179.73260015
 C    145 144 143     2.622062365919   119.37185132     0.34829437
 N    146 145 144     2.523138485872   121.35355233     0.00000000
 C    147 146 145     2.514285400530   120.30641484   359.67839599
 H    144 143 142     2.038747064574   119.82572780   359.91097432
 H    145 144 143     2.037050523008   120.68322721   180.26831174
 H    146 145 144     2.053599603454   121.88569462   179.83951717
 H    148 147 146     2.058339714885   117.21579143   180.38124869
 C    114 113 112     8.963882027807    83.44755551    83.58932139
 C    153 114 113     2.286425193580   108.43260679   322.53236439
 C    154 153 114     2.664784575201   173.91671192   288.00022490
 C    155 154 153     2.609644185493   121.09327306   271.91883428
 C    156 155 154     2.644758168360   120.82024980   172.53815141
 C    157 156 155     2.593767394379   121.28578874   358.56368239
 C    158 157 156     2.657292237655   119.85966692     2.03916906
 C    159 158 157     2.670952916114   123.47593368   182.03899835
 C    160 159 158     2.580063492352   120.07579461   180.46552869
 N    161 160 159     2.566291471098   122.03105181     2.51712475
 C    162 161 160     2.495300048792   119.51168508   356.42082970
 C    163 162 161     2.649368441795   122.80798915     0.18351348
 H    156 155 154     2.038788007762   119.33782337   354.36012350
 H    157 156 155     2.039662042829   118.91149248   180.77254834
 H    158 157 156     2.038333444103   120.91188820   182.66118858
 H    160 159 158     2.037666751909   119.49543105     1.03070446
 H    161 160 159     2.051183095576   121.91148313   182.21390113
 H    163 162 161     2.055666602468   117.64833274   179.77867971
 C    153 114 113     2.669950539336    70.72202319   147.43913071
 C    171 153 114     2.659136413631   117.29790521    65.51569448
 C    172 171 153     2.602430429423   121.34096291   177.44333987
 C    173 172 171     2.623841920047   117.89293823     0.39369683
 N    174 173 172     2.589153257144   129.46750308   180.85776365
 C    175 174 173     2.583031709776   109.29187032   179.02258267
 C    176 175 174     2.627724128391   129.43707494   181.27861541
 C    177 176 175     2.600978287573   117.94613335   179.51109270
 C    178 177 176     2.661163160738   121.18477606     0.53129543
 C    179 178 177     2.636581720186   120.96603587   359.73903107
 C    180 179 178     2.615161764218   118.33652701   359.66034127
 C    174 173 172     2.677871402216   121.36581983     0.68699837
 C    182 174 173     2.620421939488   120.24530020   358.93796788
 H    172 171 153     2.039346303210   118.82283356   358.69063338
 H    173 172 171     2.038300734874   120.91213427   181.40005657
 H    175 174 173     1.902304355371   125.40732418     2.53805028
 H    177 176 175     2.039643974369   121.14508073     0.02323841
 H    178 177 176     2.039720011392   119.89561940   180.43062957
 H    180 179 178     2.037373278985   120.46725441   180.50147380
 H    183 182 174     2.037105778603   121.19977683   181.18817454
 C    179 178 177     2.656957833987   119.05125744   180.36560775
 C    191 179 178     2.286601809143   179.41991749    38.57099916
 C    192 191 179     2.653914064867   178.99414831   115.85098115
 C    193 192 191     2.652003448161   121.93660378   223.55423212
 C    194 193 192     2.612279658854   119.12783672   179.20477156
 C    195 194 193     2.621896239269   119.36128810     0.20623860
 N    196 195 194     2.523222031215   121.37236998     0.24537280
 C    197 196 195     2.514178136426   120.30441927   359.62440074
 H    194 193 192     2.038582863185   119.82135658   359.46132957
 H    195 194 193     2.036919057051   120.67824337   180.27129073
 H    196 195 194     2.053878804379   121.85612534   180.10694238
 H    198 197 196     2.058228260291   117.22916381   180.17912438

---------------------
BASIS SET INFORMATION
---------------------
There are 4 groups of distinct atoms

 Group   1 Type Pd  : 7s7p6d contracted to 6s4p3d pattern {211111/4111/411}
 Group   2 Type C   : 11s6p1d contracted to 5s3p1d pattern {62111/411/1}
 Group   3 Type N   : 11s6p1d contracted to 5s3p1d pattern {62111/411/1}
 Group   4 Type H   : 5s contracted to 3s pattern {311}

Atom   0Pd   basis set group =>   1
Atom   1Pd   basis set group =>   1
Atom   2C    basis set group =>   2
Atom   3C    basis set group =>   2
Atom   4C    basis set group =>   2
Atom   5C    basis set group =>   2
Atom   6C    basis set group =>   2
Atom   7C    basis set group =>   2
Atom   8C    basis set group =>   2
Atom   9C    basis set group =>   2
Atom  10C    basis set group =>   2
Atom  11N    basis set group =>   3
Atom  12C    basis set group =>   2
Atom  13C    basis set group =>   2
Atom  14H    basis set group =>   4
Atom  15H    basis set group =>   4
Atom  16H    basis set group =>   4
Atom  17H    basis set group =>   4
Atom  18H    basis set group =>   4
Atom  19H    basis set group =>   4
Atom  20C    basis set group =>   2
Atom  21C    basis set group =>   2
Atom  22C    basis set group =>   2
Atom  23C    basis set group =>   2
Atom  24N    basis set group =>   3
Atom  25C    basis set group =>   2
Atom  26C    basis set group =>   2
Atom  27C    basis set group =>   2
Atom  28C    basis set group =>   2
Atom  29C    basis set group =>   2
Atom  30C    basis set group =>   2
Atom  31C    basis set group =>   2
Atom  32C    basis set group =>   2
Atom  33H    basis set group =>   4
Atom  34H    basis set group =>   4
Atom  35H    basis set group =>   4
Atom  36H    basis set group =>   4
Atom  37H    basis set group =>   4
Atom  38H    basis set group =>   4
Atom  39H    basis set group =>   4
Atom  40C    basis set group =>   2
Atom  41C    basis set group =>   2
Atom  42C    basis set group =>   2
Atom  43C    basis set group =>   2
Atom  44C    basis set group =>   2
Atom  45C    basis set group =>   2
Atom  46N    basis set group =>   3
Atom  47C    basis set group =>   2
Atom  48H    basis set group =>   4
Atom  49H    basis set group =>   4
Atom  50H    basis set group =>   4
Atom  51H    basis set group =>   4
Atom  52C    basis set group =>   2
Atom  53C    basis set group =>   2
Atom  54C    basis set group =>   2
Atom  55C    basis set group =>   2
Atom  56C    basis set group =>   2
Atom  57C    basis set group =>   2
Atom  58C    basis set group =>   2
Atom  59C    basis set group =>   2
Atom  60C    basis set group =>   2
Atom  61N    basis set group =>   3
Atom  62C    basis set group =>   2
Atom  63C    basis set group =>   2
Atom  64H    basis set group =>   4
Atom  65H    basis set group =>   4
Atom  66H    basis set group =>   4
Atom  67H    basis set group =>   4
Atom  68H    basis set group =>   4
Atom  69H    basis set group =>   4
Atom  70C    basis set group =>   2
Atom  71C    basis set group =>   2
Atom  72C    basis set group =>   2
Atom  73C    basis set group =>   2
Atom  74N    basis set group =>   3
Atom  75C    basis set group =>   2
Atom  76C    basis set group =>   2
Atom  77C    basis set group =>   2
Atom  78C    basis set group =>   2
Atom  79C    basis set group =>   2
Atom  80C    basis set group =>   2
Atom  81C    basis set group =>   2
Atom  82C    basis set group =>   2
Atom  83H    basis set group =>   4
Atom  84H    basis set group =>   4
Atom  85H    basis set group =>   4
Atom  86H    basis set group =>   4
Atom  87H    basis set group =>   4
Atom  88H    basis set group =>   4
Atom  89H    basis set group =>   4
Atom  90C    basis set group =>   2
Atom  91C    basis set group =>   2
Atom  92C    basis set group =>   2
Atom  93C    basis set group =>   2
Atom  94C    basis set group =>   2
Atom  95C    basis set group =>   2
Atom  96N    basis set group =>   3
Atom  97C    basis set group =>   2
Atom  98H    basis set group =>   4
Atom  99H    basis set group =>   4
Atom 100H    basis set group =>   4
Atom 101H    basis set group =>   4
Atom 102C    basis set group =>   2
Atom 103C    basis set group =>   2
Atom 104C    basis set group =>   2
Atom 105C    basis set group =>   2
Atom 106C    basis set group =>   2
Atom 107C    basis set group =>   2
Atom 108C    basis set group =>   2
Atom 109C    basis set group =>   2
Atom 110C    basis set group =>   2
Atom 111N    basis set group =>   3
Atom 112C    basis set group =>   2
Atom 113C    basis set group =>   2
Atom 114H    basis set group =>   4
Atom 115H    basis set group =>   4
Atom 116H    basis set group =>   4
Atom 117H    basis set group =>   4
Atom 118H    basis set group =>   4
Atom 119H    basis set group =>   4
Atom 120C    basis set group =>   2
Atom 121C    basis set group =>   2
Atom 122C    basis set group =>   2
Atom 123C    basis set group =>   2
Atom 124N    basis set group =>   3
Atom 125C    basis set group =>   2
Atom 126C    basis set group =>   2
Atom 127C    basis set group =>   2
Atom 128C    basis set group =>   2
Atom 129C    basis set group =>   2
Atom 130C    basis set group =>   2
Atom 131C    basis set group =>   2
Atom 132C    basis set group =>   2
Atom 133H    basis set group =>   4
Atom 134H    basis set group =>   4
Atom 135H    basis set group =>   4
Atom 136H    basis set group =>   4
Atom 137H    basis set group =>   4
Atom 138H    basis set group =>   4
Atom 139H    basis set group =>   4
Atom 140C    basis set group =>   2
Atom 141C    basis set group =>   2
Atom 142C    basis set group =>   2
Atom 143C    basis set group =>   2
Atom 144C    basis set group =>   2
Atom 145C    basis set group =>   2
Atom 146N    basis set group =>   3
Atom 147C    basis set group =>   2
Atom 148H    basis set group =>   4
Atom 149H    basis set group =>   4
Atom 150H    basis set group =>   4
Atom 151H    basis set group =>   4
Atom 152C    basis set group =>   2
Atom 153C    basis set group =>   2
Atom 154C    basis set group =>   2
Atom 155C    basis set group =>   2
Atom 156C    basis set group =>   2
Atom 157C    basis set group =>   2
Atom 158C    basis set group =>   2
Atom 159C    basis set group =>   2
Atom 160C    basis set group =>   2
Atom 161N    basis set group =>   3
Atom 162C    basis set group =>   2
Atom 163C    basis set group =>   2
Atom 164H    basis set group =>   4
Atom 165H    basis set group =>   4
Atom 166H    basis set group =>   4
Atom 167H    basis set group =>   4
Atom 168H    basis set group =>   4
Atom 169H    basis set group =>   4
Atom 170C    basis set group =>   2
Atom 171C    basis set group =>   2
Atom 172C    basis set group =>   2
Atom 173C    basis set group =>   2
Atom 174N    basis set group =>   3
Atom 175C    basis set group =>   2
Atom 176C    basis set group =>   2
Atom 177C    basis set group =>   2
Atom 178C    basis set group =>   2
Atom 179C    basis set group =>   2
Atom 180C    basis set group =>   2
Atom 181C    basis set group =>   2
Atom 182C    basis set group =>   2
Atom 183H    basis set group =>   4
Atom 184H    basis set group =>   4
Atom 185H    basis set group =>   4
Atom 186H    basis set group =>   4
Atom 187H    basis set group =>   4
Atom 188H    basis set group =>   4
Atom 189H    basis set group =>   4
Atom 190C    basis set group =>   2
Atom 191C    basis set group =>   2
Atom 192C    basis set group =>   2
Atom 193C    basis set group =>   2
Atom 194C    basis set group =>   2
Atom 195C    basis set group =>   2
Atom 196N    basis set group =>   3
Atom 197C    basis set group =>   2
Atom 198H    basis set group =>   4
Atom 199H    basis set group =>   4
Atom 200H    basis set group =>   4
Atom 201H    basis set group =>   4

-------------------------
BASIS SET IN INPUT FORMAT
-------------------------

 # Basis set for element : H 
 NewGTO H 
 S 3 
   1      34.0613410000      0.0254393072
   2       5.1235746000      0.1900859489
   3       1.1646626000      0.8524411301
 S 1 
   1       0.3272304100      1.0000000000
 S 1 
   1       0.1030724100      1.0000000000
  end;

 # Basis set for element : C 
 NewGTO C 
 S 6 
   1   13575.3496820000      0.0006064549
   2    2035.2333680000      0.0046979088
   3     463.2256235900      0.0243324776
   4     131.2001959800      0.0973999683
   5      42.8530158910      0.3019558425
   6      15.5841857660      0.6623360915
 S 2 
   1       6.2067138508      0.6559530854
   2       2.5764896527      0.3758563329
 S 1 
   1       0.5769633942      1.0000000000
 S 1 
   1       0.2297283136      1.0000000000
 S 1 
   1       0.0951644400      1.0000000000
 P 4 
   1      34.6972322440      0.0113272200
   2       7.9582622826      0.0761696592
   3       2.3780826883      0.3019225220
   4       0.8143320818      0.7278502735
 P 1 
   1       0.2888754725      1.0000000000
 P 1 
   1       0.1005682367      1.0000000000
 D 1 
   1       0.8000000000      1.0000000000
  end;

 # Basis set for element : N 
 NewGTO N 
 S 6 
   1   19730.8006470000      0.0005862639
   2    2957.8958745000      0.0045428821
   3     673.2213359500      0.0235584136
   4     190.6824949400      0.0947091933
   5      62.2954418980      0.2971978492
   6      22.6541611820      0.6691624689
 S 2 
   1       8.9791477428      0.6459668363
   2       3.6863002370      0.3870057440
 S 1 
   1       0.8466007680      1.0000000000
 S 1 
   1       0.3364713377      1.0000000000
 S 1 
   1       0.1364765367      1.0000000000
 P 4 
   1      49.2003805100      0.0114488252
   2      11.3467905370      0.0784223379
   3       3.4273972411      0.3081809474
   4       1.1785525134      0.7202719637
 P 1 
   1       0.4164220497      1.0000000000
 P 1 
   1       0.1426082601      1.0000000000
 D 1 
   1       0.8000000000      1.0000000000
  end;

 # Basis set for element : Pd
 NewGTO Pd
 S 2 
   1      18.0000000000     -0.8955869481
   2      14.6621343080      1.8822771923
 S 1 
   1       5.6388709265      1.0000000000
 S 1 
   1       1.3198953252      1.0000000000
 S 1 
   1       0.5781790851      1.0000000000
 S 1 
   1       0.1035216624      1.0000000000
 S 1 
   1       0.0375484427      1.0000000000
 P 4 
   1      12.5528993000      0.0701895210
   2       7.2444496380     -0.2749252830
   3       1.8905941078      0.5623121361
   4       0.9073716876      0.5736959368
 P 1 
   1       0.4087721081      1.0000000000
 P 1 
   1       0.1150000000      1.0000000000
 P 1 
   1       0.0370000000      1.0000000000
 D 4 
   1      22.3574575750      0.0063445039
   2      10.6825263820     -0.0225156052
   3       2.4858232550      0.3884291800
   4       1.0735333903      0.6828976806
 D 1 
   1       0.4261384285      1.0000000000
 D 1 
   1       0.1504635538      1.0000000000
  end;

---------------------------------
AUXILIARY/J BASIS SET INFORMATION
---------------------------------
There are 4 groups of distinct atoms

 Group   1 Type Pd  : 11s5p5d3f3g contracted to 8s5p5d2f3g pattern {41111111/11111/11111/21/111}
 Group   2 Type C   : 8s3p3d contracted to 6s3p3d pattern {311111/111/111}
 Group   3 Type N   : 8s3p3d contracted to 6s3p3d pattern {311111/111/111}
 Group   4 Type H   : 5s2p contracted to 3s1p pattern {311/2}

Atom   0Pd   basis set group =>   1
Atom   1Pd   basis set group =>   1
Atom   2C    basis set group =>   2
Atom   3C    basis set group =>   2
Atom   4C    basis set group =>   2
Atom   5C    basis set group =>   2
Atom   6C    basis set group =>   2
Atom   7C    basis set group =>   2
Atom   8C    basis set group =>   2
Atom   9C    basis set group =>   2
Atom  10C    basis set group =>   2
Atom  11N    basis set group =>   3
Atom  12C    basis set group =>   2
Atom  13C    basis set group =>   2
Atom  14H    basis set group =>   4
Atom  15H    basis set group =>   4
Atom  16H    basis set group =>   4
Atom  17H    basis set group =>   4
Atom  18H    basis set group =>   4
Atom  19H    basis set group =>   4
Atom  20C    basis set group =>   2
Atom  21C    basis set group =>   2
Atom  22C    basis set group =>   2
Atom  23C    basis set group =>   2
Atom  24N    basis set group =>   3
Atom  25C    basis set group =>   2
Atom  26C    basis set group =>   2
Atom  27C    basis set group =>   2
Atom  28C    basis set group =>   2
Atom  29C    basis set group =>   2
Atom  30C    basis set group =>   2
Atom  31C    basis set group =>   2
Atom  32C    basis set group =>   2
Atom  33H    basis set group =>   4
Atom  34H    basis set group =>   4
Atom  35H    basis set group =>   4
Atom  36H    basis set group =>   4
Atom  37H    basis set group =>   4
Atom  38H    basis set group =>   4
Atom  39H    basis set group =>   4
Atom  40C    basis set group =>   2
Atom  41C    basis set group =>   2
Atom  42C    basis set group =>   2
Atom  43C    basis set group =>   2
Atom  44C    basis set group =>   2
Atom  45C    basis set group =>   2
Atom  46N    basis set group =>   3
Atom  47C    basis set group =>   2
Atom  48H    basis set group =>   4
Atom  49H    basis set group =>   4
Atom  50H    basis set group =>   4
Atom  51H    basis set group =>   4
Atom  52C    basis set group =>   2
Atom  53C    basis set group =>   2
Atom  54C    basis set group =>   2
Atom  55C    basis set group =>   2
Atom  56C    basis set group =>   2
Atom  57C    basis set group =>   2
Atom  58C    basis set group =>   2
Atom  59C    basis set group =>   2
Atom  60C    basis set group =>   2
Atom  61N    basis set group =>   3
Atom  62C    basis set group =>   2
Atom  63C    basis set group =>   2
Atom  64H    basis set group =>   4
Atom  65H    basis set group =>   4
Atom  66H    basis set group =>   4
Atom  67H    basis set group =>   4
Atom  68H    basis set group =>   4
Atom  69H    basis set group =>   4
Atom  70C    basis set group =>   2
Atom  71C    basis set group =>   2
Atom  72C    basis set group =>   2
Atom  73C    basis set group =>   2
Atom  74N    basis set group =>   3
Atom  75C    basis set group =>   2
Atom  76C    basis set group =>   2
Atom  77C    basis set group =>   2
Atom  78C    basis set group =>   2
Atom  79C    basis set group =>   2
Atom  80C    basis set group =>   2
Atom  81C    basis set group =>   2
Atom  82C    basis set group =>   2
Atom  83H    basis set group =>   4
Atom  84H    basis set group =>   4
Atom  85H    basis set group =>   4
Atom  86H    basis set group =>   4
Atom  87H    basis set group =>   4
Atom  88H    basis set group =>   4
Atom  89H    basis set group =>   4
Atom  90C    basis set group =>   2
Atom  91C    basis set group =>   2
Atom  92C    basis set group =>   2
Atom  93C    basis set group =>   2
Atom  94C    basis set group =>   2
Atom  95C    basis set group =>   2
Atom  96N    basis set group =>   3
Atom  97C    basis set group =>   2
Atom  98H    basis set group =>   4
Atom  99H    basis set group =>   4
Atom 100H    basis set group =>   4
Atom 101H    basis set group =>   4
Atom 102C    basis set group =>   2
Atom 103C    basis set group =>   2
Atom 104C    basis set group =>   2
Atom 105C    basis set group =>   2
Atom 106C    basis set group =>   2
Atom 107C    basis set group =>   2
Atom 108C    basis set group =>   2
Atom 109C    basis set group =>   2
Atom 110C    basis set group =>   2
Atom 111N    basis set group =>   3
Atom 112C    basis set group =>   2
Atom 113C    basis set group =>   2
Atom 114H    basis set group =>   4
Atom 115H    basis set group =>   4
Atom 116H    basis set group =>   4
Atom 117H    basis set group =>   4
Atom 118H    basis set group =>   4
Atom 119H    basis set group =>   4
Atom 120C    basis set group =>   2
Atom 121C    basis set group =>   2
Atom 122C    basis set group =>   2
Atom 123C    basis set group =>   2
Atom 124N    basis set group =>   3
Atom 125C    basis set group =>   2
Atom 126C    basis set group =>   2
Atom 127C    basis set group =>   2
Atom 128C    basis set group =>   2
Atom 129C    basis set group =>   2
Atom 130C    basis set group =>   2
Atom 131C    basis set group =>   2
Atom 132C    basis set group =>   2
Atom 133H    basis set group =>   4
Atom 134H    basis set group =>   4
Atom 135H    basis set group =>   4
Atom 136H    basis set group =>   4
Atom 137H    basis set group =>   4
Atom 138H    basis set group =>   4
Atom 139H    basis set group =>   4
Atom 140C    basis set group =>   2
Atom 141C    basis set group =>   2
Atom 142C    basis set group =>   2
Atom 143C    basis set group =>   2
Atom 144C    basis set group =>   2
Atom 145C    basis set group =>   2
Atom 146N    basis set group =>   3
Atom 147C    basis set group =>   2
Atom 148H    basis set group =>   4
Atom 149H    basis set group =>   4
Atom 150H    basis set group =>   4
Atom 151H    basis set group =>   4
Atom 152C    basis set group =>   2
Atom 153C    basis set group =>   2
Atom 154C    basis set group =>   2
Atom 155C    basis set group =>   2
Atom 156C    basis set group =>   2
Atom 157C    basis set group =>   2
Atom 158C    basis set group =>   2
Atom 159C    basis set group =>   2
Atom 160C    basis set group =>   2
Atom 161N    basis set group =>   3
Atom 162C    basis set group =>   2
Atom 163C    basis set group =>   2
Atom 164H    basis set group =>   4
Atom 165H    basis set group =>   4
Atom 166H    basis set group =>   4
Atom 167H    basis set group =>   4
Atom 168H    basis set group =>   4
Atom 169H    basis set group =>   4
Atom 170C    basis set group =>   2
Atom 171C    basis set group =>   2
Atom 172C    basis set group =>   2
Atom 173C    basis set group =>   2
Atom 174N    basis set group =>   3
Atom 175C    basis set group =>   2
Atom 176C    basis set group =>   2
Atom 177C    basis set group =>   2
Atom 178C    basis set group =>   2
Atom 179C    basis set group =>   2
Atom 180C    basis set group =>   2
Atom 181C    basis set group =>   2
Atom 182C    basis set group =>   2
Atom 183H    basis set group =>   4
Atom 184H    basis set group =>   4
Atom 185H    basis set group =>   4
Atom 186H    basis set group =>   4
Atom 187H    basis set group =>   4
Atom 188H    basis set group =>   4
Atom 189H    basis set group =>   4
Atom 190C    basis set group =>   2
Atom 191C    basis set group =>   2
Atom 192C    basis set group =>   2
Atom 193C    basis set group =>   2
Atom 194C    basis set group =>   2
Atom 195C    basis set group =>   2
Atom 196N    basis set group =>   3
Atom 197C    basis set group =>   2
Atom 198H    basis set group =>   4
Atom 199H    basis set group =>   4
Atom 200H    basis set group =>   4
Atom 201H    basis set group =>   4

-------------------------------------
AUXILIARY/J BASIS SET IN INPUT FORMAT
-------------------------------------

 # Auxiliary/J basis set for element : H 
 NewAuxJGTO H 
 S 3 
   1      15.6752927000      0.1007184237
   2       3.6063578000      0.3404257499
   3       1.2080016000      0.6491996172
 S 1 
   1       0.4726794000      1.0000000000
 S 1 
   1       0.2018100000      1.0000000000
 P 2 
   1       2.0281365000      0.5596620919
   2       0.5358730000      0.5596620919
  end;

 # Auxiliary/J basis set for element : C 
 NewAuxJGTO C 
 S 3 
   1     459.7023860000      0.1098751775
   2     132.9577920000      0.2844848472
   3      41.5658170000      0.6964707648
 S 1 
   1      13.9155610000      1.0000000000
 S 1 
   1       4.9305290000     -1.0000000000
 S 1 
   1       1.8229480000      1.0000000000
 S 1 
   1       0.6920510000      1.0000000000
 S 1 
   1       0.2650930000      1.0000000000
 P 1 
   1       0.3278473579      1.0000000000
 P 1 
   1       0.7868336591      1.0000000000
 P 1 
   1       1.9710183160      1.0000000000
 D 1 
   1       4.0133010000      1.0000000000
 D 1 
   1       1.2475050000      1.0000000000
 D 1 
   1       0.4081480000      1.0000000000
  end;

 # Auxiliary/J basis set for element : N 
 NewAuxJGTO N 
 S 3 
   1     680.5425300000      0.1043830093
   2     196.7562140000      0.2751518961
   3      61.2707930000      0.7090825511
 S 1 
   1      20.3644630000      1.0000000000
 S 1 
   1       7.1424770000     -1.0000000000
 S 1 
   1       2.6080260000      1.0000000000
 S 1 
   1       0.9763730000      1.0000000000
 S 1 
   1       0.3686330000      1.0000000000
 P 1 
   1       0.4707391941      1.0000000000
 P 1 
   1       1.1297740658     -1.0000000000
 P 1 
   1       2.8300840347      1.0000000000
 D 1 
   1       5.8329865000      1.0000000000
 D 1 
   1       1.7326865000      1.0000000000
 D 1 
   1       0.5452425000      1.0000000000
  end;

 # Auxiliary/J basis set for element : Pd
 NewAuxJGTO Pd
 S 4 
   1      51.0211803000      0.0154414011
   2      17.6543867000     -0.3899991562
   3      10.3849330000      1.7000917225
   4       6.2315704000     -2.2542519748
 S 1 
   1       3.6656295000     -1.0000000000
 S 1 
   1       2.1995933000      1.0000000000
 S 1 
   1       1.2683839000      1.0000000000
 S 1 
   1       0.7461081000      1.0000000000
 S 1 
   1       0.4477087000      1.0000000000
 S 1 
[...]
108 C      6.0468     6.0000    -0.0468     3.7609     3.7609    -0.0000
109 C      6.1217     6.0000    -0.1217     3.7120     3.7120    -0.0000
110 C      6.1576     6.0000    -0.1576     3.9905     3.9905    -0.0000
111 N      7.1555     7.0000    -0.1555     3.2926     3.2926    -0.0000
112 C      6.1804     6.0000    -0.1804     3.7020     3.7020    -0.0000
113 C      5.5289     6.0000     0.4711     3.0913     3.0913    -0.0000
114 H      0.7611     1.0000     0.2389     0.9018     0.9018    -0.0000
115 H      0.7937     1.0000     0.2063     0.9301     0.9301    -0.0000
116 H      0.7627     1.0000     0.2373     0.9021     0.9021    -0.0000
117 H      0.7572     1.0000     0.2428     0.8982     0.8982    -0.0000
118 H      0.8080     1.0000     0.1920     0.9559     0.9559    -0.0000
119 H      0.8180     1.0000     0.1820     0.9664     0.9664    -0.0000
120 C      6.2308     6.0000    -0.2308     3.9861     3.9861    -0.0000
121 C      6.2196     6.0000    -0.2196     3.9528     3.9528    -0.0000
122 C      6.1260     6.0000    -0.1260     3.8401     3.8401    -0.0000
123 C      5.8956     6.0000     0.1044     3.9702     3.9702    -0.0000
124 N      7.3116     7.0000    -0.3116     3.1994     3.1994    -0.0000
125 C      5.8412     6.0000     0.1588     3.8524     3.8524    -0.0000
126 C      6.1989     6.0000    -0.1989     3.8522     3.8522    -0.0000
127 C      6.2109     6.0000    -0.2109     3.9226     3.9226    -0.0000
128 C      6.0932     6.0000    -0.0932     3.8136     3.8136    -0.0000
129 C      6.2384     6.0000    -0.2384     3.3892     3.3892    -0.0000
130 C      5.9893     6.0000     0.0107     3.4761     3.4761    -0.0000
131 C      5.9188     6.0000     0.0812     3.4350     3.4350    -0.0000
132 C      6.2111     6.0000    -0.2111     3.3729     3.3729    -0.0000
133 H      0.7944     1.0000     0.2056     0.9161     0.9161    -0.0000
134 H      0.8050     1.0000     0.1950     0.9352     0.9352    -0.0000
135 H      0.6243     1.0000     0.3757     0.8320     0.8320    -0.0000
136 H      0.7826     1.0000     0.2174     0.9198     0.9198    -0.0000
137 H      0.7775     1.0000     0.2225     0.9126     0.9126    -0.0000
138 H      0.7995     1.0000     0.2005     0.9086     0.9086    -0.0000
139 H      0.7909     1.0000     0.2091     0.9051     0.9051    -0.0000
140 C      5.9608     6.0000     0.0392     3.0973     3.0973    -0.0000
141 C      6.0137     6.0000    -0.0137     3.1486     3.1486    -0.0000
142 C      5.9289     6.0000     0.0711     3.7836     3.7836    -0.0000
143 C      6.2163     6.0000    -0.2163     3.9304     3.9304    -0.0000
144 C      6.0165     6.0000    -0.0165     3.8287     3.8287    -0.0000
145 C      6.1357     6.0000    -0.1357     3.9399     3.9399    -0.0000
146 N      7.0435     7.0000    -0.0435     3.2869     3.2869    -0.0000
147 C      6.1858     6.0000    -0.1858     3.7682     3.7682    -0.0000
148 H      0.7557     1.0000     0.2443     0.9048     0.9048    -0.0000
149 H      0.7590     1.0000     0.2410     0.9117     0.9117    -0.0000
150 H      0.8048     1.0000     0.1952     0.9506     0.9506    -0.0000
151 H      0.8094     1.0000     0.1906     0.9476     0.9476    -0.0000
152 C      6.0029     6.0000    -0.0029     3.3251     3.3251    -0.0000
153 C      5.8950     6.0000     0.1050     2.9026     2.9026    -0.0000
154 C      6.3012     6.0000    -0.3012     3.9284     3.9284    -0.0000
155 C      6.0155     6.0000    -0.0155     3.7980     3.7980    -0.0000
156 C      6.1972     6.0000    -0.1972     4.1957     4.1957    -0.0000
157 C      6.2210     6.0000    -0.2210     3.9222     3.9222    -0.0000
158 C      6.0417     6.0000    -0.0417     3.7540     3.7540    -0.0000
159 C      6.1236     6.0000    -0.1236     3.7177     3.7177    -0.0000
160 C      6.1515     6.0000    -0.1515     3.9828     3.9828    -0.0000
161 N      7.1575     7.0000    -0.1575     3.2922     3.2922    -0.0000
162 C      6.1848     6.0000    -0.1848     3.7106     3.7106    -0.0000
163 C      5.5313     6.0000     0.4687     3.0999     3.0999    -0.0000
164 H      0.7629     1.0000     0.2371     0.9034     0.9034    -0.0000
165 H      0.7941     1.0000     0.2059     0.9295     0.9295    -0.0000
166 H      0.7638     1.0000     0.2362     0.9029     0.9029    -0.0000
167 H      0.7580     1.0000     0.2420     0.8985     0.8985    -0.0000
168 H      0.8077     1.0000     0.1923     0.9538     0.9538    -0.0000
169 H      0.8180     1.0000     0.1820     0.9656     0.9656    -0.0000
170 C      6.2324     6.0000    -0.2324     3.9915     3.9915    -0.0000
171 C      6.2162     6.0000    -0.2162     3.9554     3.9554    -0.0000
172 C      6.1222     6.0000    -0.1222     3.8430     3.8430    -0.0000
173 C      5.9036     6.0000     0.0964     4.0018     4.0018    -0.0000
174 N      7.3105     7.0000    -0.3105     3.1971     3.1971    -0.0000
175 C      5.8429     6.0000     0.1571     3.8533     3.8533    -0.0000
176 C      6.1994     6.0000    -0.1994     3.8533     3.8533    -0.0000
177 C      6.2104     6.0000    -0.2104     3.9221     3.9221    -0.0000
178 C      6.0949     6.0000    -0.0949     3.8188     3.8188    -0.0000
179 C      6.2365     6.0000    -0.2365     3.3915     3.3915    -0.0000
180 C      5.9896     6.0000     0.0104     3.4780     3.4780    -0.0000
181 C      5.9185     6.0000     0.0815     3.4350     3.4350    -0.0000
182 C      6.2136     6.0000    -0.2136     3.3727     3.3727    -0.0000
183 H      0.7983     1.0000     0.2017     0.9208     0.9208    -0.0000
184 H      0.8043     1.0000     0.1957     0.9332     0.9332    -0.0000
185 H      0.6239     1.0000     0.3761     0.8317     0.8317    -0.0000
186 H      0.7824     1.0000     0.2176     0.9198     0.9198    -0.0000
187 H      0.7771     1.0000     0.2229     0.9124     0.9124    -0.0000
188 H      0.7992     1.0000     0.2008     0.9084     0.9084    -0.0000
189 H      0.7918     1.0000     0.2082     0.9054     0.9054    -0.0000
190 C      5.9592     6.0000     0.0408     3.0947     3.0947    -0.0000
191 C      6.0121     6.0000    -0.0121     3.1450     3.1450    -0.0000
192 C      5.9309     6.0000     0.0691     3.7823     3.7823    -0.0000
193 C      6.2171     6.0000    -0.2171     3.9345     3.9345    -0.0000
194 C      6.0154     6.0000    -0.0154     3.8278     3.8278    -0.0000
195 C      6.1400     6.0000    -0.1400     3.9456     3.9456    -0.0000
196 N      7.0403     7.0000    -0.0403     3.2882     3.2882    -0.0000
197 C      6.1831     6.0000    -0.1831     3.7686     3.7686    -0.0000
198 H      0.7555     1.0000     0.2445     0.9047     0.9047    -0.0000
199 H      0.7589     1.0000     0.2411     0.9116     0.9116    -0.0000
200 H      0.8050     1.0000     0.1950     0.9506     0.9506    -0.0000
201 H      0.8114     1.0000     0.1886     0.9495     0.9495    -0.0000

  Mayer bond orders larger than 0.100000
B(  0-Pd, 11-N ) :   0.5035 B(  0-Pd, 61-N ) :   0.5041 B(  0-Pd,111-N ) :   0.4972 
B(  0-Pd,161-N ) :   0.4995 B(  1-Pd, 46-N ) :   0.5305 B(  1-Pd, 96-N ) :   0.5291 
B(  1-Pd,146-N ) :   0.5297 B(  1-Pd,196-N ) :   0.5299 B(  2-C ,  3-C ) :   1.8800 
B(  2-C ,  4-C ) :  -0.2944 B(  2-C , 20-C ) :   1.5671 B(  2-C , 32-C ) :  -0.1373 
B(  3-C ,  4-C ) :   1.4387 B(  3-C ,  5-C ) :  -0.1007 B(  3-C , 13-C ) :  -0.2165 
B(  3-C , 20-C ) :  -0.4317 B(  3-C , 32-C ) :   0.1123 B(  4-C ,  5-C ) :   1.5846 
B(  4-C , 13-C ) :   1.0943 B(  5-C ,  6-C ) :   1.3991 B(  5-C , 14-H ) :   0.8472 
B(  6-C ,  7-C ) :   1.6270 B(  6-C , 15-H ) :   0.8815 B(  7-C ,  8-C ) :   1.3561 
B(  7-C , 13-C ) :  -0.1190 B(  7-C , 16-H ) :   0.8632 B(  8-C ,  9-C ) :   1.2778 
B(  8-C , 12-C ) :  -0.1084 B(  8-C , 13-C ) :   1.0501 B(  9-C , 10-C ) :   1.5522 
B(  9-C , 17-H ) :   0.8831 B( 10-C , 11-N ) :   1.2605 B( 10-C , 18-H ) :   0.9195 
B( 11-N , 12-C ) :   1.4350 B( 11-N ,111-N ) :   0.1051 B( 12-C , 13-C ) :   1.3583 
B( 12-C , 19-H ) :   0.8931 B( 20-C , 21-C ) :   1.3354 B( 20-C , 32-C ) :   1.3563 
B( 21-C , 22-C ) :   1.5526 B( 21-C , 33-H ) :   0.8962 B( 22-C , 23-C ) :   1.4083 
B( 22-C , 34-H ) :   0.8123 B( 23-C , 24-N ) :   1.1498 B( 23-C , 25-C ) :   0.1179 
B( 23-C , 31-C ) :   1.2620 B( 24-N , 25-C ) :   1.1483 B( 24-N , 35-H ) :   0.8063 
B( 25-C , 26-C ) :   1.3346 B( 25-C , 30-C ) :   1.2496 B( 25-C , 31-C ) :  -0.1097 
B( 26-C , 27-C ) :   1.5886 B( 26-C , 36-H ) :   0.8584 B( 27-C , 28-C ) :   1.2613 
B( 27-C , 37-H ) :   0.9097 B( 28-C , 29-C ) :   1.3121 B( 28-C , 40-C ) :   1.4610 
B( 28-C , 41-C ) :  -0.3920 B( 29-C , 30-C ) :   1.2888 B( 29-C , 31-C ) :  -0.1395 
B( 29-C , 38-H ) :   0.9440 B( 30-C , 31-C ) :   1.0354 B( 30-C , 32-C ) :  -0.1438 
B( 31-C , 32-C ) :   1.2737 B( 32-C , 39-H ) :   0.9312 B( 40-C , 41-C ) :   1.8244 
B( 40-C , 42-C ) :  -0.3301 B( 41-C , 42-C ) :   1.4362 B( 42-C , 43-C ) :   1.3459 
B( 42-C , 47-C ) :   1.2965 B( 43-C , 44-C ) :   1.4827 B( 43-C , 48-H ) :   0.9195 
B( 44-C , 45-C ) :   1.4032 B( 44-C , 49-H ) :   0.8761 B( 45-C , 46-N ) :   1.3554 
B( 45-C , 50-H ) :   0.9253 B( 46-N , 47-C ) :   1.3678 B( 47-C , 51-H ) :   0.9501 
B( 52-C , 53-C ) :   1.8566 B( 52-C , 54-C ) :  -0.2473 B( 52-C , 70-C ) :   1.5858 
B( 52-C , 82-C ) :  -0.1492 B( 53-C , 54-C ) :   1.4775 B( 53-C , 63-C ) :  -0.2265 
B( 53-C , 70-C ) :  -0.4831 B( 53-C , 82-C ) :   0.1263 B( 54-C , 55-C ) :   1.6026 
B( 54-C , 63-C ) :   1.0555 B( 55-C , 56-C ) :   1.3296 B( 55-C , 64-H ) :   0.8374 
B( 56-C , 57-C ) :   1.6085 B( 56-C , 65-H ) :   0.8971 B( 57-C , 58-C ) :   1.3473 
B( 57-C , 63-C ) :  -0.1124 B( 57-C , 66-H ) :   0.8566 B( 58-C , 59-C ) :   1.2952 
B( 58-C , 62-C ) :  -0.1144 B( 58-C , 63-C ) :   1.0113 B( 59-C , 60-C ) :   1.5581 
B( 59-C , 67-H ) :   0.8833 B( 60-C , 61-N ) :   1.2591 B( 60-C , 68-H ) :   0.9177 
B( 61-N , 62-C ) :   1.4367 B( 61-N ,161-N ) :   0.1044 B( 62-C , 63-C ) :   1.3529 
B( 62-C , 69-H ) :   0.8936 B( 70-C , 71-C ) :   1.3263 B( 70-C , 82-C ) :   1.3311 
B( 71-C , 72-C ) :   1.5704 B( 71-C , 83-H ) :   0.9085 B( 72-C , 73-C ) :   1.3502 
B( 72-C , 84-H ) :   0.8614 B( 73-C , 74-N ) :   1.1465 B( 73-C , 75-C ) :   0.1125 
B( 73-C , 80-C ) :  -0.1004 B( 73-C , 81-C ) :   1.2541 B( 74-N , 75-C ) :   1.1599 
B( 74-N , 85-H ) :   0.8056 B( 75-C , 76-C ) :   1.3313 B( 75-C , 80-C ) :   1.2468 
B( 75-C , 81-C ) :  -0.1071 B( 76-C , 77-C ) :   1.5907 B( 76-C , 86-H ) :   0.8587 
B( 77-C , 78-C ) :   1.2567 B( 77-C , 87-H ) :   0.9115 B( 78-C , 79-C ) :   1.3061 
B( 78-C , 90-C ) :   1.4558 B( 78-C , 91-C ) :  -0.3947 B( 79-C , 80-C ) :   1.2854 
B( 79-C , 81-C ) :  -0.1399 B( 79-C , 88-H ) :   0.9451 B( 80-C , 81-C ) :   1.0392 
B( 80-C , 82-C ) :  -0.1430 B( 81-C , 82-C ) :   1.2632 B( 82-C , 89-H ) :   0.9355 
B( 90-C , 91-C ) :   1.8251 B( 90-C , 92-C ) :  -0.3294 B( 91-C , 92-C ) :   1.4362 
B( 92-C , 93-C ) :   1.3408 B( 92-C , 97-C ) :   1.2958 B( 93-C , 94-C ) :   1.4822 
B( 93-C , 98-H ) :   0.9208 B( 94-C , 95-C ) :   1.4009 B( 94-C , 99-H ) :   0.8764 
B( 95-C , 96-N ) :   1.3555 B( 95-C ,100-H ) :   0.9254 B( 96-N , 97-C ) :   1.3669 
B( 97-C ,101-H ) :   0.9488 B(102-C ,103-C ) :   1.8577 B(102-C ,104-C ) :  -0.2750 
B(102-C ,120-C ) :   1.5927 B(102-C ,132-C ) :  -0.1458 B(103-C ,104-C ) :   1.4703 
B(103-C ,105-C ) :  -0.1063 B(103-C ,113-C ) :  -0.2244 B(103-C ,120-C ) :  -0.4628 
B(103-C ,132-C ) :   0.1102 B(104-C ,105-C ) :   1.6096 B(104-C ,113-C ) :   1.0865 
B(105-C ,106-C ) :   1.3623 B(105-C ,114-H ) :   0.8329 B(106-C ,107-C ) :   1.6260 
B(106-C ,115-H ) :   0.8939 B(107-C ,108-C ) :   1.3458 B(107-C ,113-C ) :  -0.1146 
B(107-C ,116-H ) :   0.8547 B(108-C ,109-C ) :   1.2918 B(108-C ,112-C ) :  -0.1158 
B(108-C ,113-C ) :   1.0325 B(109-C ,110-C ) :   1.5545 B(109-C ,117-H ) :   0.8826 
B(110-C ,111-N ) :   1.2665 B(110-C ,118-H ) :   0.9181 B(111-N ,112-C ) :   1.4318 
B(112-C ,113-C ) :   1.3608 B(112-C ,119-H ) :   0.8940 B(120-C ,121-C ) :   1.3202 
B(120-C ,132-C ) :   1.3614 B(121-C ,122-C ) :   1.5533 B(121-C ,133-H ) :   0.9004 
B(122-C ,123-C ) :   1.3956 B(122-C ,134-H ) :   0.8208 B(123-C ,124-N ) :   1.1510 
B(123-C ,125-C ) :   0.1170 B(123-C ,131-C ) :   1.2585 B(124-N ,125-C ) :   1.1484 
B(124-N ,135-H ) :   0.8068 B(125-C ,126-C ) :   1.3349 B(125-C ,130-C ) :   1.2507 
B(125-C ,131-C ) :  -0.1095 B(126-C ,127-C ) :   1.5865 B(126-C ,136-H ) :   0.8583 
B(127-C ,128-C ) :   1.2621 B(127-C ,137-H ) :   0.9085 B(128-C ,129-C ) :   1.3111 
B(128-C ,140-C ) :   1.4604 B(128-C ,141-C ) :  -0.3913 B(129-C ,130-C ) :   1.2933 
B(129-C ,131-C ) :  -0.1417 B(129-C ,138-H ) :   0.9447 B(130-C ,131-C ) :   1.0332 
B(130-C ,132-C ) :  -0.1449 B(131-C ,132-C ) :   1.2828 B(132-C ,139-H ) :   0.9277 
B(140-C ,141-C ) :   1.8248 B(140-C ,142-C ) :  -0.3304 B(141-C ,142-C ) :   1.4380 
B(142-C ,143-C ) :   1.3456 B(142-C ,147-C ) :   1.2997 B(143-C ,144-C ) :   1.4805 
B(143-C ,148-H ) :   0.9185 B(144-C ,145-C ) :   1.4045 B(144-C ,149-H ) :   0.8758 
B(145-C ,146-N ) :   1.3568 B(145-C ,150-H ) :   0.9249 B(146-N ,147-C ) :   1.3672 
B(147-C ,151-H ) :   0.9492 B(152-C ,153-C ) :   1.8666 B(152-C ,154-C ) :  -0.2719 
B(152-C ,170-C ) :   1.5894 B(152-C ,182-C ) :  -0.1437 B(153-C ,154-C ) :   1.4588 
B(153-C ,155-C ) :  -0.1031 B(153-C ,163-C ) :  -0.2190 B(153-C ,170-C ) :  -0.4658 
B(153-C ,182-C ) :   0.1123 B(154-C ,155-C ) :   1.6137 B(154-C ,163-C ) :   1.0873 
B(155-C ,156-C ) :   1.3738 B(155-C ,164-H ) :   0.8324 B(156-C ,157-C ) :   1.6318 
B(156-C ,165-H ) :   0.8898 B(157-C ,158-C ) :   1.3393 B(157-C ,163-C ) :  -0.1145 
B(157-C ,166-H ) :   0.8556 B(158-C ,159-C ) :   1.2928 B(158-C ,162-C ) :  -0.1132 
B(158-C ,163-C ) :   1.0375 B(159-C ,160-C ) :   1.5561 B(159-C ,167-H ) :   0.8833 
B(160-C ,161-N ) :   1.2644 B(160-C ,168-H ) :   0.9182 B(161-N ,162-C ) :   1.4319 
B(162-C ,163-C ) :   1.3573 B(162-C ,169-H ) :   0.8949 B(170-C ,171-C ) :   1.3352 
B(170-C ,182-C ) :   1.3590 B(171-C ,172-C ) :   1.5534 B(171-C ,183-H ) :   0.8967 
B(172-C ,173-C ) :   1.4101 B(172-C ,184-H ) :   0.8100 B(173-C ,174-N ) :   1.1499 
B(173-C ,175-C ) :   0.1184 B(173-C ,181-C ) :   1.2640 B(174-N ,175-C ) :   1.1475 
B(174-N ,185-H ) :   0.8066 B(175-C ,176-C ) :   1.3365 B(175-C ,180-C ) :   1.2501 
B(175-C ,181-C ) :  -0.1093 B(176-C ,177-C ) :   1.5862 B(176-C ,186-H ) :   0.8582 
B(177-C ,178-C ) :   1.2626 B(177-C ,187-H ) :   0.9080 B(178-C ,179-C ) :   1.3126 
B(178-C ,190-C ) :   1.4619 B(178-C ,191-C ) :  -0.3910 B(179-C ,180-C ) :   1.2950 
B(179-C ,181-C ) :  -0.1406 B(179-C ,188-H ) :   0.9439 B(180-C ,181-C ) :   1.0332 
B(180-C ,182-C ) :  -0.1448 B(181-C ,182-C ) :   1.2812 B(182-C ,189-H ) :   0.9299 
B(190-C ,191-C ) :   1.8241 B(190-C ,192-C ) :  -0.3318 B(191-C ,192-C ) :   1.4361 
B(192-C ,193-C ) :   1.3475 B(192-C ,197-C ) :   1.3004 B(193-C ,194-C ) :   1.4808 
B(193-C ,198-H ) :   0.9181 B(194-C ,195-C ) :   1.4048 B(194-C ,199-H ) :   0.8761 
B(195-C ,196-N ) :   1.3573 B(195-C ,200-H ) :   0.9247 B(196-N ,197-C ) :   1.3663 
B(197-C ,201-H ) :   0.9498 

-------
TIMINGS
-------

Total SCF time: 0 days 0 hours 16 min 36 sec 

Total time                  ....     996.149 sec
Sum of individual times     ....     975.483 sec  ( 97.9%)

Fock matrix formation       ....     329.624 sec  ( 33.1%)
  Split-RI-J                ....     166.888 sec  ( 50.6% of F)
  XC integration            ....     141.572 sec  ( 42.9% of F)
    Basis function eval.    ....      26.683 sec  ( 18.8% of XC)
    Density eval.           ....      62.070 sec  ( 43.8% of XC)
    XC-Functional eval.     ....       7.746 sec  (  5.5% of XC)
    XC-Potential eval.      ....      23.660 sec  ( 16.7% of XC)
Diagonalization             ....      92.705 sec  (  9.3%)
Density matrix formation    ....       4.416 sec  (  0.4%)
Population analysis         ....      17.432 sec  (  1.7%)
Initial guess               ....      17.001 sec  (  1.7%)
Orbital Transformation      ....       0.000 sec  (  0.0%)
Orbital Orthonormalization  ....       0.000 sec  (  0.0%)
DIIS solution               ....     463.487 sec  ( 46.5%)
Grid generation             ....      50.817 sec  (  5.1%)


-------------------------------------------------------------------------------
                          DFT DISPERSION CORRECTION                            
                                                                               
                              DFTD3 V3.1  Rev 1                                
                          USING Becke-Johnson damping                          
-------------------------------------------------------------------------------
The B97-3c composite method is recognized
Using three-body term ABC
Active option DFTDOPT                   ...         4   

molecular C6(AA) [au] = 642793.661586 


            DFT-D V3
 parameters
 s6 scaling factor         :     1.0000 
 a1 scaling factor         :     0.3700 
 s8 scaling factor         :     1.5000 
 a2 scaling factor         :     4.1000 
 Damping factor alpha9(ATM):    16.0000 
 ad hoc parameters k1-k3   :    16.0000     1.3333    -4.0000 

 Edisp/kcal,au: -486.277346214702  -0.774932195357 
 E6   /kcal   : -241.951671695 
 E8   /kcal   : -246.222904905 
 E6(ABC)      :   1.897230385 
 % E8         :  50.634253646 
 % E6(ABC)    :  -0.390153973 

-------------------------   ----------------
Dispersion correction           -0.774932195
-------------------------   ----------------

------------------   -----------------
SRB correction            -0.827937509
------------------   -----------------

-------------------------   --------------------
FINAL SINGLE POINT ENERGY     -5523.449939541595
-------------------------   --------------------


                            ***************************************
                            *     ORCA property calculations      *
                            ***************************************

                                    ---------------------
                                    Active property flags
                                    ---------------------
   (+) Dipole Moment


------------------------------------------------------------------------------
                       ORCA ELECTRIC PROPERTIES CALCULATION
------------------------------------------------------------------------------

Dipole Moment Calculation                       ... on
Quadrupole Moment Calculation                   ... off
Polarizability Calculation                      ... off
GBWName                                         ... _s_4c3_a_B97-3c.gbw
Electron density file                           ... _s_4c3_a_B97-3c.scfp
The origin for moment calculation is the CENTER OF MASS  = (-0.473433,  1.397620 -0.877595)

-------------
DIPOLE MOMENT
-------------
                                X             Y             Z
Electronic contribution:     14.73754    -124.09201      15.74685
Nuclear contribution   :    -14.44625     121.53643     -15.04020
                        -----------------------------------------
Total Dipole Moment    :      0.29129      -2.55559       0.70664
                        -----------------------------------------
Magnitude (a.u.)       :      2.66744
Magnitude (Debye)      :      6.78009



--------------------
Rotational spectrum 
--------------------
 
Rotational constants in cm-1:     0.000348     0.000219     0.000214 
Rotational constants in MHz :    10.436051     6.556609     6.421808 

 Dipole components along the rotational axes: 
x,y,z [a.u.] :     2.649960     0.143922     0.268754 
x,y,z [Debye]:     6.735663     0.365820     0.683117 

 

Timings for individual modules:

Sum of individual times         ...     1027.425 sec (=  17.124 min)
GTO integral calculation        ...       26.504 sec (=   0.442 min)   2.6 %
SCF iterations                  ...     1000.921 sec (=  16.682 min)  97.4 %
                             ****ORCA TERMINATED NORMALLY****
TOTAL RUN TIME: 0 days 0 hours 17 minutes 57 seconds 809 msec
