Job execution start: Tue Jun 22 16:50:06 BST 2021
Shared library path: /work/e05/e05/atarzia/orca_4_2_1_linux_x86-64_openmpi314:/work/e05/e05/atarzia/openmpi-3.1.4/lib:/opt/cray/pe/papi/6.0.0.4/lib64:/opt/cray/libfabric/1.11.0.0.233/lib64
Slurm Job ID is: 344716
Slurm Job name is: s_4c3_c_B97-3c
nid001897

                                 *****************
                                 * O   R   C   A *
                                 *****************

           --- An Ab Initio, DFT and Semiempirical electronic structure package ---

                  #######################################################
                  #                        -***-                        #
                  #          Department of theory and spectroscopy      #
                  #               Directorship: Frank Neese             #
                  #        Max Planck Institute fuer Kohlenforschung    #
                  #                Kaiser Wilhelm Platz 1               #
                  #                 D-45470 Muelheim/Ruhr               #
                  #                      Germany                        #
                  #                                                     #
                  #                  All rights reserved                #
                  #                        -***-                        #
                  #######################################################


                         Program Version 4.2.1 -  RELEASE  -


 With contributions from (in alphabetic order):
   Daniel Aravena         : Magnetic Suceptibility
   Michael Atanasov       : Ab Initio Ligand Field Theory (pilot matlab implementation)
   Alexander A. Auer      : GIAO ZORA, VPT2
   Ute Becker             : Parallelization
   Giovanni Bistoni       : ED, misc. LED, open-shell LED, HFLD
   Martin Brehm           : Molecular dynamics
   Dmytro Bykov           : SCF Hessian
   Vijay G. Chilkuri      : MRCI spin determinant printing, contributions to CSF-ICE
   Dipayan Datta          : RHF DLPNO-CCSD density
   Achintya Kumar Dutta   : EOM-CC, STEOM-CC
   Dmitry Ganyushin       : Spin-Orbit,Spin-Spin,Magnetic field MRCI
   Miquel Garcia          : C-PCM Hessian, Gaussian charge scheme
   Yang Guo               : DLPNO-NEVPT2, CIM, IAO-localization
   Andreas Hansen         : Spin unrestricted coupled pair/coupled cluster methods
   Benjamin Helmich-Paris : CASSCF linear response (MC-RPA)
   Lee Huntington         : MR-EOM, pCC
   Robert Izsak           : Overlap fitted RIJCOSX, COSX-SCS-MP3, EOM
   Christian Kollmar      : KDIIS, OOCD, Brueckner-CCSD(T), CCSD density
   Simone Kossmann        : Meta GGA functionals, TD-DFT gradient, OOMP2, MP2 Hessian
   Martin Krupicka        : AUTO-CI
   Lucas Lang             : DCDCAS
   Dagmar Lenk            : GEPOL surface, SMD
   Dimitrios Liakos       : Extrapolation schemes; Compound Job, initial MDCI parallelization
   Dimitrios Manganas     : Further ROCIS development; embedding schemes
   Dimitrios Pantazis     : SARC Basis sets
   Taras Petrenko         : DFT Hessian,TD-DFT gradient, ASA, ECA, R-Raman, ABS, FL, XAS/XES, NRVS
   Peter Pinski           : DLPNO-MP2, DLPNO-MP2 Gradient
   Christoph Reimann      : Effective Core Potentials
   Marius Retegan         : Local ZFS, SOC
   Christoph Riplinger    : Optimizer, TS searches, QM/MM, DLPNO-CCSD(T), (RO)-DLPNO pert. Triples
   Tobias Risthaus        : Range-separated hybrids, TD-DFT gradient, RPA, STAB
   Michael Roemelt        : Original ROCIS implementation
   Masaaki Saitow         : Open-shell DLPNO-CCSD energy and density
   Barbara Sandhoefer     : DKH picture change effects
   Avijit Sen             : IP-ROCIS
   Kantharuban Sivalingam : CASSCF convergence, NEVPT2, FIC-MRCI
   Bernardo de Souza      : ESD, SOC TD-DFT
   Georgi Stoychev        : AutoAux, RI-MP2 NMR
   Willem Van den Heuvel  : Paramagnetic NMR
   Boris Wezisla          : Elementary symmetry handling
   Frank Wennmohs         : Technical directorship


 We gratefully acknowledge several colleagues who have allowed us to
 interface, adapt or use parts of their codes:
   Stefan Grimme, W. Hujo, H. Kruse,             : VdW corrections, initial TS optimization,
                  C. Bannwarth                     DFT functionals, gCP, sTDA/sTD-DF
   Ed Valeev, F. Pavosevic, A. Kumar             : LibInt (2-el integral package), F12 methods
   Garnet Chan, S. Sharma, J. Yang, R. Olivares  : DMRG
   Ulf Ekstrom                                   : XCFun DFT Library
   Mihaly Kallay                                 : mrcc  (arbitrary order and MRCC methods)
   Andreas Klamt, Michael Diedenhofen            : otool_cosmo (COSMO solvation model)
   Jiri Pittner, Ondrej Demel                    : Mk-CCSD
   Frank Weinhold                                : gennbo (NPA and NBO analysis)
   Christopher J. Cramer and Donald G. Truhlar   : smd solvation model
   Lars Goerigk                                  : TD-DFT with DH, B97 family of functionals
   V. Asgeirsson, H. Jonsson                     : NEB implementation
   FAccTs GmbH                                   : IRC, NEB, NEB-TS, Multilevel, MM, QM/MM, CI optimization
   S Lehtola, MJT Oliveira, MAL Marques          : LibXC Library


 Your calculation uses the libint2 library for the computation of 2-el integrals
 For citations please refer to: http://libint.valeyev.net

 Your ORCA version has been built with support for libXC version: 4.2.3
 For citations please refer to: https://tddft.org/programs/libxc/

 This ORCA versions uses:
   CBLAS   interface :  Fast vector & matrix operations
   LAPACKE interface :  Fast linear algebra routines
   SCALAPACK package :  Parallel linear algebra routines




***************************************
The coordinates will be read from file: s_4c3_c.xyz
***************************************


Your calculation utilizes the atom-pairwise dispersion correction
with the Becke-Johnson damping scheme (D3BJ)
Cite in your paper:
S.Grimme, S.Ehrlich, L.Goerigk, J Comput Chem, (2011), 32, 1456–1465 
S.Grimme, J.Antony, S.Ehrlich and H.Krieg, J.Chem.Phys., 132, (2010), 154104 
   

Your calculation employs the composite approach B97-3c by Grimme and coworkers.
For the correct reference, please check the publication list of the Grimme group:
http://www.thch.uni-bonn.de/tc/index.php?section=publikationen&subsection=grimme#2017
   

XCFun DFT library Copyright 2009-2010 Ulf Ekstrom and contributors.
See http://admol.org/xcfun for more information. This is free soft-
ware; see the source code for copying conditions. There is ABSOLUTELY
NO WARRANTY; not even for MERCHANTABILITY or FITNESS FOR A PARTICULAR
PURPOSE. For details see the documentation. Scientific users of this 
library should cite U. Ekstrom, L. Visscher, R. Bast, A. J. Thorvald-
sen and K. Ruud; J.Chem.Theor.Comp. 2010, DOI: 10.1021/ct100117s
XCFun Version 0.99 
----- Orbital basis set information -----
Your calculation utilizes the basis: def2-mTZVP
----- AuxJ basis set information -----
Your calculation utilizes the basis: def2-mTZVP/J
cite the ECPs for Pd [Def2-ECP] as follows:
Ce-Yb(ecp-28): M. Dolg, H. Stoll, H.Preuss, J. Chem. Phys., 1989, 90, 1730-1734.
Y-Cd(ecp-28), Hf-Hg(ecp-46): D. Andrae,U. Haeussermann, M. Dolg, H. Stoll, H. Preuss, Theor. Chim. Acta, 1990, 77, 123-141.
In-Sb(ecp-28), Tl-Bi(ecp-46): B. Metz, H. Stoll, M. Dolg, J. Chem. Phys., 2000, 113, 2563-2569.
Te-Xe(ecp-28), Po-Rn(ecp-46): K. A. Peterson, D. Figgen, E. Goll, H. Stoll, M. Dolg, J. Chem. Phys., 2003, 119, 11113-11123.
Rb(ecp-28), Cs(ecp-46): T. Leininger, A. Nicklass, W. Kuechle, H. Stoll, M. Dolg, A. Bergner, Chem. Phys. Lett., 1996, 255, 274-280.
Sr(ecp-28), Ba(ecp-46): M. Kaupp, P. V. Schleyer, H. Stoll and H. Preuss, J. Chem. Phys., 1991, 94, 1360-1366.
La(ecp-46): M. Dolg, H. Stoll, A. Savin, H. Preuss, Theor. Chim. Acta, 1989, 75, 173-194.
Lu(ecp-28): X. Cao, M. Dolg, J. Chem. Phys., 2001, 115, 7348-7355.

ECP parameters for Pd [Def2-ECP] have been obtained from:
TURBOMOLE (7.0.2)

================================================================================
                                        WARNINGS
                       Please study these warnings very carefully!
================================================================================


INFO   : the flag for use of LIBINT has been found!

================================================================================
                                       INPUT FILE
================================================================================
NAME = s_4c3_c_B97-3c.in
|  1> ! DFT SP B97-3c TightSCF printbasis  Grid6 NOFINALGRID SlowConv 
|  2> 
|  3> %base "_s_4c3_c_B97-3c"
|  4> %maxcore 3000
|  5> %scf
|  6>    MaxIter 2000
|  7> end
|  8> %pal
|  9>    nprocs 32
| 10> end
| 11> 
| 12> * xyzfile 4 1 s_4c3_c.xyz
| 13> 
| 14>                          ****END OF INPUT****
================================================================================

                       ****************************
                       * Single Point Calculation *
                       ****************************

---------------------------------
CARTESIAN COORDINATES (ANGSTROEM)
---------------------------------
  Pd     0.564100    6.795800    0.028300
  Pd     0.213400   -7.004500   -0.964800
  C      5.326700   -4.015600   -1.522900
  C      4.889900   -4.523100   -2.530500
  C      4.485400   -5.197600   -3.701300
  C      5.251500   -5.122800   -4.848900
  C      4.932800   -5.885400   -5.978600
  C      3.873200   -6.757900   -5.968600
  C      3.062600   -6.862500   -4.823900
  C      1.981400   -7.766200   -4.720700
  C      1.230600   -7.804800   -3.581300
  N      1.450400   -6.959800   -2.541300
  C      2.464900   -6.116700   -2.593300
  C      3.337900   -6.045200   -3.689900
  H      6.118000   -4.479600   -4.866000
  H      5.551300   -5.798900   -6.858900
  H      3.654800   -7.373200   -6.827200
  H      1.762900   -8.428100   -5.543300
  H      0.419100   -8.515700   -3.461000
  H      2.615200   -5.455200   -1.743000
  C      5.903800   -3.488800   -0.345900
  C      6.922800   -4.238000    0.270600
  C      7.553700   -3.787700    1.409400
  C      7.158300   -2.562100    1.929100
  N      7.628700   -1.888400    3.025900
  C      6.975500   -0.693300    3.136400
  C      7.144200    0.323100    4.070400
  C      6.372700    1.454900    3.937700
  C      5.435900    1.582100    2.893200
  C      5.250100    0.554800    1.967600
  C      6.024600   -0.585500    2.088200
  C      6.139300   -1.793500    1.313800
  C      5.502900   -2.262100    0.174600
  H      7.213300   -5.180700   -0.167700
  H      8.337100   -4.366100    1.874600
  H      8.372800   -2.202600    3.626700
  H      7.866800    0.233900    4.867200
  H      6.487300    2.268500    4.637800
  H      4.531600    0.660500    1.170800
  H      4.729300   -1.687600   -0.308600
  C      4.716200    2.783400    2.775200
  C      4.130300    3.836800    2.666100
  C      3.501200    5.086200    2.551000
  C      3.827100    6.142300    3.416600
  C      3.205500    7.365500    3.252000
  C      2.273700    7.520600    2.236500
  N      1.960100    6.511500    1.417300
  C      2.544100    5.324600    1.558300
  H      4.558900    5.990300    4.194400
  H      3.439000    8.194400    3.900300
  H      1.763600    8.466300    2.067100
  H      2.252800    4.544100    0.858500
  C      0.998000   -4.280000    4.141600
  C      1.959700   -4.912000    3.766300
  C      3.026000   -5.768100    3.418300
  C      4.108500   -5.924400    4.262300
  C      5.083200   -6.897000    4.008300
  C      4.980000   -7.745700    2.934100
  C      3.902300   -7.614700    2.039600
  C      3.699200   -8.468800    0.932200
  C      2.623100   -8.282400    0.111900
  N      1.752800   -7.256400    0.288100
  C      1.909000   -6.441100    1.314700
  C      2.937200   -6.589800    2.255100
  H      4.188200   -5.305200    5.142600
  H      5.914000   -6.993500    4.690700
  H      5.711900   -8.520400    2.768300
  H      4.392100   -9.274600    0.749700
  H      2.420300   -8.943300   -0.724900
  H      1.204800   -5.619000    1.423600
  C     -0.131400   -3.655400    4.718400
  C     -0.828300   -4.400400    5.688600
  C     -1.900900   -3.867400    6.366500
  C     -2.270800   -2.563000    6.069000
  N     -3.253800   -1.792700    6.630600
  C     -3.234800   -0.552200    6.062000
  C     -4.020700    0.558500    6.346600
  C     -3.788200    1.711800    5.634800
  C     -2.791000    1.767300    4.642100
  C     -2.007400    0.651300    4.348600
  C     -2.224800   -0.512300    5.066000
  C     -1.596500   -1.808900    5.077500
  C     -0.521600   -2.360100    4.394800
  H     -0.496300   -5.403100    5.911100
  H     -2.421700   -4.438300    7.119800
  H     -3.849600   -2.076000    7.390600
  H     -4.779800    0.518800    7.112700
  H     -4.368600    2.598900    5.837200
  H     -1.241600    0.705400    3.592400
  H      0.016900   -1.792800    3.653300
  C     -2.565800    2.992100    3.991900
  C     -2.368700    4.078600    3.496800
  C     -2.089500    5.345800    2.962400
  C     -2.735400    6.501400    3.430100
  C     -2.391300    7.728900    2.897100
  C     -1.416000    7.794100    1.912100
  N     -0.809000    6.692800    1.463400
  C     -1.125900    5.498800    1.960900
  H     -3.485600    6.420500    4.200900
  H     -2.868500    8.632300    3.240700
  H     -1.110900    8.736200    1.465300
  H     -0.596100    4.636500    1.558500
  C     -4.534000    3.892600   -0.316500
  C     -4.291100    4.615300   -1.256600
  C     -4.107400    5.560900   -2.287500
  C     -5.091600    5.760500   -3.236900
  C     -4.996500    6.806300   -4.162700
  C     -3.942300    7.685400   -4.138000
  C     -2.911300    7.515500   -3.196400
  C     -1.813300    8.397000   -3.076400
  C     -0.854600    8.171300   -2.130300
  N     -0.885200    7.083300   -1.320000
  C     -1.897600    6.239900   -1.401500
  C     -2.967800    6.419400   -2.288300
  H     -5.956200    5.114800   -3.247200
  H     -5.784900    6.933400   -4.889100
  H     -3.895700    8.513700   -4.827300
  H     -1.747600    9.254000   -3.727500
  H     -0.018600    8.849400   -1.989300
  H     -1.888300    5.369600   -0.748900
  C     -4.965900    3.157900    0.811400
  C     -5.924100    3.785100    1.630500
  C     -6.468300    3.141000    2.717900
  C     -6.050100    1.842900    2.976600
  N     -6.471900    0.976500    3.949300
  C     -5.824300   -0.215600    3.802900
  C     -5.966500   -1.388900    4.534400
  C     -5.200900   -2.471400    4.170500
  C     -4.294600   -2.395400    3.095100
  C     -4.144700   -1.216500    2.364800
  C     -4.917500   -0.122600    2.715000
  C     -5.070300    1.205200    2.176300
  C     -4.520700    1.869600    1.088900
  H     -6.243000    4.786500    1.383800
  H     -7.211900    3.622300    3.334400
  H     -7.195400    1.167900    4.622300
  H     -6.666300   -1.450200    5.353800
  H     -5.293500   -3.404100    4.705600
  H     -3.454000   -1.169800    1.539000
  H     -3.789900    1.392300    0.456700
  C     -3.586000   -3.556700    2.744400
  C     -3.043100   -4.598200    2.452600
  C     -2.464400   -5.817500    2.068000
  C     -2.790300   -7.021200    2.713400
  C     -2.226500   -8.200700    2.266500
  C     -1.353100   -8.171900    1.188500
  N     -1.039300   -7.025200    0.580800
  C     -1.566900   -5.875500    0.997500
  H     -3.479100   -7.014100    3.543400
  H     -2.462000   -9.139100    2.741800
  H     -0.888600   -9.073600    0.799100
  H     -1.275600   -4.972600    0.462900
  C      0.541100    4.067700   -5.254000
  C      1.578700    4.599500   -4.931500
  C      2.767800    5.305000   -4.652700
  C      3.804000    5.314600   -5.567000
  C      4.938400    6.108400   -5.361600
  C      5.040500    6.928500   -4.265600
  C      4.012300    6.946500   -3.306000
  C      4.024400    7.792100   -2.174100
  C      2.995800    7.747500   -1.277800
  N      1.965100    6.872200   -1.402900
  C      1.909300    6.081600   -2.458700
  C      2.880700    6.096900   -3.471400
  H      3.727300    4.713800   -6.460300
  H      5.730000    6.088300   -6.095200
  H      5.898600    7.568000   -4.131000
  H      4.845700    8.476100   -2.031600
  H      2.961400    8.412300   -0.420300
  H      1.069400    5.394000   -2.529800
  C     -0.682200    3.511700   -5.690400
  C     -1.477600    4.284200   -6.556400
  C     -2.673400    3.807300   -7.046900
  C     -3.069200    2.532000   -6.665600
  N     -4.189000    1.824900   -7.018600
  C     -4.144400    0.588700   -6.438100
  C     -5.042500   -0.468300   -6.538700
  C     -4.744100   -1.633700   -5.870500
  C     -3.569100   -1.755200   -5.102800
  C     -2.676600   -0.689300   -4.984300
  C     -2.964000    0.485400   -5.656600
  C     -2.274400    1.740600   -5.799700
  C     -1.077900    2.235000   -5.303500
  H     -1.133000    5.266400   -6.842400
  H     -3.276100    4.403700   -7.714500
  H     -4.907200    2.147800   -7.645600
  H     -5.939900   -0.382900   -7.132400
  H     -5.413300   -2.478000   -5.937100
  H     -1.779200   -0.790900   -4.395700
  H     -0.458700    1.643800   -4.648400
  C     -3.289300   -2.985800   -4.484600
  C     -3.043000   -4.060000   -3.984400
  C     -2.773600   -5.328900   -3.448500
  C     -3.619500   -6.419100   -3.707100
  C     -3.304600   -7.656900   -3.179500
  C     -2.161800   -7.792700   -2.405500
  N     -1.360400   -6.751900   -2.156200
  C     -1.644000   -5.550800   -2.652800
  H     -4.499900   -6.281000   -4.314900
  H     -3.934700   -8.511600   -3.364500
  H     -1.873400   -8.748000   -1.972500
  H     -0.951300   -4.744200   -2.421600

----------------------------
CARTESIAN COORDINATES (A.U.)
----------------------------
  NO LB      ZA    FRAG     MASS         X           Y           Z
   0 Pd   18.0000*   0   106.400    1.065995   12.842201    0.053479
   1 Pd   18.0000*   0   106.400    0.403268  -13.236587   -1.823208
   2 C     6.0000    0    12.011   10.066004   -7.588384   -2.877864
   3 C     6.0000    0    12.011    9.240572   -8.547420   -4.781952
   4 C     6.0000    0    12.011    8.476178   -9.822041   -6.994443
   5 C     6.0000    0    12.011    9.923897   -9.680689   -9.163093
   6 C     6.0000    0    12.011    9.321641  -11.121794  -11.297917
   7 C     6.0000    0    12.011    7.319287  -12.770580  -11.279019
   8 C     6.0000    0    12.011    5.787475  -12.968246   -9.115850
   9 C     6.0000    0    12.011    3.744303  -14.675991   -8.920830
  10 C     6.0000    0    12.011    2.325497  -14.748935   -6.767676
  11 N     7.0000    0    14.007    2.740859  -13.152116   -4.802361
  12 C     6.0000    0    12.011    4.657986  -11.558888   -4.900627
  13 C     6.0000    0    12.011    6.307717  -11.423772   -6.972900
  14 H     1.0000    0     1.008   11.561344   -8.465217   -9.195407
  15 H     1.0000    0     1.008   10.490437  -10.958333  -12.961443
  16 H     1.0000    0     1.008    6.906571  -13.933329  -12.901538
  17 H     1.0000    0     1.008    3.331398  -15.926801  -10.475319
  18 H     1.0000    0     1.008    0.791984  -16.092341   -6.540342
  19 H     1.0000    0     1.008    4.942012  -10.308834   -3.293793
  20 C     6.0000    0    12.011   11.156565   -6.592877   -0.653656
  21 C     6.0000    0    12.011   13.082196   -8.008659    0.511360
  22 C     6.0000    0    12.011   14.274424   -7.157716    2.663380
  23 C     6.0000    0    12.011   13.527227   -4.841667    3.645471
  24 N     7.0000    0    14.007   14.416154   -3.568559    5.718122
  25 C     6.0000    0    12.011   13.181785   -1.310147    5.926937
  26 C     6.0000    0    12.011   13.500581    0.610571    7.691941
  27 C     6.0000    0    12.011   12.042658    2.749363    7.441175
  28 C     6.0000    0    12.011   10.272362    2.989736    5.467356
  29 C     6.0000    0    12.011    9.921251    1.048420    3.718225
  30 C     6.0000    0    12.011   11.384844   -1.106435    3.946126
  31 C     6.0000    0    12.011   11.601596   -3.389224    2.482722
  32 C     6.0000    0    12.011   10.398974   -4.274749    0.329946
  33 H     1.0000    0     1.008   13.631162   -9.790104   -0.316907
  34 H     1.0000    0     1.008   15.754836   -8.250733    3.542481
  35 H     1.0000    0     1.008   15.822299   -4.162311    6.853470
  36 H     1.0000    0     1.008   14.866098    0.442007    9.197675
  37 H     1.0000    0     1.008   12.259220    4.286844    8.764172
  38 H     1.0000    0     1.008    8.563483    1.248164    2.212491
  39 H     1.0000    0     1.008    8.937082   -3.189102   -0.583169
  40 C     6.0000    0    12.011    8.912326    5.259864    5.244368
  41 C     6.0000    0    12.011    7.805136    7.250501    5.038199
  42 C     6.0000    0    12.011    6.616309    9.611525    4.820691
  43 C     6.0000    0    12.011    7.232171   11.607265    6.456438
  44 C     6.0000    0    12.011    6.057517   13.918778    6.145389
  45 C     6.0000    0    12.011    4.296670   14.211874    4.226372
  46 N     7.0000    0    14.007    3.704052   12.304952    2.678309
  47 C     6.0000    0    12.011    4.807652   10.062036    2.944760
  48 H     1.0000    0     1.008    8.615072   11.320026    7.926267
  49 H     1.0000    0     1.008    6.498768   15.485172    7.370499
  50 H     1.0000    0     1.008    3.332721   15.998988    3.906253
  51 H     1.0000    0     1.008    4.257175    8.587105    1.622330
  52 C     6.0000    0    12.011    1.885947   -8.088028    7.826490
  53 C     6.0000    0    12.011    3.703296   -9.282335    7.117276
  54 C     6.0000    0    12.011    5.718311  -10.900129    6.459651
  55 C     6.0000    0    12.011    7.763940  -11.195494    8.054580
  56 C     6.0000    0    12.011    9.605856  -13.033441    7.574589
  57 C     6.0000    0    12.011    9.410836  -14.637252    5.544645
  58 C     6.0000    0    12.011    7.374278  -14.389698    3.854285
  59 C     6.0000    0    12.011    6.990475  -16.003713    1.761603
  60 C     6.0000    0    12.011    4.956941  -15.651468    0.211460
  61 N     7.0000    0    14.007    3.312312  -13.712609    0.544430
  62 C     6.0000    0    12.011    3.607487  -12.171915    2.484423
  63 C     6.0000    0    12.011    5.550504  -12.452917    4.261521
  64 H     1.0000    0     1.008    7.914551  -10.025375    9.718106
  65 H     1.0000    0     1.008   11.175840  -13.215800    8.864138
  66 H     1.0000    0     1.008   10.793927  -16.101223    5.231329
  67 H     1.0000    0     1.008    8.299866  -17.526454    1.416728
  68 H     1.0000    0     1.008    4.573704  -16.900388   -1.369862
  69 H     1.0000    0     1.008    2.276742  -10.618371    2.690214
  70 C     6.0000    0    12.011   -0.248310   -6.907705    8.916484
  71 C     6.0000    0    12.011   -1.565260   -8.315551   10.749896
  72 C     6.0000    0    12.011   -3.592180   -7.308327   12.030941
  73 C     6.0000    0    12.011   -4.291190   -4.843368   11.468748
  74 N     7.0000    0    14.007   -6.148791   -3.387712   12.530018
  75 C     6.0000    0    12.011   -6.112886   -1.043507   11.455520
  76 C     6.0000    0    12.011   -7.598022    1.055412   11.993336
  77 C     6.0000    0    12.011   -7.158661    3.234833   10.648229
  78 C     6.0000    0    12.011   -5.274226    3.339713    8.772298
  79 C     6.0000    0    12.011   -3.793436    1.230779    8.217663
  80 C     6.0000    0    12.011   -4.204263   -0.968107    9.573353
  81 C     6.0000    0    12.011   -3.016948   -3.418326    9.595084
  82 C     6.0000    0    12.011   -0.985681   -4.459943    8.304968
  83 H     1.0000    0     1.008   -0.937871  -10.210379   11.170360
  84 H     1.0000    0     1.008   -4.576350   -8.387172   13.454472
  85 H     1.0000    0     1.008   -7.274690   -3.923071   13.966210
  86 H     1.0000    0     1.008   -9.032513    0.980390   13.441055
  87 H     1.0000    0     1.008   -8.255458    4.911209   11.030709
  88 H     1.0000    0     1.008   -2.346284    1.333013    6.788652
  89 H     1.0000    0     1.008    0.031936   -3.387901    6.903736
  90 C     6.0000    0    12.011   -4.848659    5.654250    7.543598
  91 C     6.0000    0    12.011   -4.476194    7.707437    6.607994
  92 C     6.0000    0    12.011   -3.948583   10.102098    5.598125
  93 C     6.0000    0    12.011   -5.169157   12.285865    6.481950
  94 C     6.0000    0    12.011   -4.518902   14.605504    5.474726
  95 C     6.0000    0    12.011   -2.675852   14.728714    3.613345
  96 N     7.0000    0    14.007   -1.528788   12.647559    2.765425
  97 C     6.0000    0    12.011   -2.127643   10.391226    3.705564
  98 H     1.0000    0     1.008   -6.586829   12.132987    7.938551
  99 H     1.0000    0     1.008   -5.420679   16.312683    6.124035
 100 H     1.0000    0     1.008   -2.099297   16.509025    2.769016
 101 H     1.0000    0     1.008   -1.126466    8.761715    2.945138
 102 C     6.0000    0    12.011   -8.568018    7.355948   -0.598098
 103 C     6.0000    0    12.011   -8.109004    8.721653   -2.374630
 104 C     6.0000    0    12.011   -7.761861   10.508578   -4.322749
 105 C     6.0000    0    12.011   -9.621730   10.885767   -6.116855
 106 C     6.0000    0    12.011   -9.442017   12.862043   -7.866363
 107 C     6.0000    0    12.011   -7.449867   14.523301   -7.819687
 108 C     6.0000    0    12.011   -5.501560   14.202237   -6.040321
 109 C     6.0000    0    12.011   -3.426640   15.868030   -5.813553
 110 C     6.0000    0    12.011   -1.614960   15.441519   -4.025684
 111 N     7.0000    0    14.007   -1.672786   13.385497   -2.494438
 112 C     6.0000    0    12.011   -3.585944   11.791702   -2.648451
 113 C     6.0000    0    12.011   -5.608329   12.130908   -4.324260
 114 H     1.0000    0     1.008  -11.255587    9.665571   -6.136319
 115 H     1.0000    0     1.008  -10.931877   13.102227   -9.239060
 116 H     1.0000    0     1.008   -7.361806   16.088561   -9.122275
 117 H     1.0000    0     1.008   -3.302485   17.487526   -7.043954
 118 H     1.0000    0     1.008   -0.035149   16.722942   -3.759232
 119 H     1.0000    0     1.008   -3.568370   10.147073   -1.415216
 120 C     6.0000    0    12.011   -9.384191    5.967566    1.533324
 121 C     6.0000    0    12.011  -11.194927    7.152802    3.081198
 122 C     6.0000    0    12.011  -12.223316    5.935630    5.136087
 123 C     6.0000    0    12.011  -11.433032    3.482576    5.624959
 124 N     7.0000    0    14.007  -12.230119    1.845318    7.463095
 125 C     6.0000    0    12.011  -11.006332   -0.407425    7.186440
 126 C     6.0000    0    12.011  -11.275051   -2.624641    8.568774
 127 C     6.0000    0    12.011   -9.828277   -4.670269    7.881103
 128 C     6.0000    0    12.011   -8.115618   -4.526650    5.848891
 129 C     6.0000    0    12.011   -7.832348   -2.298852    4.468824
 130 C     6.0000    0    12.011   -9.292728   -0.231680    5.130606
 131 C     6.0000    0    12.011   -9.581478    2.277498    4.112611
 132 C     6.0000    0    12.011   -8.542885    3.533032    2.057723
 133 H     1.0000    0     1.008  -11.797560    9.045174    2.615003
 134 H     1.0000    0     1.008  -13.628516    6.845155    6.301103
 135 H     1.0000    0     1.008  -13.597335    2.207011    8.734881
 136 H     1.0000    0     1.008  -12.597481   -2.740481   10.117216
 137 H     1.0000    0     1.008  -10.003265   -6.432817    8.892295
 138 H     1.0000    0     1.008   -6.527114   -2.210602    2.908289
 139 H     1.0000    0     1.008   -7.161873    2.631066    0.863038
 140 C     6.0000    0    12.011   -6.776558   -6.721189    5.186164
 141 C     6.0000    0    12.011   -5.750626   -8.689339    4.634742
 142 C     6.0000    0    12.011   -4.657041  -10.993482    3.907954
 143 C     6.0000    0    12.011   -5.272903  -13.268145    5.127583
 144 C     6.0000    0    12.011   -4.207475  -15.497077    4.283064
 145 C     6.0000    0    12.011   -2.556988  -15.442653    2.245940
 146 N     7.0000    0    14.007   -1.963992  -13.275704    1.097553
 147 C     6.0000    0    12.011   -2.961012  -11.103086    1.885002
 148 H     1.0000    0     1.008   -6.574546  -13.254728    6.696056
 149 H     1.0000    0     1.008   -4.652506  -17.270396    5.181251
 150 H     1.0000    0     1.008   -1.679211  -17.146619    1.510080
 151 H     1.0000    0     1.008   -2.410535   -9.396852    0.874754
 152 C     6.0000    0    12.011    1.022531    7.686839   -9.928621
 153 C     6.0000    0    12.011    2.983311    8.691795   -9.319184
 154 C     6.0000    0    12.011    5.230384   10.024997   -8.792329
 155 C     6.0000    0    12.011    7.188518   10.043139  -10.520105
 156 C     6.0000    0    12.011    9.332224   11.543203  -10.131956
 157 C     6.0000    0    12.011    9.525165   13.092968   -8.060816
 158 C     6.0000    0    12.011    7.582148   13.126983   -6.247435
 159 C     6.0000    0    12.011    7.605014   14.724935   -4.108454
 160 C     6.0000    0    12.011    5.661242   14.640653   -2.414692
 161 N     7.0000    0    14.007    3.713501   12.986576   -2.651097
 162 C     6.0000    0    12.011    3.608054   11.492558   -4.646270
 163 C     6.0000    0    12.011    5.443734   11.521471   -6.559995
 164 H     1.0000    0     1.008    7.043576    8.907791  -12.208198
 165 H     1.0000    0     1.008   10.828131   11.505220  -11.518259
 166 H     1.0000    0     1.008   11.146739   14.301447   -7.806459
 167 H     1.0000    0     1.008    9.157046   16.017508   -3.839168
 168 H     1.0000    0     1.008    5.596235   15.896943   -0.794252
 169 H     1.0000    0     1.008    2.020873   10.193183   -4.780629
 170 C     6.0000    0    12.011   -1.289171    6.636151  -10.753298
 171 C     6.0000    0    12.011   -2.792259    8.095965  -12.389800
 172 C     6.0000    0    12.011   -5.051994    7.194754  -13.316711
 173 C     6.0000    0    12.011   -5.799947    4.784787  -12.596159
 174 N     7.0000    0    14.007   -7.916063    3.448561  -13.263232
 175 C     6.0000    0    12.011   -7.831781    1.112482  -12.166246
 176 C     6.0000    0    12.011   -9.528944   -0.884959  -12.356352
 177 C     6.0000    0    12.011   -8.965050   -3.087246  -11.093637
 178 C     6.0000    0    12.011   -6.744622   -3.316847   -9.642895
 179 C     6.0000    0    12.011   -5.058041   -1.302588   -9.418962
 180 C     6.0000    0    12.011   -5.601148    0.917273  -10.689425
 181 C     6.0000    0    12.011   -4.297993    3.289257  -10.959845
 182 C     6.0000    0    12.011   -2.036936    4.223538  -10.022163
 183 H     1.0000    0     1.008   -2.141060    9.952054  -12.930262
 184 H     1.0000    0     1.008   -6.190932    8.321787  -14.578292
 185 H     1.0000    0     1.008   -9.273264    4.058754  -14.448090
 186 H     1.0000    0     1.008  -11.224784   -0.723576  -13.478283
 187 H     1.0000    0     1.008  -10.229654   -4.682741  -11.219493
 188 H     1.0000    0     1.008   -3.362201   -1.494584   -8.306669
 189 H     1.0000    0     1.008   -0.866817    3.106332   -8.784203
 190 C     6.0000    0    12.011   -6.215876   -5.642344   -8.474666
 191 C     6.0000    0    12.011   -5.750437   -7.672288   -7.529425
 192 C     6.0000    0    12.011   -5.241344  -10.070162   -6.516721
 193 C     6.0000    0    12.011   -6.839864  -12.130341   -7.005404
 194 C     6.0000    0    12.011   -6.244789  -14.469444   -6.008384
 195 C     6.0000    0    12.011   -4.085210  -14.726069   -4.545736
 196 N     7.0000    0    14.007   -2.570783  -12.759242   -4.074627
 197 C     6.0000    0    12.011   -3.106710  -10.489492   -5.013065
 198 H     1.0000    0     1.008   -8.503579  -11.869370   -8.153979
 199 H     1.0000    0     1.008   -7.435505  -16.084593   -6.357984
 200 H     1.0000    0     1.008   -3.540213  -16.531324   -3.727485
 201 H     1.0000    0     1.008   -1.797696   -8.965239   -4.576161
* core charge reduced due to ECP

--------------------------------
INTERNAL COORDINATES (ANGSTROEM)
--------------------------------
 Pd     0   0   0     0.000000000000     0.00000000     0.00000000
 Pd     1   0   0    13.840430563751     0.00000000     0.00000000
 C      2   1   0     5.949019726812    58.93501993     0.00000000
 C      3   2   1     1.209796780455    63.70723901   250.32074537
 C      4   3   2     1.410440760897   174.57102151   247.77987324
 C      5   4   3     1.381842975884   120.29801932   294.15475415
 C      6   5   4     1.399768030782   120.96640975   173.92257688
 C      7   6   5     1.372628285444   121.07628389   358.14928630
 C      8   7   6     1.406538876107   119.87310949     2.08277273
 C      9   8   7     1.412910956147   123.23103631   182.07459545
 C     10   9   8     1.365072510895   119.99557192   180.53152598
 N     11  10   9     1.357916433364   122.18410113     2.62190679
 C     12  11  10     1.320125698561   119.44853082   356.32917408
 C     13  12  11     1.403485949342   122.77419080     0.28854642
 H      6   5   4     1.079268687584   119.37517643   355.02654656
 H      7   6   5     1.079329694764   118.95397257   179.77105316
 H      8   7   6     1.078650365040   120.87014453   182.50213295
 H     10   9   8     1.078204349834   119.47180946     1.12372902
 H     11  10   9     1.085533578477   121.47867265   182.40685827
 H     13  12  11     1.087741894936   117.63159662   180.16166518
 C      3   2   1     1.412760294601   117.40604539    74.40617814
 C     21   3   2     1.407030166699   117.53720152    97.37521236
 C     22  21   3     1.377559559511   121.32163650   178.96678423
 C     23  22  21     1.388713292944   117.86943415   359.59684270
 N     24  23  22     1.370444486289   129.46654827   180.87564593
 C     25  24  23     1.366434960033   109.30457273   177.94479112
 C     26  25  24     1.390641812258   129.46180309   181.61548164
 C     27  26  25     1.376151437888   117.92624430   178.33162446
 C     28  27  26     1.408813092642   121.23426427     0.26316717
 C     29  28  27     1.395206898635   120.92598179     0.75320144
 C     30  29  28     1.383719155031   118.32151110   358.99948153
 C     24  23  22     1.416933678758   121.39792155     0.00000000
 C     32  24  23     1.386494702478   120.23567375     0.56278424
 H     22  21   3     1.079435236594   118.81687248   359.31450835
 H     23  22  21     1.079200240919   120.90452405   180.23519217
 H     25  24  23     1.006661358154   125.30552000     0.96052373
 H     27  26  25     1.079350563997   121.10622200   359.14177123
 H     28  27  26     1.079452699288   119.85625430   180.79606397
 H     30  29  28     1.078102490490   120.45592235   180.04521002
 H     33  32  24     1.077956144748   121.17027787   180.31539736
 C     29  28  27     1.405351834951   118.68308792   182.62443189
 C     41  29  28     1.210302929022   178.12983661    64.35370310
 C     42  41  29     1.403572292402   177.60604334   337.95843186
 C     43  42  41     1.403859458778   120.99988716   320.91138228
 C     44  43  42     1.381918217551   119.21039847   178.62792338
 C     45  44  43     1.386920149107   119.23561174     0.05509827
 N     46  45  44     1.337055126014   121.45229626     0.27084250
 C     47  46  45     1.330288919746   120.36207380   359.83600936
 H     44  43  42     1.078706670045   119.74055978   358.90773959
 H     45  44  43     1.077910177148   120.76982249   180.19441776
 H     46  45  44     1.087771510934   121.75630388   180.29839108
 H     48  47  46     1.088005505501   117.02203897   180.35845973
 C      2   1   3     5.840703585186    57.90993721    90.49947115
 C     53   2   1     1.210430080591    65.92693020   246.69466472
 C     54  53   2     1.411030439076   173.54328882   265.42406156
 C     55  54  53     1.381510745525   120.67051999   278.72044894
 C     56  55  54     1.400181006156   120.87852618   171.68604740
 C     57  56  55     1.372897508920   121.26614153   358.44008457
 C     58  57  56     1.406672861756   119.83918667     2.19263454
 C     59  58  57     1.413177688757   123.51311088   181.88242194
 C     60  59  58     1.365880031335   120.09040138   179.62657824
 N     61  60  59     1.356887810396   122.04067861     2.79623710
 C     62  61  60     1.320234861682   119.47468688   357.02614707
 C     63  62  61     1.401306208507   122.89567277   359.38685224
 H     56  55  54     1.079207496268   119.42475065   353.31942008
 H     57  56  55     1.079449234564   118.89403827   180.19902901
 H     58  57  56     1.078576534141   120.88282561   182.66617087
 H     60  59  58     1.078299726421   119.46704039     0.46237649
 H     61  60  59     1.085426593557   121.81016146   182.25583418
 H     63  62  61     1.087936238940   117.89803965   179.16535987
 C     53   2   1     1.413636360596   117.09766767    74.02280435
 C     71  53   2     1.407829055674   116.28655774    96.28896929
 C     72  71  53     1.376266024430   121.35246920   176.60065599
 C     73  72  71     1.388089197422   117.77792931   359.58150921
 N     74  73  72     1.369323062685   129.19961222   182.84030954
 C     75  74  73     1.364737047933   109.29676315   177.83471962
 C     76  75  74     1.390068509103   129.28028441   182.06664195
 C     77  76  75     1.375069590966   117.94240790   179.06571736
 C     78  77  76     1.408169513944   121.17887322     0.36746469
 C     79  78  77     1.394857415652   120.97243234     0.06230683
 C     80  79  78     1.384156956418   118.37900595   359.42430506
 C     74  73  72     1.416481397689   121.56351217     1.65243427
 C     82  74  73     1.387555670955   120.11177816   358.70638764
 H     72  71  53     1.079415369540   118.77512320   357.70076331
 H     73  72  71     1.079175768816   121.00139216   180.93728541
 H     75  74  73     1.006397799083   125.19437395     2.04604122
 H     77  76  75     1.079221066325   120.90462394   359.92064489
 H     78  77  76     1.079248039146   120.09190229   180.86848239
 H     80  79  78     1.077596812356   120.44569539   180.46415467
 H     83  82  74     1.077791162517   121.09493544   181.40014240
 C     79  78  77     1.404852348113   118.30410465   182.69171324
 C     91  79  78     1.210146548977   176.57810550    49.44787969
 C     92  91  79     1.403328842431   177.35517919    50.56269540
 C     93  92  91     1.404044678776   121.65715870   264.93110048
 C     94  93  92     1.381756150701   119.21657459   177.97068902
 C     95  94  93     1.387690934610   119.37788303     0.00000000
 N     96  95  94     1.335156312946   121.28606657     0.40595071
 C     97  96  95     1.331753678426   120.38458493   359.69625532
 H     94  93  92     1.078646137526   119.75285847   358.33306331
 H     95  94  93     1.077920386671   120.75216802   180.24782595
 H     96  95  94     1.086401702871   122.00833926   180.14279102
 H     98  97  96     1.089116655827   117.13374062   180.16368907
 C     93  92  91     4.340340505076    82.72072808   161.11570598
 C    103  93  92     1.210406423479   105.89128679   197.56693450
 C    104 103  93     1.410907459758   173.60796815   279.59885228
 C    105 104 103     1.381973284836   120.39991887   285.70692369
 C    106 105 104     1.399945459652   120.91922883   171.97097011
 C    107 106 105     1.372867269622   121.23951239   358.40040332
 C    108 107 106     1.406569433053   119.83780498     2.07436694
 C    109 108 107     1.413168868182   123.43665824   182.01122827
 C    110 109 108     1.365705455067   120.07694850   179.54325642
 N    111 110 109     1.356932735990   122.02988157     2.77843849
 C    112 111 110     1.320196792149   119.51553219   357.08477360
 C    113 112 111     1.401414474736   122.87802118   359.37346178
 H    106 105 104     1.079151398090   119.38778489   353.48508314
 H    107 106 105     1.079530421063   118.90297363   180.10706736
 H    108 107 106     1.078604162796   120.89173674   182.59650815
 H    110 109 108     1.078284146225   119.46105132     0.40223563
 H    111 110 109     1.085631894336   121.82425327   182.25648836
 H    113 112 111     1.087839758420   117.87226464   179.18557504
 C    103  93  92     1.413676097980    75.12800901    25.34577695
 C    121 103  93     1.407995699567   116.13939352    83.89554936
 C    122 121 103     1.376029509131   121.35619808   176.70612573
 C    123 122 121     1.388121226695   117.76572226   359.43330903
 N    124 123 122     1.369200310400   129.14826380   182.93623450
 C    125 124 123     1.364522308356   109.29262406   177.71565419
 C    126 125 124     1.389944596018   129.23108621   182.15252115
 C    127 126 125     1.374908295124   117.92716050   179.05842521
 C    128 127 126     1.408417853480   121.19309328     0.32934283
 C    129 128 127     1.394852433055   120.96615221     0.04321197
 C    130 129 128     1.384368841747   118.38580752   359.46947517
 C    124 123 122     1.416739009133   121.60135321     1.66004570
 C    132 124 123     1.387777460546   120.06722773   358.84242634
 H    122 121 103     1.079518438935   118.77122880   357.62754762
 H    123 122 121     1.079195487389   121.00944660   180.80859736
 H    125 124 123     1.006486567223   125.17963024     1.90404414
 H    127 126 125     1.079302594271   120.91897912   359.86112224
 H    128 127 126     1.079275710836   120.09267857   180.86875549
 H    130 129 128     1.077586664728   120.44711973   180.44668814
 H    133 132 124     1.077757287148   121.07367624   181.32693988
 C    129 128 127     1.404892216506   118.07074276   182.59868555
 C    141 129 128     1.210210684137   176.22528305    41.94371455
 C    142 141 129     1.403389945810   177.15451865    51.74412939
 C    143 142 141     1.404153004483   121.54195486   269.57183107
 C    144 143 142     1.381597010709   119.23917402   177.82329985
 C    145 144 143     1.387710704722   119.36648853   359.86087077
 N    146 145 144     1.335174378124   121.28606344     0.49543001
 C    147 146 145     1.331844863338   120.38951984   359.74551166
 H    144 143 142     1.078608293126   119.75350056   358.22090823
 H    145 144 143     1.077944757397   120.75873313   180.20027103
 H    146 145 144     1.086487689760   122.02344110   180.25911534
 H    148 147 146     1.088981753750   117.14015510   180.08331509
 C    113 112 111     5.050491736455    87.22396167    83.54740025
 C    153 113 112     1.209723625462    91.24536179    17.18908512
 C    154 153 113     1.410467475697   174.67355570   257.85074453
 C    155 154 153     1.381935993453   120.32037365   294.19974579
 C    156 155 154     1.399703882970   120.96716934   174.03781726
 C    157 156 155     1.372663258050   121.08290591   358.19915742
 C    158 157 156     1.406538801456   119.86823177     2.04509857
 C    159 158 157     1.412934315529   123.22593856   182.02568659
 C    160 159 158     1.365049746346   119.99997721   180.53106830
 N    161 160 159     1.357992117061   122.17378651     2.58598723
 C    162 161 160     1.320180154373   119.45564155   356.37549527
 C    163 162 161     1.403357880229   122.77401286     0.29036436
 H    156 155 154     1.079272171419   119.37021252   355.13423125
 H    157 156 155     1.079445936580   118.95028505   179.78846985
 H    158 157 156     1.078616252427   120.86619243   182.45900630
 H    160 159 158     1.078283793813   119.47385495     1.11496833
 H    161 160 159     1.085563747552   121.50214433   182.35955334
 H    163 162 161     1.087787194262   117.61001647   180.15712230
 C    153 113 112     1.412814159754    89.24286951   200.77049464
 C    171 153 113     1.406902061268   117.61742886    87.83361747
 C    172 171 153     1.377665235099   121.31917898   178.86049725
 C    173 172 171     1.388681900220   117.87444806   359.63915121
 N    174 173 172     1.370602586456   129.48888908   180.87377689
 C    175 174 173     1.366440576827   109.30825149   177.99972708
 C    176 175 174     1.390666376238   129.48022892   181.58063340
 C    177 176 175     1.376114442915   117.93825510   178.41900723
 C    178 177 176     1.408811747538   121.23115066     0.24585664
 C    179 178 177     1.395256718314   120.92407604     0.71116623
 C    180 179 178     1.383656799933   118.32314692   359.04339714
 C    174 173 172     1.416969939695   121.38829671     0.02423287
 C    182 174 173     1.386455210239   120.23895099     0.49656093
 H    172 171 153     1.079473019579   118.82950241   359.28647866
 H    173 172 171     1.079180249078   120.91061334   180.28878567
 H    175 174 173     1.006580672376   125.30120277     0.94885462
 H    177 176 175     1.079397799701   121.10242325   359.18659838
 H    178 177 176     1.079401079303   119.86940914   180.75806148
 H    180 179 178     1.078007087175   120.45564115   180.06265121
 H    183 182 174     1.077999114100   121.17321518   180.36046742
 C    179 178 177     1.405288454375   118.77046082   182.46367284
 C    191 179 178     1.210276567566   178.31116227    68.18737687
 C    192 191 179     1.403521421283   177.85854058   333.21431063
 C    193 192 191     1.403907692835   121.06946920   322.02179097
 C    194 193 192     1.381909045487   119.20524629   178.84804604
 C    195 194 193     1.386906442411   119.24459902     0.09668519
 N    196 195 194     1.337032942750   121.44811028     0.16473905
 C    197 196 195     1.330293850997   120.36154567   359.87942305
 H    194 193 192     1.078701353480   119.74485674   359.08155774
 H    195 194 193     1.077851149278   120.76593927   180.18070609
 H    196 195 194     1.087778309216   121.77610122   180.17804443
 H    198 197 196     1.088067226783   117.01845884   180.41138884

---------------------------
INTERNAL COORDINATES (A.U.)
---------------------------
 Pd     0   0   0     0.000000000000     0.00000000     0.00000000
 Pd     1   0   0    26.154623341042     0.00000000     0.00000000
 C      2   1   0    11.242018048970    58.93501993     0.00000000
 C      3   2   1     2.286184592760    63.70723901   250.32074537
 C      4   3   2     2.665346766215   174.57102151   247.77987324
 C      5   4   3     2.611304784504   120.29801932   294.15475415
 C      6   5   4     2.645178229197   120.96640975   173.92257688
 C      7   6   5     2.593891543162   121.07628389   358.14928630
 C      8   7   6     2.657973272555   119.87310949     2.08277273
 C      9   8   7     2.670014758734   123.23103631   182.07459545
 C     10   9   8     2.579613198535   119.99557192   180.53152598
 N     11  10   9     2.566090171809   122.18410113     2.62190679
 C     12  11  10     2.494676032631   119.44853082   356.32917408
 C     13  12  11     2.652204077063   122.77419080     0.28854642
 H      6   5   4     2.039522244451   119.37517643   355.02654656
 H      7   6   5     2.039637531313   118.95397257   179.77105316
 H      8   7   6     2.038353784179   120.87014453   182.50213295
 H     10   9   8     2.037510937588   119.47180946     1.12372902
 H     11  10   9     2.051361172496   121.47867265   182.40685827
 H     13  12  11     2.055534285822   117.63159662   180.16166518
 C      3   2   1     2.669730049673   117.40604539    74.40617814
 C     21   3   2     2.658901677226   117.53720152    97.37521236
 C     22  21   3     2.603210300641   121.32163650   178.96678423
 C     23  22  21     2.624287802201   117.86943415   359.59684270
 N     24  23  22     2.589764760829   129.46654827   180.87564593
 C     25  24  23     2.582187854278   109.30457273   177.94479112
 C     26  25  24     2.627932175547   129.46180309   181.61548164
 C     27  26  25     2.600549336409   117.92624430   178.33162446
 C     28  27  26     2.662270918976   121.23426427     0.26316717
 C     29  28  27     2.636558938579   120.92598179     0.75320144
 C     30  29  28     2.614850249270   118.32151110   358.99948153
 C     24  23  22     2.677616602783   121.39792155     0.00000000
 C     32  24  23     2.620095273816   120.23567375     0.56278424
 H     22  21   3     2.039836976466   118.81687248   359.31450835
 H     23  22  21     2.039392898999   120.90452405   180.23519217
 H     25  24  23     1.902314276512   125.30552000     0.96052373
 H     27  26  25     2.039676968447   121.10622200   359.14177123
 H     28  27  26     2.039869976176   119.85625430   180.79606397
 H     30  29  28     2.037318451324   120.45592235   180.04521002
 H     33  32  24     2.037041897951   121.17027787   180.31539736
 C     29  28  27     2.655730089861   118.68308792   182.62443189
 C     41  29  28     2.287141074935   178.12983661    64.35370310
 C     42  41  29     2.652367241801   177.60604334   337.95843186
 C     43  42  41     2.652909907605   120.99988716   320.91138228
 C     44  43  42     2.611446970648   119.21039847   178.62792338
 C     45  44  43     2.620899251430   119.23561174     0.05509827
 N     46  45  44     2.526668014122   121.45229626     0.27084250
 C     47  46  45     2.513881737311   120.36207380   359.83600936
 H     44  43  42     2.038460185220   119.74055978   358.90773959
 H     45  44  43     2.036955031777   120.76982249   180.19441776
 H     46  45  44     2.055590251947   121.75630388   180.29839108
 H     48  47  46     2.056032437595   117.02203897   180.35845973
 C      2   1   3    11.037330205413    57.90993721    90.49947115
 C     53   2   1     2.287381356578    65.92693020   246.69466472
 C     54  53   2     2.666461096481   173.54328882   265.42406156
 C     55  54  53     2.610676960111   120.67051999   278.72044894
 C     56  55  54     2.645958639553   120.87852618   171.68604740
 C     57  56  55     2.594400301802   121.26614153   358.44008457
 C     58  57  56     2.658226468738   119.83918667     2.19263454
 C     59  58  57     2.670518810318   123.51311088   181.88242194
 C     60  59  58     2.581139191015   120.09040138   179.62657824
 N     61  60  59     2.564146356104   122.04067861     2.79623710
 C     62  61  60     2.494882321034   119.47468688   357.02614707
 C     63  62  61     2.648084963842   122.89567277   359.38685224
 H     56  55  54     2.039406609620   119.42475065   353.31942008
 H     57  56  55     2.039863428796   118.89403827   180.19902901
 H     58  57  56     2.038214264001   120.88282561   182.66617087
 H     60  59  58     2.037691173218   119.46704039     0.46237649
 H     61  60  59     2.051159000297   121.81016146   182.25583418
 H     63  62  61     2.055901542766   117.89803965   179.16535987
 C     53   2   1     2.671385574480   117.09766767    74.02280435
 C     71  53   2     2.660411358601   116.28655774    96.28896929
 C     72  71  53     2.600765873593   121.35246920   176.60065599
 C     73  72  71     2.623108432582   117.77792931   359.58150921
 N     74  73  72     2.587645577336   129.19961222   182.84030954
 C     75  74  73     2.578979265409   109.29676315   177.83471962
 C     76  75  74     2.626848789593   129.28028441   182.06664195
 C     77  76  75     2.598504942009   117.94240790   179.06571736
 C     78  77  76     2.661054731490   121.17887322     0.36746469
 C     79  78  77     2.635898511452   120.97243234     0.06230683
 C     80  79  78     2.615677573992   118.37900595   359.42430506
 C     74  73  72     2.676761915427   121.56351217     1.65243427
 C     82  74  73     2.622100213675   120.11177816   358.70638764
 H     72  71  53     2.039799433177   118.77512320   357.70076331
 H     73  72  71     2.039346653426   121.00139216   180.93728541
 H     75  74  73     1.901816222049   125.19437395     2.04604122
 H     77  76  75     2.039432253313   120.90462394   359.92064489
 H     78  77  76     2.039483224557   120.09190229   180.86848239
 H     80  79  78     2.036362858140   120.44569539   180.46415467
 H     83  82  74     2.036730126718   121.09493544   181.40014240
 C     79  78  77     2.654786196531   118.30410465   182.69171324
 C     91  79  78     2.286845559476   176.57810550    49.44787969
 C     92  91  79     2.651907188028   177.35517919    50.56269540
 C     93  92  91     2.653259922677   121.65715870   264.93110048
 C     94  93  92     2.611140708686   119.21657459   177.97068902
 C     95  94  93     2.622355824939   119.37788303     0.00000000
 N     96  95  94     2.523079777444   121.28606657     0.40595071
 C     97  96  95     2.516649730067   120.38458493   359.69625532
 H     94  93  92     2.038345795336   119.75285847   358.33306331
 H     95  94  93     2.036974324978   120.75216802   180.24782595
 H     96  95  94     2.053001689851   122.00833926   180.14279102
 H     98  97  96     2.058132207405   117.13374062   180.16368907
 C     93  92  91     8.202054882558    82.72072808   161.11570598
 C    103  93  92     2.287336651115   105.89128679   197.56693450
 C    104 103  93     2.666228699249   173.60796815   279.59885228
 C    105 104 103     2.611551032735   120.39991887   285.70692369
 C    106 105 104     2.645513521169   120.91922883   171.97097011
 C    107 106 105     2.594343157810   121.23951239   358.40040332
 C    108 107 106     2.658031016816   119.83780498     2.07436694
 C    109 108 107     2.670502141848   123.43665824   182.01122827
 C    110 109 108     2.580809289679   120.07694850   179.54325642
 N    111 110 109     2.564231253173   122.02988157     2.77843849
 C    112 111 110     2.494810380043   119.51553219   357.08477360
 C    113 112 111     2.648289557364   122.87802118   359.37346178
 H    106 105 104     2.039300599429   119.38778489   353.48508314
 H    107 106 105     2.040016849045   118.90297363   180.10706736
 H    108 107 106     2.038266474591   120.89173674   182.59650815
 H    110 109 108     2.037661730914   119.46105132     0.40223563
 H    111 110 109     2.051546962546   121.82425327   182.25648836
 H    113 112 111     2.055719221005   117.87226464   179.18557504
 C    103  93  92     2.671460667253    75.12800901    25.34577695
 C    121 103  93     2.660726269921   116.13939352    83.89554936
 C    122 121 103     2.600318924452   121.35619808   176.70612573
 C    123 122 121     2.623168959136   117.76572226   359.43330903
 N    124 123 122     2.587413609136   129.14826380   182.93623450
 C    125 124 123     2.578573466418   109.29262406   177.71565419
 C    126 125 124     2.626614627798   129.23108621   182.15252115
 C    127 126 125     2.598200137040   117.92716050   179.05842521
 C    128 127 126     2.661524025202   121.19309328     0.32934283
 C    129 128 127     2.635889095708   120.96615221     0.04321197
 C    130 129 128     2.616077979236   118.38580752   359.46947517
 C    124 123 122     2.677248730505   121.60135321     1.66004570
 C    132 124 123     2.622519335261   120.06722773   358.84242634
 H    122 121 103     2.039994206105   118.77122880   357.62754762
 H    123 122 121     2.039383916128   121.00944660   180.80859736
 H    125 124 123     1.901983969522   125.17963024     1.90404414
 H    127 126 125     2.039586318803   120.91897912   359.86112224
 H    128 127 126     2.039535516473   120.09267857   180.86875549
 H    130 129 128     2.036343681902   120.44711973   180.44668814
 H    133 132 124     2.036666111547   121.07367624   181.32693988
 C    129 128 127     2.654861536875   118.07074276   182.59868555
 C    141 129 128     2.286966757365   176.22528305    41.94371455
 C    142 141 129     2.652022656679   177.15451865    51.74412939
 C    143 142 141     2.653464628596   121.54195486   269.57183107
 C    144 143 142     2.610839977684   119.23917402   177.82329985
 C    145 144 143     2.622393185035   119.36648853   359.86087077
 N    146 145 144     2.523113915684   121.28606344     0.49543001
 C    147 146 145     2.516822044579   120.38951984   359.74551166
 H    144 143 142     2.038274279784   119.75350056   358.22090823
 H    145 144 143     2.037020378977   120.75873313   180.20027103
 H    146 145 144     2.053164181523   122.02344110   180.25911534
 H    148 147 146     2.057877279424   117.14015510   180.08331509
 C    113 112 111     9.544046223532    87.22396167    83.54740025
 C    153 113 112     2.286046349857    91.24536179    17.18908512
 C    154 153 113     2.665397249871   174.67355570   257.85074453
 C    155 154 153     2.611480562234   120.32037365   294.19974579
 C    156 155 154     2.645057007399   120.96716934   174.03781726
 C    157 156 155     2.593957631810   121.08290591   358.19915742
 C    158 157 156     2.657973131485   119.86823177     2.04509857
 C    159 158 157     2.670058901570   123.22593856   182.02568659
 C    160 159 158     2.579570179773   119.99997721   180.53106830
 N    161 160 159     2.566233193269   122.17378651     2.58598723
 C    162 161 160     2.494778939203   119.45564155   356.37549527
 C    163 162 161     2.651962061513   122.77401286     0.29036436
 H    156 155 154     2.039528827945   119.37021252   355.13423125
 H    157 156 155     2.039857196511   118.95028505   179.78846985
 H    158 157 156     2.038289320684   120.86619243   182.45900630
 H    160 159 158     2.037661064952   119.47385495     1.11496833
 H    161 160 159     2.051418183787   121.50214433   182.35955334
 H    163 162 161     2.055619889141   117.61001647   180.15712230
 C    153 113 112     2.669831840060    89.24286951   200.77049464
 C    171 153 113     2.658659593046   117.61742886    87.83361747
 C    172 171 153     2.603409998561   121.31917898   178.86049725
 C    173 172 171     2.624228478550   117.87444806   359.63915121
 N    174 173 172     2.590063526846   129.48888908   180.87377689
 C    175 174 173     2.582198468481   109.30825149   177.99972708
 C    176 175 174     2.627978594743   129.48022892   181.58063340
 C    177 176 175     2.600479426043   117.93825510   178.41900723
 C    178 177 176     2.662268377097   121.23115066     0.24585664
 C    179 178 177     2.636653084127   120.92407604     0.71116623
 C    180 179 178     2.614732415211   118.32314692   359.04339714
 C    174 173 172     2.677685126023   121.38829671     0.02423287
 C    182 174 173     2.620020644301   120.23895099     0.49656093
 H    172 171 153     2.039908375962   118.82950241   359.28647866
 H    173 172 171     2.039355119894   120.91061334   180.28878567
 H    175 174 173     1.902161802488   125.30120277     0.94885462
 H    177 176 175     2.039766230993   121.10242325   359.18659838
 H    178 177 176     2.039772428541   119.86940914   180.75806148
 H    180 179 178     2.037138165187   120.45564115   180.06265121
 H    183 182 174     2.037123098258   121.17321518   180.36046742
 C    179 178 177     2.655610317930   118.77046082   182.46367284
 C    191 179 178     2.287091259002   178.31116227    68.18737687
 C    192 191 179     2.652271109317   177.85854058   333.21431063
 C    193 192 191     2.653001056763   121.06946920   322.02179097
 C    194 193 192     2.611429637960   119.20524629   178.84804604
 C    195 194 193     2.620873349527   119.24459902     0.09668519
 N    196 195 194     2.526626093829   121.44811028     0.16473905
 C    197 196 195     2.513891056023   120.36154567   359.87942305
 H    194 193 192     2.038450138368   119.74485674   359.08155774
 H    195 194 193     2.036843485268   120.76593927   180.18070609
 H    196 195 194     2.055603098837   121.77610122   180.17804443
 H    198 197 196     2.056149073916   117.01845884   180.41138884

---------------------
BASIS SET INFORMATION
---------------------
There are 4 groups of distinct atoms

 Group   1 Type Pd  : 7s7p6d contracted to 6s4p3d pattern {211111/4111/411}
 Group   2 Type C   : 11s6p1d contracted to 5s3p1d pattern {62111/411/1}
 Group   3 Type N   : 11s6p1d contracted to 5s3p1d pattern {62111/411/1}
 Group   4 Type H   : 5s contracted to 3s pattern {311}

Atom   0Pd   basis set group =>   1
Atom   1Pd   basis set group =>   1
Atom   2C    basis set group =>   2
Atom   3C    basis set group =>   2
Atom   4C    basis set group =>   2
Atom   5C    basis set group =>   2
Atom   6C    basis set group =>   2
Atom   7C    basis set group =>   2
Atom   8C    basis set group =>   2
Atom   9C    basis set group =>   2
Atom  10C    basis set group =>   2
Atom  11N    basis set group =>   3
Atom  12C    basis set group =>   2
Atom  13C    basis set group =>   2
Atom  14H    basis set group =>   4
Atom  15H    basis set group =>   4
Atom  16H    basis set group =>   4
Atom  17H    basis set group =>   4
Atom  18H    basis set group =>   4
Atom  19H    basis set group =>   4
Atom  20C    basis set group =>   2
Atom  21C    basis set group =>   2
Atom  22C    basis set group =>   2
Atom  23C    basis set group =>   2
Atom  24N    basis set group =>   3
Atom  25C    basis set group =>   2
Atom  26C    basis set group =>   2
Atom  27C    basis set group =>   2
Atom  28C    basis set group =>   2
Atom  29C    basis set group =>   2
Atom  30C    basis set group =>   2
Atom  31C    basis set group =>   2
Atom  32C    basis set group =>   2
Atom  33H    basis set group =>   4
Atom  34H    basis set group =>   4
Atom  35H    basis set group =>   4
Atom  36H    basis set group =>   4
Atom  37H    basis set group =>   4
Atom  38H    basis set group =>   4
Atom  39H    basis set group =>   4
Atom  40C    basis set group =>   2
Atom  41C    basis set group =>   2
Atom  42C    basis set group =>   2
Atom  43C    basis set group =>   2
Atom  44C    basis set group =>   2
Atom  45C    basis set group =>   2
Atom  46N    basis set group =>   3
Atom  47C    basis set group =>   2
Atom  48H    basis set group =>   4
Atom  49H    basis set group =>   4
Atom  50H    basis set group =>   4
Atom  51H    basis set group =>   4
Atom  52C    basis set group =>   2
Atom  53C    basis set group =>   2
Atom  54C    basis set group =>   2
Atom  55C    basis set group =>   2
Atom  56C    basis set group =>   2
Atom  57C    basis set group =>   2
Atom  58C    basis set group =>   2
Atom  59C    basis set group =>   2
Atom  60C    basis set group =>   2
Atom  61N    basis set group =>   3
Atom  62C    basis set group =>   2
Atom  63C    basis set group =>   2
Atom  64H    basis set group =>   4
Atom  65H    basis set group =>   4
Atom  66H    basis set group =>   4
Atom  67H    basis set group =>   4
Atom  68H    basis set group =>   4
Atom  69H    basis set group =>   4
Atom  70C    basis set group =>   2
Atom  71C    basis set group =>   2
Atom  72C    basis set group =>   2
Atom  73C    basis set group =>   2
Atom  74N    basis set group =>   3
Atom  75C    basis set group =>   2
Atom  76C    basis set group =>   2
Atom  77C    basis set group =>   2
Atom  78C    basis set group =>   2
Atom  79C    basis set group =>   2
Atom  80C    basis set group =>   2
Atom  81C    basis set group =>   2
Atom  82C    basis set group =>   2
Atom  83H    basis set group =>   4
Atom  84H    basis set group =>   4
Atom  85H    basis set group =>   4
Atom  86H    basis set group =>   4
Atom  87H    basis set group =>   4
Atom  88H    basis set group =>   4
Atom  89H    basis set group =>   4
Atom  90C    basis set group =>   2
Atom  91C    basis set group =>   2
Atom  92C    basis set group =>   2
Atom  93C    basis set group =>   2
Atom  94C    basis set group =>   2
Atom  95C    basis set group =>   2
Atom  96N    basis set group =>   3
Atom  97C    basis set group =>   2
Atom  98H    basis set group =>   4
Atom  99H    basis set group =>   4
Atom 100H    basis set group =>   4
Atom 101H    basis set group =>   4
Atom 102C    basis set group =>   2
Atom 103C    basis set group =>   2
Atom 104C    basis set group =>   2
Atom 105C    basis set group =>   2
Atom 106C    basis set group =>   2
Atom 107C    basis set group =>   2
Atom 108C    basis set group =>   2
Atom 109C    basis set group =>   2
Atom 110C    basis set group =>   2
Atom 111N    basis set group =>   3
Atom 112C    basis set group =>   2
Atom 113C    basis set group =>   2
Atom 114H    basis set group =>   4
Atom 115H    basis set group =>   4
Atom 116H    basis set group =>   4
Atom 117H    basis set group =>   4
Atom 118H    basis set group =>   4
Atom 119H    basis set group =>   4
Atom 120C    basis set group =>   2
Atom 121C    basis set group =>   2
Atom 122C    basis set group =>   2
Atom 123C    basis set group =>   2
Atom 124N    basis set group =>   3
Atom 125C    basis set group =>   2
Atom 126C    basis set group =>   2
Atom 127C    basis set group =>   2
Atom 128C    basis set group =>   2
Atom 129C    basis set group =>   2
Atom 130C    basis set group =>   2
Atom 131C    basis set group =>   2
Atom 132C    basis set group =>   2
Atom 133H    basis set group =>   4
Atom 134H    basis set group =>   4
Atom 135H    basis set group =>   4
Atom 136H    basis set group =>   4
Atom 137H    basis set group =>   4
Atom 138H    basis set group =>   4
Atom 139H    basis set group =>   4
Atom 140C    basis set group =>   2
Atom 141C    basis set group =>   2
Atom 142C    basis set group =>   2
Atom 143C    basis set group =>   2
Atom 144C    basis set group =>   2
Atom 145C    basis set group =>   2
Atom 146N    basis set group =>   3
Atom 147C    basis set group =>   2
Atom 148H    basis set group =>   4
Atom 149H    basis set group =>   4
Atom 150H    basis set group =>   4
Atom 151H    basis set group =>   4
Atom 152C    basis set group =>   2
Atom 153C    basis set group =>   2
Atom 154C    basis set group =>   2
Atom 155C    basis set group =>   2
Atom 156C    basis set group =>   2
Atom 157C    basis set group =>   2
Atom 158C    basis set group =>   2
Atom 159C    basis set group =>   2
Atom 160C    basis set group =>   2
Atom 161N    basis set group =>   3
Atom 162C    basis set group =>   2
Atom 163C    basis set group =>   2
Atom 164H    basis set group =>   4
Atom 165H    basis set group =>   4
Atom 166H    basis set group =>   4
Atom 167H    basis set group =>   4
Atom 168H    basis set group =>   4
Atom 169H    basis set group =>   4
Atom 170C    basis set group =>   2
Atom 171C    basis set group =>   2
Atom 172C    basis set group =>   2
Atom 173C    basis set group =>   2
Atom 174N    basis set group =>   3
Atom 175C    basis set group =>   2
Atom 176C    basis set group =>   2
Atom 177C    basis set group =>   2
Atom 178C    basis set group =>   2
Atom 179C    basis set group =>   2
Atom 180C    basis set group =>   2
Atom 181C    basis set group =>   2
Atom 182C    basis set group =>   2
Atom 183H    basis set group =>   4
Atom 184H    basis set group =>   4
Atom 185H    basis set group =>   4
Atom 186H    basis set group =>   4
Atom 187H    basis set group =>   4
Atom 188H    basis set group =>   4
Atom 189H    basis set group =>   4
Atom 190C    basis set group =>   2
Atom 191C    basis set group =>   2
Atom 192C    basis set group =>   2
Atom 193C    basis set group =>   2
Atom 194C    basis set group =>   2
Atom 195C    basis set group =>   2
Atom 196N    basis set group =>   3
Atom 197C    basis set group =>   2
Atom 198H    basis set group =>   4
Atom 199H    basis set group =>   4
Atom 200H    basis set group =>   4
Atom 201H    basis set group =>   4

-------------------------
BASIS SET IN INPUT FORMAT
-------------------------

 # Basis set for element : H 
 NewGTO H 
 S 3 
   1      34.0613410000      0.0254393072
   2       5.1235746000      0.1900859489
   3       1.1646626000      0.8524411301
 S 1 
   1       0.3272304100      1.0000000000
 S 1 
   1       0.1030724100      1.0000000000
  end;

 # Basis set for element : C 
 NewGTO C 
 S 6 
   1   13575.3496820000      0.0006064549
   2    2035.2333680000      0.0046979088
   3     463.2256235900      0.0243324776
   4     131.2001959800      0.0973999683
   5      42.8530158910      0.3019558425
   6      15.5841857660      0.6623360915
 S 2 
   1       6.2067138508      0.6559530854
   2       2.5764896527      0.3758563329
 S 1 
   1       0.5769633942      1.0000000000
 S 1 
   1       0.2297283136      1.0000000000
 S 1 
   1       0.0951644400      1.0000000000
 P 4 
   1      34.6972322440      0.0113272200
   2       7.9582622826      0.0761696592
   3       2.3780826883      0.3019225220
   4       0.8143320818      0.7278502735
 P 1 
   1       0.2888754725      1.0000000000
 P 1 
   1       0.1005682367      1.0000000000
 D 1 
   1       0.8000000000      1.0000000000
  end;

 # Basis set for element : N 
 NewGTO N 
 S 6 
   1   19730.8006470000      0.0005862639
   2    2957.8958745000      0.0045428821
   3     673.2213359500      0.0235584136
   4     190.6824949400      0.0947091933
   5      62.2954418980      0.2971978492
   6      22.6541611820      0.6691624689
 S 2 
   1       8.9791477428      0.6459668363
   2       3.6863002370      0.3870057440
 S 1 
   1       0.8466007680      1.0000000000
 S 1 
   1       0.3364713377      1.0000000000
 S 1 
   1       0.1364765367      1.0000000000
 P 4 
   1      49.2003805100      0.0114488252
   2      11.3467905370      0.0784223379
   3       3.4273972411      0.3081809474
   4       1.1785525134      0.7202719637
 P 1 
   1       0.4164220497      1.0000000000
 P 1 
   1       0.1426082601      1.0000000000
 D 1 
   1       0.8000000000      1.0000000000
  end;

 # Basis set for element : Pd
 NewGTO Pd
 S 2 
   1      18.0000000000     -0.8955869481
   2      14.6621343080      1.8822771923
 S 1 
   1       5.6388709265      1.0000000000
 S 1 
   1       1.3198953252      1.0000000000
 S 1 
   1       0.5781790851      1.0000000000
 S 1 
   1       0.1035216624      1.0000000000
 S 1 
   1       0.0375484427      1.0000000000
 P 4 
   1      12.5528993000      0.0701895210
   2       7.2444496380     -0.2749252830
   3       1.8905941078      0.5623121361
   4       0.9073716876      0.5736959368
 P 1 
   1       0.4087721081      1.0000000000
 P 1 
   1       0.1150000000      1.0000000000
 P 1 
   1       0.0370000000      1.0000000000
 D 4 
   1      22.3574575750      0.0063445039
   2      10.6825263820     -0.0225156052
   3       2.4858232550      0.3884291800
   4       1.0735333903      0.6828976806
 D 1 
   1       0.4261384285      1.0000000000
 D 1 
   1       0.1504635538      1.0000000000
  end;

---------------------------------
AUXILIARY/J BASIS SET INFORMATION
---------------------------------
There are 4 groups of distinct atoms

 Group   1 Type Pd  : 11s5p5d3f3g contracted to 8s5p5d2f3g pattern {41111111/11111/11111/21/111}
 Group   2 Type C   : 8s3p3d contracted to 6s3p3d pattern {311111/111/111}
 Group   3 Type N   : 8s3p3d contracted to 6s3p3d pattern {311111/111/111}
 Group   4 Type H   : 5s2p contracted to 3s1p pattern {311/2}

Atom   0Pd   basis set group =>   1
Atom   1Pd   basis set group =>   1
Atom   2C    basis set group =>   2
Atom   3C    basis set group =>   2
Atom   4C    basis set group =>   2
Atom   5C    basis set group =>   2
Atom   6C    basis set group =>   2
Atom   7C    basis set group =>   2
Atom   8C    basis set group =>   2
Atom   9C    basis set group =>   2
Atom  10C    basis set group =>   2
Atom  11N    basis set group =>   3
Atom  12C    basis set group =>   2
Atom  13C    basis set group =>   2
Atom  14H    basis set group =>   4
Atom  15H    basis set group =>   4
Atom  16H    basis set group =>   4
Atom  17H    basis set group =>   4
Atom  18H    basis set group =>   4
Atom  19H    basis set group =>   4
Atom  20C    basis set group =>   2
Atom  21C    basis set group =>   2
Atom  22C    basis set group =>   2
Atom  23C    basis set group =>   2
Atom  24N    basis set group =>   3
Atom  25C    basis set group =>   2
Atom  26C    basis set group =>   2
Atom  27C    basis set group =>   2
Atom  28C    basis set group =>   2
Atom  29C    basis set group =>   2
Atom  30C    basis set group =>   2
Atom  31C    basis set group =>   2
Atom  32C    basis set group =>   2
Atom  33H    basis set group =>   4
Atom  34H    basis set group =>   4
Atom  35H    basis set group =>   4
Atom  36H    basis set group =>   4
Atom  37H    basis set group =>   4
Atom  38H    basis set group =>   4
Atom  39H    basis set group =>   4
Atom  40C    basis set group =>   2
Atom  41C    basis set group =>   2
Atom  42C    basis set group =>   2
Atom  43C    basis set group =>   2
Atom  44C    basis set group =>   2
Atom  45C    basis set group =>   2
Atom  46N    basis set group =>   3
Atom  47C    basis set group =>   2
Atom  48H    basis set group =>   4
Atom  49H    basis set group =>   4
Atom  50H    basis set group =>   4
Atom  51H    basis set group =>   4
Atom  52C    basis set group =>   2
Atom  53C    basis set group =>   2
Atom  54C    basis set group =>   2
Atom  55C    basis set group =>   2
Atom  56C    basis set group =>   2
Atom  57C    basis set group =>   2
Atom  58C    basis set group =>   2
Atom  59C    basis set group =>   2
Atom  60C    basis set group =>   2
Atom  61N    basis set group =>   3
Atom  62C    basis set group =>   2
Atom  63C    basis set group =>   2
Atom  64H    basis set group =>   4
Atom  65H    basis set group =>   4
Atom  66H    basis set group =>   4
Atom  67H    basis set group =>   4
Atom  68H    basis set group =>   4
Atom  69H    basis set group =>   4
Atom  70C    basis set group =>   2
Atom  71C    basis set group =>   2
Atom  72C    basis set group =>   2
Atom  73C    basis set group =>   2
Atom  74N    basis set group =>   3
Atom  75C    basis set group =>   2
Atom  76C    basis set group =>   2
Atom  77C    basis set group =>   2
Atom  78C    basis set group =>   2
Atom  79C    basis set group =>   2
Atom  80C    basis set group =>   2
Atom  81C    basis set group =>   2
Atom  82C    basis set group =>   2
Atom  83H    basis set group =>   4
Atom  84H    basis set group =>   4
Atom  85H    basis set group =>   4
Atom  86H    basis set group =>   4
Atom  87H    basis set group =>   4
Atom  88H    basis set group =>   4
Atom  89H    basis set group =>   4
Atom  90C    basis set group =>   2
Atom  91C    basis set group =>   2
Atom  92C    basis set group =>   2
Atom  93C    basis set group =>   2
Atom  94C    basis set group =>   2
Atom  95C    basis set group =>   2
Atom  96N    basis set group =>   3
Atom  97C    basis set group =>   2
Atom  98H    basis set group =>   4
Atom  99H    basis set group =>   4
Atom 100H    basis set group =>   4
Atom 101H    basis set group =>   4
Atom 102C    basis set group =>   2
Atom 103C    basis set group =>   2
Atom 104C    basis set group =>   2
Atom 105C    basis set group =>   2
Atom 106C    basis set group =>   2
Atom 107C    basis set group =>   2
Atom 108C    basis set group =>   2
Atom 109C    basis set group =>   2
Atom 110C    basis set group =>   2
Atom 111N    basis set group =>   3
Atom 112C    basis set group =>   2
Atom 113C    basis set group =>   2
Atom 114H    basis set group =>   4
Atom 115H    basis set group =>   4
Atom 116H    basis set group =>   4
Atom 117H    basis set group =>   4
Atom 118H    basis set group =>   4
Atom 119H    basis set group =>   4
Atom 120C    basis set group =>   2
Atom 121C    basis set group =>   2
Atom 122C    basis set group =>   2
Atom 123C    basis set group =>   2
Atom 124N    basis set group =>   3
Atom 125C    basis set group =>   2
Atom 126C    basis set group =>   2
Atom 127C    basis set group =>   2
Atom 128C    basis set group =>   2
Atom 129C    basis set group =>   2
Atom 130C    basis set group =>   2
Atom 131C    basis set group =>   2
Atom 132C    basis set group =>   2
Atom 133H    basis set group =>   4
Atom 134H    basis set group =>   4
Atom 135H    basis set group =>   4
Atom 136H    basis set group =>   4
Atom 137H    basis set group =>   4
Atom 138H    basis set group =>   4
Atom 139H    basis set group =>   4
Atom 140C    basis set group =>   2
Atom 141C    basis set group =>   2
Atom 142C    basis set group =>   2
Atom 143C    basis set group =>   2
Atom 144C    basis set group =>   2
Atom 145C    basis set group =>   2
Atom 146N    basis set group =>   3
Atom 147C    basis set group =>   2
Atom 148H    basis set group =>   4
Atom 149H    basis set group =>   4
Atom 150H    basis set group =>   4
Atom 151H    basis set group =>   4
Atom 152C    basis set group =>   2
Atom 153C    basis set group =>   2
Atom 154C    basis set group =>   2
Atom 155C    basis set group =>   2
Atom 156C    basis set group =>   2
Atom 157C    basis set group =>   2
Atom 158C    basis set group =>   2
Atom 159C    basis set group =>   2
Atom 160C    basis set group =>   2
Atom 161N    basis set group =>   3
Atom 162C    basis set group =>   2
Atom 163C    basis set group =>   2
Atom 164H    basis set group =>   4
Atom 165H    basis set group =>   4
Atom 166H    basis set group =>   4
Atom 167H    basis set group =>   4
Atom 168H    basis set group =>   4
Atom 169H    basis set group =>   4
Atom 170C    basis set group =>   2
Atom 171C    basis set group =>   2
Atom 172C    basis set group =>   2
Atom 173C    basis set group =>   2
Atom 174N    basis set group =>   3
Atom 175C    basis set group =>   2
Atom 176C    basis set group =>   2
Atom 177C    basis set group =>   2
Atom 178C    basis set group =>   2
Atom 179C    basis set group =>   2
Atom 180C    basis set group =>   2
Atom 181C    basis set group =>   2
Atom 182C    basis set group =>   2
Atom 183H    basis set group =>   4
Atom 184H    basis set group =>   4
Atom 185H    basis set group =>   4
Atom 186H    basis set group =>   4
Atom 187H    basis set group =>   4
Atom 188H    basis set group =>   4
Atom 189H    basis set group =>   4
Atom 190C    basis set group =>   2
Atom 191C    basis set group =>   2
Atom 192C    basis set group =>   2
Atom 193C    basis set group =>   2
Atom 194C    basis set group =>   2
Atom 195C    basis set group =>   2
Atom 196N    basis set group =>   3
Atom 197C    basis set group =>   2
Atom 198H    basis set group =>   4
Atom 199H    basis set group =>   4
Atom 200H    basis set group =>   4
Atom 201H    basis set group =>   4

-------------------------------------
AUXILIARY/J BASIS SET IN INPUT FORMAT
-------------------------------------

 # Auxiliary/J basis set for element : H 
 NewAuxJGTO H 
 S 3 
   1      15.6752927000      0.1007184237
   2       3.6063578000      0.3404257499
   3       1.2080016000      0.6491996172
 S 1 
   1       0.4726794000      1.0000000000
 S 1 
   1       0.2018100000      1.0000000000
 P 2 
   1       2.0281365000      0.5596620919
   2       0.5358730000      0.5596620919
  end;

 # Auxiliary/J basis set for element : C 
 NewAuxJGTO C 
 S 3 
   1     459.7023860000      0.1098751775
   2     132.9577920000      0.2844848472
   3      41.5658170000      0.6964707648
 S 1 
   1      13.9155610000      1.0000000000
 S 1 
   1       4.9305290000     -1.0000000000
 S 1 
   1       1.8229480000      1.0000000000
 S 1 
   1       0.6920510000      1.0000000000
 S 1 
   1       0.2650930000      1.0000000000
 P 1 
   1       0.3278473579      1.0000000000
 P 1 
   1       0.7868336591      1.0000000000
 P 1 
   1       1.9710183160      1.0000000000
 D 1 
   1       4.0133010000      1.0000000000
 D 1 
   1       1.2475050000      1.0000000000
 D 1 
   1       0.4081480000      1.0000000000
  end;

 # Auxiliary/J basis set for element : N 
 NewAuxJGTO N 
 S 3 
   1     680.5425300000      0.1043830093
   2     196.7562140000      0.2751518961
   3      61.2707930000      0.7090825511
 S 1 
   1      20.3644630000      1.0000000000
 S 1 
   1       7.1424770000     -1.0000000000
 S 1 
   1       2.6080260000      1.0000000000
 S 1 
   1       0.9763730000      1.0000000000
 S 1 
   1       0.3686330000      1.0000000000
 P 1 
   1       0.4707391941      1.0000000000
 P 1 
   1       1.1297740658     -1.0000000000
 P 1 
   1       2.8300840347      1.0000000000
 D 1 
   1       5.8329865000      1.0000000000
 D 1 
   1       1.7326865000      1.0000000000
 D 1 
   1       0.5452425000      1.0000000000
  end;

 # Auxiliary/J basis set for element : Pd
 NewAuxJGTO Pd
 S 4 
   1      51.0211803000      0.0154414011
   2      17.6543867000     -0.3899991562
   3      10.3849330000      1.7000917225
   4       6.2315704000     -2.2542519748
 S 1 
   1       3.6656295000     -1.0000000000
 S 1 
   1       2.1995933000      1.0000000000
 S 1 
   1       1.2683839000      1.0000000000
 S 1 
   1       0.7461081000      1.0000000000
 S 1 
   1       0.4477087000      1.0000000000
 S 1 
[...]
109 C      6.1171     6.0000    -0.1171     3.7203     3.7203    -0.0000
110 C      6.1552     6.0000    -0.1552     3.9877     3.9877    -0.0000
111 N      7.1192     7.0000    -0.1192     3.2717     3.2717    -0.0000
112 C      6.1399     6.0000    -0.1399     3.7313     3.7313    -0.0000
113 C      5.6116     6.0000     0.3884     3.2403     3.2403    -0.0000
114 H      0.7612     1.0000     0.2388     0.9060     0.9060    -0.0000
115 H      0.7872     1.0000     0.2128     0.9298     0.9298    -0.0000
116 H      0.7627     1.0000     0.2373     0.9016     0.9016    -0.0000
117 H      0.7556     1.0000     0.2444     0.8962     0.8962    -0.0000
118 H      0.8137     1.0000     0.1863     0.9551     0.9551    -0.0000
119 H      0.8385     1.0000     0.1615     0.9810     0.9810    -0.0000
120 C      6.1717     6.0000    -0.1717     3.9740     3.9740    -0.0000
121 C      6.2170     6.0000    -0.2170     3.9251     3.9251    -0.0000
122 C      6.2300     6.0000    -0.2300     3.8792     3.8792    -0.0000
123 C      5.8827     6.0000     0.1173     3.8670     3.8670    -0.0000
124 N      7.3018     7.0000    -0.3018     3.2581     3.2581    -0.0000
125 C      5.9214     6.0000     0.0786     3.7969     3.7969    -0.0000
126 C      6.1948     6.0000    -0.1948     3.8570     3.8570    -0.0000
127 C      6.2119     6.0000    -0.2119     3.9224     3.9224    -0.0000
128 C      6.0373     6.0000    -0.0373     3.9337     3.9337    -0.0000
129 C      6.2645     6.0000    -0.2645     3.3793     3.3793    -0.0000
130 C      5.7803     6.0000     0.2197     3.5275     3.5275    -0.0000
131 C      5.9743     6.0000     0.0257     3.5000     3.5000    -0.0000
132 C      6.2177     6.0000    -0.2177     3.3235     3.3235    -0.0000
133 H      0.7800     1.0000     0.2200     0.9123     0.9123    -0.0000
134 H      0.7854     1.0000     0.2146     0.9203     0.9203    -0.0000
135 H      0.6236     1.0000     0.3764     0.8322     0.8322    -0.0000
136 H      0.7888     1.0000     0.2112     0.9233     0.9233    -0.0000
137 H      0.7918     1.0000     0.2082     0.9212     0.9212    -0.0000
138 H      0.8017     1.0000     0.1983     0.9110     0.9110    -0.0000
139 H      0.8022     1.0000     0.1978     0.9105     0.9105    -0.0000
140 C      5.8866     6.0000     0.1134     3.0336     3.0336    -0.0000
141 C      6.0380     6.0000    -0.0380     3.3602     3.3602    -0.0000
142 C      5.9939     6.0000     0.0061     3.7181     3.7181    -0.0000
143 C      6.2199     6.0000    -0.2199     3.9407     3.9407    -0.0000
144 C      6.0216     6.0000    -0.0216     3.8172     3.8172    -0.0000
145 C      6.1306     6.0000    -0.1306     3.9244     3.9244    -0.0000
146 N      7.0844     7.0000    -0.0844     3.2822     3.2822    -0.0000
147 C      6.2125     6.0000    -0.2125     3.7450     3.7450    -0.0000
148 H      0.7650     1.0000     0.2350     0.9096     0.9096    -0.0000
149 H      0.7603     1.0000     0.2397     0.9128     0.9128    -0.0000
150 H      0.7953     1.0000     0.2047     0.9510     0.9510    -0.0000
151 H      0.8090     1.0000     0.1910     0.9604     0.9604    -0.0000
152 C      5.9649     6.0000     0.0351     3.2742     3.2742    -0.0000
153 C      5.9103     6.0000     0.0897     2.9321     2.9321    -0.0000
154 C      6.2604     6.0000    -0.2604     3.8350     3.8350    -0.0000
155 C      6.0782     6.0000    -0.0782     3.8380     3.8380    -0.0000
156 C      6.1860     6.0000    -0.1860     4.1539     4.1539    -0.0000
157 C      6.2141     6.0000    -0.2141     3.9082     3.9082    -0.0000
158 C      6.0540     6.0000    -0.0540     3.7583     3.7583    -0.0000
159 C      6.1157     6.0000    -0.1157     3.7429     3.7429    -0.0000
160 C      6.1567     6.0000    -0.1567     3.9925     3.9925    -0.0000
161 N      7.1165     7.0000    -0.1165     3.2774     3.2774    -0.0000
162 C      6.1525     6.0000    -0.1525     3.7163     3.7163    -0.0000
163 C      5.5869     6.0000     0.4131     3.1488     3.1488    -0.0000
164 H      0.7560     1.0000     0.2440     0.9031     0.9031    -0.0000
165 H      0.7825     1.0000     0.2175     0.9286     0.9286    -0.0000
166 H      0.7625     1.0000     0.2375     0.9017     0.9017    -0.0000
167 H      0.7552     1.0000     0.2448     0.8952     0.8952    -0.0000
168 H      0.8308     1.0000     0.1692     0.9687     0.9687    -0.0000
169 H      0.8186     1.0000     0.1814     0.9638     0.9638    -0.0000
170 C      6.2245     6.0000    -0.2245     3.9706     3.9706    -0.0000
171 C      6.1969     6.0000    -0.1969     3.9029     3.9029    -0.0000
172 C      6.2169     6.0000    -0.2169     3.8660     3.8660    -0.0000
173 C      5.8477     6.0000     0.1523     3.8594     3.8594    -0.0000
174 N      7.3065     7.0000    -0.3065     3.2040     3.2040    -0.0000
175 C      5.8475     6.0000     0.1525     3.8582     3.8582    -0.0000
176 C      6.1969     6.0000    -0.1969     3.8500     3.8500    -0.0000
177 C      6.2187     6.0000    -0.2187     3.9180     3.9180    -0.0000
178 C      6.0743     6.0000    -0.0743     3.7898     3.7898    -0.0000
179 C      6.2381     6.0000    -0.2381     3.3935     3.3935    -0.0000
180 C      5.9735     6.0000     0.0265     3.4625     3.4625    -0.0000
181 C      5.9357     6.0000     0.0643     3.4550     3.4550    -0.0000
182 C      6.2130     6.0000    -0.2130     3.3790     3.3790    -0.0000
183 H      0.7844     1.0000     0.2156     0.9145     0.9145    -0.0000
184 H      0.7910     1.0000     0.2090     0.9233     0.9233    -0.0000
185 H      0.6224     1.0000     0.3776     0.8308     0.8308    -0.0000
186 H      0.7827     1.0000     0.2173     0.9198     0.9198    -0.0000
187 H      0.7817     1.0000     0.2183     0.9146     0.9146    -0.0000
188 H      0.8012     1.0000     0.1988     0.9096     0.9096    -0.0000
189 H      0.7971     1.0000     0.2029     0.9077     0.9077    -0.0000
190 C      5.9678     6.0000     0.0322     3.1197     3.1197    -0.0000
191 C      6.0315     6.0000    -0.0315     3.1742     3.1742    -0.0000
192 C      5.9131     6.0000     0.0869     3.7298     3.7298    -0.0000
193 C      6.2275     6.0000    -0.2275     3.9559     3.9559    -0.0000
194 C      6.0035     6.0000    -0.0035     3.8084     3.8084    -0.0000
195 C      6.1577     6.0000    -0.1577     3.9312     3.9312    -0.0000
196 N      7.0804     7.0000    -0.0804     3.2909     3.2909    -0.0000
197 C      6.1808     6.0000    -0.1808     3.7365     3.7365    -0.0000
198 H      0.7585     1.0000     0.2415     0.9070     0.9070    -0.0000
199 H      0.7589     1.0000     0.2411     0.9108     0.9108    -0.0000
200 H      0.8033     1.0000     0.1967     0.9571     0.9571    -0.0000
201 H      0.7992     1.0000     0.2008     0.9473     0.9473    -0.0000

  Mayer bond orders larger than 0.100000
B(  0-Pd, 46-N ) :   0.5128 B(  0-Pd, 96-N ) :   0.5101 B(  0-Pd,111-N ) :   0.5055 
B(  0-Pd,161-N ) :   0.5061 B(  1-Pd, 11-N ) :   0.5063 B(  1-Pd, 61-N ) :   0.5054 
B(  1-Pd,146-N ) :   0.5089 B(  1-Pd,196-N ) :   0.5132 B(  2-C ,  3-C ) :   1.8818 
B(  2-C ,  4-C ) :  -0.2795 B(  2-C , 20-C ) :   1.5434 B(  2-C , 32-C ) :  -0.1330 
B(  3-C ,  4-C ) :   1.4406 B(  3-C , 13-C ) :  -0.2234 B(  3-C , 20-C ) :  -0.4258 
B(  3-C , 32-C ) :   0.1085 B(  4-C ,  5-C ) :   1.5889 B(  4-C , 13-C ) :   1.0803 
B(  5-C ,  6-C ) :   1.4024 B(  5-C , 14-H ) :   0.8511 B(  6-C ,  7-C ) :   1.6239 
B(  6-C , 15-H ) :   0.8803 B(  7-C ,  8-C ) :   1.3535 B(  7-C , 13-C ) :  -0.1181 
B(  7-C , 16-H ) :   0.8650 B(  8-C ,  9-C ) :   1.2752 B(  8-C , 10-C ) :   0.1000 
B(  8-C , 12-C ) :  -0.1102 B(  8-C , 13-C ) :   1.0566 B(  9-C , 10-C ) :   1.5742 
B(  9-C , 17-H ) :   0.8835 B( 10-C , 11-N ) :   1.2528 B( 10-C , 18-H ) :   0.9162 
B( 11-N , 12-C ) :   1.4301 B( 11-N ,146-N ) :   0.1001 B( 12-C , 13-C ) :   1.3626 
B( 12-C , 19-H ) :   0.8961 B( 20-C , 21-C ) :   1.3150 B( 20-C , 32-C ) :   1.3513 
B( 21-C , 22-C ) :   1.5700 B( 21-C , 33-H ) :   0.9046 B( 22-C , 23-C ) :   1.3513 
B( 22-C , 34-H ) :   0.8609 B( 23-C , 24-N ) :   1.1435 B( 23-C , 25-C ) :   0.1125 
B( 23-C , 31-C ) :   1.2556 B( 24-N , 25-C ) :   1.1621 B( 24-N , 35-H ) :   0.8055 
B( 25-C , 26-C ) :   1.3328 B( 25-C , 30-C ) :   1.2476 B( 25-C , 31-C ) :  -0.1076 
B( 26-C , 27-C ) :   1.5861 B( 26-C , 36-H ) :   0.8583 B( 27-C , 28-C ) :   1.2477 
B( 27-C , 37-H ) :   0.9138 B( 28-C , 29-C ) :   1.3065 B( 28-C , 40-C ) :   1.4499 
B( 28-C , 41-C ) :  -0.3819 B( 29-C , 30-C ) :   1.2921 B( 29-C , 31-C ) :  -0.1398 
B( 29-C , 38-H ) :   0.9464 B( 30-C , 31-C ) :   1.0365 B( 30-C , 32-C ) :  -0.1424 
B( 31-C , 32-C ) :   1.2762 B( 32-C , 39-H ) :   0.9339 B( 40-C , 41-C ) :   1.8383 
B( 40-C , 42-C ) :  -0.3284 B( 41-C , 42-C ) :   1.4470 B( 42-C , 43-C ) :   1.3407 
B( 42-C , 47-C ) :   1.2641 B( 43-C , 44-C ) :   1.4879 B( 43-C , 48-H ) :   0.9223 
B( 44-C , 45-C ) :   1.3912 B( 44-C , 49-H ) :   0.8758 B( 45-C , 46-N ) :   1.3479 
B( 45-C , 50-H ) :   0.9256 B( 46-N , 47-C ) :   1.3874 B( 46-N ,111-N ) :   0.1003 
B( 47-C , 51-H ) :   0.9529 B( 52-C , 53-C ) :   1.8873 B( 52-C , 54-C ) :  -0.3342 
B( 52-C , 70-C ) :   1.5419 B( 52-C , 82-C ) :  -0.1383 B( 53-C , 54-C ) :   1.4548 
B( 53-C , 63-C ) :  -0.2138 B( 53-C , 70-C ) :  -0.3856 B( 53-C , 82-C ) :   0.1169 
B( 54-C , 55-C ) :   1.5893 B( 54-C , 63-C ) :   1.0916 B( 55-C , 56-C ) :   1.3982 
B( 55-C , 64-H ) :   0.8495 B( 56-C , 57-C ) :   1.6285 B( 56-C , 65-H ) :   0.8818 
B( 57-C , 58-C ) :   1.3567 B( 57-C , 63-C ) :  -0.1218 B( 57-C , 66-H ) :   0.8628 
B( 58-C , 59-C ) :   1.2899 B( 58-C , 62-C ) :  -0.1050 B( 58-C , 63-C ) :   1.0500 
B( 59-C , 60-C ) :   1.5584 B( 59-C , 67-H ) :   0.8834 B( 60-C , 61-N ) :   1.2586 
B( 60-C , 68-H ) :   0.9222 B( 61-N , 62-C ) :   1.4311 B( 61-N ,196-N ) :   0.1001 
B( 62-C , 63-C ) :   1.4088 B( 62-C , 69-H ) :   0.8781 B( 70-C , 71-C ) :   1.3134 
B( 70-C , 82-C ) :   1.3217 B( 71-C , 72-C ) :   1.5870 B( 71-C , 83-H ) :   0.9012 
B( 72-C , 73-C ) :   1.3573 B( 72-C , 84-H ) :   0.8572 B( 73-C , 74-N ) :   1.1382 
B( 73-C , 75-C ) :   0.1125 B( 73-C , 80-C ) :  -0.1087 B( 73-C , 81-C ) :   1.2333 
B( 74-N , 75-C ) :   1.2082 B( 74-N , 85-H ) :   0.7982 B( 75-C , 76-C ) :   1.3139 
B( 75-C , 80-C ) :   1.2243 B( 76-C , 77-C ) :   1.5638 B( 76-C , 86-H ) :   0.8544 
B( 77-C , 78-C ) :   1.2751 B( 77-C , 87-H ) :   0.8982 B( 78-C , 79-C ) :   1.3236 
B( 78-C , 90-C ) :   1.4596 B( 78-C , 91-C ) :  -0.3120 B( 79-C , 80-C ) :   1.3100 
B( 79-C , 81-C ) :  -0.1571 B( 79-C , 88-H ) :   0.9442 B( 80-C , 81-C ) :   1.0743 
B( 80-C , 82-C ) :  -0.1439 B( 80-C , 90-C ) :   0.1046 B( 81-C , 82-C ) :   1.2629 
B( 82-C , 89-H ) :   0.9438 B( 90-C , 91-C ) :   1.8503 B( 90-C , 92-C ) :  -0.4835 
B( 91-C , 92-C ) :   1.5414 B( 92-C , 93-C ) :   1.3482 B( 92-C , 97-C ) :   1.2794 
B( 93-C , 94-C ) :   1.4828 B( 93-C , 98-H ) :   0.9248 B( 94-C , 95-C ) :   1.3950 
B( 94-C , 99-H ) :   0.8768 B( 95-C , 96-N ) :   1.3624 B( 95-C ,100-H ) :   0.9213 
B( 96-N , 97-C ) :   1.3703 B( 96-N ,161-N ) :   0.1000 B( 97-C ,101-H ) :   0.9561 
B(102-C ,103-C ) :   1.8841 B(102-C ,104-C ) :  -0.3332 B(102-C ,120-C ) :   1.5391 
B(102-C ,132-C ) :  -0.1398 B(103-C ,104-C ) :   1.4608 B(103-C ,113-C ) :  -0.2143 
B(103-C ,120-C ) :  -0.3855 B(103-C ,132-C ) :   0.1189 B(104-C ,105-C ) :   1.5915 
B(104-C ,113-C ) :   1.0879 B(105-C ,106-C ) :   1.3980 B(105-C ,114-H ) :   0.8502 
B(106-C ,107-C ) :   1.6278 B(106-C ,115-H ) :   0.8818 B(107-C ,108-C ) :   1.3577 
B(107-C ,113-C ) :  -0.1221 B(107-C ,116-H ) :   0.8631 B(108-C ,109-C ) :   1.2890 
B(108-C ,112-C ) :  -0.1049 B(108-C ,113-C ) :   1.0481 B(109-C ,110-C ) :   1.5586 
B(109-C ,117-H ) :   0.8831 B(110-C ,111-N ) :   1.2563 B(110-C ,118-H ) :   0.9229 
B(111-N ,112-C ) :   1.4326 B(112-C ,113-C ) :   1.4119 B(112-C ,119-H ) :   0.8755 
B(120-C ,121-C ) :   1.3136 B(120-C ,132-C ) :   1.3161 B(121-C ,122-C ) :   1.5888 
B(121-C ,133-H ) :   0.9029 B(122-C ,123-C ) :   1.3535 B(122-C ,134-H ) :   0.8578 
B(123-C ,124-N ) :   1.1393 B(123-C ,125-C ) :   0.1138 B(123-C ,130-C ) :  -0.1094 
B(123-C ,131-C ) :   1.2376 B(124-N ,125-C ) :   1.2086 B(124-N ,135-H ) :   0.7981 
B(125-C ,126-C ) :   1.3051 B(125-C ,130-C ) :   1.2309 B(126-C ,127-C ) :   1.5741 
B(126-C ,136-H ) :   0.8554 B(127-C ,128-C ) :   1.2700 B(127-C ,137-H ) :   0.9022 
B(128-C ,129-C ) :   1.3100 B(128-C ,140-C ) :   1.4526 B(128-C ,141-C ) :  -0.3127 
B(129-C ,130-C ) :   1.3105 B(129-C ,131-C ) :  -0.1537 B(129-C ,138-H ) :   0.9430 
B(130-C ,131-C ) :   1.0657 B(130-C ,132-C ) :  -0.1380 B(130-C ,140-C ) :   0.1132 
B(131-C ,132-C ) :   1.2603 B(132-C ,139-H ) :   0.9445 B(140-C ,141-C ) :   1.8617 
B(140-C ,142-C ) :  -0.4790 B(141-C ,142-C ) :   1.5403 B(142-C ,143-C ) :   1.3468 
B(142-C ,147-C ) :   1.2818 B(143-C ,144-C ) :   1.4840 B(143-C ,148-H ) :   0.9254 
B(144-C ,145-C ) :   1.3929 B(144-C ,149-H ) :   0.8769 B(145-C ,146-N ) :   1.3618 
B(145-C ,150-H ) :   0.9216 B(146-N ,147-C ) :   1.3710 B(147-C ,151-H ) :   0.9538 
B(152-C ,153-C ) :   1.8803 B(152-C ,154-C ) :  -0.2805 B(152-C ,170-C ) :   1.5443 
B(152-C ,182-C ) :  -0.1326 B(153-C ,154-C ) :   1.4417 B(153-C ,155-C ) :  -0.1004 
B(153-C ,163-C ) :  -0.2251 B(153-C ,170-C ) :  -0.4254 B(153-C ,182-C ) :   0.1071 
B(154-C ,155-C ) :   1.5895 B(154-C ,163-C ) :   1.0797 B(155-C ,156-C ) :   1.4024 
B(155-C ,164-H ) :   0.8509 B(156-C ,157-C ) :   1.6239 B(156-C ,165-H ) :   0.8804 
B(157-C ,158-C ) :   1.3543 B(157-C ,163-C ) :  -0.1184 B(157-C ,166-H ) :   0.8649 
B(158-C ,159-C ) :   1.2743 B(158-C ,160-C ) :   0.1000 B(158-C ,162-C ) :  -0.1103 
B(158-C ,163-C ) :   1.0559 B(159-C ,160-C ) :   1.5735 B(159-C ,167-H ) :   0.8834 
B(160-C ,161-N ) :   1.2525 B(160-C ,168-H ) :   0.9166 B(161-N ,162-C ) :   1.4303 
B(162-C ,163-C ) :   1.3627 B(162-C ,169-H ) :   0.8963 B(170-C ,171-C ) :   1.3152 
B(170-C ,182-C ) :   1.3539 B(171-C ,172-C ) :   1.5693 B(171-C ,183-H ) :   0.9043 
B(172-C ,173-C ) :   1.3522 B(172-C ,184-H ) :   0.8612 B(173-C ,174-N ) :   1.1430 
B(173-C ,175-C ) :   0.1125 B(173-C ,180-C ) :  -0.1001 B(173-C ,181-C ) :   1.2560 
B(174-N ,175-C ) :   1.1622 B(174-N ,185-H ) :   0.8056 B(175-C ,176-C ) :   1.3330 
B(175-C ,180-C ) :   1.2479 B(175-C ,181-C ) :  -0.1077 B(176-C ,177-C ) :   1.5859 
B(176-C ,186-H ) :   0.8583 B(177-C ,178-C ) :   1.2479 B(177-C ,187-H ) :   0.9136 
B(178-C ,179-C ) :   1.3068 B(178-C ,190-C ) :   1.4504 B(178-C ,191-C ) :  -0.3816 
B(179-C ,180-C ) :   1.2924 B(179-C ,181-C ) :  -0.1399 B(179-C ,188-H ) :   0.9462 
B(180-C ,181-C ) :   1.0375 B(180-C ,182-C ) :  -0.1426 B(181-C ,182-C ) :   1.2781 
B(182-C ,189-H ) :   0.9337 B(190-C ,191-C ) :   1.8376 B(190-C ,192-C ) :  -0.3288 
B(191-C ,192-C ) :   1.4487 B(192-C ,193-C ) :   1.3407 B(192-C ,197-C ) :   1.2632 
B(193-C ,194-C ) :   1.4880 B(193-C ,198-H ) :   0.9221 B(194-C ,195-C ) :   1.3925 
B(194-C ,199-H ) :   0.8757 B(195-C ,196-N ) :   1.3488 B(195-C ,200-H ) :   0.9246 
B(196-N ,197-C ) :   1.3870 B(197-C ,201-H ) :   0.9530 

-------
TIMINGS
-------

Total SCF time: 0 days 0 hours 14 min 29 sec 

Total time                  ....     869.818 sec
Sum of individual times     ....     851.073 sec  ( 97.8%)

Fock matrix formation       ....     284.812 sec  ( 32.7%)
  Split-RI-J                ....     144.435 sec  ( 50.7% of F)
  XC integration            ....     122.190 sec  ( 42.9% of F)
    Basis function eval.    ....      22.871 sec  ( 18.7% of XC)
    Density eval.           ....      53.079 sec  ( 43.4% of XC)
    XC-Functional eval.     ....       6.883 sec  (  5.6% of XC)
    XC-Potential eval.      ....      20.265 sec  ( 16.6% of XC)
Diagonalization             ....      79.957 sec  (  9.2%)
Density matrix formation    ....       3.888 sec  (  0.4%)
Population analysis         ....      17.357 sec  (  2.0%)
Initial guess               ....      16.964 sec  (  2.0%)
Orbital Transformation      ....       0.000 sec  (  0.0%)
Orbital Orthonormalization  ....       0.000 sec  (  0.0%)
DIIS solution               ....     397.044 sec  ( 45.6%)
Grid generation             ....      51.050 sec  (  5.9%)


-------------------------------------------------------------------------------
                          DFT DISPERSION CORRECTION                            
                                                                               
                              DFTD3 V3.1  Rev 1                                
                          USING Becke-Johnson damping                          
-------------------------------------------------------------------------------
The B97-3c composite method is recognized
Using three-body term ABC
Active option DFTDOPT                   ...         4   

molecular C6(AA) [au] = 642688.491642 


            DFT-D V3
 parameters
 s6 scaling factor         :     1.0000 
 a1 scaling factor         :     0.3700 
 s8 scaling factor         :     1.5000 
 a2 scaling factor         :     4.1000 
 Damping factor alpha9(ATM):    16.0000 
 ad hoc parameters k1-k3   :    16.0000     1.3333    -4.0000 

 Edisp/kcal,au: -493.937713888186  -0.787139766992 
 E6   /kcal   : -245.728660615 
 E8   /kcal   : -250.169850398 
 E6(ABC)      :   1.960797125 
 % E8         :  50.648056094 
 % E6(ABC)    :  -0.396972547 

-------------------------   ----------------
Dispersion correction           -0.787139767
-------------------------   ----------------

------------------   -----------------
SRB correction            -0.827988705
------------------   -----------------

-------------------------   --------------------
FINAL SINGLE POINT ENERGY     -5523.458139481415
-------------------------   --------------------


                            ***************************************
                            *     ORCA property calculations      *
                            ***************************************

                                    ---------------------
                                    Active property flags
                                    ---------------------
   (+) Dipole Moment


------------------------------------------------------------------------------
                       ORCA ELECTRIC PROPERTIES CALCULATION
------------------------------------------------------------------------------

Dipole Moment Calculation                       ... on
Quadrupole Moment Calculation                   ... off
Polarizability Calculation                      ... off
GBWName                                         ... _s_4c3_c_B97-3c.gbw
Electron density file                           ... _s_4c3_c_B97-3c.scfp
The origin for moment calculation is the CENTER OF MASS  = ( 0.027630, -0.231036 -0.156279)

-------------
DIPOLE MOMENT
-------------
                                X             Y             Z
Electronic contribution:     50.03850       2.39795     -51.37563
Nuclear contribution   :    -49.60636      -2.35779      50.89903
                        -----------------------------------------
Total Dipole Moment    :      0.43214       0.04016      -0.47660
                        -----------------------------------------
Magnitude (a.u.)       :      0.64459
Magnitude (Debye)      :      1.63843



--------------------
Rotational spectrum 
--------------------
 
Rotational constants in cm-1:     0.000347     0.000212     0.000209 
Rotational constants in MHz :    10.411130     6.344918     6.256689 

 Dipole components along the rotational axes: 
x,y,z [a.u.] :    -0.011364     0.621725     0.169798 
x,y,z [Debye]:    -0.028884     1.580298     0.431593 

 

Timings for individual modules:

Sum of individual times         ...      901.012 sec (=  15.017 min)
GTO integral calculation        ...       26.524 sec (=   0.442 min)   2.9 %
SCF iterations                  ...      874.488 sec (=  14.575 min)  97.1 %
                             ****ORCA TERMINATED NORMALLY****
TOTAL RUN TIME: 0 days 0 hours 15 minutes 11 seconds 649 msec
