Job execution start: Tue Jun 22 09:52:04 BST 2021
Shared library path: /work/e05/e05/atarzia/orca_4_2_1_linux_x86-64_openmpi314:/work/e05/e05/atarzia/openmpi-3.1.4/lib:/opt/cray/pe/papi/6.0.0.4/lib64:/opt/cray/libfabric/1.11.0.0.233/lib64
Slurm Job ID is: 344313
Slurm Job name is: s_4c1_b_PBE0
nid001164

                                 *****************
                                 * O   R   C   A *
                                 *****************

           --- An Ab Initio, DFT and Semiempirical electronic structure package ---

                  #######################################################
                  #                        -***-                        #
                  #          Department of theory and spectroscopy      #
                  #               Directorship: Frank Neese             #
                  #        Max Planck Institute fuer Kohlenforschung    #
                  #                Kaiser Wilhelm Platz 1               #
                  #                 D-45470 Muelheim/Ruhr               #
                  #                      Germany                        #
                  #                                                     #
                  #                  All rights reserved                #
                  #                        -***-                        #
                  #######################################################


                         Program Version 4.2.1 -  RELEASE  -


 With contributions from (in alphabetic order):
   Daniel Aravena         : Magnetic Suceptibility
   Michael Atanasov       : Ab Initio Ligand Field Theory (pilot matlab implementation)
   Alexander A. Auer      : GIAO ZORA, VPT2
   Ute Becker             : Parallelization
   Giovanni Bistoni       : ED, misc. LED, open-shell LED, HFLD
   Martin Brehm           : Molecular dynamics
   Dmytro Bykov           : SCF Hessian
   Vijay G. Chilkuri      : MRCI spin determinant printing, contributions to CSF-ICE
   Dipayan Datta          : RHF DLPNO-CCSD density
   Achintya Kumar Dutta   : EOM-CC, STEOM-CC
   Dmitry Ganyushin       : Spin-Orbit,Spin-Spin,Magnetic field MRCI
   Miquel Garcia          : C-PCM Hessian, Gaussian charge scheme
   Yang Guo               : DLPNO-NEVPT2, CIM, IAO-localization
   Andreas Hansen         : Spin unrestricted coupled pair/coupled cluster methods
   Benjamin Helmich-Paris : CASSCF linear response (MC-RPA)
   Lee Huntington         : MR-EOM, pCC
   Robert Izsak           : Overlap fitted RIJCOSX, COSX-SCS-MP3, EOM
   Christian Kollmar      : KDIIS, OOCD, Brueckner-CCSD(T), CCSD density
   Simone Kossmann        : Meta GGA functionals, TD-DFT gradient, OOMP2, MP2 Hessian
   Martin Krupicka        : AUTO-CI
   Lucas Lang             : DCDCAS
   Dagmar Lenk            : GEPOL surface, SMD
   Dimitrios Liakos       : Extrapolation schemes; Compound Job, initial MDCI parallelization
   Dimitrios Manganas     : Further ROCIS development; embedding schemes
   Dimitrios Pantazis     : SARC Basis sets
   Taras Petrenko         : DFT Hessian,TD-DFT gradient, ASA, ECA, R-Raman, ABS, FL, XAS/XES, NRVS
   Peter Pinski           : DLPNO-MP2, DLPNO-MP2 Gradient
   Christoph Reimann      : Effective Core Potentials
   Marius Retegan         : Local ZFS, SOC
   Christoph Riplinger    : Optimizer, TS searches, QM/MM, DLPNO-CCSD(T), (RO)-DLPNO pert. Triples
   Tobias Risthaus        : Range-separated hybrids, TD-DFT gradient, RPA, STAB
   Michael Roemelt        : Original ROCIS implementation
   Masaaki Saitow         : Open-shell DLPNO-CCSD energy and density
   Barbara Sandhoefer     : DKH picture change effects
   Avijit Sen             : IP-ROCIS
   Kantharuban Sivalingam : CASSCF convergence, NEVPT2, FIC-MRCI
   Bernardo de Souza      : ESD, SOC TD-DFT
   Georgi Stoychev        : AutoAux, RI-MP2 NMR
   Willem Van den Heuvel  : Paramagnetic NMR
   Boris Wezisla          : Elementary symmetry handling
   Frank Wennmohs         : Technical directorship


 We gratefully acknowledge several colleagues who have allowed us to
 interface, adapt or use parts of their codes:
   Stefan Grimme, W. Hujo, H. Kruse,             : VdW corrections, initial TS optimization,
                  C. Bannwarth                     DFT functionals, gCP, sTDA/sTD-DF
   Ed Valeev, F. Pavosevic, A. Kumar             : LibInt (2-el integral package), F12 methods
   Garnet Chan, S. Sharma, J. Yang, R. Olivares  : DMRG
   Ulf Ekstrom                                   : XCFun DFT Library
   Mihaly Kallay                                 : mrcc  (arbitrary order and MRCC methods)
   Andreas Klamt, Michael Diedenhofen            : otool_cosmo (COSMO solvation model)
   Jiri Pittner, Ondrej Demel                    : Mk-CCSD
   Frank Weinhold                                : gennbo (NPA and NBO analysis)
   Christopher J. Cramer and Donald G. Truhlar   : smd solvation model
   Lars Goerigk                                  : TD-DFT with DH, B97 family of functionals
   V. Asgeirsson, H. Jonsson                     : NEB implementation
   FAccTs GmbH                                   : IRC, NEB, NEB-TS, Multilevel, MM, QM/MM, CI optimization
   S Lehtola, MJT Oliveira, MAL Marques          : LibXC Library


 Your calculation uses the libint2 library for the computation of 2-el integrals
 For citations please refer to: http://libint.valeyev.net

 Your ORCA version has been built with support for libXC version: 4.2.3
 For citations please refer to: https://tddft.org/programs/libxc/

 This ORCA versions uses:
   CBLAS   interface :  Fast vector & matrix operations
   LAPACKE interface :  Fast linear algebra routines
   SCALAPACK package :  Parallel linear algebra routines




***************************************
The coordinates will be read from file: s_4c1_b.xyz
***************************************


Your calculation utilizes the atom-pairwise dispersion correction
with the Becke-Johnson damping scheme (D3BJ)
Cite in your paper:
S.Grimme, S.Ehrlich, L.Goerigk, J Comput Chem, (2011), 32, 1456–1465 
S.Grimme, J.Antony, S.Ehrlich and H.Krieg, J.Chem.Phys., 132, (2010), 154104 
   

----- Orbital basis set information -----
Your calculation utilizes the basis: def2-SVP
   F. Weigend and R. Ahlrichs, Phys. Chem. Chem. Phys. 7, 3297 (2005).

cite the ECPs for Pd [Def2-ECP] as follows:
Ce-Yb(ecp-28): M. Dolg, H. Stoll, H.Preuss, J. Chem. Phys., 1989, 90, 1730-1734.
Y-Cd(ecp-28), Hf-Hg(ecp-46): D. Andrae,U. Haeussermann, M. Dolg, H. Stoll, H. Preuss, Theor. Chim. Acta, 1990, 77, 123-141.
In-Sb(ecp-28), Tl-Bi(ecp-46): B. Metz, H. Stoll, M. Dolg, J. Chem. Phys., 2000, 113, 2563-2569.
Te-Xe(ecp-28), Po-Rn(ecp-46): K. A. Peterson, D. Figgen, E. Goll, H. Stoll, M. Dolg, J. Chem. Phys., 2003, 119, 11113-11123.
Rb(ecp-28), Cs(ecp-46): T. Leininger, A. Nicklass, W. Kuechle, H. Stoll, M. Dolg, A. Bergner, Chem. Phys. Lett., 1996, 255, 274-280.
Sr(ecp-28), Ba(ecp-46): M. Kaupp, P. V. Schleyer, H. Stoll and H. Preuss, J. Chem. Phys., 1991, 94, 1360-1366.
La(ecp-46): M. Dolg, H. Stoll, A. Savin, H. Preuss, Theor. Chim. Acta, 1989, 75, 173-194.
Lu(ecp-28): X. Cao, M. Dolg, J. Chem. Phys., 2001, 115, 7348-7355.

ECP parameters for Pd [Def2-ECP] have been obtained from:
TURBOMOLE (7.0.2)

================================================================================
                                        WARNINGS
                       Please study these warnings very carefully!
================================================================================


INFO   : the flag for use of LIBINT has been found!

================================================================================
                                       INPUT FILE
================================================================================
NAME = s_4c1_b_PBE0.in
|  1> ! DFT SP RKS PBE0 def2-SVP D3BJ Grid6 NOFINALGRID SlowConv TightSCF printbasis 
|  2> 
|  3> %base "_s_4c1_b_PBE0"
|  4> %maxcore 3000
|  5> %scf
|  6>    MaxIter 2000
|  7> end
|  8> %pal
|  9>    nprocs 32
| 10> end
| 11> 
| 12> * xyzfile 4 1 s_4c1_b.xyz
| 13> 
| 14>                          ****END OF INPUT****
================================================================================

                       ****************************
                       * Single Point Calculation *
                       ****************************

---------------------------------
CARTESIAN COORDINATES (ANGSTROEM)
---------------------------------
  Pd     0.179700    6.477200    0.493900
  Pd     0.865400   -5.870100    0.485400
  C      4.988600   -1.591500    0.497600
  C      4.902200   -2.254300    1.506200
  C      4.934500   -3.103500    2.631700
  C      5.809100   -2.862600    3.673700
  C      5.961900   -3.788500    4.712500
  C      5.277300   -4.978600    4.709200
  C      4.360900   -5.256800    3.679000
  C      3.637500   -6.467300    3.587600
  C      2.731100   -6.646100    2.582500
  N      2.453000   -5.672700    1.679400
  C      3.142200   -4.547700    1.705400
  C      4.144500   -4.292100    2.653600
  H      6.401400   -1.960500    3.671700
  H      6.655600   -3.569900    5.510100
  H      5.434300   -5.709500    5.486800
  H      3.809500   -7.244400    4.315000
  H      2.187700   -7.578400    2.467700
  H      2.905000   -3.792200    0.959100
  C      5.189300   -0.889900   -0.712200
  C      5.950800   -1.530500   -1.707400
  C      6.256000   -0.899400   -2.892200
  C      5.778500    0.390000   -3.080800
  N      5.938700    1.229600   -4.153600
  C      5.298500    2.408500   -3.902200
  C      5.181000    3.546500   -4.688500
  C      4.466700    4.610400   -4.185700
  C      3.876500    4.578900   -2.908800
  C      3.987900    3.427900   -2.129600
  C      4.684000    2.340800   -2.627100
  C      4.992100    1.038000   -2.098300
  C      4.697600    0.396900   -0.904400
  H      6.316200   -2.528600   -1.521500
  H      6.856400   -1.389200   -3.642100
  H      6.537900    1.049300   -4.941900
  H      5.638400    3.602500   -5.664100
  H      4.343600    5.482700   -4.807100
  H      3.581100    3.381200   -1.133300
  H      4.115100    0.882300   -0.138500
  C      3.162800    5.757300   -2.411300
  C      3.466600    7.053500   -2.851600
  C      2.743500    8.135300   -2.382600
  C      1.742400    7.924900   -1.449000
  N      1.475800    6.698600   -0.994100
  C      2.144400    5.646100   -1.461500
  H      4.275500    7.215900   -3.545500
  H      2.960700    9.133300   -2.727500
  H      1.139700    8.738400   -1.050500
  H      1.844800    4.680600   -1.059600
  C      0.937500    2.684900    4.774400
  C      1.942400    3.325400    4.567000
  C      3.045100    4.185700    4.391700
  C      4.190700    4.059300    5.152300
  C      5.215700    5.009700    5.067400
  C      5.099600    6.111400    4.256100
  C      3.957400    6.271500    3.450500
  C      3.743000    7.388400    2.612000
  C      2.619800    7.456600    1.838400
  N      1.707300    6.452800    1.797900
  C      1.859200    5.408200    2.591400
  C      2.938100    5.277300    3.477500
  H      4.285200    3.231900    5.838400
  H      6.097400    4.882700    5.676900
  H      5.872700    6.863000    4.229900
  H      4.468200    8.186100    2.594000
  H      2.412300    8.319000    1.214800
  H      1.108700    4.621700    2.538100
  C     -0.255000    1.982600    5.053500
  C     -1.297100    2.676700    5.695200
  C     -2.480900    2.051400    6.019200
  C     -2.623500    0.712600    5.679200
  N     -3.688400   -0.128700    5.868000
  C     -3.380500   -1.364000    5.373800
  C     -4.140500   -2.526200    5.340800
  C     -3.575200   -3.651400    4.783000
  C     -2.271800   -3.645600    4.254500
  C     -1.518000   -2.474700    4.275700
  C     -2.070500   -1.334200    4.832600
  C     -1.583800    0.005100    5.026200
  C     -0.392000    0.640000    4.715400
  H     -1.151900    3.715400    5.950400
  H     -3.267900    2.585500    6.527800
  H     -4.540600    0.107500    6.349200
  H     -5.141800   -2.551700    5.741300
  H     -4.163400   -4.553800    4.728900
  H     -0.504400   -2.456300    3.909700
  H      0.413300    0.113800    4.229300
  C     -1.716600   -4.878700    3.692800
  C     -2.041800   -6.136300    4.216100
  C     -1.518000   -7.279900    3.640900
  C     -0.663800   -7.156900    2.558700
  N     -0.330800   -5.959100    2.070900
  C     -0.839100   -4.851900    2.607400
  H     -2.687600   -6.212600    5.076400
  H     -1.764000   -8.255000    4.029000
  H     -0.232800   -8.027100    2.068200
  H     -0.538900   -3.916500    2.140700
  C     -4.054200    2.433400    0.981200
  C     -3.901200    3.118700    1.966400
  C     -3.808200    3.978200    3.080200
  C     -4.676100    3.852700    4.146900
  C     -4.660900    4.775300    5.199700
  C     -3.802500    5.846200    5.194200
  C     -2.901300    6.016200    4.127700
  C     -2.019000    7.115900    4.026800
  C     -1.176300    7.219400    2.957600
  N     -1.121500    6.267700    1.991900
  C     -1.934200    5.229300    2.048100
  C     -2.875600    5.058500    3.073300
  H     -5.391100    3.044800    4.153200
  H     -5.356000    4.650000    6.016400
  H     -3.816000    6.570700    5.993300
  H     -2.026800    7.874100    4.793500
  H     -0.505400    8.064800    2.831900
  H     -1.854000    4.484400    1.258600
  C     -4.299200    1.722500   -0.214900
  C     -5.022500    2.387000   -1.222900
  C     -5.332700    1.762800   -2.410100
  C     -4.898700    0.456300   -2.590100
  N     -5.064400   -0.373000   -3.667200
  C     -4.477100   -1.576500   -3.403400
  C     -4.400000   -2.716700   -4.192600
  C     -3.753800   -3.816600   -3.675000
  C     -3.175200   -3.802100   -2.393500
  C     -3.239300   -2.651500   -1.611000
  C     -3.892700   -1.536900   -2.111500
  C     -4.163000   -0.223300   -1.587000
  C     -3.864300    0.412400   -0.390600
  H     -5.349100    3.400700   -1.047700
  H     -5.903400    2.271200   -3.171100
  H     -5.583300   -0.150800   -4.500700
  H     -4.836200   -2.744500   -5.178900
  H     -3.667600   -4.703400   -4.283000
  H     -2.832700   -2.634300   -0.613100
  H     -3.317500   -0.090700    0.390400
  C     -2.517300   -5.014400   -1.898100
  C     -3.011700   -6.290100   -2.198600
  C     -2.351600   -7.413600   -1.734900
  C     -1.209200   -7.254100   -0.968900
  N     -0.742400   -6.041100   -0.668400
  C     -1.366100   -4.951000   -1.113200
  H     -3.916400   -6.394800   -2.776400
  H     -2.719800   -8.401600   -1.958600
  H     -0.651700   -8.104800   -0.585700
  H     -0.916800   -3.997800   -0.841700
  C     -0.602400    2.649600   -3.954800
  C     -1.547000    3.352400   -3.674100
  C     -2.640400    4.216700   -3.456600
  C     -3.777200    4.116200   -4.234900
  C     -4.820700    5.040600   -4.110600
  C     -4.738700    6.091200   -3.231300
  C     -3.599600    6.237100   -2.419100
  C     -3.423400    7.311900   -1.518200
  C     -2.292600    7.387200   -0.756300
  N     -1.330300    6.433500   -0.806300
  C     -1.452200    5.422200   -1.645500
  C     -2.550200    5.276800   -2.505300
  H     -3.847400    3.325200   -4.965100
  H     -5.693900    4.933200   -4.736500
  H     -5.533300    6.817200   -3.160200
  H     -4.184800    8.071900   -1.444300
  H     -2.113500    8.209900   -0.070500
  H     -0.660000    4.675700   -1.656500
  C      0.545900    1.965800   -4.417000
  C      1.340200    2.656100   -5.352300
  C      2.451300    2.071900   -5.914400
  C      2.769500    0.779300   -5.523200
  N      3.808400   -0.013400   -5.934500
  C      3.732200   -1.218400   -5.299800
  C      4.563900   -2.324400   -5.403700
  C      4.256300   -3.435300   -4.653400
  C      3.133400   -3.475600   -3.806900
  C      2.316200   -2.352200   -3.687900
  C      2.615100   -1.218100   -4.426600
  C      1.993800    0.075700   -4.569600
  C      0.870500    0.674400   -4.013800
  H      1.054500    3.655900   -5.640200
  H      3.047100    2.598000   -6.643200
  H      4.447200    0.213100   -6.678600
  H      5.421800   -2.319600   -6.058000
  H      4.913900   -4.288300   -4.703900
  H      1.434300   -2.366200   -3.069400
  H      0.254800    0.152700   -3.299500
  C      2.847300   -4.717000   -3.080900
  C      3.197000   -5.967600   -3.610000
  C      2.963500   -7.120900   -2.883300
  C      2.356600   -7.023300   -1.642700
  N      1.983300   -5.840100   -1.150900
  C      2.219400   -4.720600   -1.834100
  H      3.633800   -6.036500   -4.593400
  H      3.239600   -8.085400   -3.277500
  H      2.160600   -7.898100   -1.025300
  H      1.904200   -3.794700   -1.358800

----------------------------
CARTESIAN COORDINATES (A.U.)
----------------------------
  NO LB      ZA    FRAG     MASS         X           Y           Z
   0 Pd   18.0000*   0   106.400    0.339584   12.240134    0.933336
   1 Pd   18.0000*   0   106.400    1.635369  -11.092881    0.917273
   2 C     6.0000    0    12.011    9.427088   -3.007499    0.940328
   3 C     6.0000    0    12.011    9.263815   -4.260010    2.846306
   4 C     6.0000    0    12.011    9.324854   -5.864765    4.973192
   5 C     6.0000    0    12.011   10.977608   -5.409530    6.942287
   6 C     6.0000    0    12.011   11.266358   -7.159227    8.905334
   7 C     6.0000    0    12.011    9.972652   -9.408191    8.899098
   8 C     6.0000    0    12.011    8.240907   -9.933912    6.952302
   9 C     6.0000    0    12.011    6.873879  -12.221426    6.779581
  10 C     6.0000    0    12.011    5.161031  -12.559309    4.880218
  11 N     7.0000    0    14.007    4.635498  -10.719849    3.173606
  12 C     6.0000    0    12.011    5.937897   -8.593908    3.222739
  13 C     6.0000    0    12.011    7.831970   -8.110894    5.014577
  14 H     1.0000    0     1.008   12.096893   -3.704808    6.938507
  15 H     1.0000    0     1.008   12.577261   -6.746133   10.412580
  16 H     1.0000    0     1.008   10.269339  -10.789391   10.368549
  17 H     1.0000    0     1.008    7.198912  -13.689932    8.154168
  18 H     1.0000    0     1.008    4.134154  -14.321101    4.663277
  19 H     1.0000    0     1.008    5.489654   -7.166219    1.812436
  20 C     6.0000    0    12.011    9.806356   -1.681667   -1.345863
  21 C     6.0000    0    12.011   11.245382   -2.892226   -3.226518
  22 C     6.0000    0    12.011   11.822127   -1.699620   -5.465466
  23 C     6.0000    0    12.011   10.919782    0.736993   -5.821868
  24 N     7.0000    0    14.007   11.222517    2.323607   -7.849166
  25 C     6.0000    0    12.011   10.012714    4.551405   -7.374089
  26 C     6.0000    0    12.011    9.790671    6.701914   -8.859981
  27 C     6.0000    0    12.011    8.440840    8.712393   -7.909827
  28 C     6.0000    0    12.011    7.325523    8.652867   -5.496835
  29 C     6.0000    0    12.011    7.536039    6.477792   -4.024361
  30 C     6.0000    0    12.011    8.851477    4.423471   -4.964500
  31 C     6.0000    0    12.011    9.433702    1.961536   -3.965212
  32 C     6.0000    0    12.011    8.877177    0.750032   -1.709068
  33 H     1.0000    0     1.008   11.935888   -4.778362   -2.875218
  34 H     1.0000    0     1.008   12.956718   -2.625208   -6.882572
  35 H     1.0000    0     1.008   12.354840    1.982890   -9.338838
  36 H     1.0000    0     1.008   10.655032    6.807738  -10.703598
  37 H     1.0000    0     1.008    8.208214   10.360801   -9.084102
  38 H     1.0000    0     1.008    6.767298    6.389542   -2.141627
  39 H     1.0000    0     1.008    7.776412    1.667305   -0.261727
  40 C     6.0000    0    12.011    5.976826   10.879720   -4.556697
  41 C     6.0000    0    12.011    6.550925   13.329183   -5.388743
  42 C     6.0000    0    12.011    5.184464   15.373489   -4.502461
  43 C     6.0000    0    12.011    3.292659   14.975891   -2.738213
  44 N     7.0000    0    14.007    2.788858   12.658519   -1.878577
  45 C     6.0000    0    12.011    4.052329   10.669583   -2.761835
  46 H     1.0000    0     1.008    8.079524   13.636075   -6.700024
  47 H     1.0000    0     1.008    5.594912   17.259436   -5.154228
  48 H     1.0000    0     1.008    2.153721   16.513183   -1.985157
  49 H     1.0000    0     1.008    3.486167    8.845052   -2.002354
  50 C     6.0000    0    12.011    1.771618    5.073726    9.022308
  51 C     6.0000    0    12.011    3.670604    6.284095    8.630379
  52 C     6.0000    0    12.011    5.754405    7.909827    8.299110
  53 C     6.0000    0    12.011    7.919275    7.670965    9.736436
  54 C     6.0000    0    12.011    9.856245    9.466961    9.575998
  55 C     6.0000    0    12.011    9.636847   11.548872    8.042863
  56 C     6.0000    0    12.011    7.478402   11.851417    6.520500
  57 C     6.0000    0    12.011    7.073245   13.962053    4.935965
  58 C     6.0000    0    12.011    4.950705   14.090932    3.474073
  59 N     7.0000    0    14.007    3.226329   12.194025    3.397539
  60 C     6.0000    0    12.011    3.513379   10.220017    4.897036
  61 C     6.0000    0    12.011    5.552204    9.972652    6.571523
  62 H     1.0000    0     1.008    8.097854    6.107406   11.032977
  63 H     1.0000    0     1.008   11.522416    9.226966   10.727786
  64 H     1.0000    0     1.008   11.097795   12.969190    7.993353
  65 H     1.0000    0     1.008    8.443674   15.469487    4.901950
  66 H     1.0000    0     1.008    4.558586   15.720632    2.295639
  67 H     1.0000    0     1.008    2.095139    8.733747    4.796314
  68 C     6.0000    0    12.011   -0.481880    3.746571    9.549731
  69 C     6.0000    0    12.011   -2.451164    5.058230   10.762368
  70 C     6.0000    0    12.011   -4.688222    3.876584   11.374640
  71 C     6.0000    0    12.011   -4.957697    1.346619   10.732133
  72 N     7.0000    0    14.007   -6.970066   -0.243208   11.088913
  73 C     6.0000    0    12.011   -6.388219   -2.577586   10.155010
  74 C     6.0000    0    12.011   -7.824411   -4.773826   10.092649
  75 C     6.0000    0    12.011   -6.756149   -6.900146    9.038560
  76 C     6.0000    0    12.011   -4.293080   -6.889186    8.039840
  77 C     6.0000    0    12.011   -2.868604   -4.676505    8.079902
  78 C     6.0000    0    12.011   -3.912678   -2.521273    9.132291
  79 C     6.0000    0    12.011   -2.992948    0.009638    9.498141
  80 C     6.0000    0    12.011   -0.740773    1.209425    8.910815
  81 H     1.0000    0     1.008   -2.176776    7.021088   11.244626
  82 H     1.0000    0     1.008   -6.175436    4.885887   12.335754
  83 H     1.0000    0     1.008   -8.580490    0.203146   11.998249
  84 H     1.0000    0     1.008   -9.716594   -4.822014   10.849485
  85 H     1.0000    0     1.008   -7.867686   -8.605435    8.936326
  86 H     1.0000    0     1.008   -0.953178   -4.641734    7.388262
  87 H     1.0000    0     1.008    0.781024    0.215051    7.992219
  88 C     6.0000    0    12.011   -3.243904   -9.219407    6.978381
  89 C     6.0000    0    12.011   -3.858443  -11.595926    7.967274
  90 C     6.0000    0    12.011   -2.868604  -13.757017    6.880304
  91 C     6.0000    0    12.011   -1.254400  -13.524581    4.835242
  92 N     7.0000    0    14.007   -0.625121  -11.261067    3.913434
  93 C     6.0000    0    12.011   -1.585669   -9.168762    4.927272
  94 H     1.0000    0     1.008   -5.078828  -11.740113    9.593006
  95 H     1.0000    0     1.008   -3.333477  -15.599689    7.613707
  96 H     1.0000    0     1.008   -0.439928  -15.169021    3.908332
  97 H     1.0000    0     1.008   -1.018373   -7.401112    4.045337
  98 C     6.0000    0    12.011   -7.661328    4.598460    1.854199
  99 C     6.0000    0    12.011   -7.372200    5.893489    3.715957
 100 C     6.0000    0    12.011   -7.196455    7.517709    5.820734
 101 C     6.0000    0    12.011   -8.836548    7.280548    7.836505
 102 C     6.0000    0    12.011   -8.807825    9.024009    9.826009
 103 C     6.0000    0    12.011   -7.185684   11.047717    9.815615
 104 C     6.0000    0    12.011   -5.482662   11.368970    7.800223
 105 C     6.0000    0    12.011   -3.815357   13.447102    7.609549
 106 C     6.0000    0    12.011   -2.222885   13.642689    5.589054
 107 N     7.0000    0    14.007   -2.119328   11.844236    3.764145
 108 C     6.0000    0    12.011   -3.655108    9.881945    3.870348
 109 C     6.0000    0    12.011   -5.434096    9.559180    5.807695
 110 H     1.0000    0     1.008  -10.187703    5.753838    7.848411
 111 H     1.0000    0     1.008  -10.121373    8.787227   11.369348
 112 H     1.0000    0     1.008   -7.211195   12.416824   11.325696
 113 H     1.0000    0     1.008   -3.830097   14.879893    9.058402
 114 H     1.0000    0     1.008   -0.955068   15.240263    5.351515
 115 H     1.0000    0     1.008   -3.503552    8.474288    2.378409
 116 C     6.0000    0    12.011   -8.124311    3.255053   -0.406102
 117 C     6.0000    0    12.011   -9.491150    4.510776   -2.310946
 118 C     6.0000    0    12.011  -10.077343    3.331209   -4.554429
 119 C     6.0000    0    12.011   -9.257201    0.862282   -4.894580
 120 N     7.0000    0    14.007   -9.570329   -0.704868   -6.930004
 121 C     6.0000    0    12.011   -8.460493   -2.979153   -6.431494
 122 C     6.0000    0    12.011   -8.314795   -5.133819   -7.922866
 123 C     6.0000    0    12.011   -7.093654   -7.212329   -6.944744
 124 C     6.0000    0    12.011   -6.000258   -7.184928   -4.523060
 125 C     6.0000    0    12.011   -6.121390   -5.010609   -3.044349
 126 C     6.0000    0    12.011   -7.356137   -2.904320   -3.990157
 127 C     6.0000    0    12.011   -7.866930   -0.421976   -2.998995
 128 C     6.0000    0    12.011   -7.302469    0.779323   -0.738127
 129 H     1.0000    0     1.008  -10.108334    6.426392   -1.979866
 130 H     1.0000    0     1.008  -11.155809    4.291946   -5.992511
 131 H     1.0000    0     1.008  -10.550908   -0.284971   -8.505090
 132 H     1.0000    0     1.008   -9.139094   -5.186353   -9.786703
 133 H     1.0000    0     1.008   -6.930760   -8.888138   -8.093697
 134 H     1.0000    0     1.008   -5.353027   -4.978106   -1.158591
 135 H     1.0000    0     1.008   -6.269166   -0.171398    0.737749
 136 C     6.0000    0    12.011   -4.757008   -9.475843   -3.586889
 137 C     6.0000    0    12.011   -5.691288  -11.886566   -4.154752
 138 C     6.0000    0    12.011   -4.443880  -14.009674   -3.278486
 139 C     6.0000    0    12.011   -2.285057  -13.708262   -1.830956
 140 N     7.0000    0    14.007   -1.402933  -11.416025   -1.263093
 141 C     6.0000    0    12.011   -2.581555   -9.356034   -2.103643
 142 H     1.0000    0     1.008   -7.400923  -12.084421   -5.246636
 143 H     1.0000    0     1.008   -5.139677  -15.876723   -3.701218
 144 H     1.0000    0     1.008   -1.231535  -15.315852   -1.106813
 145 H     1.0000    0     1.008   -1.732501   -7.554747   -1.590582
 146 C     6.0000    0    12.011   -1.138371    5.007018   -7.473489
 147 C     6.0000    0    12.011   -2.923406    6.335118   -6.943043
 148 C     6.0000    0    12.011   -4.989633    7.968408   -6.532027
 149 C     6.0000    0    12.011   -7.137874    7.778491   -8.002801
 150 C     6.0000    0    12.011   -9.109803    9.525354   -7.767908
 151 C     6.0000    0    12.011   -8.954845   11.510700   -6.106272
 152 C     6.0000    0    12.011   -6.802258   11.786411   -4.571436
 153 C     6.0000    0    12.011   -6.469288   13.817489   -2.868982
 154 C     6.0000    0    12.011   -4.332386   13.959785   -1.429200
 155 N     7.0000    0    14.007   -2.513903   12.157553   -1.523686
 156 C     6.0000    0    12.011   -2.744260   10.246473   -3.109544
 157 C     6.0000    0    12.011   -4.819180    9.971707   -4.734331
 158 H     1.0000    0     1.008   -7.270532    6.283717   -9.382679
 159 H     1.0000    0     1.008  -10.759912    9.322397   -8.950688
 160 H     1.0000    0     1.008  -10.456422   12.882641   -5.971913
 161 H     1.0000    0     1.008   -7.908126   15.253680   -2.729331
 162 H     1.0000    0     1.008   -3.993936   15.514463   -0.133226
 163 H     1.0000    0     1.008   -1.247219    8.835792   -3.130331
 164 C     6.0000    0    12.011    1.031601    3.714824   -8.346920
 165 C     6.0000    0    12.011    2.532611    5.019302  -10.114381
 166 C     6.0000    0    12.011    4.632286    3.915324  -11.176596
 167 C     6.0000    0    12.011    5.233597    1.472664  -10.437335
 168 N     7.0000    0    14.007    7.196833   -0.025322  -11.214580
 169 C     6.0000    0    12.011    7.052836   -2.302442  -10.015171
 170 C     6.0000    0    12.011    8.624521   -4.392479  -10.211513
 171 C     6.0000    0    12.011    8.043241   -6.491776   -8.793652
 172 C     6.0000    0    12.011    5.921268   -6.567932   -7.193998
 173 C     6.0000    0    12.011    4.376984   -4.445014   -6.969121
 174 C     6.0000    0    12.011    4.941823   -2.301875   -8.365062
 175 C     6.0000    0    12.011    3.767736    0.143052   -8.635293
 176 C     6.0000    0    12.011    1.645007    1.274431   -7.584983
 177 H     1.0000    0     1.008    1.992716    6.908650  -10.658433
 178 H     1.0000    0     1.008    5.758185    4.909508  -12.553829
 179 H     1.0000    0     1.008    8.403990    0.402701  -12.620725
 180 H     1.0000    0     1.008   10.245717   -4.383409  -11.447961
 181 H     1.0000    0     1.008    9.285925   -8.103713   -8.889083
 182 H     1.0000    0     1.008    2.710434   -4.471470   -5.800325
 183 H     1.0000    0     1.008    0.481502    0.288561   -6.235151
 184 C     6.0000    0    12.011    5.380617   -8.913838   -5.822057
 185 C     6.0000    0    12.011    6.041454  -11.277130   -6.821911
 186 C     6.0000    0    12.011    5.600203  -13.456551   -5.448647
 187 C     6.0000    0    12.011    4.453329  -13.272114   -3.104253
 188 N     7.0000    0    14.007    3.747894  -11.036190   -2.174886
 189 C     6.0000    0    12.011    4.194058   -8.920641   -3.465947
 190 H     1.0000    0     1.008    6.866887  -11.407332   -8.680268
 191 H     1.0000    0     1.008    6.121957  -15.279192   -6.193577
 192 H     1.0000    0     1.008    4.082942  -14.925246   -1.937536
 193 H     1.0000    0     1.008    3.598417   -7.170944   -2.567760
* core charge reduced due to ECP

--------------------------------
INTERNAL COORDINATES (ANGSTROEM)
--------------------------------
 Pd     0   0   0     0.000000000000     0.00000000     0.00000000
 Pd     1   0   0    12.366328235576     0.00000000     0.00000000
 C      2   1   0     5.941998404577    47.11901256     0.00000000
 C      3   2   1     1.209976346876    63.75104328   111.55442051
 C      4   3   2     1.410295777488   173.43593656   103.14985284
 C      5   4   3     1.381565043709   120.75810992    78.20018195
 C      6   5   4     1.399908600588   120.89299578   187.92389322
 C      7   6   5     1.372962512234   121.13796306     1.84351192
 C      8   7   6     1.406590288606   119.87178719   357.21014600
 C      9   8   7     1.413142515814   123.38783589   178.66327901
 C     10   9   8     1.365194641800   119.97894620   177.77117833
 N     11  10   9     1.356626986316   122.15661265   357.40637541
 C     12  11  10     1.319582373329   119.44120051     4.93203318
 C     13  12  11     1.403217691593   122.79735745   358.55651720
 H      6   5   4     1.079169912479   119.45946639     6.25567850
 H      7   6   5     1.079431058475   118.98024834   179.86036261
 H      8   7   6     1.078668424494   120.86645851   177.00094603
 H     10   9   8     1.078229646226   119.47703833   357.65857299
 H     11  10   9     1.085193941192   121.52433135   177.79490524
 H     13  12  11     1.088121215674   117.68218897   179.14602161
 C      3   2   1     1.412847865129   117.02542358   285.83875521
 C     21   3   2     1.407364078695   117.15113838   281.72670519
 C     22  21   3     1.376657288507   121.32400953   183.29680290
 C     23  22  21     1.387850341355   117.81305174   359.48851476
 N     24  23  22     1.371674903175   129.40355869   179.88709039
 C     25  24  23     1.364867469757   109.26007118   180.24333081
 C     26  25  24     1.388206735324   130.04874903   180.26842307
 C     27  26  25     1.376559312198   118.07339542   179.90756836
 C     28  27  26     1.407054334416   122.12897905     0.77995444
 C     29  28  27     1.394404388978   119.47760028   358.60856392
 C     30  29  28     1.383418906189   119.20143627     0.32493048
 C     24  23  22     1.415498219709   121.47569736   359.40593141
 C     32  24  23     1.386772032455   120.25925400     1.03501726
 H     22  21   3     1.079017877516   118.84522358     2.00877214
 H     23  22  21     1.078301539459   120.91275988   178.77836683
 H     25  24  23     1.006461931719   124.92180044   352.55472693
 H     27  26  25     1.078956032468   121.25321787   359.61161473
 H     28  27  26     1.078053273266   118.29918669   182.12655580
 H     30  29  28     1.077163320950   121.49810470   177.65126060
 H     33  32  24     1.077739402639   121.22385076   178.89891574
 C     29  28  27     1.464752709504   119.64337394   178.13840583
 C     41  29  28     1.402245688173   122.10356591   333.58856132
 C     42  41  29     1.383157926630   120.21469148   178.25674359
 C     43  42  41     1.384947049529   119.18625709     1.68076412
 N     44  43  42     1.334848777952   120.90795876     0.42492231
 C     45  44  43     1.331632445534   120.41205582   358.00354583
 H     42  41  29     1.078049247484   120.25968977   357.25913761
 H     43  42  41     1.078024048897   120.68042463   180.94314867
 H     44  43  42     1.088040343921   122.25674651   180.32580718
 H     46  45  44     1.087875921234   115.69155167   181.76237667
 C      1   2   3     5.768750330878    48.45951224   277.39334463
 C     51   1   2     1.209578033861    68.51874949   110.12840232
 C     52  51   1     1.409536615346   173.96088396    74.24517471
 C     53  52  51     1.380901401259   121.64409487   105.92857726
 C     54  53  52     1.400390363434   120.77742621   187.04367072
 C     55  54  53     1.373109533140   121.22870593     1.77122870
 C     56  55  54     1.406856144032   119.88674011   357.42733158
 C     57  56  55     1.412980969440   123.57002091   178.44764451
 C     58  57  56     1.365535221076   120.03129761   178.62569169
 N     59  58  57     1.357170195664   122.20845397   357.22529898
 C     60  59  58     1.320569960282   119.32691315     4.31313345
 C     61  60  59     1.402260043644   122.82273728   359.40124499
 H     54  53  52     1.079006126025   119.54324460     5.46096715
 H     55  54  53     1.079358207455   118.93476529   179.87888860
 H     56  55  54     1.078551162440   120.85484445   177.13280222
 H     58  57  56     1.078222764553   119.51511998   358.20435580
 H     59  58  57     1.084281776108   121.53051393   177.64618704
 H     61  60  59     1.088427025574   117.57155811   179.77342714
 C     51   1   2     1.411799684800   111.26911359   287.44939585
 C     69  51   1     1.406956328391   118.05901322   287.97734228
 C     70  69  51     1.377446380082   121.32409942   181.08634649
 C     71  70  69     1.388639694089   117.92563578   359.28827276
 N     72  71  70     1.370198211939   129.64539396   180.91412613
 C     73  72  71     1.365650811884   109.28727066   180.03430040
 C     74  73  72     1.389027659912   129.94676165   180.03412884
 C     75  74  73     1.377236352265   117.94501586   180.40179798
 C     76  75  74     1.406484073852   121.95108615   359.85311281
 C     77  76  75     1.392720607301   119.95509852   359.43355876
 C     78  77  76     1.384244960258   118.86739256     0.54701346
 C     72  71  70     1.417018468475   121.25528160     0.35798055
 C     80  72  71     1.385670195248   120.37522370     0.21928863
 H     70  69  51     1.079401579580   118.87689133     0.04029284
 H     71  70  69     1.078566534804   120.87810022   178.83518276
 H     73  72  71     1.006771433842   125.42744689   356.31442253
 H     75  74  73     1.078727115632   121.25389996     0.21939461
 H     76  75  74     1.078532248011   118.68799477   181.50141917
 H     78  77  76     1.077812376993   121.21031286   177.70858885
 H     81  80  72     1.077816190266   121.33823411   179.27734554
 C     77  76  75     1.464339284456   119.47358324   179.05821086
 C     89  77  76     1.400412685604   121.65679596   326.44305057
 C     90  89  77     1.383127774286   119.94449748   178.69548032
 C     91  90  89     1.384176101513   119.03710750     0.68988261
 N     92  91  90     1.335500909771   121.27492072     0.54575973
 C     93  92  91     1.331199827224   120.23570541   358.76710958
 H     90  89  77     1.078422653694   120.04581763   357.73077994
 H     91  90  89     1.077941380595   120.78273350   180.37090221
 H     92  91  90     1.087933495210   121.72868673   180.46501294
 H     94  93  92     1.087613024012   115.91248649   181.38620164
 C     72  71  70     5.203773547148    86.01273843   276.09739590
 C     99  72  71     1.209819875023    54.36336421   350.23034186
 C    100  99  72     1.409943151336   175.51767491   216.39285218
 C    101 100  99     1.380887232905   120.88826521    78.20709070
 C    102 101 100     1.399932012635   120.94463800   185.55663965
 C    103 102 101     1.372482284039   121.19797478     1.23828312
 C    104 103 102     1.406585827456   119.87162947   358.86485708
 C    105 104 103     1.413497148918   123.23512306   177.76753207
 C    106 105 104     1.365300032960   120.00999679   180.38905246
 N    107 106 105     1.356949674822   121.94363813   357.79646927
 C    108 107 106     1.319816006116   119.77767686     2.50158744
 C    109 108 107     1.402298698566   122.70687142     0.29905126
 H    102 101 100     1.078873069457   119.28135521     4.02148899
 H    103 102 101     1.079751355637   119.03583262   179.74376592
 H    104 103 102     1.078722999662   120.88066677   178.10747040
 H    106 105 104     1.078312093042   119.45694742   359.68161903
 H    107 106 105     1.086558079442   122.05199361   178.18283876
 H    109 108 107     1.088401718117   117.52961234   180.43812519
 C     99  72  71     1.412819528461   130.21104340   172.38491539
 C    117  99  72     1.407404398174   117.25142299   162.76035831
 C    118 117  99     1.376696596930   121.28893702   181.40445690
 C    119 118 117     1.388415733849   117.90585837   359.42338749
 N    120 119 118     1.369430315861   129.34569907   180.52269427
 C    121 120 119     1.364889731810   109.26221302   180.35511947
 C    122 121 120     1.388825795411   129.64015911   179.60962991
 C    123 122 121     1.376685951842   117.92601248   180.72991981
 C    124 123 122     1.406140270386   121.84037127   359.54113327
 C    125 124 123     1.392944873281   120.10244142   359.65062203
 C    126 125 124     1.385555834313   118.89878097     0.72911165
 C    120 119 118     1.417504941790   121.44234891     0.22199262
 C    128 120 119     1.387338869923   120.15355645     0.23220619
 H    118 117  99     1.079328629288   118.86126765     0.49434028
 H    119 118 117     1.078559247330   120.92770198   178.83062335
 H    121 120 119     1.006654012062   125.44643338   357.06105281
 H    123 122 121     1.078809978634   121.21365661     0.42500044
 H    124 123 122     1.078660595368   118.84403419   181.23743668
 H    126 125 124     1.077693745922   121.06348808   177.75963882
 H    129 128 120     1.077989262470   121.34202795   179.17223534
 C    125 124 123     1.465580042168   118.96302540   179.22556386
 C    137 125 124     1.400764826800   121.49159192   323.93568788
 C    138 137 125     1.383113137093   119.96058508   178.80894755
 C    139 138 137     1.384656639749   119.05534151     0.39436549
 N    140 139 138     1.334005805834   121.20219078     0.30892123
 C    141 140 139     1.332353834385   120.32817875   359.43018112
 H    138 137 125     1.078562478487   119.95937839   357.71782942
 H    139 138 137     1.077848287098   120.79521660   180.03832563
 H    140 139 138     1.086894189882   121.87515695   180.34622768
 H    142 141 140     1.088197123687   116.11055811   181.02334621
 C     50  46  45     4.300689698176   109.09486272   102.34251722
 C    147  50  46     1.210367502042    90.78763510   283.41547476
 C    148 147  50     1.410618410485   175.17169915   113.98759793
 C    149 148 147     1.381363594424   120.42690172    60.89846992
 C    150 149 148     1.399592119155   121.02971440   185.70445665
 C    151 150 149     1.372462330995   121.19417814     1.27987485
 C    152 151 150     1.406593210562   119.84960034   358.87125677
 C    153 152 151     1.413457565688   123.22034020   178.10902650
 C    154 153 152     1.365602555651   120.05020855   179.76066654
 N    155 154 153     1.355752551169   121.89633218   358.19139897
 C    156 155 154     1.319789354405   119.79605402     2.51771021
 C    157 156 155     1.402141647623   122.79945515   359.84745911
 H    150 149 148     1.078796125317   119.22644501     4.23131087
 H    151 150 149     1.079705427420   119.06442050   179.86643222
 H    152 151 150     1.078666014112   120.89258243   178.18773794
 H    154 153 152     1.078327951043   119.44508548   359.33976060
 H    155 154 153     1.085925292090   122.05226646   178.59246964
 H    157 156 155     1.088560558720   117.68975550   180.05495655
 C    147  50  46     1.414144324318    89.21653154    95.41990431
 C    165 147  50     1.407910746461   115.98626775   276.34707760
 C    166 165 147     1.375423302115   121.26436606   182.68869337
 C    167 166 165     1.387480969239   117.75776695   359.64088860
 N    168 167 166     1.369983280920   128.92607509   179.73480232
 C    169 168 167     1.364065808530   109.21358865   180.58198546
 C    170 169 168     1.387716145327   129.47465150   179.99051460
 C    171 170 169     1.375378733295   117.95983185   180.54498029
 C    172 171 170     1.406801602928   121.99893225     0.43274269
 C    173 172 171     1.394275582516   119.74263229   358.35093017
 C    174 173 172     1.386074207970   119.16804195     1.04291039
 C    168 167 166     1.416374389065   121.80426614   359.44338061
 C    176 168 167     1.388941402652   119.88165351     0.86475437
 H    166 165 147     1.078939729549   118.82991760     1.63549961
 H    167 166 165     1.078382255974   121.01727275   178.92862905
 H    169 168 167     1.006505091890   124.96193094   352.83488744
 H    171 170 169     1.078945753965   121.22513999     0.05314687
 H    172 171 170     1.078237919014   118.49165905   181.89139452
 H    174 173 172     1.077258492656   121.22178766   178.16981692
 H    177 176 168     1.077720682737   121.23813616   178.90911124
 C    173 172 171     1.466288910822   118.54984560   177.65674426
 C    185 173 172     1.402225823468   121.30496900   329.83482928
 C    186 185 173     1.383009772200   120.22264952   177.49126832
 C    187 186 185     1.384536648125   119.08098305     1.31498618
 N    188 187 186     1.334609444744   121.01692144     0.78037960
 C    189 188 187     1.332586094780   120.41817597   358.30440335
 H    186 185 173     1.078247193365   120.14271873   356.41788911
 H    187 186 185     1.077907741878   120.71466048   180.71429344
 H    188 187 186     1.088519085731   122.03945449   180.72255396
 H    190 189 188     1.087452040322   116.09450522   181.21286402

---------------------------
INTERNAL COORDINATES (A.U.)
---------------------------
 Pd     0   0   0     0.000000000000     0.00000000     0.00000000
 Pd     1   0   0    23.368973647416     0.00000000     0.00000000
 C      2   1   0    11.228749672848    47.11901256     0.00000000
 C      3   2   1     2.286523924119    63.75104328   111.55442051
 C      4   3   2     2.665072787278   173.43593656   103.14985284
 C      5   4   3     2.610779568810   120.75810992    78.20018195
 C      6   5   4     2.645443867632   120.89299578   187.92389322
 C      7   6   5     2.594523140263   121.13796306     1.84351192
 C      8   7   6     2.658070428098   119.87178719   357.21014600
 C      9   8   7     2.670452343088   123.38783589   178.66327901
 C     10   9   8     2.579843992499   119.97894620   177.77117833
 N     11  10   9     2.563653470024   122.15661265   357.40637541
 C     12  11  10     2.493649296741   119.44120051     4.93203318
 C     13  12  11     2.651697143384   122.79735745   358.55651720
 H      6   5   4     2.039335586553   119.45946639     6.25567850
 H      7   6   5     2.039829080966   118.98024834   179.86036261
 H      8   7   6     2.038387911602   120.86645851   177.00094603
 H     10   9   8     2.037558740841   119.47703833   357.65857299
 H     11  10   9     2.050719351044   121.52433135   177.79490524
 H     13  12  11     2.056251098133   117.68218897   179.14602161
 C      3   2   1     2.669895533989   117.02542358   285.83875521
 C     21   3   2     2.659532679451   117.15113838   281.72670519
 C     22  21   3     2.601505255545   121.32400953   183.29680290
 C     23  22  21     2.622657060031   117.81305174   359.48851476
 N     24  23  22     2.592089911774   129.40355869   179.88709039
 C     25  24  23     2.579225726938   109.26007118   180.24333081
 C     26  25  24     2.623330547028   130.04874903   180.26842307
 C     27  26  25     2.601320107154   118.07339542   179.90756836
 C     28  27  26     2.658947347594   122.12897905     0.77995444
 C     29  28  27     2.635042415105   119.47760028   358.60856392
 C     30  29  28     2.614282861185   119.20143627     0.32493048
 C     24  23  22     2.674903978304   121.47569736   359.40593141
 C     32  24  23     2.620619351522   120.25925400     1.03501726
 H     22  21   3     2.039048282111   118.84522358     2.00877214
 H     23  22  21     2.037694599363   120.91275988   178.77836683
 H     25  24  23     1.901937415167   124.92180044   352.55472693
 H     27  26  25     2.038931411908   121.25321787   359.61161473
 H     28  27  26     2.037225444251   118.29918669   182.12655580
 H     30  29  28     2.035543678101   121.49810470   177.65126060
 H     33  32  24     2.036632314723   121.22385076   178.89891574
 C     29  28  27     2.767981474882   119.64337394   178.13840583
 C     41  29  28     2.649860323119   122.10356591   333.58856132
 C     42  41  29     2.613789681293   120.21469148   178.25674359
 C     43  42  41     2.617170633593   119.18625709     1.68076412
 N     44  43  42     2.522498620529   120.90795876     0.42492231
 C     45  44  43     2.516420633104   120.41205582   358.00354583
 H     42  41  29     2.037217836624   120.25968977   357.25913761
 H     43  42  41     2.037170218196   120.68042463   180.94314867
 H     44  43  42     2.056098272668   122.25674651   180.32580718
 H     46  45  44     2.055787558819   115.69155167   181.76237667
 C      1   2   3    10.901358260326    48.45951224   277.39334463
 C     51   1   2     2.285771221605    68.51874949   110.12840232
 C     52  51   1     2.663638178738   173.96088396    74.24517471
 C     53  52  51     2.609525466328   121.64409487   105.92857726
 C     54  53  52     2.646354267474   120.77742621   187.04367072
 C     55  54  53     2.594800969511   121.22870593     1.77122870
 C     56  55  54     2.658572822045   119.88674011   357.42733158
 C     57  56  55     2.670147064684   123.57002091   178.44764451
 C     58  57  56     2.580487594058   120.03129761   178.62569169
 N     59  58  57     2.564679986926   122.20845397   357.22529898
 C     60  59  58     2.495515565617   119.32691315     4.31313345
 C     61  60  59     2.649887451027   122.82273728   359.40124499
 H     54  53  52     2.039026075011   119.54324460     5.46096715
 H     55  54  53     2.039691412490   118.93476529   179.87888860
 H     56  55  54     2.038166318433   120.85484445   177.13280222
 H     58  57  56     2.037545736364   119.51511998   358.20435580
 H     59  58  57     2.048995608846   121.53051393   177.64618704
 H     61  60  59     2.056828995093   117.57155811   179.77342714
 C     51   1   2     2.667914760227   111.26911359   287.44939585
 C     69  51   1     2.658762143047   118.05901322   287.97734228
 C     70  69  51     2.602996422515   121.32409942   181.08634649
 C     71  70  69     2.624148720521   117.92563578   359.28827276
 N     72  71  70     2.589299369753   129.64539396   180.91412613
 C     73  72  71     2.580706029028   109.28727066   180.03430040
 C     74  73  72     2.624881869675   129.94676165   180.03412884
 C     75  74  73     2.602599527461   117.94501586   180.40179798
 C     76  75  74     2.657869711303   121.95108615   359.85311281
 C     77  76  75     2.631860528867   119.95509852   359.43355876
 C     78  77  76     2.615843877149   118.86739256     0.54701346
 C     72  71  70     2.677776832127   121.25528160     0.35798055
 C     80  72  71     2.618537180957   120.37522370     0.21928863
 H     70  69  51     2.039773373928   118.87689133     0.04029284
 H     71  70  69     2.038195367993   120.87810022   178.83518276
 H     73  72  71     1.902522289416   125.42744689   356.31442253
 H     75  74  73     2.038498821780   121.25389996     0.21939461
 H     76  75  74     2.038130575344   118.68799477   181.50141917
 H     78  77  76     2.036770216268   121.21031286   177.70858885
 H     81  80  72     2.036777422310   121.33823411   179.27734554
 C     77  76  75     2.767200214763   119.47358324   179.05821086
 C     89  77  76     2.646396450260   121.65679596   326.44305057
 C     90  89  77     2.613732701620   119.94449748   178.69548032
 C     91  90  89     2.615713752979   119.03710750     0.68988261
 N     92  91  90     2.523730971070   121.27492072     0.54575973
 C     93  92  91     2.515603102976   120.23570541   358.76710958
 H     90  89  77     2.037923472098   120.04581763   357.73077994
 H     91  90  89     2.037013997746   120.78273350   180.37090221
 H     92  91  90     2.055896357867   121.72868673   180.46501294
 H     94  93  92     2.055290755068   115.91248649   181.38620164
 C     72  71  70     9.833706867054    86.01273843   276.09739590
 C     99  72  71     2.286228235168    54.36336421   350.23034186
 C    100  99  72     2.664406420423   175.51767491   216.39285218
 C    101 100  99     2.609498692019   120.88826521    78.20709070
 C    102 101 100     2.645488109989   120.94463800   185.55663965
 C    103 102 101     2.593615640492   121.19797478     1.23828312
 C    104 103 102     2.658061997747   119.87162947   358.86485708
 C    105 104 103     2.671122502534   123.23512306   177.76753207
 C    106 105 104     2.580043152928   120.00999679   180.38905246
 N    107 106 105     2.564263262927   121.94363813   357.79646927
 C    108 107 106     2.494090798725   119.77767686     2.50158744
 C    109 108 107     2.649960498244   122.70687142     0.29905126
 H    102 101 100     2.038774634537   119.28135521     4.02148899
 H    103 102 101     2.040434354884   119.03583262   179.74376592
 H    104 103 102     2.038491043723   120.88066677   178.10747040
 H    106 105 104     2.037714542744   119.45694742   359.68161903
 H    107 106 105     2.053297198744   122.05199361   178.18283876
 H    109 108 107     2.056781170930   117.52961234   180.43812519
 C     99  72  71     2.669841985447   130.21104340   172.38491539
 C    117  99  72     2.659608872225   117.25142299   162.76035831
 C    118 117  99     2.601579537700   121.28893702   181.40445690
 C    119 118 117     2.623725497002   117.90585837   359.42338749
 N    120 119 118     2.587848256467   129.34569907   180.52269427
 C    121 120 119     2.579267796122   109.26221302   180.35511947
 C    122 121 120     2.624500401053   129.64015911   179.60962991
 C    123 122 121     2.601559421399   117.92601248   180.72991981
 C    124 123 122     2.657220016907   121.84037127   359.54113327
 C    125 124 123     2.632284330151   120.10244142   359.65062203
 C    126 125 124     2.618321070109   118.89878097     0.72911165
 C    120 119 118     2.678696133464   121.44234891     0.22199262
 C    128 120 119     2.621690519099   120.15355645     0.23220619
 H    118 117  99     2.039635517854   118.86126765     0.49434028
 H    119 118 117     2.038181596661   120.92770198   178.83062335
 H    121 120 119     1.902300394410   125.44643338   357.06105281
 H    123 122 121     2.038655410159   121.21365661     0.42500044
 H    124 123 122     2.038373116698   118.84403419   181.23743668
 H    126 125 124     2.036546036033   121.06348808   177.75963882
 H    129 128 120     2.037104481376   121.34202795   179.17223534
 C    125 124 123     2.769544907038   118.96302540   179.22556386
 C    137 125 124     2.647061900682   121.49159192   323.93568788
 C    138 137 125     2.613705041335   119.96058508   178.80894755
 C    139 138 137     2.616621838641   119.05534151     0.39436549
 N    140 139 138     2.520905634088   121.20219078     0.30892123
 C    141 140 139     2.517783860467   120.32817875   359.43018112
 H    138 137 125     2.038187702664   119.95937839   357.71782942
 H    139 138 137     2.036838076531   120.79521660   180.03832563
 H    140 139 138     2.053932355428   121.87515695   180.34622768
 H    142 141 140     2.056394543489   116.11055811   181.02334621
 C     50  46  45     8.127125716530   109.09486272   102.34251722
 C    147  50  46     2.287263100258    90.78763510   283.41547476
 C    148 147  50     2.665682475284   175.17169915   113.98759793
 C    149 148 147     2.610398884830   120.42690172    60.89846992
 C    150 149 148     2.644845804397   121.02971440   185.70445665
 C    151 150 149     2.593577934704   121.19417814     1.27987485
 C    152 151 150     2.658075949796   119.84960034   358.87125677
 C    153 152 151     2.671047701069   123.22034020   178.10902650
 C    154 153 152     2.580614837963   120.05020855   179.76066654
 N    155 154 153     2.562001027074   121.89633218   358.19139897
 C    156 155 154     2.494040434290   119.79605402     2.51771021
 C    157 156 155     2.649663714973   122.79945515   359.84745911
 H    150 149 148     2.038629231185   119.22644501     4.23131087
 H    151 150 149     2.040347563132   119.06442050   179.86643222
 H    152 151 150     2.038383356640   120.89258243   178.18773794
 H    154 153 152     2.037744510023   119.44508548   359.33976060
 H    155 154 153     2.052101403948   122.05226646   178.59246964
 H    157 156 155     2.057081336168   117.68975550   180.05495655
 C    147  50  46     2.672345486800    89.21653154    95.41990431
 C    165 147  50     2.660565731816   115.98626775   276.34707760
 C    166 165 147     2.599173359210   121.26436606   182.68869337
 C    167 166 165     2.621959047889   117.75776695   359.64088860
 N    168 167 166     2.588893208989   128.92607509   179.73480232
 C    169 168 167     2.577710806767   109.21358865   180.58198546
 C    170 169 168     2.622403466288   129.47465150   179.99051460
 C    171 170 169     2.599089136347   117.95983185   180.54498029
 C    172 171 170     2.658469754295   121.99893225     0.43274269
 C    173 172 171     2.634799006169   119.74263229   358.35093017
 C    174 173 172     2.619300654355   119.16804195     1.04291039
 C    168 167 166     2.676559698433   121.80426614   359.44338061
 C    176 168 167     2.624718867076   119.88165351     0.86475437
 H    166 165 147     2.038900603855   118.82991760     1.63549961
 H    167 166 165     2.037847131471   121.01727275   178.92862905
 H    169 168 167     1.902018976069   124.96193094   352.83488744
 H    171 170 169     2.038911988352   121.22513999     0.05314687
 H    172 171 170     2.037574374146   118.49165905   181.89139452
 H    174 173 172     2.035723526561   121.22178766   178.16981692
 H    177 176 168     2.036596939236   121.23813616   178.90911124
 C    173 172 171     2.770884474660   118.54984560   177.65674426
 C    185 173 172     2.649822784266   121.30496900   329.83482928
 C    186 185 173     2.613509709994   120.22264952   177.49126832
 C    187 186 185     2.616395087333   119.08098305     1.31498618
 N    188 187 186     2.522046346311   121.01692144     0.78037960
 C    189 188 187     2.518222769005   120.41817597   358.30440335
 H    186 185 173     2.037591900130   120.14271873   356.41788911
 H    187 186 185     2.036950429782   120.71466048   180.71429344
 H    188 187 186     2.057002963577   122.03945449   180.72255396
 H    190 189 188     2.054986539982   116.09450522   181.21286402

---------------------
BASIS SET INFORMATION
---------------------
There are 4 groups of distinct atoms

 Group   1 Type Pd  : 7s6p5d1f contracted to 5s3p2d1f pattern {31111/411/41/1}
 Group   2 Type C   : 7s4p1d contracted to 3s2p1d pattern {511/31/1}
 Group   3 Type N   : 7s4p1d contracted to 3s2p1d pattern {511/31/1}
 Group   4 Type H   : 4s1p contracted to 2s1p pattern {31/1}

Atom   0Pd   basis set group =>   1
Atom   1Pd   basis set group =>   1
Atom   2C    basis set group =>   2
Atom   3C    basis set group =>   2
Atom   4C    basis set group =>   2
Atom   5C    basis set group =>   2
Atom   6C    basis set group =>   2
Atom   7C    basis set group =>   2
Atom   8C    basis set group =>   2
Atom   9C    basis set group =>   2
Atom  10C    basis set group =>   2
Atom  11N    basis set group =>   3
Atom  12C    basis set group =>   2
Atom  13C    basis set group =>   2
Atom  14H    basis set group =>   4
Atom  15H    basis set group =>   4
Atom  16H    basis set group =>   4
Atom  17H    basis set group =>   4
Atom  18H    basis set group =>   4
Atom  19H    basis set group =>   4
Atom  20C    basis set group =>   2
Atom  21C    basis set group =>   2
Atom  22C    basis set group =>   2
Atom  23C    basis set group =>   2
Atom  24N    basis set group =>   3
Atom  25C    basis set group =>   2
Atom  26C    basis set group =>   2
Atom  27C    basis set group =>   2
Atom  28C    basis set group =>   2
Atom  29C    basis set group =>   2
Atom  30C    basis set group =>   2
Atom  31C    basis set group =>   2
Atom  32C    basis set group =>   2
Atom  33H    basis set group =>   4
Atom  34H    basis set group =>   4
Atom  35H    basis set group =>   4
Atom  36H    basis set group =>   4
Atom  37H    basis set group =>   4
Atom  38H    basis set group =>   4
Atom  39H    basis set group =>   4
Atom  40C    basis set group =>   2
Atom  41C    basis set group =>   2
Atom  42C    basis set group =>   2
Atom  43C    basis set group =>   2
Atom  44N    basis set group =>   3
Atom  45C    basis set group =>   2
Atom  46H    basis set group =>   4
Atom  47H    basis set group =>   4
Atom  48H    basis set group =>   4
Atom  49H    basis set group =>   4
Atom  50C    basis set group =>   2
Atom  51C    basis set group =>   2
Atom  52C    basis set group =>   2
Atom  53C    basis set group =>   2
Atom  54C    basis set group =>   2
Atom  55C    basis set group =>   2
Atom  56C    basis set group =>   2
Atom  57C    basis set group =>   2
Atom  58C    basis set group =>   2
Atom  59N    basis set group =>   3
Atom  60C    basis set group =>   2
Atom  61C    basis set group =>   2
Atom  62H    basis set group =>   4
Atom  63H    basis set group =>   4
Atom  64H    basis set group =>   4
Atom  65H    basis set group =>   4
Atom  66H    basis set group =>   4
Atom  67H    basis set group =>   4
Atom  68C    basis set group =>   2
Atom  69C    basis set group =>   2
Atom  70C    basis set group =>   2
Atom  71C    basis set group =>   2
Atom  72N    basis set group =>   3
Atom  73C    basis set group =>   2
Atom  74C    basis set group =>   2
Atom  75C    basis set group =>   2
Atom  76C    basis set group =>   2
Atom  77C    basis set group =>   2
Atom  78C    basis set group =>   2
Atom  79C    basis set group =>   2
Atom  80C    basis set group =>   2
Atom  81H    basis set group =>   4
Atom  82H    basis set group =>   4
Atom  83H    basis set group =>   4
Atom  84H    basis set group =>   4
Atom  85H    basis set group =>   4
Atom  86H    basis set group =>   4
Atom  87H    basis set group =>   4
Atom  88C    basis set group =>   2
Atom  89C    basis set group =>   2
Atom  90C    basis set group =>   2
Atom  91C    basis set group =>   2
Atom  92N    basis set group =>   3
Atom  93C    basis set group =>   2
Atom  94H    basis set group =>   4
Atom  95H    basis set group =>   4
Atom  96H    basis set group =>   4
Atom  97H    basis set group =>   4
Atom  98C    basis set group =>   2
Atom  99C    basis set group =>   2
Atom 100C    basis set group =>   2
Atom 101C    basis set group =>   2
Atom 102C    basis set group =>   2
Atom 103C    basis set group =>   2
Atom 104C    basis set group =>   2
Atom 105C    basis set group =>   2
Atom 106C    basis set group =>   2
Atom 107N    basis set group =>   3
Atom 108C    basis set group =>   2
Atom 109C    basis set group =>   2
Atom 110H    basis set group =>   4
Atom 111H    basis set group =>   4
Atom 112H    basis set group =>   4
Atom 113H    basis set group =>   4
Atom 114H    basis set group =>   4
Atom 115H    basis set group =>   4
Atom 116C    basis set group =>   2
Atom 117C    basis set group =>   2
Atom 118C    basis set group =>   2
Atom 119C    basis set group =>   2
Atom 120N    basis set group =>   3
Atom 121C    basis set group =>   2
Atom 122C    basis set group =>   2
Atom 123C    basis set group =>   2
Atom 124C    basis set group =>   2
Atom 125C    basis set group =>   2
Atom 126C    basis set group =>   2
Atom 127C    basis set group =>   2
Atom 128C    basis set group =>   2
Atom 129H    basis set group =>   4
Atom 130H    basis set group =>   4
Atom 131H    basis set group =>   4
Atom 132H    basis set group =>   4
Atom 133H    basis set group =>   4
Atom 134H    basis set group =>   4
Atom 135H    basis set group =>   4
Atom 136C    basis set group =>   2
Atom 137C    basis set group =>   2
Atom 138C    basis set group =>   2
Atom 139C    basis set group =>   2
Atom 140N    basis set group =>   3
Atom 141C    basis set group =>   2
Atom 142H    basis set group =>   4
Atom 143H    basis set group =>   4
Atom 144H    basis set group =>   4
Atom 145H    basis set group =>   4
Atom 146C    basis set group =>   2
Atom 147C    basis set group =>   2
Atom 148C    basis set group =>   2
Atom 149C    basis set group =>   2
Atom 150C    basis set group =>   2
Atom 151C    basis set group =>   2
Atom 152C    basis set group =>   2
Atom 153C    basis set group =>   2
Atom 154C    basis set group =>   2
Atom 155N    basis set group =>   3
Atom 156C    basis set group =>   2
Atom 157C    basis set group =>   2
Atom 158H    basis set group =>   4
Atom 159H    basis set group =>   4
Atom 160H    basis set group =>   4
Atom 161H    basis set group =>   4
Atom 162H    basis set group =>   4
Atom 163H    basis set group =>   4
Atom 164C    basis set group =>   2
Atom 165C    basis set group =>   2
Atom 166C    basis set group =>   2
Atom 167C    basis set group =>   2
Atom 168N    basis set group =>   3
Atom 169C    basis set group =>   2
Atom 170C    basis set group =>   2
Atom 171C    basis set group =>   2
Atom 172C    basis set group =>   2
Atom 173C    basis set group =>   2
Atom 174C    basis set group =>   2
Atom 175C    basis set group =>   2
Atom 176C    basis set group =>   2
Atom 177H    basis set group =>   4
Atom 178H    basis set group =>   4
Atom 179H    basis set group =>   4
Atom 180H    basis set group =>   4
Atom 181H    basis set group =>   4
Atom 182H    basis set group =>   4
Atom 183H    basis set group =>   4
Atom 184C    basis set group =>   2
Atom 185C    basis set group =>   2
Atom 186C    basis set group =>   2
Atom 187C    basis set group =>   2
Atom 188N    basis set group =>   3
Atom 189C    basis set group =>   2
Atom 190H    basis set group =>   4
Atom 191H    basis set group =>   4
Atom 192H    basis set group =>   4
Atom 193H    basis set group =>   4

-------------------------
BASIS SET IN INPUT FORMAT
-------------------------

 # Basis set for element : H 
 NewGTO H 
 S 3 
   1      13.0107010000      0.0334854848
   2       1.9622572000      0.2347218709
   3       0.4445379600      0.8137702853
 S 1 
   1       0.1219496200      1.0000000000
 P 1 
   1       0.8000000000      1.0000000000
  end;

 # Basis set for element : C 
 NewGTO C 
 S 5 
   1    1238.4016938000      0.0055173650
   2     186.2900499200      0.0410888285
   3      42.2511763460      0.1822538213
   4      11.6765579320      0.4682845944
   5       3.5930506482      0.4457581734
 S 1 
   1       0.4024514736      1.0000000000
 S 1 
   1       0.1309018267      1.0000000000
 P 3 
   1       9.4680970621      0.0568883320
   2       2.0103545142      0.3129405934
   3       0.5477100471      0.7606501651
 P 1 
   1       0.1526861379      1.0000000000
 D 1 
   1       0.8000000000      1.0000000000
  end;

 # Basis set for element : N 
 NewGTO N 
 S 5 
   1    1712.8415853000     -0.0054477995
   2     257.6481267700     -0.0406271746
   3      58.4582458530     -0.1811196225
   4      16.1983679050     -0.4684397556
   5       5.0052600809     -0.4461684629
 S 1 
   1       0.5873185657      1.0000000000
 S 1 
   1       0.1876459225      1.0000000000
 P 3 
   1      13.5714702330     -0.0588481170
   2       2.9257372874     -0.3202462476
   3       0.7992775075     -0.7532822652
 P 1 
   1       0.2195434803      1.0000000000
 D 1 
   1       1.0000000000      1.0000000000
  end;

 # Basis set for element : Pd
 NewGTO Pd
 S 3 
   1       8.4756400000      2.1727229431
   2       7.1657170000     -2.9039633126
   3       3.1821100000     -0.2310570076
 S 1 
   1       1.3973644196      1.0000000000
 S 1 
   1       0.6053295587      1.0000000000
 S 1 
   1       0.1022951421      1.0000000000
 S 1 
   1       0.0373389729      1.0000000000
 P 4 
   1       4.2460970000     -0.8346018694
   2       3.3925940000      0.8828643810
   3       1.1975891264      0.6438870170
   4       0.5267375059      0.2760105151
 P 1 
   1       0.2060709410      1.0000000000
 P 1 
   1       0.0370000000      1.0000000000
 D 4 
   1       7.3613290985     -0.0186922795
   2       2.6291037258      0.2533662423
   3       1.1292744634      0.4840070353
   4       0.4447165990      0.4270306822
 D 1 
   1       0.1554489384      1.0000000000
 F 1 
   1       1.2462900000      1.0000000000
  end;

-------------------------
ECP PARAMETER INFORMATION
-------------------------

 Group 1, Type Pd ECP Def2-ECP (replacing 28 core electrons, lmax=3)

Atom   0Pd   ECP group =>   1
Atom   1Pd   ECP group =>   1


-------------------------
ECP BASIS IN INPUT FORMAT
-------------------------

 #ECP Def2-ECP
 NewECP Pd
   N_core 28
   lmax f
   s 4
     1      12.4300000000    240.2290403000  2
     2       6.1707594000     35.1719435000  2
     3      13.2700000000     31.9295543000  2
     4       6.6300000000      5.3982169000  2
   p 4
     1      11.0800000000    170.4172760000  2
     2       5.8295541000     28.4721329000  2
     3      13.2700000000     31.9295543000  2
     4       6.6300000000      5.3982169000  2
   d 4
     1       9.5100000000     69.0138449000  2
     2       4.1397811000     11.7508616000  2
     3      13.2700000000     31.9295543000  2
     4       6.6300000000      5.3982169000  2
   f 2
     1      13.2700000000    -31.9295543000  2
     2       6.6300000000     -5.3982169000  2
 End




           ************************************************************
           *        Program running with 32 parallel MPI-processes    *
           *              working on a common directory               *
           ************************************************************
------------------------------------------------------------------------------
                           ORCA GTO INTEGRAL CALCULATION
------------------------------------------------------------------------------

                         BASIS SET STATISTICS AND STARTUP INFO

 # of primitive gaussian shells          ... 1866
 # of primitive gaussian functions       ... 3566
 # of contracted shells                  ...  970
 # of contracted basis functions         ... 2138
 Highest angular momentum                ...    3
 Maximum contraction depth               ...    5
 Integral package used                   ... LIBINT
 Integral threshhold            Thresh   ...  2.500e-11
 Primitive cut-off              TCut     ...  2.500e-12


------------------------------ INTEGRAL EVALUATION ----------------------------


 * One electron integrals 

   ECP integrals                         ... done
 Pre-screening matrix                    ... done
 Shell pair data                         ... done (   0.045 sec)



           ************************************************************
           *        Program running with 32 parallel MPI-processes    *
           *              working on a common directory               *
           ************************************************************
-------------------------------------------------------------------------------
                                 ORCA SCF
-------------------------------------------------------------------------------

------------
SCF SETTINGS
------------
Hamiltonian:
 Density Functional     Method          .... DFT(GTOs)
 Exchange Functional    Exchange        .... PBE
   PBE kappa parameter   XKappa         ....  0.804000
   PBE mue parameter    XMuePBE         ....  0.219520
 Correlation Functional Correlation     .... PBE
   PBE beta parameter  CBetaPBE         ....  0.066725
 LDA part of GGA corr.  LDAOpt          .... PW91-LDA
 Gradients option       PostSCFGGA      .... off
 Hybrid DFT is turned on
   Fraction HF Exchange ScalHFX         ....  0.250000
   Scaling of DF-GGA-X  ScalDFX         ....  0.750000
   Scaling of DF-GGA-C  ScalDFC         ....  1.000000
   Scaling of DF-LDA-C  ScalLDAC        ....  1.000000
   Perturbative correction              ....  0.000000
   Density functional embedding theory  .... OFF
   NL short-range parameter             ....  6.900000


General Settings:
 Integral files         IntName         .... _s_4c1_b_PBE0
 Hartree-Fock type      HFTyp           .... RHF
 Total Charge           Charge          ....    4
 Multiplicity           Mult            ....    1
 Number of Electrons    NEL             ....  856
 Basis Dimension        Dim             .... 2138
 Nuclear Repulsion      ENuc            ....  27629.6430069825 Eh

Convergence Acceleration:
 DIIS                   CNVDIIS         .... on
   Start iteration      DIISMaxIt       ....     0
   Startup error        DIISStart       ....  0.200000
   # of expansion vecs  DIISMaxEq       ....     5
   Bias factor          DIISBfac        ....   1.050
   Max. coefficient     DIISMaxC        ....  10.000
 Newton-Raphson         CNVNR           .... off
 SOSCF                  CNVSOSCF        .... off
 Level Shifting         CNVShift        .... on
   Level shift para.    LevelShift      ....    0.2500
   Turn off err/grad.   ShiftErr        ....    0.0000
 Zerner damping         CNVZerner       .... off
 Static damping         CNVDamp         .... on
   Fraction old density DampFac         ....    0.8500
   Max. Damping (<1)    DampMax         ....    0.9800
   Min. Damping (>=0)   DampMin         ....    0.0000
   Turn off err/grad.   DampErr         ....    0.0300
 Fernandez-Rico         CNVRico         .... off

SCF Procedure:
 Maximum # iterations   MaxIter         ....  2000
 SCF integral mode      SCFMode         .... Direct
   Integral package                     .... LIBINT
 Reset frequency        DirectResetFreq ....    20
 Integral Threshold     Thresh          ....  2.500e-11 Eh
 Primitive CutOff       TCut            ....  2.500e-12 Eh

Convergence Tolerance:
 Convergence Check Mode ConvCheckMode   .... Total+1el-Energy
 Convergence forced     ConvForced      .... 0
 Energy Change          TolE            ....  1.000e-08 Eh
 1-El. energy change                    ....  1.000e-05 Eh
 DIIS Error             TolErr          ....  5.000e-07


Diagonalization of the overlap matrix:
Smallest eigenvalue                        ... 1.993e-04
Time for diagonalization                   ...    0.917 sec
Threshold for overlap eigenvalues          ... 1.000e-08
Number of eigenvalues below threshold      ... 0
Time for construction of square roots      ...    0.536 sec
Total time needed                          ...    1.460 sec

-------------------
DFT GRID GENERATION
-------------------

General Integration Accuracy     IntAcc      ...  5.340
Radial Grid Type                 RadialGrid  ... Gauss-Chebyshev
Angular Grid (max. acc.)         AngularGrid ... Lebedev-590
Angular grid pruning method      GridPruning ... 3 (G Style)
Weight generation scheme         WeightScheme... Becke
Basis function cutoff            BFCut       ...    1.0000e-11
Integration weight cutoff        WCut        ...    1.0000e-14
Grids for H and He will be reduced by one unit

# of grid points (after initial pruning)     ... 2843772 (   0.0 sec)
# of grid points (after weights+screening)   ... 2293339 (  18.2 sec)
nearest neighbour list constructed           ...    0.0 sec
Grid point re-assignment to atoms done       ...    0.3 sec
Grid point division into batches done        ...   23.1 sec
Reduced shell lists constructed in   24.5 sec

Total number of grid points                  ...  2293339
Total number of batches                      ...    35936
Average number of points per batch           ...       63
Average number of grid points per atom       ...    11821
Average number of shells per batch           ...   163.98 (16.90%)
Average number of basis functions per batch  ...   328.38 (15.36%)
Average number of large shells per batch     ...    81.23 (49.54%)
Average number of large basis fcns per batch ...   167.39 (50.97%)
Maximum spatial batch extension              ...  18.77, 15.12, 14.24 au
Average spatial batch extension              ...   0.03,  0.03,  0.03 au

Time for grid setup =   43.631 sec

------------------------------
INITIAL GUESS: MODEL POTENTIAL
------------------------------
Loading Hartree-Fock densities                     ... done
  calling /work/e05/e05/atarzia/orca_4_2_1_linux_x86-64_openmpi314/orca _s_4c1_b_PBE0_atom46.inp > _s_4c1_b_PBE0_atom46.out in order to generate an atomic fitting density for atom 0 (Pd with ECP) on-the-fly... 
    atom 0 (Pd), assumed electronic state with S=3: 1s2 2s2 2p6 3s2 3p6 4s2 3d10 4p6 5s2 4d8           ... done
Calculating cut-offs                               ... done
Setting up the integral package                    ... done
Initializing the effective Hamiltonian             ... done
Starting the Coulomb interaction                   ... done (   1.2 sec)
Reading the grid                                   ... done
Mapping shells                                     ... done
Starting the XC term evaluation                    ... done (   1.4 sec)
  promolecular density results
     # of electrons  =    915.954049048
     EX              =   -949.515630502
     EC              =    -32.822734583
     EX+EC           =   -982.338365085
Transforming the Hamiltonian                       ... done (   0.4 sec)
Diagonalizing the Hamiltonian                      ... done (   0.6 sec)
Back transforming the eigenvectors                 ... done (   0.2 sec)
Now organizing SCF variables                       ... done
                      ------------------
                      INITIAL GUESS DONE ( 149.7 sec)
                      ------------------
--------------
SCF ITERATIONS
--------------
ITER       Energy         Delta-E        Max-DP      RMS-DP      [F,P]     Damp
               ***  Starting incremental Fock matrix formation  ***
  0  -5209.8168201892   0.000000000000 0.03449353  0.00036232  0.4576946 0.8500
  1  -5210.1818993124  -0.365079123127 0.02908358  0.00033230  0.3871732 0.8500
                               ***Turning on DIIS***
  2  -5210.4485636052  -0.266664292853 0.02292822  0.00026580  0.3266615 0.8500
  3  -5210.6350359624  -0.186472357185 0.01717384  0.00018261  0.2756737 0.8500
  4  -5210.7747840421  -0.139748079662 0.01374126  0.00013792  0.2333795 0.8500
  5  -5210.8828215830  -0.108037540955 0.01135785  0.00011226  0.1980172 0.8500
  6  -5210.9699009848  -0.087079401816 0.00975773  0.00009436  0.1682520 0.8500
  7  -5211.0417934550  -0.071892470129 0.00854319  0.00008103  0.1430561 0.8500
  8  -5211.1019832746  -0.060189819596 0.00735853  0.00006956  0.1216420 0.8500
  9  -5211.1523721236  -0.050388849017 0.00624459  0.00005924  0.1033760 0.8500
 10  -5211.1945470979  -0.042174974318 0.00528403  0.00005022  0.0878130 0.8500
 11  -5211.2299155335  -0.035368435569 0.00448696  0.00004254  0.0745956 0.8500
 12  -5211.2596543991  -0.029738865614 0.00382359  0.00003609  0.0633859 0.8500
 13  -5211.2847111640  -0.025056764880 0.00325658  0.00003064  0.0538707 0.8500
 14  -5211.3058501296  -0.021138965658 0.00276547  0.00002600  0.0457799 0.8500
 15  -5211.3237026599  -0.017852530240 0.00234537  0.00002206  0.0388973 0.8500
 16  -5211.3387950954  -0.015092435591 0.00199137  0.00001871  0.0330482 0.8500
 17  -5211.3515662471  -0.012771151629 0.01129293  0.00010581  0.0280818 0.0000
 18  -5211.4230043263  -0.071438079260 0.00022571  0.00000230  0.0002120 0.0000
 19  -5211.4230090608  -0.000004734437 0.00011814  0.00000086  0.0000772 0.0000
               *** Restarting incremental Fock matrix formation ***
                                   *** Resetting DIIS ***
 20  -5211.4230093005  -0.000000239699 0.00011694  0.00000070  0.0000588 0.0000
 21  -5211.4230089400   0.000000360502 0.00004086  0.00000021  0.0000744 0.0000
 22  -5211.4230091805  -0.000000240521 0.00001258  0.00000012  0.0000207 0.0000
 23  -5211.4230093514  -0.000000170894 0.00001480  0.00000012  0.0000071 0.0000
 24  -5211.4230093266   0.000000024811 0.00000753  0.00000005  0.0000024 0.0000
                            ***DIIS convergence achieved***

               *****************************************************
               *                     SUCCESS                       *
               *           SCF CONVERGED AFTER  25 CYCLES          *
               *****************************************************


----------------
TOTAL SCF ENERGY
----------------

Total Energy       :        -5211.42300933 Eh         -141810.02957 eV

Components:
Nuclear Repulsion  :        27629.64300698 Eh          751840.80907 eV
Electronic Energy  :       -32841.06601631 Eh         -893650.83863 eV
One Electron Energy:       -62058.92417201 Eh        -1688709.17904 eV
Two Electron Energy:        29217.85815570 Eh          795058.34040 eV

Virial components:
Potential Energy   :       -10215.67284093 Eh         -277982.59036 eV
Kinetic Energy     :         5004.24983160 Eh          136172.56080 eV
Virial Ratio       :            2.04139945


DFT components:
N(Alpha)           :      428.000108539099 electrons
N(Beta)            :      428.000108539099 electrons
N(Total)           :      856.000217078198 electrons
E(X)               :     -528.787020433891 Eh       
E(C)               :      -29.412609928625 Eh       
E(XC)              :     -558.199630362517 Eh       
DFET-embed. en.    :        0.000000000000 Eh       

---------------
SCF CONVERGENCE
---------------

  Last Energy change         ...   -5.7698e-09  Tolerance :   1.0000e-08
  Last MAX-Density change    ...    5.9291e-06  Tolerance :   1.0000e-07
  Last RMS-Density change    ...    4.0652e-08  Tolerance :   5.0000e-09
  Last DIIS Error            ...    6.1565e-07  Tolerance :   5.0000e-07

             **** THE GBW FILE WAS UPDATED (_s_4c1_b_PBE0.gbw) ****
             **** DENSITY FILE WAS UPDATED (_s_4c1_b_PBE0.scfp) ****
             **** ENERGY FILE WAS UPDATED (_s_4c1_b_PBE0.en.tmp) ****
             **** THE GBW FILE WAS UPDATED (_s_4c1_b_PBE0.gbw) ****
             **** DENSITY FILE WAS UPDATED (_s_4c1_b_PBE0.scfp) ****
----------------
ORBITAL ENERGIES
----------------

  NO   OCC          E(Eh)            E(eV) 
   0   2.0000     -14.738721      -401.0610 
[...]
 70 C      6.0203     6.0000    -0.0203     3.8206     3.8206    -0.0000
 71 C      5.8765     6.0000     0.1235     3.8845     3.8845    -0.0000
 72 N      7.1305     7.0000    -0.1305     3.3661     3.3661    -0.0000
 73 C      5.8736     6.0000     0.1264     3.8664     3.8664    -0.0000
 74 C      6.0222     6.0000    -0.0222     3.8573     3.8573    -0.0000
 75 C      6.0335     6.0000    -0.0335     3.8849     3.8849    -0.0000
 76 C      5.9583     6.0000     0.0417     3.7737     3.7737    -0.0000
 77 C      6.0664     6.0000    -0.0664     3.8671     3.8671    -0.0000
 78 C      5.9778     6.0000     0.0222     3.8849     3.8849    -0.0000
 79 C      5.9611     6.0000     0.0389     3.8244     3.8244    -0.0000
 80 C      6.0257     6.0000    -0.0257     3.8441     3.8441    -0.0000
 81 H      0.9734     1.0000     0.0266     0.9932     0.9932    -0.0000
 82 H      0.9877     1.0000     0.0123     0.9999     0.9999    -0.0000
 83 H      0.8475     1.0000     0.1525     0.9888     0.9888    -0.0000
 84 H      0.9701     1.0000     0.0299     0.9922     0.9922    -0.0000
 85 H      0.9661     1.0000     0.0339     0.9894     0.9894    -0.0000
 86 H      1.0067     1.0000    -0.0067     0.9947     0.9947    -0.0000
 87 H      1.0024     1.0000    -0.0024     0.9957     0.9957    -0.0000
 88 C      6.0247     6.0000    -0.0247     3.9025     3.9025    -0.0000
 89 C      5.9398     6.0000     0.0602     3.8829     3.8829    -0.0000
 90 C      6.0177     6.0000    -0.0177     3.9282     3.9282    -0.0000
 91 C      5.8867     6.0000     0.1133     3.8749     3.8749    -0.0000
 92 N      7.2992     7.0000    -0.2992     3.3766     3.3766    -0.0000
 93 C      5.8708     6.0000     0.1292     3.8661     3.8661    -0.0000
 94 H      0.9289     1.0000     0.0711     0.9921     0.9921    -0.0000
 95 H      0.9219     1.0000     0.0781     0.9859     0.9859    -0.0000
 96 H      0.9205     1.0000     0.0795     0.9835     0.9835    -0.0000
 97 H      0.9463     1.0000     0.0537     1.0037     1.0037    -0.0000
 98 C      5.9835     6.0000     0.0165     3.6864     3.6864    -0.0000
 99 C      6.0835     6.0000    -0.0835     3.6589     3.6589    -0.0000
100 C      5.9934     6.0000     0.0066     3.7679     3.7679    -0.0000
101 C      5.9826     6.0000     0.0174     3.8413     3.8413    -0.0000
102 C      5.9861     6.0000     0.0139     3.8160     3.8160    -0.0000
103 C      5.9890     6.0000     0.0110     3.8260     3.8260    -0.0000
104 C      5.9714     6.0000     0.0286     3.8706     3.8706    -0.0000
105 C      6.0053     6.0000    -0.0053     3.8985     3.8985    -0.0000
106 C      5.8774     6.0000     0.1226     3.8588     3.8588    -0.0000
107 N      7.3245     7.0000    -0.3245     3.3515     3.3515    -0.0000
108 C      5.8482     6.0000     0.1518     3.8205     3.8205    -0.0000
109 C      6.0114     6.0000    -0.0114     3.9544     3.9544    -0.0000
110 H      0.9618     1.0000     0.0382     0.9933     0.9933    -0.0000
111 H      0.9334     1.0000     0.0666     0.9807     0.9807    -0.0000
112 H      0.9499     1.0000     0.0501     0.9915     0.9915    -0.0000
113 H      0.9394     1.0000     0.0606     0.9943     0.9943    -0.0000
114 H      0.9058     1.0000     0.0942     0.9803     0.9803    -0.0000
115 H      0.9224     1.0000     0.0776     1.0115     1.0115    -0.0000
116 C      6.0774     6.0000    -0.0774     3.7269     3.7269    -0.0000
117 C      5.9906     6.0000     0.0094     3.8709     3.8709    -0.0000
118 C      6.0174     6.0000    -0.0174     3.8242     3.8242    -0.0000
119 C      5.8792     6.0000     0.1208     3.8908     3.8908    -0.0000
120 N      7.1285     7.0000    -0.1285     3.3685     3.3685    -0.0000
121 C      5.8761     6.0000     0.1239     3.8699     3.8699    -0.0000
122 C      6.0212     6.0000    -0.0212     3.8561     3.8561    -0.0000
123 C      6.0314     6.0000    -0.0314     3.8866     3.8866    -0.0000
124 C      5.9634     6.0000     0.0366     3.7736     3.7736    -0.0000
125 C      6.0619     6.0000    -0.0619     3.8673     3.8673    -0.0000
126 C      5.9779     6.0000     0.0221     3.8818     3.8818    -0.0000
127 C      5.9624     6.0000     0.0376     3.8220     3.8220    -0.0000
128 C      6.0219     6.0000    -0.0219     3.8419     3.8419    -0.0000
129 H      0.9741     1.0000     0.0259     0.9938     0.9938    -0.0000
130 H      0.9901     1.0000     0.0099     0.9981     0.9981    -0.0000
131 H      0.8472     1.0000     0.1528     0.9886     0.9886    -0.0000
132 H      0.9699     1.0000     0.0301     0.9922     0.9922    -0.0000
133 H      0.9657     1.0000     0.0343     0.9894     0.9894    -0.0000
134 H      1.0100     1.0000    -0.0100     0.9955     0.9955    -0.0000
135 H      1.0014     1.0000    -0.0014     0.9964     0.9964    -0.0000
136 C      6.0292     6.0000    -0.0292     3.9088     3.9088    -0.0000
137 C      5.9396     6.0000     0.0604     3.8832     3.8832    -0.0000
138 C      6.0185     6.0000    -0.0185     3.9260     3.9260    -0.0000
139 C      5.8721     6.0000     0.1279     3.8725     3.8725    -0.0000
140 N      7.2994     7.0000    -0.2994     3.3777     3.3777    -0.0000
141 C      5.8703     6.0000     0.1297     3.8690     3.8690    -0.0000
142 H      0.9285     1.0000     0.0715     0.9922     0.9922    -0.0000
143 H      0.9215     1.0000     0.0785     0.9858     0.9858    -0.0000
144 H      0.9235     1.0000     0.0765     0.9868     0.9868    -0.0000
145 H      0.9531     1.0000     0.0469     1.0070     1.0070    -0.0000
146 C      5.9902     6.0000     0.0098     3.6915     3.6915    -0.0000
147 C      6.0765     6.0000    -0.0765     3.6608     3.6608    -0.0000
148 C      5.9992     6.0000     0.0008     3.7731     3.7731    -0.0000
149 C      5.9787     6.0000     0.0213     3.8492     3.8492    -0.0000
150 C      5.9850     6.0000     0.0150     3.8163     3.8163    -0.0000
151 C      5.9872     6.0000     0.0128     3.8278     3.8278    -0.0000
152 C      5.9704     6.0000     0.0296     3.8682     3.8682    -0.0000
153 C      6.0062     6.0000    -0.0062     3.9021     3.9021    -0.0000
154 C      5.8725     6.0000     0.1275     3.8615     3.8615    -0.0000
155 N      7.3164     7.0000    -0.3164     3.3585     3.3585    -0.0000
156 C      5.8421     6.0000     0.1579     3.8244     3.8244    -0.0000
157 C      6.0121     6.0000    -0.0121     3.9589     3.9589    -0.0000
158 H      0.9626     1.0000     0.0374     0.9929     0.9929    -0.0000
159 H      0.9335     1.0000     0.0665     0.9810     0.9810    -0.0000
160 H      0.9499     1.0000     0.0501     0.9916     0.9916    -0.0000
161 H      0.9396     1.0000     0.0604     0.9942     0.9942    -0.0000
162 H      0.9104     1.0000     0.0896     0.9813     0.9813    -0.0000
163 H      0.9429     1.0000     0.0571     1.0203     1.0203    -0.0000
164 C      6.0763     6.0000    -0.0763     3.7295     3.7295    -0.0000
165 C      5.9886     6.0000     0.0114     3.8775     3.8775    -0.0000
166 C      6.0019     6.0000    -0.0019     3.8227     3.8227    -0.0000
167 C      5.8919     6.0000     0.1081     3.8966     3.8966    -0.0000
168 N      7.1381     7.0000    -0.1381     3.3508     3.3508    -0.0000
169 C      5.8720     6.0000     0.1280     3.8620     3.8620    -0.0000
170 C      6.0425     6.0000    -0.0425     3.8650     3.8650    -0.0000
171 C      6.0393     6.0000    -0.0393     3.8827     3.8827    -0.0000
172 C      5.9417     6.0000     0.0583     3.7747     3.7747    -0.0000
173 C      6.0539     6.0000    -0.0539     3.8698     3.8698    -0.0000
174 C      5.9676     6.0000     0.0324     3.8945     3.8945    -0.0000
175 C      5.9514     6.0000     0.0486     3.8255     3.8255    -0.0000
176 C      6.0243     6.0000    -0.0243     3.8372     3.8372    -0.0000
177 H      0.9706     1.0000     0.0294     0.9920     0.9920    -0.0000
178 H      0.9857     1.0000     0.0143     0.9978     0.9978    -0.0000
179 H      0.8553     1.0000     0.1447     0.9956     0.9956    -0.0000
180 H      0.9789     1.0000     0.0211     0.9920     0.9920    -0.0000
181 H      0.9686     1.0000     0.0314     0.9894     0.9894    -0.0000
182 H      1.0148     1.0000    -0.0148     0.9960     0.9960    -0.0000
183 H      1.0047     1.0000    -0.0047     0.9967     0.9967    -0.0000
184 C      6.0265     6.0000    -0.0265     3.9119     3.9119    -0.0000
185 C      5.9496     6.0000     0.0504     3.8828     3.8828    -0.0000
186 C      6.0158     6.0000    -0.0158     3.9241     3.9241    -0.0000
187 C      5.8707     6.0000     0.1293     3.8623     3.8623    -0.0000
188 N      7.2981     7.0000    -0.2981     3.3858     3.3858    -0.0000
189 C      5.8786     6.0000     0.1214     3.8668     3.8668    -0.0000
190 H      0.9303     1.0000     0.0697     0.9919     0.9919    -0.0000
191 H      0.9224     1.0000     0.0776     0.9860     0.9860    -0.0000
192 H      0.9105     1.0000     0.0895     0.9801     0.9801    -0.0000
193 H      0.9465     1.0000     0.0535     1.0024     1.0024    -0.0000

  Mayer bond orders larger than 0.100000
B(  0-Pd, 44-N ) :   0.5550 B(  0-Pd, 59-N ) :   0.5458 B(  0-Pd,107-N ) :   0.5475 
B(  0-Pd,155-N ) :   0.5543 B(  1-Pd, 11-N ) :   0.5557 B(  1-Pd, 92-N ) :   0.5444 
B(  1-Pd,140-N ) :   0.5453 B(  1-Pd,188-N ) :   0.5527 B(  2-C ,  3-C ) :   2.5820 
B(  2-C , 20-C ) :   0.9959 B(  3-C ,  4-C ) :   0.9885 B(  4-C ,  5-C ) :   1.4695 
B(  4-C , 13-C ) :   1.2183 B(  5-C ,  6-C ) :   1.2610 B(  5-C , 14-H ) :   0.9925 
B(  6-C ,  7-C ) :   1.4591 B(  6-C , 15-H ) :   0.9808 B(  7-C ,  8-C ) :   1.2684 
B(  7-C , 16-H ) :   0.9946 B(  8-C ,  9-C ) :   1.2477 B(  8-C , 13-C ) :   1.2215 
B(  9-C , 10-C ) :   1.5576 B(  9-C , 17-H ) :   0.9738 B( 10-C , 11-N ) :   1.2039 
B( 10-C , 18-H ) :   0.9460 B( 11-N , 12-C ) :   1.4011 B( 12-C , 13-C ) :   1.3331 
B( 12-C , 19-H ) :   0.9357 B( 20-C , 21-C ) :   1.3001 B( 20-C , 32-C ) :   1.3482 
B( 21-C , 22-C ) :   1.4163 B( 21-C , 33-H ) :   0.9874 B( 22-C , 23-C ) :   1.3184 
B( 22-C , 34-H ) :   0.9917 B( 23-C , 24-N ) :   1.1311 B( 23-C , 31-C ) :   1.2629 
B( 24-N , 25-C ) :   1.1492 B( 24-N , 35-H ) :   0.9292 B( 25-C , 26-C ) :   1.3044 
B( 25-C , 30-C ) :   1.2510 B( 26-C , 27-C ) :   1.4307 B( 26-C , 36-H ) :   1.0029 
B( 27-C , 28-C ) :   1.3088 B( 27-C , 37-H ) :   0.9812 B( 28-C , 29-C ) :   1.3529 
B( 28-C , 40-C ) :   1.0328 B( 29-C , 30-C ) :   1.3938 B( 29-C , 38-H ) :   0.9764 
B( 30-C , 31-C ) :   1.1137 B( 31-C , 32-C ) :   1.3418 B( 32-C , 39-H ) :   0.9966 
B( 40-C , 41-C ) :   1.3609 B( 40-C , 45-C ) :   1.3874 B( 41-C , 42-C ) :   1.4116 
B( 41-C , 46-H ) :   0.9782 B( 42-C , 43-C ) :   1.4147 B( 42-C , 47-H ) :   0.9728 
B( 43-C , 44-N ) :   1.3158 B( 43-C , 48-H ) :   0.9529 B( 44-N , 45-C ) :   1.3272 
B( 45-C , 49-H ) :   0.9506 B( 50-C , 51-C ) :   2.5786 B( 50-C , 68-C ) :   0.9915 
B( 51-C , 52-C ) :   0.9878 B( 52-C , 53-C ) :   1.4657 B( 52-C , 61-C ) :   1.2201 
B( 53-C , 54-C ) :   1.2596 B( 53-C , 62-H ) :   0.9928 B( 54-C , 55-C ) :   1.4601 
B( 54-C , 63-H ) :   0.9806 B( 55-C , 56-C ) :   1.2669 B( 55-C , 64-H ) :   0.9946 
B( 56-C , 57-C ) :   1.2480 B( 56-C , 61-C ) :   1.2228 B( 57-C , 58-C ) :   1.5547 
B( 57-C , 65-H ) :   0.9738 B( 58-C , 59-N ) :   1.2111 B( 58-C , 66-H ) :   0.9424 
B( 59-N , 60-C ) :   1.3971 B( 60-C , 61-C ) :   1.3338 B( 60-C , 67-H ) :   0.9336 
B( 68-C , 69-C ) :   1.3002 B( 68-C , 80-C ) :   1.3506 B( 69-C , 70-C ) :   1.4159 
B( 69-C , 81-H ) :   0.9867 B( 70-C , 71-C ) :   1.3114 B( 70-C , 82-H ) :   0.9947 
B( 71-C , 72-N ) :   1.1490 B( 71-C , 79-C ) :   1.2522 B( 72-N , 73-C ) :   1.1574 
B( 72-N , 83-H ) :   0.9278 B( 73-C , 74-C ) :   1.3061 B( 73-C , 78-C ) :   1.2465 
B( 74-C , 75-C ) :   1.4359 B( 74-C , 84-H ) :   1.0021 B( 75-C , 76-C ) :   1.3100 
B( 75-C , 85-H ) :   0.9816 B( 76-C , 77-C ) :   1.3597 B( 76-C , 88-C ) :   1.0219 
B( 77-C , 78-C ) :   1.3837 B( 77-C , 86-H ) :   0.9818 B( 78-C , 79-C ) :   1.1182 
B( 79-C , 80-C ) :   1.3438 B( 80-C , 87-H ) :   0.9974 B( 88-C , 89-C ) :   1.3670 
B( 88-C , 93-C ) :   1.3879 B( 89-C , 90-C ) :   1.4080 B( 89-C , 94-H ) :   0.9796 
B( 90-C , 91-C ) :   1.4223 B( 90-C , 95-H ) :   0.9727 B( 91-C , 92-N ) :   1.3140 
B( 91-C , 96-H ) :   0.9543 B( 92-N , 93-C ) :   1.3291 B( 93-C , 97-H ) :   0.9563 
B( 98-C , 99-C ) :   2.5804 B( 98-C ,116-C ) :   0.9935 B( 99-C ,100-C ) :   0.9796 
B(100-C ,101-C ) :   1.4713 B(100-C ,109-C ) :   1.2227 B(101-C ,102-C ) :   1.2527 
B(101-C ,110-H ) :   0.9934 B(102-C ,103-C ) :   1.4595 B(102-C ,111-H ) :   0.9804 
B(103-C ,104-C ) :   1.2635 B(103-C ,112-H ) :   0.9966 B(104-C ,105-C ) :   1.2475 
B(104-C ,109-C ) :   1.2218 B(105-C ,106-C ) :   1.5487 B(105-C ,113-H ) :   0.9751 
B(106-C ,107-N ) :   1.2022 B(106-C ,114-H ) :   0.9441 B(107-N ,108-C ) :   1.4008 
B(108-C ,109-C ) :   1.3291 B(108-C ,115-H ) :   0.9319 B(116-C ,117-C ) :   1.3039 
B(116-C ,128-C ) :   1.3501 B(117-C ,118-C ) :   1.4137 B(117-C ,129-H ) :   0.9875 
B(118-C ,119-C ) :   1.3153 B(118-C ,130-H ) :   0.9938 B(119-C ,120-N ) :   1.1507 
B(119-C ,127-C ) :   1.2513 B(120-N ,121-C ) :   1.1582 B(120-N ,131-H ) :   0.9278 
B(121-C ,122-C ) :   1.3069 B(121-C ,126-C ) :   1.2470 B(122-C ,123-C ) :   1.4349 
B(122-C ,132-H ) :   1.0018 B(123-C ,124-C ) :   1.3111 B(123-C ,133-H ) :   0.9821 
B(124-C ,125-C ) :   1.3624 B(124-C ,136-C ) :   1.0175 B(125-C ,126-C ) :   1.3811 
B(125-C ,134-H ) :   0.9826 B(126-C ,127-C ) :   1.1167 B(127-C ,128-C ) :   1.3428 
B(128-C ,135-H ) :   0.9977 B(136-C ,137-C ) :   1.3673 B(136-C ,141-C ) :   1.3960 
B(137-C ,138-C ) :   1.4086 B(137-C ,142-H ) :   0.9801 B(138-C ,139-C ) :   1.4197 
B(138-C ,143-H ) :   0.9734 B(139-C ,140-N ) :   1.3197 B(139-C ,144-H ) :   0.9540 
B(140-N ,141-C ) :   1.3239 B(141-C ,145-H ) :   0.9576 B(146-C ,147-C ) :   2.5787 
B(146-C ,164-C ) :   1.0007 B(147-C ,148-C ) :   0.9806 B(148-C ,149-C ) :   1.4757 
B(148-C ,157-C ) :   1.2227 B(149-C ,150-C ) :   1.2541 B(149-C ,158-H ) :   0.9904 
B(150-C ,151-C ) :   1.4606 B(150-C ,159-H ) :   0.9815 B(151-C ,152-C ) :   1.2636 
B(151-C ,160-H ) :   0.9963 B(152-C ,153-C ) :   1.2479 B(152-C ,157-C ) :   1.2196 
B(153-C ,154-C ) :   1.5488 B(153-C ,161-H ) :   0.9753 B(154-C ,155-N ) :   1.2054 
B(154-C ,162-H ) :   0.9460 B(155-N ,156-C ) :   1.4007 B(156-C ,157-C ) :   1.3330 
B(156-C ,163-H ) :   0.9331 B(164-C ,165-C ) :   1.3012 B(164-C ,176-C ) :   1.3487 
B(165-C ,166-C ) :   1.4179 B(165-C ,177-H ) :   0.9875 B(166-C ,167-C ) :   1.3184 
B(166-C ,178-H ) :   0.9910 B(167-C ,168-N ) :   1.1330 B(167-C ,175-C ) :   1.2645 
B(168-N ,169-C ) :   1.1504 B(168-N ,179-H ) :   0.9294 B(169-C ,170-C ) :   1.3043 
B(169-C ,174-C ) :   1.2526 B(170-C ,171-C ) :   1.4301 B(170-C ,180-H ) :   1.0026 
B(171-C ,172-C ) :   1.3082 B(171-C ,181-H ) :   0.9816 B(172-C ,173-C ) :   1.3584 
B(172-C ,184-C ) :   1.0263 B(173-C ,174-C ) :   1.3891 B(173-C ,182-H ) :   0.9778 
B(174-C ,175-C ) :   1.1109 B(175-C ,176-C ) :   1.3378 B(176-C ,183-H ) :   0.9973 
B(184-C ,185-C ) :   1.3628 B(184-C ,189-C ) :   1.3937 B(185-C ,186-C ) :   1.4113 
B(185-C ,190-H ) :   0.9785 B(186-C ,187-C ) :   1.4178 B(186-C ,191-H ) :   0.9728 
B(187-C ,188-N ) :   1.3127 B(187-C ,192-H ) :   0.9507 B(188-N ,189-C ) :   1.3290 
B(189-C ,193-H ) :   0.9552 

-------
TIMINGS
-------

Total SCF time: 0 days 0 hours 28 min 34 sec 

Total time                  ....    1714.405 sec
Sum of individual times     ....    1705.912 sec  ( 99.5%)

Fock matrix formation       ....    1407.176 sec  ( 82.1%)
  XC integration            ....      41.830 sec  (  3.0% of F)
    Basis function eval.    ....      10.068 sec  ( 24.1% of XC)
    Density eval.           ....      15.809 sec  ( 37.8% of XC)
    XC-Functional eval.     ....       1.037 sec  (  2.5% of XC)
    XC-Potential eval.      ....       5.817 sec  ( 13.9% of XC)
Diagonalization             ....      27.083 sec  (  1.6%)
Density matrix formation    ....       1.437 sec  (  0.1%)
Population analysis         ....       8.090 sec  (  0.5%)
Initial guess               ....     106.053 sec  (  6.2%)
Orbital Transformation      ....       0.000 sec  (  0.0%)
Orbital Orthonormalization  ....       0.000 sec  (  0.0%)
DIIS solution               ....     112.443 sec  (  6.6%)
Grid generation             ....      43.631 sec  (  2.5%)


-------------------------------------------------------------------------------
                          DFT DISPERSION CORRECTION                            
                                                                               
                              DFTD3 V3.1  Rev 1                                
                          USING Becke-Johnson damping                          
-------------------------------------------------------------------------------
The PBE0 functional is recognized
Active option DFTDOPT                   ...         4   

molecular C6(AA) [au] = 574858.999552 


            DFT-D V3
 parameters
 s6 scaling factor         :     1.0000 
 a1 scaling factor         :     0.4145 
 s8 scaling factor         :     1.2177 
 a2 scaling factor         :     4.8593 
 ad hoc parameters k1-k3   :    16.0000     1.3333    -4.0000 

 Edisp/kcal,au: -214.713737499477  -0.342168084261 
 E6   /kcal   : -134.630205202 
 E8   /kcal   : -80.083532297 
 % E8         :  37.297814863 

-------------------------   ----------------
Dispersion correction           -0.342168084
-------------------------   ----------------


-------------------------   --------------------
FINAL SINGLE POINT ENERGY     -5211.765177416600
-------------------------   --------------------


                            ***************************************
                            *     ORCA property calculations      *
                            ***************************************

                                    ---------------------
                                    Active property flags
                                    ---------------------
   (+) Dipole Moment


------------------------------------------------------------------------------
                       ORCA ELECTRIC PROPERTIES CALCULATION
------------------------------------------------------------------------------

Dipole Moment Calculation                       ... on
Quadrupole Moment Calculation                   ... off
Polarizability Calculation                      ... off
GBWName                                         ... _s_4c1_b_PBE0.gbw
Electron density file                           ... _s_4c1_b_PBE0.scfp
The origin for moment calculation is the CENTER OF MASS  = ( 0.759457,  0.952040  0.192997)

-------------
DIPOLE MOMENT
-------------
                                X             Y             Z
Electronic contribution:     16.86808     -22.06798      55.21752
Nuclear contribution   :    -16.80368      20.76171     -55.09881
                        -----------------------------------------
Total Dipole Moment    :      0.06440      -1.30627       0.11871
                        -----------------------------------------
Magnitude (a.u.)       :      1.31323
Magnitude (Debye)      :      3.33798



--------------------
Rotational spectrum 
--------------------
 
Rotational constants in cm-1:     0.000432     0.000292     0.000268 
Rotational constants in MHz :    12.963404     8.754621     8.040533 

 Dipole components along the rotational axes: 
x,y,z [a.u.] :    -1.302821     0.161492     0.034077 
x,y,z [Debye]:    -3.311508     0.410480     0.086618 

 

Timings for individual modules:

Sum of individual times         ...     1807.124 sec (=  30.119 min)
GTO integral calculation        ...       42.352 sec (=   0.706 min)   2.3 %
SCF iterations                  ...     1764.773 sec (=  29.413 min)  97.7 %
                             ****ORCA TERMINATED NORMALLY****
TOTAL RUN TIME: 0 days 0 hours 30 minutes 55 seconds 951 msec
