Job execution start: Tue Jun 22 10:57:01 BST 2021
Shared library path: /work/e05/e05/atarzia/orca_4_2_1_linux_x86-64_openmpi314:/work/e05/e05/atarzia/openmpi-3.1.4/lib:/opt/cray/pe/papi/6.0.0.4/lib64:/opt/cray/libfabric/1.11.0.0.233/lib64
Slurm Job ID is: 344576
Slurm Job name is: s_4d2_c_PBE0
nid001773

                                 *****************
                                 * O   R   C   A *
                                 *****************

           --- An Ab Initio, DFT and Semiempirical electronic structure package ---

                  #######################################################
                  #                        -***-                        #
                  #          Department of theory and spectroscopy      #
                  #               Directorship: Frank Neese             #
                  #        Max Planck Institute fuer Kohlenforschung    #
                  #                Kaiser Wilhelm Platz 1               #
                  #                 D-45470 Muelheim/Ruhr               #
                  #                      Germany                        #
                  #                                                     #
                  #                  All rights reserved                #
                  #                        -***-                        #
                  #######################################################


                         Program Version 4.2.1 -  RELEASE  -


 With contributions from (in alphabetic order):
   Daniel Aravena         : Magnetic Suceptibility
   Michael Atanasov       : Ab Initio Ligand Field Theory (pilot matlab implementation)
   Alexander A. Auer      : GIAO ZORA, VPT2
   Ute Becker             : Parallelization
   Giovanni Bistoni       : ED, misc. LED, open-shell LED, HFLD
   Martin Brehm           : Molecular dynamics
   Dmytro Bykov           : SCF Hessian
   Vijay G. Chilkuri      : MRCI spin determinant printing, contributions to CSF-ICE
   Dipayan Datta          : RHF DLPNO-CCSD density
   Achintya Kumar Dutta   : EOM-CC, STEOM-CC
   Dmitry Ganyushin       : Spin-Orbit,Spin-Spin,Magnetic field MRCI
   Miquel Garcia          : C-PCM Hessian, Gaussian charge scheme
   Yang Guo               : DLPNO-NEVPT2, CIM, IAO-localization
   Andreas Hansen         : Spin unrestricted coupled pair/coupled cluster methods
   Benjamin Helmich-Paris : CASSCF linear response (MC-RPA)
   Lee Huntington         : MR-EOM, pCC
   Robert Izsak           : Overlap fitted RIJCOSX, COSX-SCS-MP3, EOM
   Christian Kollmar      : KDIIS, OOCD, Brueckner-CCSD(T), CCSD density
   Simone Kossmann        : Meta GGA functionals, TD-DFT gradient, OOMP2, MP2 Hessian
   Martin Krupicka        : AUTO-CI
   Lucas Lang             : DCDCAS
   Dagmar Lenk            : GEPOL surface, SMD
   Dimitrios Liakos       : Extrapolation schemes; Compound Job, initial MDCI parallelization
   Dimitrios Manganas     : Further ROCIS development; embedding schemes
   Dimitrios Pantazis     : SARC Basis sets
   Taras Petrenko         : DFT Hessian,TD-DFT gradient, ASA, ECA, R-Raman, ABS, FL, XAS/XES, NRVS
   Peter Pinski           : DLPNO-MP2, DLPNO-MP2 Gradient
   Christoph Reimann      : Effective Core Potentials
   Marius Retegan         : Local ZFS, SOC
   Christoph Riplinger    : Optimizer, TS searches, QM/MM, DLPNO-CCSD(T), (RO)-DLPNO pert. Triples
   Tobias Risthaus        : Range-separated hybrids, TD-DFT gradient, RPA, STAB
   Michael Roemelt        : Original ROCIS implementation
   Masaaki Saitow         : Open-shell DLPNO-CCSD energy and density
   Barbara Sandhoefer     : DKH picture change effects
   Avijit Sen             : IP-ROCIS
   Kantharuban Sivalingam : CASSCF convergence, NEVPT2, FIC-MRCI
   Bernardo de Souza      : ESD, SOC TD-DFT
   Georgi Stoychev        : AutoAux, RI-MP2 NMR
   Willem Van den Heuvel  : Paramagnetic NMR
   Boris Wezisla          : Elementary symmetry handling
   Frank Wennmohs         : Technical directorship


 We gratefully acknowledge several colleagues who have allowed us to
 interface, adapt or use parts of their codes:
   Stefan Grimme, W. Hujo, H. Kruse,             : VdW corrections, initial TS optimization,
                  C. Bannwarth                     DFT functionals, gCP, sTDA/sTD-DF
   Ed Valeev, F. Pavosevic, A. Kumar             : LibInt (2-el integral package), F12 methods
   Garnet Chan, S. Sharma, J. Yang, R. Olivares  : DMRG
   Ulf Ekstrom                                   : XCFun DFT Library
   Mihaly Kallay                                 : mrcc  (arbitrary order and MRCC methods)
   Andreas Klamt, Michael Diedenhofen            : otool_cosmo (COSMO solvation model)
   Jiri Pittner, Ondrej Demel                    : Mk-CCSD
   Frank Weinhold                                : gennbo (NPA and NBO analysis)
   Christopher J. Cramer and Donald G. Truhlar   : smd solvation model
   Lars Goerigk                                  : TD-DFT with DH, B97 family of functionals
   V. Asgeirsson, H. Jonsson                     : NEB implementation
   FAccTs GmbH                                   : IRC, NEB, NEB-TS, Multilevel, MM, QM/MM, CI optimization
   S Lehtola, MJT Oliveira, MAL Marques          : LibXC Library


 Your calculation uses the libint2 library for the computation of 2-el integrals
 For citations please refer to: http://libint.valeyev.net

 Your ORCA version has been built with support for libXC version: 4.2.3
 For citations please refer to: https://tddft.org/programs/libxc/

 This ORCA versions uses:
   CBLAS   interface :  Fast vector & matrix operations
   LAPACKE interface :  Fast linear algebra routines
   SCALAPACK package :  Parallel linear algebra routines




***************************************
The coordinates will be read from file: s_4d2_c.xyz
***************************************


Your calculation utilizes the atom-pairwise dispersion correction
with the Becke-Johnson damping scheme (D3BJ)
Cite in your paper:
S.Grimme, S.Ehrlich, L.Goerigk, J Comput Chem, (2011), 32, 1456–1465 
S.Grimme, J.Antony, S.Ehrlich and H.Krieg, J.Chem.Phys., 132, (2010), 154104 
   

----- Orbital basis set information -----
Your calculation utilizes the basis: def2-SVP
   F. Weigend and R. Ahlrichs, Phys. Chem. Chem. Phys. 7, 3297 (2005).

cite the ECPs for Pd [Def2-ECP] as follows:
Ce-Yb(ecp-28): M. Dolg, H. Stoll, H.Preuss, J. Chem. Phys., 1989, 90, 1730-1734.
Y-Cd(ecp-28), Hf-Hg(ecp-46): D. Andrae,U. Haeussermann, M. Dolg, H. Stoll, H. Preuss, Theor. Chim. Acta, 1990, 77, 123-141.
In-Sb(ecp-28), Tl-Bi(ecp-46): B. Metz, H. Stoll, M. Dolg, J. Chem. Phys., 2000, 113, 2563-2569.
Te-Xe(ecp-28), Po-Rn(ecp-46): K. A. Peterson, D. Figgen, E. Goll, H. Stoll, M. Dolg, J. Chem. Phys., 2003, 119, 11113-11123.
Rb(ecp-28), Cs(ecp-46): T. Leininger, A. Nicklass, W. Kuechle, H. Stoll, M. Dolg, A. Bergner, Chem. Phys. Lett., 1996, 255, 274-280.
Sr(ecp-28), Ba(ecp-46): M. Kaupp, P. V. Schleyer, H. Stoll and H. Preuss, J. Chem. Phys., 1991, 94, 1360-1366.
La(ecp-46): M. Dolg, H. Stoll, A. Savin, H. Preuss, Theor. Chim. Acta, 1989, 75, 173-194.
Lu(ecp-28): X. Cao, M. Dolg, J. Chem. Phys., 2001, 115, 7348-7355.

ECP parameters for Pd [Def2-ECP] have been obtained from:
TURBOMOLE (7.0.2)

================================================================================
                                        WARNINGS
                       Please study these warnings very carefully!
================================================================================


INFO   : the flag for use of LIBINT has been found!

================================================================================
                                       INPUT FILE
================================================================================
NAME = s_4d2_c_PBE0.in
|  1> ! DFT SP RKS PBE0 def2-SVP D3BJ Grid6 NOFINALGRID SlowConv TightSCF printbasis 
|  2> 
|  3> %base "_s_4d2_c_PBE0"
|  4> %maxcore 3000
|  5> %scf
|  6>    MaxIter 2000
|  7> end
|  8> %pal
|  9>    nprocs 32
| 10> end
| 11> 
| 12> * xyzfile 4 1 s_4d2_c.xyz
| 13> 
| 14>                          ****END OF INPUT****
================================================================================

                       ****************************
                       * Single Point Calculation *
                       ****************************

---------------------------------
CARTESIAN COORDINATES (ANGSTROEM)
---------------------------------
  Pd     0.466900    3.600700    0.244100
  Pd     1.352600   -5.611700    1.251500
  C      6.843100   -2.924200    1.129800
  C      6.759600   -4.129900    1.185100
  C      6.763000   -5.536900    1.126600
  C      7.970100   -6.211600    1.087100
  C      8.017000   -7.598100    0.907900
  C      6.866700   -8.326100    0.732000
  C      5.615700   -7.684200    0.776500
  C      4.396400   -8.369400    0.574200
  C      3.214900   -7.692900    0.660000
  N      3.162300   -6.377100    0.982600
  C      4.279500   -5.695100    1.143400
  C      5.549000   -6.280800    1.017400
  H      8.890700   -5.656100    1.180300
  H      8.977000   -8.091000    0.885200
  H      6.907900   -9.389700    0.556900
  H      4.413600   -9.423700    0.348900
  H      2.260700   -8.181400    0.473600
  H      4.189900   -4.641600    1.397100
  C      6.936000   -1.525200    0.966900
  C      8.190700   -0.910500    0.902400
  C      8.275100    0.448600    0.662100
  C      7.130800    1.206500    0.479300
  C      5.870200    0.607800    0.546500
  C      5.783500   -0.759700    0.801700
  H      9.085000   -1.500400    1.032000
  H      9.244000    0.921200    0.605900
  H      7.225100    2.256200    0.250200
  H      4.823200   -1.240200    0.898000
  C      4.647900    1.389900    0.338700
  C      4.542700    2.727600    0.733300
  C      3.348400    3.397900    0.564600
  N      2.269400    2.804600    0.045900
  C      2.357500    1.537000   -0.376100
  C      3.520700    0.810300   -0.259500
  H      5.376200    3.232800    1.193400
  H      3.233400    4.437900    0.855800
  H      1.452900    1.119200   -0.815600
  H      3.569800   -0.196900   -0.640500
  C      1.977500   -2.816600    6.633500
  C      2.002300   -4.024900    6.578300
  C      1.920300   -5.429900    6.624600
  C      2.023900   -6.077400    7.842700
  C      1.826800   -7.458600    7.945400
  C      1.491200   -8.207300    6.845000
  C      1.386000   -7.593700    5.583400
  C      1.015900   -8.300100    4.416800
  C      0.960800   -7.650600    3.218200
  N      1.297800   -6.343500    3.093500
  C      1.614400   -5.641900    4.164400
  C      1.642300   -6.197600    5.453000
  H      2.244600   -5.504400    8.730200
  H      1.918700   -7.930100    8.911900
  H      1.303300   -9.265800    6.934000
  H      0.775600   -9.348800    4.487600
  H      0.643700   -8.154800    2.307900
  H      1.874900   -4.596100    4.018000
  C      1.848200   -1.412900    6.707700
  C      1.927100   -0.768800    7.946700
  C      1.717400    0.595800    8.022900
  C      1.424400    1.330300    6.886300
  C      1.348500    0.702200    5.640500
  C      1.573200   -0.671100    5.560700
  H      2.142300   -1.340400    8.836400
  H      1.771800    1.091300    8.980300
  H      1.221500    2.385500    6.979000
  H      1.561300   -1.174600    4.607400
  C      1.020900    1.460600    4.429500
  C      1.415600    2.790900    4.253900
  C      1.122800    3.440300    3.072100
  N      0.481800    2.833100    2.069300
  C      0.061600    1.571700    2.227900
  C      0.299000    0.866000    3.385600
  H      1.969600    3.306600    5.021100
  H      1.409900    4.474300    2.904700
  H     -0.477700    1.141600    1.385100
  H     -0.082600   -0.136100    3.495300
  C     -5.023000    0.912000    0.360900
  C     -4.939100    2.117900    0.312200
  C     -4.942700    3.524600    0.378500
  C     -6.150100    4.198500    0.424800
  C     -6.197300    5.584000    0.612000
  C     -5.046900    6.311500    0.788900
  C     -3.795700    5.670600    0.737500
  C     -2.576200    6.355300    0.940200
  C     -1.394500    5.679900    0.847700
  N     -1.342100    4.365800    0.518100
  C     -2.459400    3.684100    0.356400
  C     -3.728900    4.268500    0.488700
  H     -7.070600    3.643000    0.331000
  H     -7.157400    6.076200    0.640000
  H     -5.088100    7.374100    0.970000
  H     -2.593300    7.408400    1.171000
  H     -0.440200    6.168000    1.034200
  H     -2.369800    2.632000    0.096700
  C     -5.116100   -0.487800    0.516300
  C     -6.370600   -1.103800    0.569600
  C     -6.455500   -2.464100    0.802800
  C     -5.311700   -3.222000    0.989500
  C     -4.051300   -2.622000    0.933600
  C     -3.964100   -1.253200    0.685400
  H     -7.264600   -0.514100    0.437000
  H     -7.424300   -2.937800    0.850400
  H     -5.406700   -4.272800    1.213000
  H     -3.003500   -0.771500    0.598000
  C     -2.829600   -3.403900    1.145300
  C     -2.720700   -4.739500    0.744700
  C     -1.526700   -5.409400    0.917200
  N     -0.451200   -4.817600    1.445000
  C     -0.543400   -3.552300    1.873000
  C     -1.706600   -2.826200    1.753300
  H     -3.550900   -5.243300    0.277200
  H     -1.408900   -6.447900    0.621400
  H      0.358100   -3.135800    2.320000
  H     -1.759000   -1.821200    2.139400
  C     -0.132700    0.807000   -5.143900
  C     -0.161800    2.015200   -5.087500
  C     -0.084400    3.420500   -5.132300
  C     -0.184600    4.068600   -6.350400
  C      0.008000    5.450500   -6.451200
  C      0.335800    6.199500   -5.348700
  C      0.437400    5.585300   -4.087100
  C      0.800000    6.292000   -2.918400
  C      0.852400    5.641800   -1.720100
  N      0.519500    4.333400   -1.597700
  C      0.209800    3.631500   -2.670500
  C      0.185500    4.188200   -3.958800
  H     -0.399200    3.495400   -7.239400
  H     -0.081100    5.922400   -7.417800
  H      0.520300    7.258700   -5.436000
  H      1.036900    7.341700   -2.987300
  H      1.164000    6.146500   -0.808200
  H     -0.047500    2.584800   -2.526200
  C      0.001600   -0.596200   -5.218400
  C     -0.064400   -1.239200   -6.458700
  C      0.149800   -2.603100   -6.534400
  C      0.434700   -3.338100   -5.396000
  C      0.497800   -2.711000   -4.149000
  C      0.268400   -1.338500   -4.069800
  H     -0.273200   -0.667200   -7.349700
  H      0.105300   -3.097700   -7.492800
  H      0.641400   -4.392500   -5.487900
  H      0.270300   -0.835900   -3.115900
  C      0.817500   -3.469600   -2.936000
  C      0.425400   -4.801200   -2.764600
  C      0.711300   -5.450900   -1.581300
  N      1.343000   -4.842800   -0.573200
  C      1.760300   -3.579900   -0.727200
  C      1.529300   -2.873700   -1.885900
  H     -0.121200   -5.317800   -3.536600
  H      0.426000   -6.485900   -1.416900
  H      2.291600   -3.148700    0.120200
  H      1.908100   -1.870200   -1.991700

----------------------------
CARTESIAN COORDINATES (A.U.)
----------------------------
  NO LB      ZA    FRAG     MASS         X           Y           Z
   0 Pd   18.0000*   0   106.400    0.882313    6.804337    0.461282
   1 Pd   18.0000*   0   106.400    2.556044  -10.604576    2.364992
   2 C     6.0000    0    12.011   12.931585   -5.525937    2.135013
   3 C     6.0000    0    12.011   12.773793   -7.804380    2.239514
   4 C     6.0000    0    12.011   12.780218  -10.463225    2.128965
   5 C     6.0000    0    12.011   15.061306  -11.738223    2.054321
   6 C     6.0000    0    12.011   15.149934  -14.358328    1.715682
   7 C     6.0000    0    12.011   12.976182  -15.734049    1.383280
   8 C     6.0000    0    12.011   10.612135  -14.521034    1.467372
   9 C     6.0000    0    12.011    8.307992  -15.815874    1.085081
  10 C     6.0000    0    12.011    6.075281  -14.537474    1.247219
  11 N     7.0000    0    14.007    5.975881  -12.050973    1.856845
  12 C     6.0000    0    12.011    8.087083  -10.762179    2.160713
  13 C     6.0000    0    12.011   10.486090  -11.868992    1.922607
  14 H     1.0000    0     1.008   16.800988  -10.688480    2.230444
  15 H     1.0000    0     1.008   16.964072  -15.289774    1.672786
  16 H     1.0000    0     1.008   13.054039  -17.743961    1.052388
  17 H     1.0000    0     1.008    8.340495  -17.808212    0.659325
  18 H     1.0000    0     1.008    4.272104  -15.460605    0.894974
  19 H     1.0000    0     1.008    7.917764   -8.771353    2.640136
  20 C     6.0000    0    12.011   13.107140   -2.882210    1.827176
  21 C     6.0000    0    12.011   15.478180   -1.720596    1.705289
  22 C     6.0000    0    12.011   15.637673    0.847731    1.251188
  23 C     6.0000    0    12.011   13.475259    2.279955    0.905746
  24 C     6.0000    0    12.011   11.093070    1.148576    1.032735
  25 C     6.0000    0    12.011   10.929231   -1.435625    1.514993
  26 H     1.0000    0     1.008   17.168162   -2.835345    1.950197
  27 H     1.0000    0     1.008   17.468628    1.740816    1.144985
  28 H     1.0000    0     1.008   13.653460    4.263600    0.472809
  29 H     1.0000    0     1.008    9.114527   -2.343638    1.696974
  30 C     6.0000    0    12.011    8.783258    2.626530    0.640050
  31 C     6.0000    0    12.011    8.584459    5.154417    1.385736
  32 C     6.0000    0    12.011    6.327559    6.421100    1.066939
  33 N     7.0000    0    14.007    4.288544    5.299926    0.086738
  34 C     6.0000    0    12.011    4.455029    2.904509   -0.710726
  35 C     6.0000    0    12.011    6.653159    1.531245   -0.490384
  36 H     1.0000    0     1.008   10.159546    6.109107    2.255199
  37 H     1.0000    0     1.008    6.110240    8.386416    1.617228
  38 H     1.0000    0     1.008    2.745583    2.114981   -1.541261
  39 H     1.0000    0     1.008    6.745944   -0.372087   -1.210370
  40 C     6.0000    0    12.011    3.736933   -5.322603   12.535498
  41 C     6.0000    0    12.011    3.783799   -7.605959   12.431185
  42 C     6.0000    0    12.011    3.628841  -10.261024   12.518680
  43 C     6.0000    0    12.011    3.824617  -11.484622   14.820555
  44 C     6.0000    0    12.011    3.452152  -14.094711   15.014630
  45 C     6.0000    0    12.011    2.817960  -15.509549   12.935175
  46 C     6.0000    0    12.011    2.619160  -14.350013   10.551097
  47 C     6.0000    0    12.011    1.919773  -15.684916    8.346542
  48 C     6.0000    0    12.011    1.815649  -14.457539    6.081517
  49 N     7.0000    0    14.007    2.452487  -11.987478    5.845868
  50 C     6.0000    0    12.011    3.050774  -10.661646    7.869576
  51 C     6.0000    0    12.011    3.103497  -11.711767   10.304677
  52 H     1.0000    0     1.008    4.241679  -10.401809   16.497687
  53 H     1.0000    0     1.008    3.625818  -14.985717   16.841050
  54 H     1.0000    0     1.008    2.462880  -17.509824   13.103361
  55 H     1.0000    0     1.008    1.465672  -17.666672    8.480335
  56 H     1.0000    0     1.008    1.216417  -15.410339    4.361299
  57 H     1.0000    0     1.008    3.543048   -8.685370    7.592920
  58 C     6.0000    0    12.011    3.492592   -2.669994   12.675716
  59 C     6.0000    0    12.011    3.641691   -1.452821   15.017087
  60 C     6.0000    0    12.011    3.245416    1.125899   15.161084
  61 C     6.0000    0    12.011    2.691726    2.513903   13.013221
  62 C     6.0000    0    12.011    2.548296    1.326966   10.659000
  63 C     6.0000    0    12.011    2.972917   -1.268195   10.508200
  64 H     1.0000    0     1.008    4.048360   -2.532989   16.698376
  65 H     1.0000    0     1.008    3.348217    2.062258   16.970308
  66 H     1.0000    0     1.008    2.308300    4.507942   13.188399
  67 H     1.0000    0     1.008    2.950429   -2.219672    8.706724
  68 C     6.0000    0    12.011    1.929221    2.760134    8.370542
  69 C     6.0000    0    12.011    2.675096    5.274037    8.038706
  70 C     6.0000    0    12.011    2.121785    6.501225    5.805428
  71 N     7.0000    0    14.007    0.910470    5.353783    3.910410
  72 C     6.0000    0    12.011    0.116407    2.970083    4.210121
  73 C     6.0000    0    12.011    0.565028    1.636503    6.397857
  74 H     1.0000    0     1.008    3.722005    6.248568    9.488504
  75 H     1.0000    0     1.008    2.664325    8.455202    5.489088
  76 H     1.0000    0     1.008   -0.902722    2.157311    2.617460
  77 H     1.0000    0     1.008   -0.156091   -0.257192    6.605160
  78 C     6.0000    0    12.011   -9.492094    1.723430    0.682002
  79 C     6.0000    0    12.011   -9.333546    4.002251    0.589972
  80 C     6.0000    0    12.011   -9.340349    6.660529    0.715261
  81 C     6.0000    0    12.011  -11.622005    7.934015    0.802756
  82 C     6.0000    0    12.011  -11.711200   10.552231    1.156512
  83 C     6.0000    0    12.011   -9.537259   11.927006    1.490805
  84 C     6.0000    0    12.011   -7.172833   10.715881    1.393673
  85 C     6.0000    0    12.011   -4.868312   12.009776    1.776721
  86 C     6.0000    0    12.011   -2.635223   10.733455    1.601921
  87 N     7.0000    0    14.007   -2.536201    8.250166    0.979067
  88 C     6.0000    0    12.011   -4.647592    6.961940    0.673498
  89 C     6.0000    0    12.011   -7.046600    8.066296    0.923509
  90 H     1.0000    0     1.008  -13.361498    6.884272    0.625499
  91 H     1.0000    0     1.008  -13.525526   11.482354    1.209425
  92 H     1.0000    0     1.008   -9.615116   13.935029    1.833034
  93 H     1.0000    0     1.008   -4.900627   13.999847    2.212869
  94 H     1.0000    0     1.008   -0.831857   11.655831    1.954355
  95 H     1.0000    0     1.008   -4.478273    4.973759    0.182737
  96 C     6.0000    0    12.011   -9.668028   -0.921808    0.975666
  97 C     6.0000    0    12.011  -12.038689   -2.085880    1.076388
  98 C     6.0000    0    12.011  -12.199127   -4.656474    1.517072
  99 C     6.0000    0    12.011  -10.037658   -6.088698    1.869884
 100 C     6.0000    0    12.011   -7.655847   -4.954862    1.764248
 101 C     6.0000    0    12.011   -7.491063   -2.368205    1.295218
 102 H     1.0000    0     1.008  -13.728104   -0.971508    0.825810
 103 H     1.0000    0     1.008  -14.029894   -5.551637    1.607023
 104 H     1.0000    0     1.008  -10.217182   -8.074422    2.292238
 105 H     1.0000    0     1.008   -5.675792   -1.457924    1.130056
 106 C     6.0000    0    12.011   -5.347169   -6.432439    2.164303
 107 C     6.0000    0    12.011   -5.141378   -8.956357    1.407279
 108 C     6.0000    0    12.011   -2.885045  -10.222285    1.733257
 109 N     7.0000    0    14.007   -0.852644   -9.103945    2.730654
 110 C     6.0000    0    12.011   -1.026877   -6.712874    3.539457
 111 C     6.0000    0    12.011   -3.225007   -5.340744    3.313257
 112 H     1.0000    0     1.008   -6.710229   -9.908401    0.523832
 113 H     1.0000    0     1.008   -2.662435  -12.184765    1.174276
 114 H     1.0000    0     1.008    0.676711   -5.925803    4.384165
 115 H     1.0000    0     1.008   -3.324028   -3.441569    4.042880
 116 C     6.0000    0    12.011   -0.250767    1.525009   -9.720562
 117 C     6.0000    0    12.011   -0.305758    3.808176   -9.613982
 118 C     6.0000    0    12.011   -0.159493    6.463808   -9.698641
 119 C     6.0000    0    12.011   -0.348843    7.688540  -12.000517
 120 C     6.0000    0    12.011    0.015118   10.299952  -12.191001
 121 C     6.0000    0    12.011    0.634570   11.715357  -10.107578
 122 C     6.0000    0    12.011    0.826566   10.554687   -7.723500
 123 C     6.0000    0    12.011    1.511781   11.890157   -5.514977
 124 C     6.0000    0    12.011    1.610803   10.661457   -3.250518
 125 N     7.0000    0    14.007    0.981713    8.188939   -3.019215
 126 C     6.0000    0    12.011    0.396465    6.862540   -5.046514
 127 C     6.0000    0    12.011    0.350544    7.914551   -7.481048
 128 H     1.0000    0     1.008   -0.754379    6.605349  -13.680483
 129 H     1.0000    0     1.008   -0.153257   11.191714  -14.017611
 130 H     1.0000    0     1.008    0.983225   13.716955  -10.272551
 131 H     1.0000    0     1.008    1.959457   13.873802   -5.645179
 132 H     1.0000    0     1.008    2.199641   11.615202   -1.527277
 133 H     1.0000    0     1.008   -0.089762    4.884564   -4.773826
 134 C     6.0000    0    12.011    0.003024   -1.126655   -9.861347
 135 C     6.0000    0    12.011   -0.121698   -2.341749  -12.205174
 136 C     6.0000    0    12.011    0.283081   -4.919146  -12.348226
 137 C     6.0000    0    12.011    0.821464   -6.308095  -10.196962
 138 C     6.0000    0    12.011    0.940706   -5.123048   -7.840474
 139 C     6.0000    0    12.011    0.507202   -2.529398   -7.690807
 140 H     1.0000    0     1.008   -0.516273   -1.260825  -13.888920
 141 H     1.0000    0     1.008    0.198988   -5.853805  -14.159340
 142 H     1.0000    0     1.008    1.212070   -8.300622  -10.370628
 143 H     1.0000    0     1.008    0.510793   -1.579622   -5.888198
 144 C     6.0000    0    12.011    1.544851   -6.556594   -5.548236
 145 C     6.0000    0    12.011    0.803889   -9.072953   -5.224337
 146 C     6.0000    0    12.011    1.344162  -10.300708   -2.988224
 147 N     7.0000    0    14.007    2.537902   -9.151566   -1.083191
 148 C     6.0000    0    12.011    3.326485   -6.765031   -1.374209
 149 C     6.0000    0    12.011    2.889958   -5.430506   -3.563835
 150 H     1.0000    0     1.008   -0.229035  -10.049186   -6.683205
 151 H     1.0000    0     1.008    0.805023  -12.256575   -2.677553
 152 H     1.0000    0     1.008    4.330496   -5.950181    0.227145
 153 H     1.0000    0     1.008    3.605786   -3.534166   -3.763768
* core charge reduced due to ECP

--------------------------------
INTERNAL COORDINATES (ANGSTROEM)
--------------------------------
 Pd     0   0   0     0.000000000000     0.00000000     0.00000000
 Pd     1   0   0     9.309545263331     0.00000000     0.00000000
 C      2   1   0     6.114168577166    69.40955139     0.00000000
 C      3   2   1     1.209852400089    59.93840506   183.84111258
 C      4   3   2     1.408219730724   173.53419421   129.17573736
 C      5   4   3     1.383427175532   119.37819822    50.09668547
 C      6   5   4     1.398818966128   121.08569107   185.79851910
 C      7   6   5     1.372630649519   120.93176593     1.66279499
 C      8   7   6     1.406775340984   119.94530111   357.80832462
 C      9   8   7     1.413193836669   122.78529566   178.57055494
 C     10   9   8     1.364168662593   119.85564098   178.54569620
 N     11  10   9     1.355790234513   121.99506615   357.63843669
 C     12  11  10     1.318755655912   119.87083078     4.16557494
 C     13  12  11     1.403763064053   122.64386484   358.84287343
 H      6   5   4     1.079245500338   119.39257616     4.80628791
 H      7   6   5     1.079382091754   119.02182494   180.18094466
 H      8   7   6     1.078704041895   120.77954953   177.67584242
 H     10   9   8     1.078241355171   119.35646551   358.28005664
 H     11  10   9     1.088060131610   121.74391283   177.69207341
 H     13  12  11     1.087315087728   117.36845566   179.72009588
 C      3   2   1     1.411512600015   119.80541135   359.22224812
 C     21   3   2     1.398673811151   119.99702177   181.71937104
 C     22  21   3     1.382758207352   119.65240052   176.11318337
 C     23  22  21     1.384648236918   120.69676782   359.73836154
 C     24  23  22     1.397164947313   120.31425853     0.53518130
 C     21   3   2     1.393390663095   120.24870086   358.45300799
 H     22  21   3     1.079143484436   119.84331772   356.62563749
 H     23  22  21     1.079479694112   119.61340843   180.40627840
 H     24  23  22     1.078540397945   119.24266197   182.67731590
 H     26  21   3     1.078114108061   118.76986083     5.96020757
 C     25  24  23     1.465905365295   121.12307006   180.79315452
 C     31  25  24     1.398648451184   122.20839983   326.48517970
 C     32  31  25     1.379896470754   119.68295896   182.77419399
 N     33  32  31     1.336149535045   122.05233503     0.81235841
 C     34  33  32     1.338900806632   119.31495677   357.19864089
 C     35  34  33     1.376489262581   121.91959305     1.76397265
 H     32  31  25     1.077794646489   120.70249356     1.04053980
 H     33  32  31     1.086104249140   121.60122981   180.27770410
 H     35  34  33     1.089044650141   115.83302833   181.74163307
 H     36  35  34     1.077972007985   120.12100872   182.15885293
 C     20  13  12     5.970362109621   122.09668442    67.06526893
 C     41  20  13     1.209814436184    69.33472245     1.07678232
 C     42  41  20     1.408152225436   173.62607308   202.23328519
 C     43  42  41     1.383385998194   119.44561844   308.15850633
 C     44  43  42     1.398967169021   121.07764539   174.14819437
 C     45  44  43     1.372610363505   120.93892955   358.33511416
 C     46  45  44     1.406842763069   119.95355173     2.18112757
 C     47  46  45     1.413127924146   122.81123593   181.44322277
 C     48  47  46     1.364378327298   119.85776291   181.42497470
 N     49  48  47     1.355591937126   121.99091043     2.37596481
 C     50  49  48     1.318827103907   119.86385974   355.86474668
 C     51  50  49     1.403592127365   122.65879245     1.10713050
 H     44  43  42     1.079209775716   119.40040919   355.15146706
 H     45  44  43     1.079296117847   119.01596292   179.81404869
 H     46  45  44     1.078725942953   120.77549035   182.33128076
 H     48  47  46     1.078206112021   119.36458124     1.69905501
 H     49  48  47     1.087849318610   121.75241378   182.34362490
 H     51  50  49     1.087653828201   117.36872082   180.20311238
 C     41  20  13     1.411594070546   112.58247742   184.97744826
 C     59  41  20     1.398646138235   119.95627581   208.19330340
 C     60  59  41     1.382719671517   119.65295028   183.98563915
 C     61  60  59     1.384629484736   120.68850406     0.28233817
 C     62  61  60     1.397243021095   120.32690111   359.40776229
 C     59  41  20     1.393377637254   120.27866722    31.51866312
 H     60  59  41     1.079168054568   119.84508139     3.45298990
 H     61  60  59     1.079395372419   119.62193062   179.58693994
 H     62  61  60     1.078521552868   119.22570321   177.27109998
 H     64  59  41     1.078162673255   118.77731216   353.85608551
 C     63  62  61     1.465951336164   121.07280477   179.12938332
 C     69  63  62     1.398685647313   122.18795308    33.29606183
 C     70  69  63     1.379892546541   119.68632105   177.56630818
 N     71  70  69     1.336106537668   122.05405944   359.17197130
 C     72  71  70     1.338974219319   119.32626225     2.64588964
 C     73  72  71     1.376459421850   121.90332449   358.37828793
 H     70  69  63     1.077709761485   120.71761525   359.23537456
 H     71  70  69     1.086096298677   121.59795146   179.67702845
 H     73  72  71     1.089101620603   115.83428648   178.39819854
 H     74  73  72     1.077894735120   120.07809436   177.85155386
 C     77  73  72     4.664917350822   132.20767565   267.13029107
 C     79  77  73     1.209795730692    83.81182628    63.86170248
 C     80  79  77     1.408266146721   173.51368871   243.50945960
 C     81  80  79     1.383509906000   119.36419457   310.21351351
 C     82  81  80     1.398885960327   121.08826795   174.19195232
 C     83  82  81     1.372577873929   120.92531371   358.35191923
 C     84  83  82     1.406732458572   119.95232038     2.18616197
 C     85  84  83     1.413181386093   122.78960227   181.42021760
 C     86  85  84     1.364234693885   119.86048000   181.44433281
 N     87  86  85     1.355817366019   121.99216226     2.35528282
 C     88  87  86     1.318795310122   119.87239069   355.85256565
 C     89  88  87     1.403800876193   122.64385876     1.14662266
 H     82  81  80     1.079212184883   119.38892509   355.20259851
 H     83  82  81     1.079276076822   119.02358679   179.82808027
 H     84  83  82     1.078709140594   120.77948788   182.31456715
 H     86  85  84     1.078230337173   119.35598683     1.70162125
 H     87  86  85     1.087985454866   121.73820218   182.30900187
 H     89  88  87     1.087376043510   117.36226353   180.26312583
 C     79  77  73     1.411473276403    95.10073973   247.74833316
 C     97  79  77     1.398594701835   120.01052556   167.73393888
 C     98  97  79     1.382753173925   119.65595330   183.89386533
 C     99  98  97     1.384755480220   120.69395736     0.26246147
 C    100  99  98     1.397044369374   120.31466845   359.47033777
 C     97  79  77     1.393390099721   120.23802887   351.00747681
 H     98  97  79     1.079150059074   119.84903575     3.38002893
 H     99  98  97     1.079458609674   119.62011824   179.59199683
 H    100  99  98     1.078497978672   119.23828027   177.31738087
 H    102  97  79     1.078158620056   118.77398916   354.04929731
 C    101 100  99     1.465856538001   121.13481430   179.22259382
 C    107 101 100     1.398630376475   122.20143163    33.50321333
 C    108 107 101     1.379912410264   119.67992465   177.20240650
 N    109 108 107     1.336226152266   122.06013965   359.17285723
 C    110 109 108     1.338905870478   119.29988889     2.83248189
 C    111 110 109     1.376438716398   121.93220232   358.21395677
 H    108 107 101     1.077776753321   120.70657933   358.93264640
 H    109 108 107     1.086212101755   121.59677469   179.72846506
 H    111 110 109     1.089028695673   115.82539007   178.23939253
 H    112 111 110     1.077888663082   120.11789073   177.83052517
 C     39  35  34     4.620149033311   133.55605840    93.19966631
 C    117  39  35     1.209865699158    84.09392424   295.56220166
 C    118 117  39     1.408142709387   173.61758503   114.44887273
 C    119 118 117     1.383416517178   119.44343476    51.70745763
 C    120 119 118     1.398893494874   121.08178025   185.84165086
 C    121 120 119     1.372574256643   120.93486680     1.66820570
 C    122 121 120     1.406839990902   119.95500728   357.82135984
 C    123 122 121     1.413068766904   122.81103429   178.53388528
 C    124 123 122     1.364341852323   119.86291974   178.59865487
 N    125 124 123     1.355623373212   121.99437835   357.61797993
 C    126 125 124     1.318892543007   119.85924898     4.13406672
 C    127 126 125     1.403646062938   122.65373814   358.90214703
 H    120 119 118     1.079320341697   119.39604320     4.84476821
 H    121 120 119     1.079325706170   119.01717201   180.18829279
 H    122 121 120     1.078687248465   120.77531762   177.66961067
 H    124 123 122     1.078303718810   119.36551810   358.32098745
 H    125 124 123     1.087831907971   121.74583845   177.64663991
 H    127 126 125     1.087477204359   117.37798991   179.79063239
 C    117  39  35     1.411579604557    94.81647646   111.59470047
 C    135 117  39     1.398623998793   119.95515900   194.43066737
 C    136 135 117     1.382691339381   119.65194900   176.03339874
 C    137 136 135     1.384683202036   120.69426124   359.71732754
 C    138 137 136     1.397227619252   120.31800953     0.58589111
 C    135 117  39     1.393367679401   120.28401025    11.12447382
 H    136 135 117     1.079195274267   119.84223784   356.56854340
 H    137 136 135     1.079416495149   119.61747490   180.41013571
 H    138 137 136     1.078392257020   119.23369309   182.73129766
 H    140 135 117     1.078209432346   118.77030635     6.12713439
 C    139 138 137     1.465964204884   121.06923795   180.90880322
 C    145 139 138     1.398670415073   122.20315925   326.67697784
 C    146 145 139     1.379872381780   119.68729113   182.38320896
 N    147 146 145     1.336074889368   122.05275793     0.83067937
 C    148 147 146     1.338944248279   119.33157689   357.37456572
 C    149 148 147     1.376468354159   121.89941510     1.60860687
 H    146 145 139     1.077789923872   120.71220149     0.72980073
 H    147 146 145     1.086116223063   121.60485407   180.32101139
 H    149 148 147     1.089173948458   115.84618075   181.56779759
 H    150 149 148     1.077819711269   120.08775579   182.13013852

---------------------------
INTERNAL COORDINATES (A.U.)
---------------------------
 Pd     0   0   0     0.000000000000     0.00000000     0.00000000
 Pd     1   0   0    17.592490979039     0.00000000     0.00000000
 C      2   1   0    11.554104147470    69.40955139     0.00000000
 C      3   2   1     2.286289698635    59.93840506   183.84111258
 C      4   3   2     2.661149627452   173.53419421   129.17573736
 C      5   4   3     2.614298487979   119.37819822    50.09668547
 C      6   5   4     2.643384756917   121.08569107   185.79851910
 C      7   6   5     2.593896010618   120.93176593     1.66279499
 C      8   7   6     2.658420126413   119.94530111   357.80832462
 C      9   8   7     2.670549325450   122.78529566   178.57055494
 C     10   9   8     2.577905172778   119.85564098   178.54569620
 N     11  10   9     2.562072238274   121.99506615   357.63843669
 C     12  11  10     2.492087027233   119.87083078     4.16557494
 C     13  12  11     2.652727747975   122.64386484   358.84287343
 H      6   5   4     2.039478426906   119.39257616     4.80628791
 H      7   6   5     2.039736547275   119.02182494   180.18094466
 H      8   7   6     2.038455218735   120.77954953   177.67584242
 H     10   9   8     2.037580867540   119.35646551   358.28005664
 H     11  10   9     2.056135665982   121.74391283   177.69207341
 H     13  12  11     2.054727737086   117.36845566   179.72009588
 C      3   2   1     2.667372248607   119.80541135   359.22224812
 C     21   3   2     2.643110453764   119.99702177   181.71937104
 C     22  21   3     2.613034321328   119.65240052   176.11318337
 C     23  22  21     2.616605959592   120.69676782   359.73836154
 C     24  23  22     2.640259114336   120.31425853     0.53518130
 C     21   3   2     2.633126750812   120.24870086   358.45300799
 H     22  21   3     2.039285644789   119.84331772   356.62563749
 H     23  22  21     2.039920989001   119.61340843   180.40627840
 H     24  23  22     2.038145976487   119.24266197   182.67731590
 H     26  21   3     2.037340405352   118.76986083     5.96020757
 C     25  24  23     2.770159678653   121.12307006   180.79315452
 C     31  25  24     2.643062530371   122.20839983   326.48517970
 C     32  31  25     2.607626422890   119.68295896   182.77419399
 N     33  32  31     2.524956695201   122.05233503     0.81235841
 C     34  33  32     2.530155845021   119.31495677   357.19864089
 C     35  34  33     2.601187732561   121.91959305     1.76397265
 H     32  31  25     2.036736710470   120.70249356     1.04053980
 H     33  32  31     2.052439583763   121.60122981   180.27770410
 H     35  34  33     2.057996136378   115.83302833   181.74163307
 H     36  35  34     2.037071875126   120.12100872   182.15885293
 C     20  13  12    11.282349307524   122.09668442    67.06526893
 C     41  20  13     2.286217957253    69.33472245     1.07678232
 C     42  41  20     2.661022060946   173.62607308   202.23328519
 C     43  42  41     2.614220674088   119.44561844   308.15850633
 C     44  43  42     2.643664819798   121.07764539   174.14819437
 C     45  44  43     2.593857675606   120.93892955   358.33511416
 C     46  45  44     2.658547535690   119.95355173     2.18112757
 C     47  46  45     2.670424768832   122.81123593   181.44322277
 C     48  47  46     2.578301381650   119.85776291   181.42497470
 N     49  48  47     2.561697510519   121.99091043     2.37596481
 C     50  49  48     2.492222044377   119.86385974   355.86474668
 C     51  50  49     2.652404724447   122.65879245     1.10713050
 H     44  43  42     2.039410917153   119.40040919   355.15146706
 H     45  44  43     2.039574080136   119.01596292   179.81404869
 H     46  45  44     2.038496605737   120.77549035   182.33128076
 H     48  47  46     2.037514267640   119.36458124     1.69905501
 H     49  48  47     2.055737287146   121.75241378   182.34362490
 H     51  50  49     2.055367863811   117.36872082   180.20311238
 C     41  20  13     2.667526205599   112.58247742   184.97744826
 C     59  41  20     2.643058159531   119.95627581   208.19330340
 C     60  59  41     2.612961499153   119.65295028   183.98563915
 C     61  60  59     2.616570523103   120.68850406     0.28233817
 C     62  61  60     2.640406652403   120.32690111   359.40776229
 C     59  41  20     2.633102135541   120.27866722    31.51866312
 H     60  59  41     2.039332075610   119.84508139     3.45298990
 H     61  60  59     2.039761644094   119.62193062   179.58693994
 H     62  61  60     2.038110364451   119.22570321   177.27109998
 H     64  59  41     2.037432180268   118.77731216   353.85608551
 C     63  62  61     2.770246551005   121.07280477   179.12938332
 C     69  63  62     2.643132820868   122.18795308    33.29606183
 C     70  69  63     2.607619007202   119.68632105   177.56630818
 N     71  70  69     2.524875441935   122.05405944   359.17197130
 C     72  71  70     2.530294574893   119.32626225     2.64588964
 C     73  72  71     2.601131341752   121.90332449   358.37828793
 H     70  69  63     2.036576301060   120.71761525   359.23537456
 H     71  70  69     2.052424559565   121.59795146   179.67702845
 H     73  72  71     2.058103794949   115.83428648   178.39819854
 H     74  73  72     2.036925850573   120.07809436   177.85155386
 C     77  73  72     8.815416230431   132.20767565   267.13029107
 C     79  77  73     2.286182608995    83.81182628    63.86170248
 C     80  79  77     2.661237340975   173.51368871   243.50945960
 C     81  80  79     2.614454825907   119.36419457   310.21351351
 C     82  81  80     2.643511357605   121.08826795   174.19195232
 C     83  82  81     2.593796279206   120.92531371   358.35191923
 C     84  83  82     2.658339090399   119.95232038     2.18616197
 C     85  84  83     2.670525797271   122.78960227   181.42021760
 C     86  85  84     2.578029953837   119.86048000   181.44433281
 N     87  86  85     2.562123509391   121.99216226     2.35528282
 C     88  87  86     2.492161962830   119.87239069   355.85256565
 C     89  88  87     2.652799202563   122.64385876     1.14662266
 H     82  81  80     2.039415469820   119.38892509   355.20259851
 H     83  82  81     2.039536208086   119.02358679   179.82808027
 H     84  83  82     2.038464853879   120.77948788   182.31456715
 H     86  85  84     2.037560046542   119.35598683     1.70162125
 H     87  86  85     2.055994547387   121.73820218   182.30900187
 H     89  88  87     2.054842926821   117.36226353   180.26312583
 C     79  77  73     2.667297937750    95.10073973   247.74833316
 C     97  79  77     2.642960958821   120.01052556   167.73393888
 C     98  97  79     2.613024809529   119.65595330   183.89386533
 C     99  98  97     2.616808620063   120.69395736     0.26246147
 C    100  99  98     2.640031255054   120.31466845   359.47033777
 C     97  79  77     2.633125686190   120.23802887   351.00747681
 H     98  97  79     2.039298069055   119.84903575     3.38002893
 H     99  98  97     2.039881145188   119.62011824   179.59199683
 H    100  99  98     2.038065815678   119.23828027   177.31738087
 H    102  97  79     2.037424520831   118.77398916   354.04929731
 C    101 100  99     2.770067408440   121.13481430   179.22259382
 C    107 101 100     2.643028374122   122.20143163    33.50321333
 C    108 107 101     2.607656544198   119.67992465   177.20240650
 N    109 108 107     2.525101480766   122.06013965   359.17285723
 C    110 109 108     2.530165414303   119.29988889     2.83248189
 C    111 110 109     2.601092214119   121.93220232   358.21395677
 H    108 107 101     2.036702897284   120.70657933   358.93264640
 H    109 108 107     2.052643395669   121.59677469   179.72846506
 H    111 110 109     2.057965986804   115.82539007   178.23939253
 H    112 111 110     2.036914376083   120.11789073   177.83052517
 C     39  35  34     8.730816370858   133.55605840    93.19966631
 C    117  39  35     2.286314830235    84.09392424   295.56220166
 C    118 117  39     2.661004078219   173.61758503   114.44887273
 C    119 118 117     2.614278346609   119.44343476    51.70745763
 C    120 119 118     2.643525595835   121.08178025   185.84165086
 C    121 120 119     2.593789443526   120.93486680     1.66820570
 C    122 121 120     2.658542297052   119.95500728   357.82135984
 C    123 122 121     2.670312977847   122.81103429   178.53388528
 C    124 123 122     2.578232453937   119.86291974   178.59865487
 N    125 124 123     2.561756916114   121.99437835   357.61797993
 C    126 125 124     2.492345706355   119.85924898     4.13406672
 C    127 126 125     2.652506647909   122.65373814   358.90214703
 H    120 119 118     2.039619856577   119.39604320     4.84476821
 H    121 120 119     2.039629993963   119.01717201   180.18829279
 H    122 121 120     2.038423483751   120.77531762   177.66961067
 H    124 123 122     2.037698717740   119.36551810   358.32098745
 H    125 124 123     2.055704385806   121.74583845   177.64663991
 H    127 126 125     2.055034093120   117.37798991   179.79063239
 C    117  39  35     2.667498868841    94.81647646   111.59470047
 C    135 117  39     2.643016322049   119.95515900   194.43066737
 C    136 135 117     2.612907959175   119.65194900   176.03339874
 C    137 136 135     2.616672034089   120.69426124   359.71732754
 C    138 137 136     2.640377547137   120.31800953     0.58589111
 C    135 117  39     2.633083317926   120.28401025    11.12447382
 H    136 135 117     2.039383513386   119.84223784   356.56854340
 H    137 136 135     2.039801560269   119.61747490   180.41013571
 H    138 137 136     2.037866030708   119.23369309   182.73129766
 H    140 135 117     2.037520542145   118.77030635     6.12713439
 C    139 138 137     2.770270869362   121.06923795   180.90880322
 C    145 139 138     2.643104036106   122.20315925   326.67697784
 C    146 145 139     2.607580901326   119.68729113   182.38320896
 N    147 146 145     2.524815635315   122.05275793     0.83067937
 C    148 147 146     2.530237937837   119.33157689   357.37456572
 C    149 148 147     2.601148221369   121.89941510     1.60860687
 H    146 145 139     2.036727786018   120.71220149     0.72980073
 H    147 146 145     2.052462211197   121.60485407   180.32101139
 H    149 148 147     2.058240474788   115.84618075   181.56779759
 H    150 149 148     2.036784076040   120.08775579   182.13013852

---------------------
BASIS SET INFORMATION
---------------------
There are 4 groups of distinct atoms

 Group   1 Type Pd  : 7s6p5d1f contracted to 5s3p2d1f pattern {31111/411/41/1}
 Group   2 Type C   : 7s4p1d contracted to 3s2p1d pattern {511/31/1}
 Group   3 Type N   : 7s4p1d contracted to 3s2p1d pattern {511/31/1}
 Group   4 Type H   : 4s1p contracted to 2s1p pattern {31/1}

Atom   0Pd   basis set group =>   1
Atom   1Pd   basis set group =>   1
Atom   2C    basis set group =>   2
Atom   3C    basis set group =>   2
Atom   4C    basis set group =>   2
Atom   5C    basis set group =>   2
Atom   6C    basis set group =>   2
Atom   7C    basis set group =>   2
Atom   8C    basis set group =>   2
Atom   9C    basis set group =>   2
Atom  10C    basis set group =>   2
Atom  11N    basis set group =>   3
Atom  12C    basis set group =>   2
Atom  13C    basis set group =>   2
Atom  14H    basis set group =>   4
Atom  15H    basis set group =>   4
Atom  16H    basis set group =>   4
Atom  17H    basis set group =>   4
Atom  18H    basis set group =>   4
Atom  19H    basis set group =>   4
Atom  20C    basis set group =>   2
Atom  21C    basis set group =>   2
Atom  22C    basis set group =>   2
Atom  23C    basis set group =>   2
Atom  24C    basis set group =>   2
Atom  25C    basis set group =>   2
Atom  26H    basis set group =>   4
Atom  27H    basis set group =>   4
Atom  28H    basis set group =>   4
Atom  29H    basis set group =>   4
Atom  30C    basis set group =>   2
Atom  31C    basis set group =>   2
Atom  32C    basis set group =>   2
Atom  33N    basis set group =>   3
Atom  34C    basis set group =>   2
Atom  35C    basis set group =>   2
Atom  36H    basis set group =>   4
Atom  37H    basis set group =>   4
Atom  38H    basis set group =>   4
Atom  39H    basis set group =>   4
Atom  40C    basis set group =>   2
Atom  41C    basis set group =>   2
Atom  42C    basis set group =>   2
Atom  43C    basis set group =>   2
Atom  44C    basis set group =>   2
Atom  45C    basis set group =>   2
Atom  46C    basis set group =>   2
Atom  47C    basis set group =>   2
Atom  48C    basis set group =>   2
Atom  49N    basis set group =>   3
Atom  50C    basis set group =>   2
Atom  51C    basis set group =>   2
Atom  52H    basis set group =>   4
Atom  53H    basis set group =>   4
Atom  54H    basis set group =>   4
Atom  55H    basis set group =>   4
Atom  56H    basis set group =>   4
Atom  57H    basis set group =>   4
Atom  58C    basis set group =>   2
Atom  59C    basis set group =>   2
Atom  60C    basis set group =>   2
Atom  61C    basis set group =>   2
Atom  62C    basis set group =>   2
Atom  63C    basis set group =>   2
Atom  64H    basis set group =>   4
Atom  65H    basis set group =>   4
Atom  66H    basis set group =>   4
Atom  67H    basis set group =>   4
Atom  68C    basis set group =>   2
Atom  69C    basis set group =>   2
Atom  70C    basis set group =>   2
Atom  71N    basis set group =>   3
Atom  72C    basis set group =>   2
Atom  73C    basis set group =>   2
Atom  74H    basis set group =>   4
Atom  75H    basis set group =>   4
Atom  76H    basis set group =>   4
Atom  77H    basis set group =>   4
Atom  78C    basis set group =>   2
Atom  79C    basis set group =>   2
Atom  80C    basis set group =>   2
Atom  81C    basis set group =>   2
Atom  82C    basis set group =>   2
Atom  83C    basis set group =>   2
Atom  84C    basis set group =>   2
Atom  85C    basis set group =>   2
Atom  86C    basis set group =>   2
Atom  87N    basis set group =>   3
Atom  88C    basis set group =>   2
Atom  89C    basis set group =>   2
Atom  90H    basis set group =>   4
Atom  91H    basis set group =>   4
Atom  92H    basis set group =>   4
Atom  93H    basis set group =>   4
Atom  94H    basis set group =>   4
Atom  95H    basis set group =>   4
Atom  96C    basis set group =>   2
Atom  97C    basis set group =>   2
Atom  98C    basis set group =>   2
Atom  99C    basis set group =>   2
Atom 100C    basis set group =>   2
Atom 101C    basis set group =>   2
Atom 102H    basis set group =>   4
Atom 103H    basis set group =>   4
Atom 104H    basis set group =>   4
Atom 105H    basis set group =>   4
Atom 106C    basis set group =>   2
Atom 107C    basis set group =>   2
Atom 108C    basis set group =>   2
Atom 109N    basis set group =>   3
Atom 110C    basis set group =>   2
Atom 111C    basis set group =>   2
Atom 112H    basis set group =>   4
Atom 113H    basis set group =>   4
Atom 114H    basis set group =>   4
Atom 115H    basis set group =>   4
Atom 116C    basis set group =>   2
Atom 117C    basis set group =>   2
Atom 118C    basis set group =>   2
Atom 119C    basis set group =>   2
Atom 120C    basis set group =>   2
Atom 121C    basis set group =>   2
Atom 122C    basis set group =>   2
Atom 123C    basis set group =>   2
Atom 124C    basis set group =>   2
Atom 125N    basis set group =>   3
Atom 126C    basis set group =>   2
Atom 127C    basis set group =>   2
Atom 128H    basis set group =>   4
Atom 129H    basis set group =>   4
Atom 130H    basis set group =>   4
Atom 131H    basis set group =>   4
Atom 132H    basis set group =>   4
Atom 133H    basis set group =>   4
Atom 134C    basis set group =>   2
Atom 135C    basis set group =>   2
Atom 136C    basis set group =>   2
Atom 137C    basis set group =>   2
Atom 138C    basis set group =>   2
Atom 139C    basis set group =>   2
Atom 140H    basis set group =>   4
Atom 141H    basis set group =>   4
Atom 142H    basis set group =>   4
Atom 143H    basis set group =>   4
Atom 144C    basis set group =>   2
Atom 145C    basis set group =>   2
Atom 146C    basis set group =>   2
Atom 147N    basis set group =>   3
Atom 148C    basis set group =>   2
Atom 149C    basis set group =>   2
Atom 150H    basis set group =>   4
Atom 151H    basis set group =>   4
Atom 152H    basis set group =>   4
Atom 153H    basis set group =>   4

-------------------------
BASIS SET IN INPUT FORMAT
-------------------------

 # Basis set for element : H 
 NewGTO H 
 S 3 
   1      13.0107010000      0.0334854848
   2       1.9622572000      0.2347218709
   3       0.4445379600      0.8137702853
 S 1 
   1       0.1219496200      1.0000000000
 P 1 
   1       0.8000000000      1.0000000000
  end;

 # Basis set for element : C 
 NewGTO C 
 S 5 
   1    1238.4016938000      0.0055173650
   2     186.2900499200      0.0410888285
   3      42.2511763460      0.1822538213
   4      11.6765579320      0.4682845944
   5       3.5930506482      0.4457581734
 S 1 
   1       0.4024514736      1.0000000000
 S 1 
   1       0.1309018267      1.0000000000
 P 3 
   1       9.4680970621      0.0568883320
   2       2.0103545142      0.3129405934
   3       0.5477100471      0.7606501651
 P 1 
   1       0.1526861379      1.0000000000
 D 1 
   1       0.8000000000      1.0000000000
  end;

 # Basis set for element : N 
 NewGTO N 
 S 5 
   1    1712.8415853000     -0.0054477995
   2     257.6481267700     -0.0406271746
   3      58.4582458530     -0.1811196225
   4      16.1983679050     -0.4684397556
   5       5.0052600809     -0.4461684629
 S 1 
   1       0.5873185657      1.0000000000
 S 1 
   1       0.1876459225      1.0000000000
 P 3 
   1      13.5714702330     -0.0588481170
   2       2.9257372874     -0.3202462476
   3       0.7992775075     -0.7532822652
 P 1 
   1       0.2195434803      1.0000000000
 D 1 
   1       1.0000000000      1.0000000000
  end;

 # Basis set for element : Pd
 NewGTO Pd
 S 3 
   1       8.4756400000      2.1727229431
   2       7.1657170000     -2.9039633126
   3       3.1821100000     -0.2310570076
 S 1 
   1       1.3973644196      1.0000000000
 S 1 
   1       0.6053295587      1.0000000000
 S 1 
   1       0.1022951421      1.0000000000
 S 1 
   1       0.0373389729      1.0000000000
 P 4 
   1       4.2460970000     -0.8346018694
   2       3.3925940000      0.8828643810
   3       1.1975891264      0.6438870170
   4       0.5267375059      0.2760105151
 P 1 
   1       0.2060709410      1.0000000000
 P 1 
   1       0.0370000000      1.0000000000
 D 4 
   1       7.3613290985     -0.0186922795
   2       2.6291037258      0.2533662423
   3       1.1292744634      0.4840070353
   4       0.4447165990      0.4270306822
 D 1 
   1       0.1554489384      1.0000000000
 F 1 
   1       1.2462900000      1.0000000000
  end;

-------------------------
ECP PARAMETER INFORMATION
-------------------------

 Group 1, Type Pd ECP Def2-ECP (replacing 28 core electrons, lmax=3)

Atom   0Pd   ECP group =>   1
Atom   1Pd   ECP group =>   1


-------------------------
ECP BASIS IN INPUT FORMAT
-------------------------

 #ECP Def2-ECP
 NewECP Pd
   N_core 28
   lmax f
   s 4
     1      12.4300000000    240.2290403000  2
     2       6.1707594000     35.1719435000  2
     3      13.2700000000     31.9295543000  2
     4       6.6300000000      5.3982169000  2
   p 4
     1      11.0800000000    170.4172760000  2
     2       5.8295541000     28.4721329000  2
     3      13.2700000000     31.9295543000  2
     4       6.6300000000      5.3982169000  2
   d 4
     1       9.5100000000     69.0138449000  2
     2       4.1397811000     11.7508616000  2
     3      13.2700000000     31.9295543000  2
     4       6.6300000000      5.3982169000  2
   f 2
     1      13.2700000000    -31.9295543000  2
     2       6.6300000000     -5.3982169000  2
 End




           ************************************************************
           *        Program running with 32 parallel MPI-processes    *
           *              working on a common directory               *
           ************************************************************
------------------------------------------------------------------------------
                           ORCA GTO INTEGRAL CALCULATION
------------------------------------------------------------------------------

                         BASIS SET STATISTICS AND STARTUP INFO

 # of primitive gaussian shells          ... 1470
 # of primitive gaussian functions       ... 2810
 # of contracted shells                  ...  766
 # of contracted basis functions         ... 1686
 Highest angular momentum                ...    3
 Maximum contraction depth               ...    5
 Integral package used                   ... LIBINT
 Integral threshhold            Thresh   ...  2.500e-11
 Primitive cut-off              TCut     ...  2.500e-12


------------------------------ INTEGRAL EVALUATION ----------------------------


 * One electron integrals 

   ECP integrals                         ... done
 Pre-screening matrix                    ... done
 Shell pair data                         ... done (   0.033 sec)



           ************************************************************
           *        Program running with 32 parallel MPI-processes    *
           *              working on a common directory               *
           ************************************************************
-------------------------------------------------------------------------------
                                 ORCA SCF
-------------------------------------------------------------------------------

------------
SCF SETTINGS
------------
Hamiltonian:
 Density Functional     Method          .... DFT(GTOs)
 Exchange Functional    Exchange        .... PBE
   PBE kappa parameter   XKappa         ....  0.804000
   PBE mue parameter    XMuePBE         ....  0.219520
 Correlation Functional Correlation     .... PBE
   PBE beta parameter  CBetaPBE         ....  0.066725
 LDA part of GGA corr.  LDAOpt          .... PW91-LDA
 Gradients option       PostSCFGGA      .... off
 Hybrid DFT is turned on
   Fraction HF Exchange ScalHFX         ....  0.250000
   Scaling of DF-GGA-X  ScalDFX         ....  0.750000
   Scaling of DF-GGA-C  ScalDFC         ....  1.000000
   Scaling of DF-LDA-C  ScalLDAC        ....  1.000000
   Perturbative correction              ....  0.000000
   Density functional embedding theory  .... OFF
   NL short-range parameter             ....  6.900000


General Settings:
 Integral files         IntName         .... _s_4d2_c_PBE0
 Hartree-Fock type      HFTyp           .... RHF
 Total Charge           Charge          ....    4
 Multiplicity           Mult            ....    1
 Number of Electrons    NEL             ....  672
 Basis Dimension        Dim             .... 1686
 Nuclear Repulsion      ENuc            ....  18046.2770394192 Eh

Convergence Acceleration:
 DIIS                   CNVDIIS         .... on
   Start iteration      DIISMaxIt       ....     0
   Startup error        DIISStart       ....  0.200000
   # of expansion vecs  DIISMaxEq       ....     5
   Bias factor          DIISBfac        ....   1.050
   Max. coefficient     DIISMaxC        ....  10.000
 Newton-Raphson         CNVNR           .... off
 SOSCF                  CNVSOSCF        .... off
 Level Shifting         CNVShift        .... on
   Level shift para.    LevelShift      ....    0.2500
   Turn off err/grad.   ShiftErr        ....    0.0000
 Zerner damping         CNVZerner       .... off
 Static damping         CNVDamp         .... on
   Fraction old density DampFac         ....    0.8500
   Max. Damping (<1)    DampMax         ....    0.9800
   Min. Damping (>=0)   DampMin         ....    0.0000
   Turn off err/grad.   DampErr         ....    0.0300
 Fernandez-Rico         CNVRico         .... off

SCF Procedure:
 Maximum # iterations   MaxIter         ....  2000
 SCF integral mode      SCFMode         .... Direct
   Integral package                     .... LIBINT
 Reset frequency        DirectResetFreq ....    20
 Integral Threshold     Thresh          ....  2.500e-11 Eh
 Primitive CutOff       TCut            ....  2.500e-12 Eh

Convergence Tolerance:
 Convergence Check Mode ConvCheckMode   .... Total+1el-Energy
 Convergence forced     ConvForced      .... 0
 Energy Change          TolE            ....  1.000e-08 Eh
 1-El. energy change                    ....  1.000e-05 Eh
 DIIS Error             TolErr          ....  5.000e-07


Diagonalization of the overlap matrix:
Smallest eigenvalue                        ... 2.477e-04
Time for diagonalization                   ...    0.547 sec
Threshold for overlap eigenvalues          ... 1.000e-08
Number of eigenvalues below threshold      ... 0
Time for construction of square roots      ...    0.342 sec
Total time needed                          ...    0.895 sec

-------------------
DFT GRID GENERATION
-------------------

General Integration Accuracy     IntAcc      ...  5.340
Radial Grid Type                 RadialGrid  ... Gauss-Chebyshev
Angular Grid (max. acc.)         AngularGrid ... Lebedev-590
Angular grid pruning method      GridPruning ... 3 (G Style)
Weight generation scheme         WeightScheme... Becke
Basis function cutoff            BFCut       ...    1.0000e-11
Integration weight cutoff        WCut        ...    1.0000e-14
Grids for H and He will be reduced by one unit

# of grid points (after initial pruning)     ... 2250644 (   0.0 sec)
# of grid points (after weights+screening)   ... 1843101 (   9.8 sec)
nearest neighbour list constructed           ...    0.0 sec
Grid point re-assignment to atoms done       ...    0.2 sec
Grid point division into batches done        ...   18.8 sec
Reduced shell lists constructed in   19.8 sec

Total number of grid points                  ...  1843101
Total number of batches                      ...    28872
Average number of points per batch           ...       63
Average number of grid points per atom       ...    11968
Average number of shells per batch           ...   158.93 (20.75%)
Average number of basis functions per batch  ...   320.24 (18.99%)
Average number of large shells per batch     ...    82.42 (51.86%)
Average number of large basis fcns per batch ...   169.21 (52.84%)
Maximum spatial batch extension              ...   7.52,  4.61,  9.83 au
Average spatial batch extension              ...   0.03,  0.03,  0.03 au

Time for grid setup =   30.554 sec

------------------------------
INITIAL GUESS: MODEL POTENTIAL
------------------------------
Loading Hartree-Fock densities                     ... done
  calling /work/e05/e05/atarzia/orca_4_2_1_linux_x86-64_openmpi314/orca _s_4d2_c_PBE0_atom46.inp > _s_4d2_c_PBE0_atom46.out in order to generate an atomic fitting density for atom 0 (Pd with ECP) on-the-fly... 
    atom 0 (Pd), assumed electronic state with S=3: 1s2 2s2 2p6 3s2 3p6 4s2 3d10 4p6 5s2 4d8           ... done
Calculating cut-offs                               ... done
Setting up the integral package                    ... done
Initializing the effective Hamiltonian             ... done
Starting the Coulomb interaction                   ... done (   0.7 sec)
Reading the grid                                   ... done
Mapping shells                                     ... done
Starting the XC term evaluation                    ... done (   1.0 sec)
  promolecular density results
     # of electrons  =    731.959441207
     EX              =   -796.615740058
     EC              =    -26.477761475
     EX+EC           =   -823.093501533
Transforming the Hamiltonian                       ... done (   0.2 sec)
Diagonalizing the Hamiltonian                      ... done (   0.4 sec)
Back transforming the eigenvectors                 ... done (   0.1 sec)
Now organizing SCF variables                       ... done
                      ------------------
                      INITIAL GUESS DONE (  58.4 sec)
                      ------------------
--------------
SCF ITERATIONS
--------------
ITER       Energy         Delta-E        Max-DP      RMS-DP      [F,P]     Damp
               ***  Starting incremental Fock matrix formation  ***
  0  -4071.2989146464   0.000000000000 0.03237665  0.00038616  0.4570520 0.8500
  1  -4071.5824939858  -0.283579339433 0.02749815  0.00035829  0.3867548 0.8500
                               ***Turning on DIIS***
  2  -4071.7892387104  -0.206744724583 0.02237568  0.00028681  0.3264303 0.8500
  3  -4071.9322538362  -0.143015125857 0.01726896  0.00019604  0.2755453 0.8500
  4  -4072.0391364854  -0.106882649150 0.01381263  0.00014731  0.2332500 0.8500
  5  -4072.1216710507  -0.082534565365 0.01137544  0.00011919  0.1978933 0.8500
  6  -4072.1882558819  -0.066584831169 0.00960755  0.00009992  0.1681555 0.8500
  7  -4072.2433562778  -0.055100395904 0.00822918  0.00008589  0.1429863 0.8500
  8  -4072.2896237831  -0.046267505248 0.00713820  0.00007389  0.1215920 0.8500
  9  -4072.3283851756  -0.038761392498 0.00612322  0.00006296  0.1033329 0.8500
 10  -4072.3608207992  -0.032435623660 0.00517198  0.00005334  0.0877720 0.8500
 11  -4072.3880192589  -0.027198459655 0.00435235  0.00004513  0.0745584 0.8500
 12  -4072.4108967379  -0.022877479048 0.00368461  0.00003828  0.0633553 0.8500
 13  -4072.4301821777  -0.019285439732 0.00314332  0.00003252  0.0538469 0.8500
 14  -4072.4464569301  -0.016274752477 0.00268203  0.00002762  0.0457610 0.8500
 15  -4072.4602029291  -0.013745998946 0.00227628  0.00002343  0.0388814 0.8500
 16  -4072.4718245586  -0.011621629499 0.00192566  0.00001987  0.0330344 0.8500
 17  -4072.4816598585  -0.009835299908 0.01087940  0.00011237  0.0280700 0.0000
 18  -4072.5366967359  -0.055036877453 0.00021867  0.00000246  0.0002007 0.0000
 19  -4072.5367000457  -0.000003309804 0.00011087  0.00000095  0.0000579 0.0000
               *** Restarting incremental Fock matrix formation ***
                                   *** Resetting DIIS ***
 20  -4072.5367001708  -0.000000125099 0.00008440  0.00000064  0.0000362 0.0000
 21  -4072.5367000490   0.000000121847 0.00003815  0.00000021  0.0000448 0.0000
 22  -4072.5367001722  -0.000000123215 0.00001209  0.00000012  0.0000108 0.0000
 23  -4072.5367002304  -0.000000058153 0.00001127  0.00000009  0.0000054 0.0000
 24  -4072.5367001947   0.000000035696 0.00000752  0.00000006  0.0000027 0.0000
                            ***DIIS convergence achieved***

               *****************************************************
               *                     SUCCESS                       *
               *           SCF CONVERGED AFTER  25 CYCLES          *
               *****************************************************


----------------
TOTAL SCF ENERGY
----------------

Total Energy       :        -4072.53670015 Eh         -110819.35756 eV

Components:
Nuclear Repulsion  :        18046.27703942 Eh          491064.16346 eV
Electronic Energy  :       -22118.81373957 Eh         -601883.52102 eV
One Electron Energy:       -41409.38712840 Eh        -1126806.70951 eV
Two Electron Energy:        19290.57338883 Eh          524923.18849 eV

Virial components:
Potential Energy   :        -7948.70359764 Eh         -216295.22113 eV
Kinetic Energy     :         3876.16689748 Eh          105475.86357 eV
Virial Ratio       :            2.05066082


DFT components:
N(Alpha)           :      335.999968111899 electrons
N(Beta)            :      335.999968111899 electrons
N(Total)           :      671.999936223798 electrons
E(X)               :     -412.573309483182 Eh       
E(C)               :      -23.059978918524 Eh       
E(XC)              :     -435.633288401706 Eh       
DFET-embed. en.    :        0.000000000000 Eh       

---------------
SCF CONVERGENCE
---------------

  Last Energy change         ...    4.1277e-08  Tolerance :   1.0000e-08
  Last MAX-Density change    ...    4.5652e-06  Tolerance :   1.0000e-07
  Last RMS-Density change    ...    3.2601e-08  Tolerance :   5.0000e-09
  Last DIIS Error            ...    5.3141e-07  Tolerance :   5.0000e-07

             **** THE GBW FILE WAS UPDATED (_s_4d2_c_PBE0.gbw) ****
             **** DENSITY FILE WAS UPDATED (_s_4d2_c_PBE0.scfp) ****
             **** ENERGY FILE WAS UPDATED (_s_4d2_c_PBE0.en.tmp) ****
             **** THE GBW FILE WAS UPDATED (_s_4d2_c_PBE0.gbw) ****
             **** DENSITY FILE WAS UPDATED (_s_4d2_c_PBE0.scfp) ****
----------------
ORBITAL ENERGIES
----------------

  NO   OCC          E(Eh)            E(eV) 
   0   2.0000     -14.763730      -401.7415 
   1   2.0000     -14.763704      -401.7408 
   2   2.0000     -14.763447      -401.7338 
   3   2.0000     -14.763403      -401.7326 
   4   2.0000     -14.750203      -401.3734 
   5   2.0000     -14.750196      -401.3732 
   6   2.0000     -14.750118      -401.3711 
   7   2.0000     -14.750103      -401.3707 
   8   2.0000     -10.604973      -288.5760 
   9   2.0000     -10.604932      -288.5749 
  10   2.0000     -10.604682      -288.5681 
  11   2.0000     -10.604591      -288.5656 
  12   2.0000     -10.599843      -288.4364 
  13   2.0000     -10.599839      -288.4363 
  14   2.0000     -10.599619      -288.4303 
  15   2.0000     -10.599581      -288.4293 
  16   2.0000     -10.587448      -288.0991 
  17   2.0000     -10.587432      -288.0987 
  18   2.0000     -10.587365      -288.0968 
  19   2.0000     -10.587322      -288.0957 
  20   2.0000     -10.578483      -287.8552 
  21   2.0000     -10.578483      -287.8551 
  22   2.0000     -10.578233      -287.8483 
  23   2.0000     -10.578170      -287.8466 
  24   2.0000     -10.571323      -287.6603 
  25   2.0000     -10.571316      -287.6601 
  26   2.0000     -10.571184      -287.6565 
  27   2.0000     -10.571151      -287.6557 
  28   2.0000     -10.563705      -287.4530 
  29   2.0000     -10.563674      -287.4522 
  30   2.0000     -10.563339      -287.4431 
  31   2.0000     -10.563235      -287.4402 
  32   2.0000     -10.557678      -287.2890 
  33   2.0000     -10.557674      -287.2889 
  34   2.0000     -10.557502      -287.2842 
  35   2.0000     -10.557448      -287.2828 
  36   2.0000     -10.545600      -286.9604 
  37   2.0000     -10.545577      -286.9598 
  38   2.0000     -10.545519      -286.9582 
  39   2.0000     -10.545483      -286.9572 
  40   2.0000     -10.544886      -286.9409 
  41   2.0000     -10.544856      -286.9401 
  42   2.0000     -10.544826      -286.9393 
  43   2.0000     -10.544785      -286.9382 
  44   2.0000     -10.542604      -286.8788 
  45   2.0000     -10.542576      -286.8781 
  46   2.0000     -10.542532      -286.8769 
  47   2.0000     -10.542486      -286.8756 
  48   2.0000     -10.537145      -286.7303 
  49   2.0000     -10.537105      -286.7292 
  50   2.0000     -10.536961      -286.7253 
  51   2.0000     -10.536903      -286.7237 
  52   2.0000     -10.536291      -286.7070 
  53   2.0000     -10.536278      -286.7067 
  54   2.0000     -10.536185      -286.7042 
  55   2.0000     -10.536149      -286.7032 
  56   2.0000     -10.535399      -286.6828 
  57   2.0000     -10.535370      -286.6820 
  58   2.0000     -10.535175      -286.6767 
  59   2.0000     -10.535108      -286.6749 
  60   2.0000     -10.528686      -286.5001 
  61   2.0000     -10.528643      -286.4989 
  62   2.0000     -10.528477      -286.4944 
  63   2.0000     -10.528434      -286.4932 
  64   2.0000     -10.518259      -286.2164 
  65   2.0000     -10.518229      -286.2155 
  66   2.0000     -10.518069      -286.2112 
  67   2.0000     -10.518010      -286.2096 
  68   2.0000     -10.517396      -286.1929 
  69   2.0000     -10.517380      -286.1924 
  70   2.0000     -10.517373      -286.1923 
  71   2.0000     -10.517343      -286.1915 
  72   2.0000     -10.513765      -286.0941 
  73   2.0000     -10.513727      -286.0931 
  74   2.0000     -10.513614      -286.0900 
  75   2.0000     -10.513555      -286.0884 
  76   2.0000     -10.513131      -286.0768 
  77   2.0000     -10.513125      -286.0767 
  78   2.0000     -10.513094      -286.0758 
  79   2.0000     -10.513085      -286.0756 
  80   2.0000     -10.513073      -286.0753 
  81   2.0000     -10.513062      -286.0750 
  82   2.0000     -10.513023      -286.0739 
  83   2.0000     -10.513017      -286.0737 
  84   2.0000     -10.512487      -286.0593 
  85   2.0000     -10.512446      -286.0582 
  86   2.0000     -10.512427      -286.0577 
  87   2.0000     -10.512382      -286.0565 
  88   2.0000     -10.510141      -285.9955 
  89   2.0000     -10.510105      -285.9945 
  90   2.0000     -10.510053      -285.9931 
  91   2.0000     -10.510005      -285.9918 
  92   2.0000     -10.506333      -285.8919 
  93   2.0000     -10.506306      -285.8911 
  94   2.0000     -10.506168      -285.8874 
  95   2.0000     -10.506122      -285.8861 
  96   2.0000      -3.858884      -105.0056 
  97   2.0000      -3.858879      -105.0054 
  98   2.0000      -2.537385       -69.0458 
  99   2.0000      -2.537370       -69.0454 
 100   2.0000      -2.534886       -68.9777 
 101   2.0000      -2.534882       -68.9776 
 102   2.0000      -2.499673       -68.0196 
 103   2.0000      -2.499668       -68.0194 
 104   2.0000      -1.319890       -35.9160 
 105   2.0000      -1.319861       -35.9152 
 106   2.0000      -1.312445       -35.7134 
 107   2.0000      -1.312427       -35.7130 
 108   2.0000      -1.298349       -35.3299 
 109   2.0000      -1.298285       -35.3281 
 110   2.0000      -1.294599       -35.2278 
 111   2.0000      -1.294563       -35.2269 
 112   2.0000      -1.184164       -32.2227 
 113   2.0000      -1.183970       -32.2175 
 114   2.0000      -1.183449       -32.2033 
 115   2.0000      -1.183412       -32.2023 
 116   2.0000      -1.176566       -32.0160 
 117   2.0000      -1.176288       -32.0084 
 118   2.0000      -1.175879       -31.9973 
 119   2.0000      -1.175809       -31.9954 
 120   2.0000      -1.148074       -31.2407 
 121   2.0000      -1.147779       -31.2326 
 122   2.0000      -1.146843       -31.2072 
 123   2.0000      -1.146807       -31.2062 
 124   2.0000      -1.115029       -30.3415 
 125   2.0000      -1.114474       -30.3264 
 126   2.0000      -1.114104       -30.3163 
 127   2.0000      -1.113608       -30.3028 
 128   2.0000      -1.113597       -30.3025 
 129   2.0000      -1.113363       -30.2961 
 130   2.0000      -1.111161       -30.2362 
 131   2.0000      -1.111046       -30.2331 
 132   2.0000      -1.083091       -29.4724 
 133   2.0000      -1.082843       -29.4656 
 134   2.0000      -1.082271       -29.4501 
 135   2.0000      -1.082240       -29.4492 
 136   2.0000      -1.081238       -29.4220 
 137   2.0000      -1.081046       -29.4168 
 138   2.0000      -1.079662       -29.3791 
 139   2.0000      -1.079519       -29.3752 
 140   2.0000      -1.061894       -28.8956 
 141   2.0000      -1.061385       -28.8818 
 142   2.0000      -1.060538       -28.8587 
 143   2.0000      -1.060434       -28.8559 
 144   2.0000      -1.053066       -28.6554 
 145   2.0000      -1.052949       -28.6522 
 146   2.0000      -1.052547       -28.6412 
 147   2.0000      -1.052454       -28.6387 
 148   2.0000      -1.013097       -27.5678 
 149   2.0000      -1.012631       -27.5551 
 150   2.0000      -1.012511       -27.5518 
 151   2.0000      -1.012320       -27.5466 
 152   2.0000      -0.987314       -26.8662 
 153   2.0000      -0.987188       -26.8628 
 154   2.0000      -0.983160       -26.7531 
 155   2.0000      -0.983132       -26.7524 
 156   2.0000      -0.971352       -26.4318 
 157   2.0000      -0.970883       -26.4191 
 158   2.0000      -0.969151       -26.3720 
 159   2.0000      -0.968478       -26.3536 
 160   2.0000      -0.968297       -26.3487 
 161   2.0000      -0.967864       -26.3369 
 162   2.0000      -0.966126       -26.2896 
 163   2.0000      -0.965664       -26.2771 
 164   2.0000      -0.946666       -25.7601 
 165   2.0000      -0.946570       -25.7575 
 166   2.0000      -0.945353       -25.7244 
 167   2.0000      -0.944794       -25.7091 
 168   2.0000      -0.930307       -25.3150 
 169   2.0000      -0.930113       -25.3097 
 170   2.0000      -0.929641       -25.2968 
 171   2.0000      -0.929507       -25.2932 
 172   2.0000      -0.908581       -24.7238 
 173   2.0000      -0.908105       -24.7108 
 174   2.0000      -0.907328       -24.6897 
 175   2.0000      -0.906882       -24.6775 
 176   2.0000      -0.906428       -24.6652 
 177   2.0000      -0.906228       -24.6597 
 178   2.0000      -0.904150       -24.6032 
 179   2.0000      -0.904020       -24.5996 
 180   2.0000      -0.880671       -23.9643 
 181   2.0000      -0.875040       -23.8111 
 182   2.0000      -0.873659       -23.7735 
 183   2.0000      -0.872715       -23.7478 
 184   2.0000      -0.859446       -23.3867 
 185   2.0000      -0.855519       -23.2799 
 186   2.0000      -0.851572       -23.1724 
 187   2.0000      -0.850282       -23.1373 
 188   2.0000      -0.839497       -22.8439 
 189   2.0000      -0.837857       -22.7993 
 190   2.0000      -0.836540       -22.7634 
 191   2.0000      -0.836248       -22.7555 
 192   2.0000      -0.836074       -22.7507 
 193   2.0000      -0.835876       -22.7453 
 194   2.0000      -0.835401       -22.7324 
 195   2.0000      -0.833793       -22.6887 
 196   2.0000      -0.828947       -22.5568 
 197   2.0000      -0.827499       -22.5174 
 198   2.0000      -0.825382       -22.4598 
 199   2.0000      -0.823741       -22.4151 
 200   2.0000      -0.814690       -22.1688 
 201   2.0000      -0.814415       -22.1614 
 202   2.0000      -0.813257       -22.1298 
 203   2.0000      -0.812279       -22.1032 
 204   2.0000      -0.805254       -21.9121 
 205   2.0000      -0.804521       -21.8921 
 206   2.0000      -0.801041       -21.7974 
 207   2.0000      -0.800748       -21.7894 
 208   2.0000      -0.795776       -21.6542 
 209   2.0000      -0.795220       -21.6390 
 210   2.0000      -0.785062       -21.3626 
 211   2.0000      -0.783932       -21.3319 
 212   2.0000      -0.783895       -21.3309 
 213   2.0000      -0.781330       -21.2611 
 214   2.0000      -0.777213       -21.1491 
 215   2.0000      -0.775581       -21.1046 
 216   2.0000      -0.772879       -21.0311 
 217   2.0000      -0.771251       -20.9868 
 218   2.0000      -0.769054       -20.9270 
 219   2.0000      -0.768427       -20.9100 
 220   2.0000      -0.767135       -20.8748 
 221   2.0000      -0.766682       -20.8625 
 222   2.0000      -0.765288       -20.8246 
 223   2.0000      -0.765121       -20.8200 
 224   2.0000      -0.762633       -20.7523 
 225   2.0000      -0.761561       -20.7231 
 226   2.0000      -0.760693       -20.6995 
 227   2.0000      -0.760489       -20.6940 
 228   2.0000      -0.759546       -20.6683 
 229   2.0000      -0.758834       -20.6489 
 230   2.0000      -0.756435       -20.5837 
 231   2.0000      -0.755990       -20.5715 
 232   2.0000      -0.754132       -20.5210 
 233   2.0000      -0.753805       -20.5121 
 234   2.0000      -0.752911       -20.4877 
 235   2.0000      -0.750489       -20.4218 
 236   2.0000      -0.747187       -20.3320 
 237   2.0000      -0.745265       -20.2797 
 238   2.0000      -0.740279       -20.1440 
 239   2.0000      -0.738263       -20.0892 
 240   2.0000      -0.737394       -20.0655 
 241   2.0000      -0.733801       -19.9678 
 242   2.0000      -0.733276       -19.9535 
 243   2.0000      -0.733156       -19.9502 
 244   2.0000      -0.732871       -19.9424 
 245   2.0000      -0.732862       -19.9422 
 246   2.0000      -0.731560       -19.9068 
 247   2.0000      -0.730638       -19.8817 
 248   2.0000      -0.721626       -19.6364 
 249   2.0000      -0.720901       -19.6167 
 250   2.0000      -0.720534       -19.6067 
[...]
 11 N      7.3071     7.0000    -0.3071     3.3724     3.3724    -0.0000
 12 C      5.8366     6.0000     0.1634     3.8327     3.8327    -0.0000
 13 C      6.0082     6.0000    -0.0082     3.9550     3.9550    -0.0000
 14 H      0.9422     1.0000     0.0578     0.9905     0.9905    -0.0000
 15 H      0.9196     1.0000     0.0804     0.9809     0.9809    -0.0000
 16 H      0.9436     1.0000     0.0564     0.9912     0.9912    -0.0000
 17 H      0.9360     1.0000     0.0640     0.9941     0.9941    -0.0000
 18 H      0.9328     1.0000     0.0672     0.9858     0.9858    -0.0000
 19 H      0.9579     1.0000     0.0421     1.0162     1.0162    -0.0000
 20 C      6.0464     6.0000    -0.0464     3.7787     3.7787    -0.0000
 21 C      5.9480     6.0000     0.0520     3.8529     3.8529    -0.0000
 22 C      5.9883     6.0000     0.0117     3.8852     3.8852    -0.0000
 23 C      6.0085     6.0000    -0.0085     3.8747     3.8747    -0.0000
 24 C      5.9620     6.0000     0.0380     3.8111     3.8111    -0.0000
 25 C      6.0143     6.0000    -0.0143     3.8703     3.8703    -0.0000
 26 H      0.9424     1.0000     0.0576     0.9898     0.9898    -0.0000
 27 H      0.9294     1.0000     0.0706     0.9820     0.9820    -0.0000
 28 H      0.9574     1.0000     0.0426     0.9892     0.9892    -0.0000
 29 H      1.0184     1.0000    -0.0184     0.9985     0.9985    -0.0000
 30 C      5.9297     6.0000     0.0703     3.8575     3.8575    -0.0000
 31 C      6.0276     6.0000    -0.0276     3.9265     3.9265    -0.0000
 32 C      5.8492     6.0000     0.1508     3.8949     3.8949    -0.0000
 33 N      7.3177     7.0000    -0.3177     3.3561     3.3561    -0.0000
 34 C      5.8479     6.0000     0.1521     3.8770     3.8770    -0.0000
 35 C      6.0485     6.0000    -0.0485     3.9086     3.9086    -0.0000
 36 H      0.9305     1.0000     0.0695     0.9962     0.9962    -0.0000
 37 H      0.9156     1.0000     0.0844     0.9834     0.9834    -0.0000
 38 H      0.9428     1.0000     0.0572     0.9886     0.9886    -0.0000
 39 H      0.9601     1.0000     0.0399     1.0031     1.0031    -0.0000
 40 C      5.9857     6.0000     0.0143     3.7116     3.7116    -0.0000
 41 C      6.0664     6.0000    -0.0664     3.7129     3.7129    -0.0000
 42 C      6.0076     6.0000    -0.0076     3.7596     3.7596    -0.0000
 43 C      5.9718     6.0000     0.0282     3.8535     3.8535    -0.0000
 44 C      5.9666     6.0000     0.0334     3.8311     3.8311    -0.0000
 45 C      5.9779     6.0000     0.0221     3.8296     3.8296    -0.0000
 46 C      5.9736     6.0000     0.0264     3.8828     3.8828    -0.0000
 47 C      5.9989     6.0000     0.0011     3.9180     3.9180    -0.0000
 48 C      5.8723     6.0000     0.1277     3.8570     3.8570    -0.0000
 49 N      7.3068     7.0000    -0.3068     3.3730     3.3730    -0.0000
 50 C      5.8375     6.0000     0.1625     3.8315     3.8315    -0.0000
 51 C      6.0078     6.0000    -0.0078     3.9559     3.9559    -0.0000
 52 H      0.9421     1.0000     0.0579     0.9905     0.9905    -0.0000
 53 H      0.9196     1.0000     0.0804     0.9809     0.9809    -0.0000
 54 H      0.9435     1.0000     0.0565     0.9912     0.9912    -0.0000
 55 H      0.9359     1.0000     0.0641     0.9941     0.9941    -0.0000
 56 H      0.9328     1.0000     0.0672     0.9858     0.9858    -0.0000
 57 H      0.9574     1.0000     0.0426     1.0160     1.0160    -0.0000
 58 C      6.0458     6.0000    -0.0458     3.7785     3.7785    -0.0000
 59 C      5.9481     6.0000     0.0519     3.8533     3.8533    -0.0000
 60 C      5.9882     6.0000     0.0118     3.8854     3.8854    -0.0000
 61 C      6.0089     6.0000    -0.0089     3.8748     3.8748    -0.0000
 62 C      5.9616     6.0000     0.0384     3.8109     3.8109    -0.0000
 63 C      6.0152     6.0000    -0.0152     3.8703     3.8703    -0.0000
 64 H      0.9422     1.0000     0.0578     0.9898     0.9898    -0.0000
 65 H      0.9295     1.0000     0.0705     0.9820     0.9820    -0.0000
 66 H      0.9575     1.0000     0.0425     0.9892     0.9892    -0.0000
 67 H      1.0178     1.0000    -0.0178     0.9981     0.9981    -0.0000
 68 C      5.9289     6.0000     0.0711     3.8572     3.8572    -0.0000
 69 C      6.0283     6.0000    -0.0283     3.9267     3.9267    -0.0000
 70 C      5.8491     6.0000     0.1509     3.8952     3.8952    -0.0000
 71 N      7.3182     7.0000    -0.3182     3.3559     3.3559    -0.0000
 72 C      5.8473     6.0000     0.1527     3.8771     3.8771    -0.0000
 73 C      6.0477     6.0000    -0.0477     3.9091     3.9091    -0.0000
 74 H      0.9305     1.0000     0.0695     0.9962     0.9962    -0.0000
 75 H      0.9157     1.0000     0.0843     0.9835     0.9835    -0.0000
 76 H      0.9423     1.0000     0.0577     0.9882     0.9882    -0.0000
 77 H      0.9628     1.0000     0.0372     1.0037     1.0037    -0.0000
 78 C      5.9846     6.0000     0.0154     3.7113     3.7113    -0.0000
 79 C      6.0675     6.0000    -0.0675     3.7129     3.7129    -0.0000
 80 C      6.0076     6.0000    -0.0076     3.7599     3.7599    -0.0000
 81 C      5.9718     6.0000     0.0282     3.8538     3.8538    -0.0000
 82 C      5.9666     6.0000     0.0334     3.8311     3.8311    -0.0000
 83 C      5.9781     6.0000     0.0219     3.8296     3.8296    -0.0000
 84 C      5.9737     6.0000     0.0263     3.8828     3.8828    -0.0000
 85 C      5.9987     6.0000     0.0013     3.9182     3.9182    -0.0000
 86 C      5.8729     6.0000     0.1271     3.8562     3.8562    -0.0000
 87 N      7.3070     7.0000    -0.3070     3.3725     3.3725    -0.0000
 88 C      5.8368     6.0000     0.1632     3.8326     3.8326    -0.0000
 89 C      6.0081     6.0000    -0.0081     3.9549     3.9549    -0.0000
 90 H      0.9422     1.0000     0.0578     0.9905     0.9905    -0.0000
 91 H      0.9197     1.0000     0.0803     0.9809     0.9809    -0.0000
 92 H      0.9436     1.0000     0.0564     0.9912     0.9912    -0.0000
 93 H      0.9360     1.0000     0.0640     0.9941     0.9941    -0.0000
 94 H      0.9328     1.0000     0.0672     0.9857     0.9857    -0.0000
 95 H      0.9576     1.0000     0.0424     1.0161     1.0161    -0.0000
 96 C      6.0463     6.0000    -0.0463     3.7785     3.7785    -0.0000
 97 C      5.9480     6.0000     0.0520     3.8528     3.8528    -0.0000
 98 C      5.9883     6.0000     0.0117     3.8852     3.8852    -0.0000
 99 C      6.0086     6.0000    -0.0086     3.8747     3.8747    -0.0000
100 C      5.9619     6.0000     0.0381     3.8111     3.8111    -0.0000
101 C      6.0142     6.0000    -0.0142     3.8704     3.8704    -0.0000
102 H      0.9424     1.0000     0.0576     0.9898     0.9898    -0.0000
103 H      0.9294     1.0000     0.0706     0.9820     0.9820    -0.0000
104 H      0.9574     1.0000     0.0426     0.9892     0.9892    -0.0000
105 H      1.0185     1.0000    -0.0185     0.9985     0.9985    -0.0000
106 C      5.9299     6.0000     0.0701     3.8574     3.8574    -0.0000
107 C      6.0276     6.0000    -0.0276     3.9267     3.9267    -0.0000
108 C      5.8491     6.0000     0.1509     3.8947     3.8947    -0.0000
109 N      7.3176     7.0000    -0.3176     3.3562     3.3562    -0.0000
110 C      5.8480     6.0000     0.1520     3.8773     3.8773    -0.0000
111 C      6.0483     6.0000    -0.0483     3.9087     3.9087    -0.0000
112 H      0.9306     1.0000     0.0694     0.9962     0.9962    -0.0000
113 H      0.9157     1.0000     0.0843     0.9834     0.9834    -0.0000
114 H      0.9429     1.0000     0.0571     0.9887     0.9887    -0.0000
115 H      0.9600     1.0000     0.0400     1.0029     1.0029    -0.0000
116 C      5.9856     6.0000     0.0144     3.7116     3.7116    -0.0000
117 C      6.0664     6.0000    -0.0664     3.7129     3.7129    -0.0000
118 C      6.0076     6.0000    -0.0076     3.7597     3.7597    -0.0000
119 C      5.9718     6.0000     0.0282     3.8535     3.8535    -0.0000
120 C      5.9666     6.0000     0.0334     3.8311     3.8311    -0.0000
121 C      5.9779     6.0000     0.0221     3.8296     3.8296    -0.0000
122 C      5.9736     6.0000     0.0264     3.8828     3.8828    -0.0000
123 C      5.9990     6.0000     0.0010     3.9182     3.9182    -0.0000
124 C      5.8722     6.0000     0.1278     3.8567     3.8567    -0.0000
125 N      7.3069     7.0000    -0.3069     3.3731     3.3731    -0.0000
126 C      5.8370     6.0000     0.1630     3.8317     3.8317    -0.0000
127 C      6.0080     6.0000    -0.0080     3.9560     3.9560    -0.0000
128 H      0.9421     1.0000     0.0579     0.9905     0.9905    -0.0000
129 H      0.9196     1.0000     0.0804     0.9809     0.9809    -0.0000
130 H      0.9435     1.0000     0.0565     0.9912     0.9912    -0.0000
131 H      0.9359     1.0000     0.0641     0.9941     0.9941    -0.0000
132 H      0.9330     1.0000     0.0670     0.9859     0.9859    -0.0000
133 H      0.9577     1.0000     0.0423     1.0161     1.0161    -0.0000
134 C      6.0459     6.0000    -0.0459     3.7787     3.7787    -0.0000
135 C      5.9481     6.0000     0.0519     3.8533     3.8533    -0.0000
136 C      5.9882     6.0000     0.0118     3.8853     3.8853    -0.0000
137 C      6.0088     6.0000    -0.0088     3.8748     3.8748    -0.0000
138 C      5.9617     6.0000     0.0383     3.8108     3.8108    -0.0000
139 C      6.0152     6.0000    -0.0152     3.8702     3.8702    -0.0000
140 H      0.9422     1.0000     0.0578     0.9898     0.9898    -0.0000
141 H      0.9294     1.0000     0.0706     0.9820     0.9820    -0.0000
142 H      0.9576     1.0000     0.0424     0.9892     0.9892    -0.0000
143 H      1.0177     1.0000    -0.0177     0.9981     0.9981    -0.0000
144 C      5.9288     6.0000     0.0712     3.8574     3.8574    -0.0000
145 C      6.0283     6.0000    -0.0283     3.9265     3.9265    -0.0000
146 C      5.8492     6.0000     0.1508     3.8954     3.8954    -0.0000
147 N      7.3182     7.0000    -0.3182     3.3560     3.3560    -0.0000
148 C      5.8473     6.0000     0.1527     3.8768     3.8768    -0.0000
149 C      6.0478     6.0000    -0.0478     3.9091     3.9091    -0.0000
150 H      0.9303     1.0000     0.0697     0.9961     0.9961    -0.0000
151 H      0.9156     1.0000     0.0844     0.9835     0.9835    -0.0000
152 H      0.9423     1.0000     0.0577     0.9880     0.9880    -0.0000
153 H      0.9630     1.0000     0.0370     1.0039     1.0039    -0.0000

  Mayer bond orders larger than 0.100000
B(  0-Pd, 33-N ) :   0.5394 B(  0-Pd, 71-N ) :   0.5387 B(  0-Pd, 87-N ) :   0.5675 
B(  0-Pd,125-N ) :   0.5680 B(  1-Pd, 11-N ) :   0.5674 B(  1-Pd, 49-N ) :   0.5681 
B(  1-Pd,109-N ) :   0.5396 B(  1-Pd,147-N ) :   0.5385 B(  2-C ,  3-C ) :   2.6050 
B(  2-C , 20-C ) :   1.0018 B(  3-C ,  4-C ) :   1.0092 B(  4-C ,  5-C ) :   1.4545 
B(  4-C , 13-C ) :   1.2083 B(  5-C ,  6-C ) :   1.2678 B(  5-C , 14-H ) :   0.9921 
B(  6-C ,  7-C ) :   1.4535 B(  6-C , 15-H ) :   0.9805 B(  7-C ,  8-C ) :   1.2682 
B(  7-C , 16-H ) :   0.9946 B(  8-C ,  9-C ) :   1.2501 B(  8-C , 13-C ) :   1.2187 
B(  9-C , 10-C ) :   1.5553 B(  9-C , 17-H ) :   0.9739 B( 10-C , 11-N ) :   1.1890 
B( 10-C , 18-H ) :   0.9483 B( 11-N , 12-C ) :   1.4054 B( 12-C , 13-C ) :   1.3364 
B( 12-C , 19-H ) :   0.9394 B( 20-C , 21-C ) :   1.3268 B( 20-C , 25-C ) :   1.3558 
B( 21-C , 22-C ) :   1.3865 B( 21-C , 26-H ) :   0.9951 B( 22-C , 23-C ) :   1.3946 
B( 22-C , 27-H ) :   0.9818 B( 23-C , 24-C ) :   1.3495 B( 23-C , 28-H ) :   0.9887 
B( 24-C , 25-C ) :   1.3445 B( 24-C , 30-C ) :   1.0328 B( 25-C , 29-H ) :   0.9845 
B( 30-C , 31-C ) :   1.3605 B( 30-C , 35-C ) :   1.3489 B( 31-C , 32-C ) :   1.4553 
B( 31-C , 36-H ) :   0.9718 B( 32-C , 33-N ) :   1.3156 B( 32-C , 37-H ) :   0.9520 
B( 33-N , 34-C ) :   1.3068 B( 34-C , 35-C ) :   1.4533 B( 34-C , 38-H ) :   0.9553 
B( 35-C , 39-H ) :   0.9690 B( 40-C , 41-C ) :   2.6050 B( 40-C , 58-C ) :   1.0018 
B( 41-C , 42-C ) :   1.0090 B( 42-C , 43-C ) :   1.4545 B( 42-C , 51-C ) :   1.2084 
B( 43-C , 44-C ) :   1.2675 B( 43-C , 52-H ) :   0.9921 B( 44-C , 45-C ) :   1.4539 
B( 44-C , 53-H ) :   0.9805 B( 45-C , 46-C ) :   1.2678 B( 45-C , 54-H ) :   0.9946 
B( 46-C , 47-C ) :   1.2503 B( 46-C , 51-C ) :   1.2189 B( 47-C , 48-C ) :   1.5547 
B( 47-C , 55-H ) :   0.9739 B( 48-C , 49-N ) :   1.1902 B( 48-C , 56-H ) :   0.9486 
B( 49-N , 50-C ) :   1.4040 B( 50-C , 51-C ) :   1.3367 B( 50-C , 57-H ) :   0.9391 
B( 58-C , 59-C ) :   1.3271 B( 58-C , 63-C ) :   1.3556 B( 59-C , 60-C ) :   1.3865 
B( 59-C , 64-H ) :   0.9950 B( 60-C , 61-C ) :   1.3947 B( 60-C , 65-H ) :   0.9818 
B( 61-C , 62-C ) :   1.3494 B( 61-C , 66-H ) :   0.9886 B( 62-C , 63-C ) :   1.3445 
B( 62-C , 68-C ) :   1.0330 B( 63-C , 67-H ) :   0.9846 B( 68-C , 69-C ) :   1.3601 
B( 68-C , 73-C ) :   1.3491 B( 69-C , 70-C ) :   1.4552 B( 69-C , 74-H ) :   0.9719 
B( 70-C , 71-N ) :   1.3157 B( 70-C , 75-H ) :   0.9520 B( 71-N , 72-C ) :   1.3070 
B( 72-C , 73-C ) :   1.4536 B( 72-C , 76-H ) :   0.9551 B( 73-C , 77-H ) :   0.9692 
B( 78-C , 79-C ) :   2.6052 B( 78-C , 96-C ) :   1.0017 B( 79-C , 80-C ) :   1.0091 
B( 80-C , 81-C ) :   1.4545 B( 80-C , 89-C ) :   1.2084 B( 81-C , 82-C ) :   1.2678 
B( 81-C , 90-H ) :   0.9921 B( 82-C , 83-C ) :   1.4534 B( 82-C , 91-H ) :   0.9805 
B( 83-C , 84-C ) :   1.2683 B( 83-C , 92-H ) :   0.9946 B( 84-C , 85-C ) :   1.2502 
B( 84-C , 89-C ) :   1.2185 B( 85-C , 86-C ) :   1.5552 B( 85-C , 93-H ) :   0.9739 
B( 86-C , 87-N ) :   1.1890 B( 86-C , 94-H ) :   0.9484 B( 87-N , 88-C ) :   1.4053 
B( 88-C , 89-C ) :   1.3363 B( 88-C , 95-H ) :   0.9395 B( 96-C , 97-C ) :   1.3267 
B( 96-C ,101-C ) :   1.3560 B( 97-C , 98-C ) :   1.3865 B( 97-C ,102-H ) :   0.9951 
B( 98-C , 99-C ) :   1.3945 B( 98-C ,103-H ) :   0.9818 B( 99-C ,100-C ) :   1.3497 
B( 99-C ,104-H ) :   0.9887 B(100-C ,101-C ) :   1.3445 B(100-C ,106-C ) :   1.0328 
B(101-C ,105-H ) :   0.9845 B(106-C ,107-C ) :   1.3605 B(106-C ,111-C ) :   1.3487 
B(107-C ,108-C ) :   1.4554 B(107-C ,112-H ) :   0.9718 B(108-C ,109-N ) :   1.3154 
B(108-C ,113-H ) :   0.9519 B(109-N ,110-C ) :   1.3069 B(110-C ,111-C ) :   1.4534 
B(110-C ,114-H ) :   0.9554 B(111-C ,115-H ) :   0.9692 B(116-C ,117-C ) :   2.6050 
B(116-C ,134-C ) :   1.0018 B(117-C ,118-C ) :   1.0090 B(118-C ,119-C ) :   1.4545 
B(118-C ,127-C ) :   1.2084 B(119-C ,120-C ) :   1.2675 B(119-C ,128-H ) :   0.9921 
B(120-C ,121-C ) :   1.4539 B(120-C ,129-H ) :   0.9805 B(121-C ,122-C ) :   1.2678 
B(121-C ,130-H ) :   0.9946 B(122-C ,123-C ) :   1.2504 B(122-C ,127-C ) :   1.2188 
B(123-C ,124-C ) :   1.5548 B(123-C ,131-H ) :   0.9738 B(124-C ,125-N ) :   1.1901 
B(124-C ,132-H ) :   0.9485 B(125-N ,126-C ) :   1.4042 B(126-C ,127-C ) :   1.3367 
B(126-C ,133-H ) :   0.9392 B(134-C ,135-C ) :   1.3271 B(134-C ,139-C ) :   1.3556 
B(135-C ,136-C ) :   1.3865 B(135-C ,140-H ) :   0.9950 B(136-C ,137-C ) :   1.3947 
B(136-C ,141-H ) :   0.9818 B(137-C ,138-C ) :   1.3495 B(137-C ,142-H ) :   0.9886 
B(138-C ,139-C ) :   1.3444 B(138-C ,144-C ) :   1.0330 B(139-C ,143-H ) :   0.9846 
B(144-C ,145-C ) :   1.3602 B(144-C ,149-C ) :   1.3492 B(145-C ,146-C ) :   1.4550 
B(145-C ,150-H ) :   0.9719 B(146-C ,147-N ) :   1.3159 B(146-C ,151-H ) :   0.9521 
B(147-N ,148-C ) :   1.3069 B(148-C ,149-C ) :   1.4536 B(148-C ,152-H ) :   0.9550 
B(149-C ,153-H ) :   0.9691 

-------
TIMINGS
-------

Total SCF time: 0 days 0 hours 14 min 8 sec 

Total time                  ....     848.611 sec
Sum of individual times     ....     842.104 sec  ( 99.2%)

Fock matrix formation       ....     705.632 sec  ( 83.2%)
  XC integration            ....      30.506 sec  (  4.3% of F)
    Basis function eval.    ....       7.146 sec  ( 23.4% of XC)
    Density eval.           ....      10.836 sec  ( 35.5% of XC)
    XC-Functional eval.     ....       0.941 sec  (  3.1% of XC)
    XC-Potential eval.      ....       4.115 sec  ( 13.5% of XC)
Diagonalization             ....      16.293 sec  (  1.9%)
Density matrix formation    ....       0.935 sec  (  0.1%)
Population analysis         ....       4.117 sec  (  0.5%)
Initial guess               ....      27.845 sec  (  3.3%)
Orbital Transformation      ....       0.000 sec  (  0.0%)
Orbital Orthonormalization  ....       0.000 sec  (  0.0%)
DIIS solution               ....      56.728 sec  (  6.7%)
Grid generation             ....      30.554 sec  (  3.6%)


-------------------------------------------------------------------------------
                          DFT DISPERSION CORRECTION                            
                                                                               
                              DFTD3 V3.1  Rev 1                                
                          USING Becke-Johnson damping                          
-------------------------------------------------------------------------------
The PBE0 functional is recognized
Active option DFTDOPT                   ...         4   

molecular C6(AA) [au] = 365661.553517 


            DFT-D V3
 parameters
 s6 scaling factor         :     1.0000 
 a1 scaling factor         :     0.4145 
 s8 scaling factor         :     1.2177 
 a2 scaling factor         :     4.8593 
 ad hoc parameters k1-k3   :    16.0000     1.3333    -4.0000 

 Edisp/kcal,au: -158.314840452254  -0.252290730433 
 E6   /kcal   : -98.469343059 
 E8   /kcal   : -59.845497394 
 % E8         :  37.801571364 

-------------------------   ----------------
Dispersion correction           -0.252290730
-------------------------   ----------------


-------------------------   --------------------
FINAL SINGLE POINT ENERGY     -4072.788990883825
-------------------------   --------------------


                            ***************************************
                            *     ORCA property calculations      *
                            ***************************************

                                    ---------------------
                                    Active property flags
                                    ---------------------
   (+) Dipole Moment


------------------------------------------------------------------------------
                       ORCA ELECTRIC PROPERTIES CALCULATION
------------------------------------------------------------------------------

Dipole Moment Calculation                       ... on
Quadrupole Moment Calculation                   ... off
Polarizability Calculation                      ... off
GBWName                                         ... _s_4d2_c_PBE0.gbw
Electron density file                           ... _s_4d2_c_PBE0.scfp
The origin for moment calculation is the CENTER OF MASS  = ( 1.725663, -1.900244  1.411851)

-------------
DIPOLE MOMENT
-------------
                                X             Y             Z
Electronic contribution:     -0.49971       0.01075       0.09867
Nuclear contribution   :      0.50324      -0.01147      -0.09552
                        -----------------------------------------
Total Dipole Moment    :      0.00353      -0.00072       0.00316
                        -----------------------------------------
Magnitude (a.u.)       :      0.00479
Magnitude (Debye)      :      0.01218



--------------------
Rotational spectrum 
--------------------
 
Rotational constants in cm-1:     0.000680     0.000373     0.000358 
Rotational constants in MHz :    20.384374    11.189231    10.733663 

 Dipole components along the rotational axes: 
x,y,z [a.u.] :     0.003049     0.000025    -0.003696 
x,y,z [Debye]:     0.007750     0.000062    -0.009395 

 

Timings for individual modules:

Sum of individual times         ...      878.863 sec (=  14.648 min)
GTO integral calculation        ...       18.486 sec (=   0.308 min)   2.1 %
SCF iterations                  ...      860.377 sec (=  14.340 min)  97.9 %
                             ****ORCA TERMINATED NORMALLY****
TOTAL RUN TIME: 0 days 0 hours 15 minutes 27 seconds 685 msec
