Job execution start: Tue Jun 22 16:51:09 BST 2021
Shared library path: /work/e05/e05/atarzia/orca_4_2_1_linux_x86-64_openmpi314:/work/e05/e05/atarzia/openmpi-3.1.4/lib:/opt/cray/pe/papi/6.0.0.4/lib64:/opt/cray/libfabric/1.11.0.0.233/lib64
Slurm Job ID is: 344719
Slurm Job name is: s_4d2_b_B97-3c
nid001214

                                 *****************
                                 * O   R   C   A *
                                 *****************

           --- An Ab Initio, DFT and Semiempirical electronic structure package ---

                  #######################################################
                  #                        -***-                        #
                  #          Department of theory and spectroscopy      #
                  #               Directorship: Frank Neese             #
                  #        Max Planck Institute fuer Kohlenforschung    #
                  #                Kaiser Wilhelm Platz 1               #
                  #                 D-45470 Muelheim/Ruhr               #
                  #                      Germany                        #
                  #                                                     #
                  #                  All rights reserved                #
                  #                        -***-                        #
                  #######################################################


                         Program Version 4.2.1 -  RELEASE  -


 With contributions from (in alphabetic order):
   Daniel Aravena         : Magnetic Suceptibility
   Michael Atanasov       : Ab Initio Ligand Field Theory (pilot matlab implementation)
   Alexander A. Auer      : GIAO ZORA, VPT2
   Ute Becker             : Parallelization
   Giovanni Bistoni       : ED, misc. LED, open-shell LED, HFLD
   Martin Brehm           : Molecular dynamics
   Dmytro Bykov           : SCF Hessian
   Vijay G. Chilkuri      : MRCI spin determinant printing, contributions to CSF-ICE
   Dipayan Datta          : RHF DLPNO-CCSD density
   Achintya Kumar Dutta   : EOM-CC, STEOM-CC
   Dmitry Ganyushin       : Spin-Orbit,Spin-Spin,Magnetic field MRCI
   Miquel Garcia          : C-PCM Hessian, Gaussian charge scheme
   Yang Guo               : DLPNO-NEVPT2, CIM, IAO-localization
   Andreas Hansen         : Spin unrestricted coupled pair/coupled cluster methods
   Benjamin Helmich-Paris : CASSCF linear response (MC-RPA)
   Lee Huntington         : MR-EOM, pCC
   Robert Izsak           : Overlap fitted RIJCOSX, COSX-SCS-MP3, EOM
   Christian Kollmar      : KDIIS, OOCD, Brueckner-CCSD(T), CCSD density
   Simone Kossmann        : Meta GGA functionals, TD-DFT gradient, OOMP2, MP2 Hessian
   Martin Krupicka        : AUTO-CI
   Lucas Lang             : DCDCAS
   Dagmar Lenk            : GEPOL surface, SMD
   Dimitrios Liakos       : Extrapolation schemes; Compound Job, initial MDCI parallelization
   Dimitrios Manganas     : Further ROCIS development; embedding schemes
   Dimitrios Pantazis     : SARC Basis sets
   Taras Petrenko         : DFT Hessian,TD-DFT gradient, ASA, ECA, R-Raman, ABS, FL, XAS/XES, NRVS
   Peter Pinski           : DLPNO-MP2, DLPNO-MP2 Gradient
   Christoph Reimann      : Effective Core Potentials
   Marius Retegan         : Local ZFS, SOC
   Christoph Riplinger    : Optimizer, TS searches, QM/MM, DLPNO-CCSD(T), (RO)-DLPNO pert. Triples
   Tobias Risthaus        : Range-separated hybrids, TD-DFT gradient, RPA, STAB
   Michael Roemelt        : Original ROCIS implementation
   Masaaki Saitow         : Open-shell DLPNO-CCSD energy and density
   Barbara Sandhoefer     : DKH picture change effects
   Avijit Sen             : IP-ROCIS
   Kantharuban Sivalingam : CASSCF convergence, NEVPT2, FIC-MRCI
   Bernardo de Souza      : ESD, SOC TD-DFT
   Georgi Stoychev        : AutoAux, RI-MP2 NMR
   Willem Van den Heuvel  : Paramagnetic NMR
   Boris Wezisla          : Elementary symmetry handling
   Frank Wennmohs         : Technical directorship


 We gratefully acknowledge several colleagues who have allowed us to
 interface, adapt or use parts of their codes:
   Stefan Grimme, W. Hujo, H. Kruse,             : VdW corrections, initial TS optimization,
                  C. Bannwarth                     DFT functionals, gCP, sTDA/sTD-DF
   Ed Valeev, F. Pavosevic, A. Kumar             : LibInt (2-el integral package), F12 methods
   Garnet Chan, S. Sharma, J. Yang, R. Olivares  : DMRG
   Ulf Ekstrom                                   : XCFun DFT Library
   Mihaly Kallay                                 : mrcc  (arbitrary order and MRCC methods)
   Andreas Klamt, Michael Diedenhofen            : otool_cosmo (COSMO solvation model)
   Jiri Pittner, Ondrej Demel                    : Mk-CCSD
   Frank Weinhold                                : gennbo (NPA and NBO analysis)
   Christopher J. Cramer and Donald G. Truhlar   : smd solvation model
   Lars Goerigk                                  : TD-DFT with DH, B97 family of functionals
   V. Asgeirsson, H. Jonsson                     : NEB implementation
   FAccTs GmbH                                   : IRC, NEB, NEB-TS, Multilevel, MM, QM/MM, CI optimization
   S Lehtola, MJT Oliveira, MAL Marques          : LibXC Library


 Your calculation uses the libint2 library for the computation of 2-el integrals
 For citations please refer to: http://libint.valeyev.net

 Your ORCA version has been built with support for libXC version: 4.2.3
 For citations please refer to: https://tddft.org/programs/libxc/

 This ORCA versions uses:
   CBLAS   interface :  Fast vector & matrix operations
   LAPACKE interface :  Fast linear algebra routines
   SCALAPACK package :  Parallel linear algebra routines




***************************************
The coordinates will be read from file: s_4d2_b.xyz
***************************************


Your calculation utilizes the atom-pairwise dispersion correction
with the Becke-Johnson damping scheme (D3BJ)
Cite in your paper:
S.Grimme, S.Ehrlich, L.Goerigk, J Comput Chem, (2011), 32, 1456–1465 
S.Grimme, J.Antony, S.Ehrlich and H.Krieg, J.Chem.Phys., 132, (2010), 154104 
   

Your calculation employs the composite approach B97-3c by Grimme and coworkers.
For the correct reference, please check the publication list of the Grimme group:
http://www.thch.uni-bonn.de/tc/index.php?section=publikationen&subsection=grimme#2017
   

XCFun DFT library Copyright 2009-2010 Ulf Ekstrom and contributors.
See http://admol.org/xcfun for more information. This is free soft-
ware; see the source code for copying conditions. There is ABSOLUTELY
NO WARRANTY; not even for MERCHANTABILITY or FITNESS FOR A PARTICULAR
PURPOSE. For details see the documentation. Scientific users of this 
library should cite U. Ekstrom, L. Visscher, R. Bast, A. J. Thorvald-
sen and K. Ruud; J.Chem.Theor.Comp. 2010, DOI: 10.1021/ct100117s
XCFun Version 0.99 
----- Orbital basis set information -----
Your calculation utilizes the basis: def2-mTZVP
----- AuxJ basis set information -----
Your calculation utilizes the basis: def2-mTZVP/J
cite the ECPs for Pd [Def2-ECP] as follows:
Ce-Yb(ecp-28): M. Dolg, H. Stoll, H.Preuss, J. Chem. Phys., 1989, 90, 1730-1734.
Y-Cd(ecp-28), Hf-Hg(ecp-46): D. Andrae,U. Haeussermann, M. Dolg, H. Stoll, H. Preuss, Theor. Chim. Acta, 1990, 77, 123-141.
In-Sb(ecp-28), Tl-Bi(ecp-46): B. Metz, H. Stoll, M. Dolg, J. Chem. Phys., 2000, 113, 2563-2569.
Te-Xe(ecp-28), Po-Rn(ecp-46): K. A. Peterson, D. Figgen, E. Goll, H. Stoll, M. Dolg, J. Chem. Phys., 2003, 119, 11113-11123.
Rb(ecp-28), Cs(ecp-46): T. Leininger, A. Nicklass, W. Kuechle, H. Stoll, M. Dolg, A. Bergner, Chem. Phys. Lett., 1996, 255, 274-280.
Sr(ecp-28), Ba(ecp-46): M. Kaupp, P. V. Schleyer, H. Stoll and H. Preuss, J. Chem. Phys., 1991, 94, 1360-1366.
La(ecp-46): M. Dolg, H. Stoll, A. Savin, H. Preuss, Theor. Chim. Acta, 1989, 75, 173-194.
Lu(ecp-28): X. Cao, M. Dolg, J. Chem. Phys., 2001, 115, 7348-7355.

ECP parameters for Pd [Def2-ECP] have been obtained from:
TURBOMOLE (7.0.2)

================================================================================
                                        WARNINGS
                       Please study these warnings very carefully!
================================================================================


INFO   : the flag for use of LIBINT has been found!

================================================================================
                                       INPUT FILE
================================================================================
NAME = s_4d2_b_B97-3c.in
|  1> ! DFT SP B97-3c TightSCF printbasis  Grid6 NOFINALGRID SlowConv 
|  2> 
|  3> %base "_s_4d2_b_B97-3c"
|  4> %maxcore 3000
|  5> %scf
|  6>    MaxIter 2000
|  7> end
|  8> %pal
|  9>    nprocs 32
| 10> end
| 11> 
| 12> * xyzfile 4 1 s_4d2_b.xyz
| 13> 
| 14>                          ****END OF INPUT****
================================================================================

                       ****************************
                       * Single Point Calculation *
                       ****************************

---------------------------------
CARTESIAN COORDINATES (ANGSTROEM)
---------------------------------
  Pd     0.289100    4.165300   -0.506200
  Pd     1.042000   -5.225800    0.901800
  C      6.288700   -3.026500   -0.356800
  C      6.233200   -4.224700   -0.196800
  C      6.212300   -5.620600    0.000200
  C      7.371800   -6.358500   -0.147400
  C      7.376500   -7.742700    0.062700
  C      6.233800   -8.410800    0.425300
  C      5.027300   -7.704100    0.587900
  C      3.813300   -8.326000    0.959600
  C      2.675000   -7.580300    1.093100
  N      2.677000   -6.247600    0.877600
  C      3.787200   -5.627200    0.533000
  C      5.009000   -6.295200    0.371100
  H      8.287400   -5.860800   -0.428200
  H      8.300800   -8.285900   -0.062500
  H      6.247100   -9.477000    0.588900
  H      3.797600   -9.390200    1.132300
  H      1.721800   -8.018300    1.377300
  H      3.741800   -4.548200    0.370000
  C      6.399600   -1.624000   -0.490400
  C      7.669100   -1.036700   -0.510700
  C      7.786900    0.337700   -0.600700
  C      6.660300    1.139600   -0.668400
  C      5.384600    0.569700   -0.653600
  C      5.265500   -0.817100   -0.570400
  H      8.548600   -1.659200   -0.450500
  H      8.767100    0.789800   -0.611200
  H      6.778700    2.211100   -0.700200
  H      4.294000   -1.282900   -0.603100
  C      4.189500    1.421000   -0.690300
  C      4.160900    2.634200   -1.385500
  C      3.022800    3.417100   -1.355300
  N      1.922800    3.049900   -0.694100
  C      1.919300    1.882000   -0.035400
  C      3.022700    1.057300   -0.005200
  H      5.014900    2.963200   -1.954900
  H      2.985000    4.366000   -1.880400
  H      0.994700    1.627800    0.484700
  H      2.997700    0.149500    0.574000
  C     -0.544400    1.966500    5.492700
  C     -0.293200    3.105800    5.171200
  C      0.117700    4.439800    4.984400
  C      0.197000    5.267000    6.092100
  C      0.728800    6.556000    5.997500
  C      1.217700    7.028200    4.804600
  C      1.137300    6.231200    3.649500
  C      1.635900    6.656800    2.397100
  C      1.476200    5.864900    1.299800
  N      0.811700    4.678500    1.355300
  C      0.379300    4.225000    2.514800
  C      0.543100    4.936600    3.715800
  H     -0.139200    4.899400    7.049600
  H      0.775000    7.171200    6.883100
  H      1.664800    8.007700    4.739800
  H      2.135400    7.609700    2.323800
  H      1.881600    6.148300    0.325900
  H     -0.136700    3.270800    2.512800
  C     -0.713100    0.619100    5.878100
  C     -1.291700    0.300600    7.110500
  C     -1.356800   -1.020800    7.513800
  C     -0.847200   -2.031300    6.715200
  C     -0.268000   -1.727200    5.481600
  C     -0.218600   -0.398400    5.064900
  H     -1.676200    1.085300    7.743800
  H     -1.797700   -1.265700    8.468300
  H     -0.869100   -3.048900    7.071900
  H      0.197600   -0.140600    4.104600
  C      0.289700   -2.768100    4.613300
  C      1.396000   -2.492400    3.798300
  C      1.803400   -3.421900    2.866900
  N      1.195900   -4.605900    2.740000
  C      0.211500   -4.934500    3.580700
  C     -0.268000   -4.047600    4.523800
  H      1.926200   -1.558900    3.896300
  H      2.652700   -3.240100    2.211200
  H     -0.194000   -5.937100    3.478000
  H     -1.097900   -4.330700    5.150600
  C     -5.082400    1.797000    0.251400
  C     -5.013100    3.002400    0.316400
  C     -4.992000    4.409600    0.360300
  C     -6.165600    5.112100    0.561100
  C     -6.175500    6.511400    0.572900
  C     -5.022800    7.228100    0.370200
  C     -3.804800    6.555800    0.158800
  C     -2.587100    7.232100   -0.074500
  C     -1.440900    6.519600   -0.275300
  N     -1.420700    5.166700   -0.240400
  C     -2.538400    4.497100   -0.028000
  C     -3.774600    5.130800    0.166600
  H     -7.088400    4.572200    0.709100
  H     -7.109600    7.026900    0.736400
  H     -5.036400    8.306700    0.367200
  H     -2.574900    8.309900   -0.097000
  H     -0.492900    7.009800   -0.468400
  H     -2.468200    3.410500   -0.010700
  C     -5.145300    0.391800    0.133600
  C     -6.331500   -0.222900   -0.278800
  C     -6.375500   -1.597700   -0.420800
  C     -5.257300   -2.369600   -0.158100
  C     -4.064600   -1.768200    0.254600
  C     -4.019000   -0.383000    0.402500
  H     -7.202900    0.378700   -0.486800
  H     -7.290100   -2.072100   -0.742300
  H     -5.306700   -3.436200   -0.307100
  H     -3.129000    0.102500    0.770000
  C     -2.867900   -2.576800    0.496700
  C     -2.946400   -3.878900    1.000400
  C     -1.797800   -4.617900    1.156100
  N     -0.592600   -4.120100    0.857500
  C     -0.485500   -2.860600    0.417100
  C     -1.591800   -2.073000    0.214900
  H     -3.895900   -4.307400    1.276400
  H     -1.806300   -5.636800    1.523800
  H      0.526600   -2.515100    0.226200
  H     -1.475600   -1.079500   -0.185500
  C     -2.678200   -0.049500   -4.474700
  C     -2.467700    1.129000   -4.651100
  C     -2.247800    2.449200   -5.091500
  C     -2.785400    2.816100   -6.314500
  C     -2.531300    4.070900   -6.873900
  C     -1.721500    4.973100   -6.230300
  C     -1.170100    4.650700   -4.978200
  C     -0.326400    5.539800   -4.274600
  C      0.142800    5.195900   -3.042900
  N     -0.192600    4.021600   -2.441500
  C     -0.942900    3.149300   -3.083900
  C     -1.449800    3.389300   -4.374000
  H     -3.398700    2.109500   -6.852500
  H     -2.965700    4.318100   -7.830400
  H     -1.501100    5.931900   -6.672400
  H     -0.066900    6.486500   -4.720900
  H      0.810700    5.857700   -2.485500
  H     -1.171000    2.221500   -2.571200
  C     -2.859600   -1.443500   -4.344800
  C     -3.916700   -2.071200   -5.012100
  C     -4.039900   -3.447300   -4.958800
  C     -3.127900   -4.211600   -4.250300
  C     -2.072900   -3.597400   -3.572800
  C     -1.950000   -2.209700   -3.620100
  H     -4.624600   -1.480300   -5.572600
  H     -4.849100   -3.931800   -5.483800
  H     -3.219400   -5.286200   -4.256300
  H     -1.153100   -1.712600   -3.090400
  C     -1.108900   -4.371500   -2.786400
  C     -1.482500   -5.519100   -2.079200
  C     -0.595800   -6.083600   -1.184800
  N      0.618900   -5.568900   -0.977600
  C      1.041400   -4.551300   -1.736000
  C      0.218900   -3.941400   -2.658000
  H     -2.474200   -5.929000   -2.180100
  H     -0.849600   -6.959800   -0.595700
  H      2.075500   -4.242300   -1.597300
  H      0.592500   -3.128800   -3.260000

----------------------------
CARTESIAN COORDINATES (A.U.)
----------------------------
  NO LB      ZA    FRAG     MASS         X           Y           Z
   0 Pd   18.0000*   0   106.400    0.546320    7.871276   -0.956579
   1 Pd   18.0000*   0   106.400    1.969095   -9.875331    1.704155
   2 C     6.0000    0    12.011   11.883921   -5.719256   -0.674254
   3 C     6.0000    0    12.011   11.779041   -7.983526   -0.371898
   4 C     6.0000    0    12.011   11.739546  -10.621395    0.000378
   5 C     6.0000    0    12.011   13.930683  -12.015824   -0.278546
   6 C     6.0000    0    12.011   13.939565  -14.631583    0.118486
   7 C     6.0000    0    12.011   11.780175  -15.894109    0.803701
   8 C     6.0000    0    12.011    9.500220  -14.558639    1.110970
   9 C     6.0000    0    12.011    7.206093  -15.733860    1.813381
  10 C     6.0000    0    12.011    5.055017  -14.324691    2.065660
  11 N     7.0000    0    14.007    5.058797  -11.806253    1.658424
  12 C     6.0000    0    12.011    7.156771  -10.633867    1.007224
  13 C     6.0000    0    12.011    9.465638  -11.896204    0.701277
  14 H     1.0000    0     1.008   15.660916  -11.075307   -0.809181
  15 H     1.0000    0     1.008   15.686239  -15.658082   -0.118108
  16 H     1.0000    0     1.008   11.805308  -17.908935    1.112860
  17 H     1.0000    0     1.008    7.176424  -17.744906    2.139737
  18 H     1.0000    0     1.008    3.253730  -15.152391    2.602720
  19 H     1.0000    0     1.008    7.070977   -8.594852    0.699199
  20 C     6.0000    0    12.011   12.093491   -3.068915   -0.926722
  21 C     6.0000    0    12.011   14.492499   -1.959079   -0.965083
  22 C     6.0000    0    12.011   14.715108    0.638161   -1.135158
  23 C     6.0000    0    12.011   12.586143    2.153532   -1.263093
  24 C     6.0000    0    12.011   10.175419    1.076577   -1.235125
  25 C     6.0000    0    12.011    9.950353   -1.544095   -1.077900
  26 H     1.0000    0     1.008   16.154513   -3.135434   -0.851322
  27 H     1.0000    0     1.008   16.567418    1.492506   -1.155001
  28 H     1.0000    0     1.008   12.809887    4.178373   -1.323186
  29 H     1.0000    0     1.008    8.114484   -2.424330   -1.139694
  30 C     6.0000    0    12.011    7.917008    2.685301   -1.304478
  31 C     6.0000    0    12.011    7.862961    4.977917   -2.618216
  32 C     6.0000    0    12.011    5.712264    6.457383   -2.561146
  33 N     7.0000    0    14.007    3.633565    5.763476   -1.311659
  34 C     6.0000    0    12.011    3.626951    3.556465   -0.066896
  35 C     6.0000    0    12.011    5.712075    1.998007   -0.009827
  36 H     1.0000    0     1.008    9.476788    5.599636   -3.694226
  37 H     1.0000    0     1.008    5.640833    8.250544   -3.553441
  38 H     1.0000    0     1.008    1.879711    3.076096    0.915950
  39 H     1.0000    0     1.008    5.664832    0.282514    1.084703
  40 C     6.0000    0    12.011   -1.028767    3.716146   10.379699
  41 C     6.0000    0    12.011   -0.554068    5.869111    9.772152
  42 C     6.0000    0    12.011    0.222421    8.390006    9.419151
  43 C     6.0000    0    12.011    0.372276    9.953188   11.512401
  44 C     6.0000    0    12.011    1.377232   12.389045   11.333632
  45 C     6.0000    0    12.011    2.301120   13.281373    9.079378
  46 C     6.0000    0    12.011    2.149186   11.775261    6.896556
  47 C     6.0000    0    12.011    3.091403   12.579529    4.529863
  48 C     6.0000    0    12.011    2.789614   11.083055    2.456266
  49 N     7.0000    0    14.007    1.533891    8.841084    2.561146
  50 C     6.0000    0    12.011    0.716773    7.984093    4.752283
  51 C     6.0000    0    12.011    1.026310    9.328822    7.021844
  52 H     1.0000    0     1.008   -0.263050    9.258524   13.321813
  53 H     1.0000    0     1.008    1.464538   13.551604   13.007174
  54 H     1.0000    0     1.008    3.146016   15.132360    8.956924
  55 H     1.0000    0     1.008    4.035321   14.380249    4.391346
  56 H     1.0000    0     1.008    3.555709   11.618603    0.615862
  57 H     1.0000    0     1.008   -0.258326    6.180916    4.748504
  58 C     6.0000    0    12.011   -1.347564    1.169929   11.107999
  59 C     6.0000    0    12.011   -2.440959    0.568052   13.436898
  60 C     6.0000    0    12.011   -2.563980   -1.929032   14.199024
  61 C     6.0000    0    12.011   -1.600976   -3.838601   12.689889
  62 C     6.0000    0    12.011   -0.506447   -3.263935   10.358723
  63 C     6.0000    0    12.011   -0.413094   -0.752867    9.571274
  64 H     1.0000    0     1.008   -3.167559    2.050920   14.633661
  65 H     1.0000    0     1.008   -3.397161   -2.391826   16.002768
  66 H     1.0000    0     1.008   -1.642361   -5.761586   13.363954
  67 H     1.0000    0     1.008    0.373410   -0.265695    7.756570
  68 C     6.0000    0    12.011    0.547454   -5.230951    8.717874
  69 C     6.0000    0    12.011    2.638058   -4.709953    7.177747
  70 C     6.0000    0    12.011    3.407932   -6.466454    5.417656
  71 N     7.0000    0    14.007    2.259923   -8.703890    5.177850
  72 C     6.0000    0    12.011    0.399677   -9.324854    6.766542
  73 C     6.0000    0    12.011   -0.506447   -7.648855    8.548743
  74 H     1.0000    0     1.008    3.639990   -2.945894    7.362940
  75 H     1.0000    0     1.008    5.012877   -6.122902    4.178562
  76 H     1.0000    0     1.008   -0.366607  -11.219493    6.572467
  77 H     1.0000    0     1.008   -2.074730   -8.183837    9.733223
  78 C     6.0000    0    12.011   -9.604344    3.395838    0.475077
  79 C     6.0000    0    12.011   -9.473386    5.673714    0.597909
  80 C     6.0000    0    12.011   -9.433513    8.332936    0.680868
  81 C     6.0000    0    12.011  -11.651295    9.660469    1.060325
  82 C     6.0000    0    12.011  -11.670004   12.304763    1.082624
  83 C     6.0000    0    12.011   -9.491716   13.659129    0.699577
  84 C     6.0000    0    12.011   -7.190030   12.388667    0.300089
  85 C     6.0000    0    12.011   -4.888910   13.666688   -0.140785
  86 C     6.0000    0    12.011   -2.722906   12.320259   -0.520242
  87 N     7.0000    0    14.007   -2.684734    9.763648   -0.454290
  88 C     6.0000    0    12.011   -4.796881    8.498287   -0.052912
  89 C     6.0000    0    12.011   -7.132960    9.695807    0.314828
  90 H     1.0000    0     1.008  -13.395135    8.640206    1.340005
  91 H     1.0000    0     1.008  -13.435197   13.278917    1.391594
  92 H     1.0000    0     1.008   -9.517417   15.697388    0.693907
  93 H     1.0000    0     1.008   -4.865856   15.703435   -0.183303
  94 H     1.0000    0     1.008   -0.931446   13.246602   -0.885148
  95 H     1.0000    0     1.008   -4.664222    6.444911   -0.020220
  96 C     6.0000    0    12.011   -9.723208    0.740395    0.252467
  97 C     6.0000    0    12.011  -11.964801   -0.421220   -0.526856
  98 C     6.0000    0    12.011  -12.047949   -3.019215   -0.795197
  99 C     6.0000    0    12.011   -9.934857   -4.477895   -0.298766
 100 C     6.0000    0    12.011   -7.680981   -3.341414    0.481124
 101 C     6.0000    0    12.011   -7.594809   -0.723765    0.760615
 102 H     1.0000    0     1.008  -13.611508    0.715639   -0.919919
 103 H     1.0000    0     1.008  -13.776292   -3.915702   -1.402744
 104 H     1.0000    0     1.008  -10.028210   -6.493477   -0.580335
 105 H     1.0000    0     1.008   -5.912953    0.193697    1.455089
 106 C     6.0000    0    12.011   -5.419546   -4.869446    0.938627
 107 C     6.0000    0    12.011   -5.567889   -7.330059    1.890482
 108 C     6.0000    0    12.011   -3.397350   -8.726566    2.184712
 109 N     7.0000    0    14.007   -1.119852   -7.785861    1.620440
 110 C     6.0000    0    12.011   -0.917462   -5.405751    0.788205
 111 C     6.0000    0    12.011   -3.008066   -3.917402    0.406102
 112 H     1.0000    0     1.008   -7.362184   -8.139806    2.412046
 113 H     1.0000    0     1.008   -3.413412  -10.652008    2.879565
 114 H     1.0000    0     1.008    0.995130   -4.752850    0.427456
 115 H     1.0000    0     1.008   -2.788480   -2.039959   -0.350544
 116 C     6.0000    0    12.011   -5.061065   -0.093541   -8.455958
 117 C     6.0000    0    12.011   -4.663277    2.133501   -8.789305
 118 C     6.0000    0    12.011   -4.247726    4.628317   -9.621541
 119 C     6.0000    0    12.011   -5.263643    5.321658  -11.932676
 120 C     6.0000    0    12.011   -4.783464    7.692886  -12.989788
 121 C     6.0000    0    12.011   -3.253164    9.397797  -11.773561
 122 C     6.0000    0    12.011   -2.211169    8.788549   -9.407435
 123 C     6.0000    0    12.011   -0.616807   10.468705   -8.077823
 124 C     6.0000    0    12.011    0.269853    9.818828   -5.750248
 125 N     7.0000    0    14.007   -0.363961    7.599723   -4.613766
 126 C     6.0000    0    12.011   -1.781823    5.951315   -5.827726
 127 C     6.0000    0    12.011   -2.739725    6.404849   -8.265662
 128 H     1.0000    0     1.008   -6.422612    3.986377  -12.949348
 129 H     1.0000    0     1.008   -5.604361    8.160026  -14.797312
 130 H     1.0000    0     1.008   -2.836668   11.209666  -12.609009
 131 H     1.0000    0     1.008   -0.126423   12.257709   -8.921208
 132 H     1.0000    0     1.008    1.532001   11.069449   -4.696914
 133 H     1.0000    0     1.008   -2.212869    4.198027   -4.858864
 134 C     6.0000    0    12.011   -5.403861   -2.727820   -8.210482
 135 C     6.0000    0    12.011   -7.401490   -3.914001   -9.471496
 136 C     6.0000    0    12.011   -7.634305   -6.514453   -9.370774
 137 C     6.0000    0    12.011   -5.910874   -7.958771   -8.031903
 138 C     6.0000    0    12.011   -3.917213   -6.798101   -6.751614
 139 C     6.0000    0    12.011   -3.684966   -4.175728   -6.840998
 140 H     1.0000    0     1.008   -8.739227   -2.797362  -10.530688
 141 H     1.0000    0     1.008   -9.163471   -7.430025  -10.362880
 142 H     1.0000    0     1.008   -6.083784   -9.989470   -8.043241
 143 H     1.0000    0     1.008   -2.179043   -3.236345   -5.840010
 144 C     6.0000    0    12.011   -2.095517   -8.260938   -5.265533
 145 C     6.0000    0    12.011   -2.801519  -10.429588   -3.929119
 146 C     6.0000    0    12.011   -1.125899  -11.496338   -2.238948
 147 N     7.0000    0    14.007    1.169552  -10.523696   -1.847396
 148 C     6.0000    0    12.011    1.967961   -8.600711   -3.280565
 149 C     6.0000    0    12.011    0.413661   -7.448167   -5.022892
 150 H     1.0000    0     1.008   -4.675560  -11.204186   -4.119792
 151 H     1.0000    0     1.008   -1.605511  -13.152116   -1.125710
 152 H     1.0000    0     1.008    3.922127   -8.016785   -3.018460
 153 H     1.0000    0     1.008    1.119663   -5.912575   -6.160507
* core charge reduced due to ECP

--------------------------------
INTERNAL COORDINATES (ANGSTROEM)
--------------------------------
 Pd     0   0   0     0.000000000000     0.00000000     0.00000000
 Pd     1   0   0     9.525863825397     0.00000000     0.00000000
 C      2   1   0     5.826564625918    70.55648480     0.00000000
 C      3   2   1     1.210108875267    63.66579749   182.34507845
 C      4   3   2     1.409887449409   178.17018288   204.05068265
 C      5   4   3     1.382288833783   120.07770321   334.48797953
 C      6   5   4     1.400062048625   120.96864240   179.06498746
 C      7   6   5     1.372442953277   121.20711000   359.79793686
 C      8   7   6     1.407659724507   119.98334812     0.21824720
 C      9   8   7     1.413759703769   123.06011569   180.00852619
 C     10   9   8     1.367339617652   120.04184834   180.35400578
 N     11  10   9     1.350012422165   121.43650231   359.97139184
 C     12  11  10     1.317645384768   120.51721373   359.85022604
 C     13  12  11     1.401866915937   122.69608236     0.02973061
 H      6   5   4     1.079294811439   119.55235207   359.09802209
 H      7   6   5     1.079384903545   118.88259067   179.96065614
 H      8   7   6     1.078760534132   120.72583025   180.23687977
 H     10   9   8     1.078236254260   119.26035207     0.17735473
 H     11  10   9     1.086832038541   122.40348588   180.02951402
 H     13  12  11     1.092186412660   117.97993807   180.06428554
 C      3   2   1     1.413206998284   117.75464067     5.13043211
 C     21   3   2     1.398915161831   119.29002930   166.64749669
 C     22  21   3     1.382371947053   119.71469545   181.93066772
 C     23  22  21     1.384505131807   120.64369281     0.12545189
 C     24  23  22     1.397288638757   120.40857000   359.67130138
 C     21   3   2     1.394155809083   121.06277497   348.16435415
 H     22  21   3     1.079189760885   119.77506863     1.59242200
 H     23  22  21     1.079489092117   119.63053406   179.69034958
 H     24  23  22     1.078490635101   119.17973850   177.69077186
 H     26  21   3     1.077892007578   118.99968448   355.48052949
 C     25  24  23     1.467761080694   120.43474600   178.41135668
 C     31  25  24     1.398561847041   122.15470996    33.31577008
 C     32  31  25     1.381707660831   119.83467376   181.92051980
 N     33  32  31     1.334923698194   122.25584388   359.03993328
 C     34  33  32     1.340853590069   119.01670974     0.00000000
 C     35  34  33     1.377872886009   122.00579468     0.88638628
 H     32  31  25     1.077855908737   120.74192738     2.53877896
 H     33  32  31     1.085159002174   120.90295425   179.39917334
 H     35  34  33     1.090874332817   116.06536760   180.24100179
 H     36  35  34     1.077125099513   119.84404570   177.04445402
 C     39  35  34     5.250105760839   133.48989052   260.21402248
 C     41  39  35     1.210152130932    75.31323382    60.32021676
 C     42  41  39     1.408292956029   170.96437078   229.11452050
 C     43  42  41     1.384755436891   118.45400109   321.98320275
 C     44  43  42     1.397598440182   121.23772855   173.27120318
 C     45  44  43     1.372955374366   120.76464195   358.47977928
 C     46  45  44     1.405677477233   119.90754017     2.54366357
 C     47  46  45     1.413592260873   122.49018263   180.70011351
 C     48  47  46     1.362599350506   119.81193483   182.91002777
 N     49  48  47     1.360950204820   122.07408131     1.92783609
 C     50  49  48     1.317980371629   119.73705378   355.43157650
 C     51  50  49     1.405562520844   122.63476817     1.73468059
 H     44  43  42     1.079336115397   119.23163487   354.60552351
 H     45  44  43     1.079302015193   119.10786536   180.05958305
 H     46  45  44     1.078664776471   120.80417649   182.50884037
 H     48  47  46     1.078374494320   119.31724743     2.64646329
 H     49  48  47     1.092312194384   121.58198861   182.25961795
 H     51  50  49     1.084784605348   117.20021852   180.57341746
 C     41  39  35     1.411552198822   103.52662550   245.46263684
 C     59  41  39     1.398223862620   120.50042067   188.43612942
 C     60  59  41     1.383107681997   119.61119004   184.84468613
 C     61  60  59     1.385122510827   120.76749110     0.44876200
 C     62  61  60     1.396323175343   120.20480172   359.48390147
 C     59  41  39     1.393244680593   119.69203213    12.74956581
 H     60  59  41     1.079195640280   119.93623206     4.31802516
 H     61  60  59     1.079555033335   119.58846085   179.59649210
 H     62  61  60     1.078528747878   119.35183054   177.20752609
 H     64  59  41     1.077895806653   118.84053653   353.89093252
 C     63  62  61     1.465758162181   121.77073208   179.58749824
 C     69  63  62     1.401476071861   120.34066790   212.60735035
 C     70  69  63     1.377479934518   119.59921984   188.18274740
 N     71  70  69     1.336793125356   121.83250698   358.01820204
 C     72  71  70     1.335588937510   119.54516039   356.41388911
 C     73  72  71     1.380561288027   121.86637149     4.72745977
 H     70  69  63     1.078025180596   120.37920472     8.09627955
 H     71  70  69     1.088257423591   121.70139123   179.50586883
 H     73  72  71     1.086362876759   116.27452111   184.45623787
 H     74  73  72     1.077848718513   119.73237754   176.82121908
 C     58  51  50     5.634355765303   130.41790894   293.63570350
 C     79  58  51     1.209138805101    70.57033840   343.54946777
 C     80  79  58     1.408042705318   177.24732164   176.02575338
 C     81  80  79     1.382448498137   119.97746498    36.72165620
 C     82  81  80     1.399384771962   121.02126288   181.72449028
 C     83  82  81     1.372393336475   120.99794074     0.75322238
 C     84  83  82     1.407196237204   119.97905704   359.39794854
 C     85  84  83     1.412304453721   122.84173366   179.08063243
 C     86  85  84     1.364460087361   119.90371371   180.15063507
 N     87  86  85     1.353500816402   122.05243214   359.02942796
 C     88  87  86     1.320125452372   119.90161699     1.10745055
 C     89  88  87     1.402724238758   122.63774980     0.06290209
 H     82  81  80     1.079331204960   119.44185879     1.60625505
 H     83  82  81     1.079358749443   119.01045605   180.23914577
 H     84  83  82     1.078689909103   120.79740827   179.19842689
 H     86  85  84     1.078103858633   119.46765919   359.83628593
 H     87  86  85     1.084567955455   121.63110720   179.26911454
 H     89  88  87     1.089002704313   117.00596858   179.91910037
 C     79  58  51     1.411531186336   109.45164686   161.58391300
 C     97  79  58     1.398213249115   120.00530789   173.63692998
 C     98  97  79     1.382814174067   119.62801287   178.53716234
 C     99  98  97     1.383911897485   120.61930459     0.02682143
 C    100  99  98     1.398047402630   120.35920515   359.95479278
 C     97  79  58     1.393260183885   120.09805052   352.38109719
 H     98  97  79     1.079131372911   119.78986252   358.75565202
 H     99  98  97     1.079310321455   119.63971731   180.20305311
 H    100  99  98     1.078089476806   119.24619823   181.99138161
 H    102  97  79     1.078362879554   118.85468734     4.49037483
 C    101 100  99     1.464423866235   120.55933216   181.76360651
 C    107 101 100     1.398334849026   121.85949376   326.58689468
 C    108 107 101     1.374643753850   119.63606242   177.20683781
 N    109 108 107     1.337712166350   121.83370697     1.03983106
 C    110 109 108     1.338567450673   119.71408258     1.24940329
 C    111 110 109     1.372988816415   121.58334965   357.57914594
 H    108 107 101     1.077654165305   120.79550555   356.66185313
 H    109 108 107     1.083251009693   122.51690518   181.20592746
 H    111 110 109     1.086351448657   115.56968280   178.06395206
 H    112 111 110     1.077434383153   119.78719883   182.95267737
 C    116 112 111     4.572131166097   121.86960188   107.12502122
 C    117 116 112     1.210078286724   108.08325263   178.65718461
 C    118 117 116     1.408984105659   170.14671699   165.42069608
 C    119 118 117     1.385409098425   117.61356366    24.87682941
 C    120 119 118     1.397146452595   121.38099078   184.91675764
 C    121 120 119     1.372574894131   120.65688128     0.90076751
 C    122 121 120     1.405609522592   119.89217041   358.20703350
 C    123 122 121     1.413287465451   122.23317106   179.75788392
 C    124 123 122     1.362167662221   119.79948419   177.68497969
 N    125 124 123     1.361306581928   122.16674766   358.77403316
 C    126 125 124     1.317776589563   119.73129079     3.33535456
 C    127 126 125     1.406735803198   122.63602336   358.47587594
 H    120 119 118     1.079288863095   119.15423300     3.81829541
 H    121 120 119     1.079214274368   119.16809143   179.78782678
 H    122 121 120     1.078575917588   120.84200391   178.27560731
 H    124 123 122     1.078315737620   119.33579798   357.99943879
 H    125 124 123     1.093052793784   121.24652306   178.91650396
 H    127 126 125     1.084298731900   117.10871215   179.04364132
 C    117 116 112     1.411742175470    74.03982238   354.97805838
 C    135 117 116     1.398841302650   119.75533027   144.75290195
 C    136 135 117     1.382631671849   119.70640382   175.58720521
 C    137 136 135     1.384872102398   120.68561543     0.05653054
 C    138 137 136     1.396163632960   120.20488823     0.34358964
 C    135 117 116     1.392704092763   120.47730417   321.05124191
 H    136 135 117     1.079094745609   119.85519112   356.18489831
 H    137 136 135     1.079430354400   119.65501043   180.73071216
 H    138 137 136     1.078505173840   119.41796630   182.54340879
 H    140 135 117     1.078304275240   118.99078346     5.15566591
 C    139 138 137     1.465248023374   121.67968349   178.47022880
 C    145 139 138     1.398818987575   121.94125979   325.51391198
 C    146 145 139     1.380162490434   119.44535727   190.54689896
 N    147 146 145     1.335419042848   121.82254474   359.62222492
 C    148 147 146     1.337604788418   119.50851541   353.97091826
 C    149 148 147     1.377885430651   121.84238148     5.37861772
 H    146 145 139     1.077806898289   120.69206255     6.71862053
 H    147 146 145     1.085900405194   122.10200052   178.49363023
 H    149 148 147     1.088155090049   116.35516123   186.39019888
 H    150 149 148     1.078100051016   120.02732997   180.52015080

---------------------------
INTERNAL COORDINATES (A.U.)
---------------------------
 Pd     0   0   0     0.000000000000     0.00000000     0.00000000
 Pd     1   0   0    18.001273819027     0.00000000     0.00000000
 C      2   1   0    11.010611444579    70.55648480     0.00000000
 C      3   2   1     2.286774366482    63.66579749   182.34507845
 C      4   3   2     2.664301159035   178.17018288   204.05068265
 C      5   4   3     2.612147333826   120.07770321   334.48797953
 C      6   5   4     2.645733842398   120.96864240   179.06498746
 C      7   6   5     2.593541316124   121.20711000   359.79793686
 C      8   7   6     2.660091369070   119.98334812     0.21824720
 C      9   8   7     2.671618659296   123.06011569   180.00852619
 C     10   9   8     2.583897409422   120.04184834   180.35400578
 N     11  10   9     2.551153755284   121.43650231   359.97139184
 C     12  11  10     2.489988918837   120.51721373   359.85022604
 C     13  12  11     2.649144547327   122.69608236     0.02973061
 H      6   5   4     2.039571611383   119.55235207   359.09802209
 H      7   6   5     2.039741860788   118.88259067   179.96065614
 H      8   7   6     2.038561973591   120.72583025   180.23687977
 H     10   9   8     2.037571228216   119.26035207     0.17735473
 H     11  10   9     2.053814906415   122.40348588   180.02951402
 H     13  12  11     2.063933207118   117.97993807   180.06428554
 C      3   2   1     2.670574197298   117.75464067     5.13043211
 C     21   3   2     2.643566540450   119.29002930   166.64749669
 C     22  21   3     2.612304395146   119.71469545   181.93066772
 C     23  22  21     2.616335530124   120.64369281     0.12545189
 C     24  23  22     2.640492857291   120.40857000   359.67130138
 C     21   3   2     2.634572667182   121.06277497   348.16435415
 H     22  21   3     2.039373094605   119.77506863     1.59242200
 H     23  22  21     2.039938748657   119.63053406   179.69034958
 H     24  23  22     2.038051938339   119.17973850   177.69077186
 H     26  21   3     2.036920696265   118.99968448   355.48052949
 C     25  24  23     2.773666472540   120.43474600   178.41135668
 C     31  25  24     2.642898872259   122.15470996    33.31577008
 C     32  31  25     2.611049076112   119.83467376   181.92051980
 N     33  32  31     2.522640199268   122.25584388   359.03993328
 C     34  33  32     2.533846070915   119.01670974     0.00000000
 C     35  34  33     2.603802401914   122.00579468     0.88638628
 H     32  31  25     2.036852479342   120.74192738     2.53877896
 H     33  32  31     2.050653325869   120.90295425   179.39917334
 H     35  34  33     2.061453735549   116.06536760   180.24100179
 H     36  35  34     2.035471450051   119.84404570   177.04445402
 C     39  35  34     9.921262062109   133.48989052   260.21402248
 C     41  39  35     2.286856107843    75.31323382    60.32021676
 C     42  41  39     2.661288003225   170.96437078   229.11452050
 C     43  42  41     2.616808538183   118.45400109   321.98320275
 C     44  43  42     2.641078297140   121.23772855   173.27120318
 C     45  44  43     2.594509651647   120.76464195   358.47977928
 C     46  45  44     2.656345464592   119.90754017     2.54366357
 C     47  46  45     2.671302238081   122.49018263   180.70011351
 C     48  47  46     2.574939602716   119.81193483   182.91002777
 N     49  48  47     2.571823169014   122.07408131     1.92783609
 C     50  49  48     2.490621952263   119.73705378   355.43157650
 C     51  50  49     2.656128228498   122.63476817     1.73468059
 H     44  43  42     2.039649664551   119.23163487   354.60552351
 H     45  44  43     2.039585224504   119.10786536   180.05958305
 H     46  45  44     2.038381017838   120.80417649   182.50884037
 H     48  47  46     2.037832464071   119.31724743     2.64646329
 H     49  48  47     2.064170900128   121.58198861   182.25961795
 H     51  50  49     2.049945818402   117.20021852   180.57341746
 C     41  39  35     2.667447079508   103.52662550   245.46263684
 C     59  41  39     2.642260174265   120.50042067   188.43612942
 C     60  59  41     2.613694732698   119.61119004   184.84468613
 C     61  60  59     2.617502207393   120.76749110     0.44876200
 C     62  61  60     2.638668395846   120.20480172   359.48390147
 C     59  41  39     2.632850883863   119.69203213    12.74956581
 H     60  59  41     2.039384205052   119.93623206     4.31802516
 H     61  60  59     2.040063359500   119.58846085   179.59649210
 H     62  61  60     2.038123961051   119.35183054   177.20752609
 H     64  59  41     2.036927875476   118.84053653   353.89093252
 C     63  62  61     2.769881505082   121.77073208   179.58749824
 C     69  63  62     2.648405959062   120.34066790   212.60735035
 C     70  69  63     2.603059831211   119.59921984   188.18274740
 N     71  70  69     2.526172904632   121.83250698   358.01820204
 C     72  71  70     2.523897319389   119.54516039   356.41388911
 C     73  72  71     2.608882745465   121.86637149     4.72745977
 H     70  69  63     2.037172356798   120.37920472     8.09627955
 H     71  70  69     2.056508493793   121.70139123   179.50586883
 H     73  72  71     2.052928319133   116.27452111   184.45623787
 H     74  73  72     2.036838891787   119.73237754   176.82121908
 C     58  51  50    10.647389337502   130.41790894   293.63570350
 C     79  58  51     2.284941199537    70.57033840   343.54946777
 C     80  79  58     2.660815097917   177.24732164   176.02575338
 C     81  80  79     2.612449055729   119.97746498    36.72165620
 C     82  81  80     2.644453974989   121.02126288   181.72449028
 C     83  82  81     2.593447553956   120.99794074     0.75322238
 C     84  83  82     2.659215504999   119.97905704   359.39794854
 C     85  84  83     2.668868635250   122.84173366   179.08063243
 C     86  85  84     2.578455885778   119.90371371   180.15063507
 N     87  86  85     2.557745865038   122.05243214   359.02942796
 C     88  87  86     2.494675567402   119.90161699     1.10745055
 C     89  88  87     2.650764652666   122.63774980     0.06290209
 H     82  81  80     2.039640385169   119.44185879     1.60625505
 H     83  82  81     2.039692436700   119.01045605   180.23914577
 H     84  83  82     2.038428511629   120.79740827   179.19842689
 H     86  85  84     2.037321036741   119.46765919   359.83628593
 H     87  86  85     2.049536409437   121.63110720   179.26911454
 H     89  88  87     2.057916870250   117.00596858   179.91910037
 C     79  58  51     2.667407371665   109.45164686   161.58391300
 C     97  79  58     2.642240117647   120.00530789   173.63692998
 C     98  97  79     2.613140083091   119.62801287   178.53716234
 C     99  98  97     2.615214479722   120.61930459     0.02682143
 C    100  99  98     2.641926713210   120.35920515   359.95479278
 C     97  79  58     2.632880180840   120.09805052   352.38109719
 H     98  97  79     2.039262757324   119.78986252   358.75565202
 H     99  98  97     2.039600921065   119.63971731   180.20305311
 H    100  99  98     2.037293859026   119.24619823   181.99138161
 H    102  97  79     2.037810515344   118.85468734     4.49037483
 C    101 100  99     2.767360051163   120.55933216   181.76360651
 C    107 101 100     2.642469908177   121.85949376   326.58689468
 C    108 107 101     2.597700226483   119.63606242   177.20683781
 N    109 108 107     2.527909640415   121.83370697     1.03983106
 C    110 109 108     2.529525893552   119.71408258     1.24940329
 C    111 110 109     2.594572847961   121.58334965   357.57914594
 H    108 107 101     2.036471239507   120.79550555   356.66185313
 H    109 108 107     2.047047742613   122.51690518   181.20592746
 H    111 110 109     2.052906723151   115.56968280   178.06395206
 H    112 111 110     2.036055911429   119.78719883   182.95267737
 C    116 112 111     8.640075752290   121.86960188   107.12502122
 C    117 116 112     2.286716562512   108.08325263   178.65718461
 C    118 117 116     2.662594086744   170.14671699   165.42069608
 C    119 118 117     2.618043779467   117.61356366    24.87682941
 C    120 119 118     2.640224164385   121.38099078   184.91675764
 C    121 120 119     2.593790648204   120.65688128     0.90076751
 C    122 121 120     2.656217048930   119.89217041   358.20703350
 C    123 122 121     2.670726258205   122.23317106   179.75788392
 C    124 123 122     2.574123830081   119.79948419   177.68497969
 N    125 124 123     2.572496624148   122.16674766   358.77403316
 C    126 125 124     2.490236859967   119.73129079     3.33535456
 C    127 126 125     2.658345410827   122.63602336   358.47587594
 H    120 119 118     2.039560370640   119.15423300     3.81829541
 H    121 120 119     2.039419418374   119.16809143   179.78782678
 H    122 121 120     2.038213098883   120.84200391   178.27560731
 H    124 123 122     2.037721430000   119.33579798   357.99943879
 H    125 124 123     2.065570430170   121.24652306   178.91650396
 H    127 126 125     2.049027650649   117.10871215   179.04364132
 C    117 116 112     2.667806083344    74.03982238   354.97805838
 C    135 117 116     2.643426966826   119.75533027   144.75290195
 C    136 135 117     2.612795203880   119.70640382   175.58720521
 C    137 136 135     2.617029004040   120.68561543     0.05653054
 C    138 137 136     2.638366904435   120.20488823     0.34358964
 C    135 117 116     2.631829320914   120.47730417   321.05124191
 H    136 135 117     2.039193541754   119.85519112   356.18489831
 H    137 136 135     2.039827750457   119.65501043   180.73071216
 H    138 137 136     2.038079412575   119.41796630   182.54340879
 H    140 135 117     2.037699769239   118.99078346     5.15566591
 C    139 138 137     2.768917482445   121.67968349   178.47022880
 C    145 139 138     2.643384797446   121.94125979   325.51391198
 C    146 145 139     2.608129127230   119.44535727   190.54689896
 N    147 146 145     2.523576265005   121.82254474   359.62222492
 C    148 147 146     2.527706725533   119.50851541   353.97091826
 C    149 148 147     2.603826107850   121.84238148     5.37861772
 H    146 145 139     2.036759863018   120.69206255     6.71862053
 H    147 146 145     2.052054374530   122.10200052   178.49363023
 H    149 148 147     2.056315111425   116.35516123   186.39019888
 H    150 149 148     2.037313841386   120.02732997   180.52015080

---------------------
BASIS SET INFORMATION
---------------------
There are 4 groups of distinct atoms

 Group   1 Type Pd  : 7s7p6d contracted to 6s4p3d pattern {211111/4111/411}
 Group   2 Type C   : 11s6p1d contracted to 5s3p1d pattern {62111/411/1}
 Group   3 Type N   : 11s6p1d contracted to 5s3p1d pattern {62111/411/1}
 Group   4 Type H   : 5s contracted to 3s pattern {311}

Atom   0Pd   basis set group =>   1
Atom   1Pd   basis set group =>   1
Atom   2C    basis set group =>   2
Atom   3C    basis set group =>   2
Atom   4C    basis set group =>   2
Atom   5C    basis set group =>   2
Atom   6C    basis set group =>   2
Atom   7C    basis set group =>   2
Atom   8C    basis set group =>   2
Atom   9C    basis set group =>   2
Atom  10C    basis set group =>   2
Atom  11N    basis set group =>   3
Atom  12C    basis set group =>   2
Atom  13C    basis set group =>   2
Atom  14H    basis set group =>   4
Atom  15H    basis set group =>   4
Atom  16H    basis set group =>   4
Atom  17H    basis set group =>   4
Atom  18H    basis set group =>   4
Atom  19H    basis set group =>   4
Atom  20C    basis set group =>   2
Atom  21C    basis set group =>   2
Atom  22C    basis set group =>   2
Atom  23C    basis set group =>   2
Atom  24C    basis set group =>   2
Atom  25C    basis set group =>   2
Atom  26H    basis set group =>   4
Atom  27H    basis set group =>   4
Atom  28H    basis set group =>   4
Atom  29H    basis set group =>   4
Atom  30C    basis set group =>   2
Atom  31C    basis set group =>   2
Atom  32C    basis set group =>   2
Atom  33N    basis set group =>   3
Atom  34C    basis set group =>   2
Atom  35C    basis set group =>   2
Atom  36H    basis set group =>   4
Atom  37H    basis set group =>   4
Atom  38H    basis set group =>   4
Atom  39H    basis set group =>   4
Atom  40C    basis set group =>   2
Atom  41C    basis set group =>   2
Atom  42C    basis set group =>   2
Atom  43C    basis set group =>   2
Atom  44C    basis set group =>   2
Atom  45C    basis set group =>   2
Atom  46C    basis set group =>   2
Atom  47C    basis set group =>   2
Atom  48C    basis set group =>   2
Atom  49N    basis set group =>   3
Atom  50C    basis set group =>   2
Atom  51C    basis set group =>   2
Atom  52H    basis set group =>   4
Atom  53H    basis set group =>   4
Atom  54H    basis set group =>   4
Atom  55H    basis set group =>   4
Atom  56H    basis set group =>   4
Atom  57H    basis set group =>   4
Atom  58C    basis set group =>   2
Atom  59C    basis set group =>   2
Atom  60C    basis set group =>   2
Atom  61C    basis set group =>   2
Atom  62C    basis set group =>   2
Atom  63C    basis set group =>   2
Atom  64H    basis set group =>   4
Atom  65H    basis set group =>   4
Atom  66H    basis set group =>   4
Atom  67H    basis set group =>   4
Atom  68C    basis set group =>   2
Atom  69C    basis set group =>   2
Atom  70C    basis set group =>   2
Atom  71N    basis set group =>   3
Atom  72C    basis set group =>   2
Atom  73C    basis set group =>   2
Atom  74H    basis set group =>   4
Atom  75H    basis set group =>   4
Atom  76H    basis set group =>   4
Atom  77H    basis set group =>   4
Atom  78C    basis set group =>   2
Atom  79C    basis set group =>   2
Atom  80C    basis set group =>   2
Atom  81C    basis set group =>   2
Atom  82C    basis set group =>   2
Atom  83C    basis set group =>   2
Atom  84C    basis set group =>   2
Atom  85C    basis set group =>   2
Atom  86C    basis set group =>   2
Atom  87N    basis set group =>   3
Atom  88C    basis set group =>   2
Atom  89C    basis set group =>   2
Atom  90H    basis set group =>   4
Atom  91H    basis set group =>   4
Atom  92H    basis set group =>   4
Atom  93H    basis set group =>   4
Atom  94H    basis set group =>   4
Atom  95H    basis set group =>   4
Atom  96C    basis set group =>   2
Atom  97C    basis set group =>   2
Atom  98C    basis set group =>   2
Atom  99C    basis set group =>   2
Atom 100C    basis set group =>   2
Atom 101C    basis set group =>   2
Atom 102H    basis set group =>   4
Atom 103H    basis set group =>   4
Atom 104H    basis set group =>   4
Atom 105H    basis set group =>   4
Atom 106C    basis set group =>   2
Atom 107C    basis set group =>   2
Atom 108C    basis set group =>   2
Atom 109N    basis set group =>   3
Atom 110C    basis set group =>   2
Atom 111C    basis set group =>   2
Atom 112H    basis set group =>   4
Atom 113H    basis set group =>   4
Atom 114H    basis set group =>   4
Atom 115H    basis set group =>   4
Atom 116C    basis set group =>   2
Atom 117C    basis set group =>   2
Atom 118C    basis set group =>   2
Atom 119C    basis set group =>   2
Atom 120C    basis set group =>   2
Atom 121C    basis set group =>   2
Atom 122C    basis set group =>   2
Atom 123C    basis set group =>   2
Atom 124C    basis set group =>   2
Atom 125N    basis set group =>   3
Atom 126C    basis set group =>   2
Atom 127C    basis set group =>   2
Atom 128H    basis set group =>   4
Atom 129H    basis set group =>   4
Atom 130H    basis set group =>   4
Atom 131H    basis set group =>   4
Atom 132H    basis set group =>   4
Atom 133H    basis set group =>   4
Atom 134C    basis set group =>   2
Atom 135C    basis set group =>   2
Atom 136C    basis set group =>   2
Atom 137C    basis set group =>   2
Atom 138C    basis set group =>   2
Atom 139C    basis set group =>   2
Atom 140H    basis set group =>   4
Atom 141H    basis set group =>   4
Atom 142H    basis set group =>   4
Atom 143H    basis set group =>   4
Atom 144C    basis set group =>   2
Atom 145C    basis set group =>   2
Atom 146C    basis set group =>   2
Atom 147N    basis set group =>   3
Atom 148C    basis set group =>   2
Atom 149C    basis set group =>   2
Atom 150H    basis set group =>   4
Atom 151H    basis set group =>   4
Atom 152H    basis set group =>   4
Atom 153H    basis set group =>   4

-------------------------
BASIS SET IN INPUT FORMAT
-------------------------

 # Basis set for element : H 
 NewGTO H 
 S 3 
   1      34.0613410000      0.0254393072
   2       5.1235746000      0.1900859489
   3       1.1646626000      0.8524411301
 S 1 
   1       0.3272304100      1.0000000000
 S 1 
   1       0.1030724100      1.0000000000
  end;

 # Basis set for element : C 
 NewGTO C 
 S 6 
   1   13575.3496820000      0.0006064549
   2    2035.2333680000      0.0046979088
   3     463.2256235900      0.0243324776
   4     131.2001959800      0.0973999683
   5      42.8530158910      0.3019558425
   6      15.5841857660      0.6623360915
 S 2 
   1       6.2067138508      0.6559530854
   2       2.5764896527      0.3758563329
 S 1 
   1       0.5769633942      1.0000000000
 S 1 
   1       0.2297283136      1.0000000000
 S 1 
   1       0.0951644400      1.0000000000
 P 4 
   1      34.6972322440      0.0113272200
   2       7.9582622826      0.0761696592
   3       2.3780826883      0.3019225220
   4       0.8143320818      0.7278502735
 P 1 
   1       0.2888754725      1.0000000000
 P 1 
   1       0.1005682367      1.0000000000
 D 1 
   1       0.8000000000      1.0000000000
  end;

 # Basis set for element : N 
 NewGTO N 
 S 6 
   1   19730.8006470000      0.0005862639
   2    2957.8958745000      0.0045428821
   3     673.2213359500      0.0235584136
   4     190.6824949400      0.0947091933
   5      62.2954418980      0.2971978492
   6      22.6541611820      0.6691624689
 S 2 
   1       8.9791477428      0.6459668363
   2       3.6863002370      0.3870057440
 S 1 
   1       0.8466007680      1.0000000000
 S 1 
   1       0.3364713377      1.0000000000
 S 1 
   1       0.1364765367      1.0000000000
 P 4 
   1      49.2003805100      0.0114488252
   2      11.3467905370      0.0784223379
   3       3.4273972411      0.3081809474
   4       1.1785525134      0.7202719637
 P 1 
   1       0.4164220497      1.0000000000
 P 1 
   1       0.1426082601      1.0000000000
 D 1 
   1       0.8000000000      1.0000000000
  end;

 # Basis set for element : Pd
 NewGTO Pd
 S 2 
   1      18.0000000000     -0.8955869481
   2      14.6621343080      1.8822771923
 S 1 
   1       5.6388709265      1.0000000000
 S 1 
   1       1.3198953252      1.0000000000
 S 1 
   1       0.5781790851      1.0000000000
 S 1 
   1       0.1035216624      1.0000000000
 S 1 
   1       0.0375484427      1.0000000000
 P 4 
   1      12.5528993000      0.0701895210
   2       7.2444496380     -0.2749252830
   3       1.8905941078      0.5623121361
   4       0.9073716876      0.5736959368
 P 1 
   1       0.4087721081      1.0000000000
 P 1 
   1       0.1150000000      1.0000000000
 P 1 
   1       0.0370000000      1.0000000000
 D 4 
   1      22.3574575750      0.0063445039
   2      10.6825263820     -0.0225156052
   3       2.4858232550      0.3884291800
   4       1.0735333903      0.6828976806
 D 1 
   1       0.4261384285      1.0000000000
 D 1 
   1       0.1504635538      1.0000000000
  end;

---------------------------------
AUXILIARY/J BASIS SET INFORMATION
---------------------------------
There are 4 groups of distinct atoms

 Group   1 Type Pd  : 11s5p5d3f3g contracted to 8s5p5d2f3g pattern {41111111/11111/11111/21/111}
 Group   2 Type C   : 8s3p3d contracted to 6s3p3d pattern {311111/111/111}
 Group   3 Type N   : 8s3p3d contracted to 6s3p3d pattern {311111/111/111}
 Group   4 Type H   : 5s2p contracted to 3s1p pattern {311/2}

Atom   0Pd   basis set group =>   1
Atom   1Pd   basis set group =>   1
Atom   2C    basis set group =>   2
Atom   3C    basis set group =>   2
Atom   4C    basis set group =>   2
Atom   5C    basis set group =>   2
Atom   6C    basis set group =>   2
Atom   7C    basis set group =>   2
Atom   8C    basis set group =>   2
Atom   9C    basis set group =>   2
Atom  10C    basis set group =>   2
Atom  11N    basis set group =>   3
Atom  12C    basis set group =>   2
Atom  13C    basis set group =>   2
Atom  14H    basis set group =>   4
Atom  15H    basis set group =>   4
Atom  16H    basis set group =>   4
Atom  17H    basis set group =>   4
Atom  18H    basis set group =>   4
Atom  19H    basis set group =>   4
Atom  20C    basis set group =>   2
Atom  21C    basis set group =>   2
Atom  22C    basis set group =>   2
Atom  23C    basis set group =>   2
Atom  24C    basis set group =>   2
Atom  25C    basis set group =>   2
Atom  26H    basis set group =>   4
Atom  27H    basis set group =>   4
Atom  28H    basis set group =>   4
Atom  29H    basis set group =>   4
Atom  30C    basis set group =>   2
Atom  31C    basis set group =>   2
Atom  32C    basis set group =>   2
Atom  33N    basis set group =>   3
Atom  34C    basis set group =>   2
Atom  35C    basis set group =>   2
Atom  36H    basis set group =>   4
Atom  37H    basis set group =>   4
Atom  38H    basis set group =>   4
Atom  39H    basis set group =>   4
Atom  40C    basis set group =>   2
Atom  41C    basis set group =>   2
Atom  42C    basis set group =>   2
Atom  43C    basis set group =>   2
Atom  44C    basis set group =>   2
Atom  45C    basis set group =>   2
Atom  46C    basis set group =>   2
Atom  47C    basis set group =>   2
Atom  48C    basis set group =>   2
Atom  49N    basis set group =>   3
Atom  50C    basis set group =>   2
Atom  51C    basis set group =>   2
Atom  52H    basis set group =>   4
Atom  53H    basis set group =>   4
Atom  54H    basis set group =>   4
Atom  55H    basis set group =>   4
Atom  56H    basis set group =>   4
Atom  57H    basis set group =>   4
Atom  58C    basis set group =>   2
Atom  59C    basis set group =>   2
Atom  60C    basis set group =>   2
Atom  61C    basis set group =>   2
Atom  62C    basis set group =>   2
Atom  63C    basis set group =>   2
Atom  64H    basis set group =>   4
Atom  65H    basis set group =>   4
Atom  66H    basis set group =>   4
Atom  67H    basis set group =>   4
Atom  68C    basis set group =>   2
Atom  69C    basis set group =>   2
Atom  70C    basis set group =>   2
Atom  71N    basis set group =>   3
Atom  72C    basis set group =>   2
Atom  73C    basis set group =>   2
Atom  74H    basis set group =>   4
Atom  75H    basis set group =>   4
Atom  76H    basis set group =>   4
Atom  77H    basis set group =>   4
Atom  78C    basis set group =>   2
Atom  79C    basis set group =>   2
Atom  80C    basis set group =>   2
Atom  81C    basis set group =>   2
Atom  82C    basis set group =>   2
Atom  83C    basis set group =>   2
Atom  84C    basis set group =>   2
Atom  85C    basis set group =>   2
Atom  86C    basis set group =>   2
Atom  87N    basis set group =>   3
Atom  88C    basis set group =>   2
Atom  89C    basis set group =>   2
Atom  90H    basis set group =>   4
Atom  91H    basis set group =>   4
Atom  92H    basis set group =>   4
Atom  93H    basis set group =>   4
Atom  94H    basis set group =>   4
Atom  95H    basis set group =>   4
Atom  96C    basis set group =>   2
Atom  97C    basis set group =>   2
Atom  98C    basis set group =>   2
Atom  99C    basis set group =>   2
Atom 100C    basis set group =>   2
Atom 101C    basis set group =>   2
Atom 102H    basis set group =>   4
Atom 103H    basis set group =>   4
Atom 104H    basis set group =>   4
Atom 105H    basis set group =>   4
Atom 106C    basis set group =>   2
Atom 107C    basis set group =>   2
Atom 108C    basis set group =>   2
Atom 109N    basis set group =>   3
Atom 110C    basis set group =>   2
Atom 111C    basis set group =>   2
Atom 112H    basis set group =>   4
Atom 113H    basis set group =>   4
Atom 114H    basis set group =>   4
Atom 115H    basis set group =>   4
Atom 116C    basis set group =>   2
Atom 117C    basis set group =>   2
Atom 118C    basis set group =>   2
Atom 119C    basis set group =>   2
Atom 120C    basis set group =>   2
Atom 121C    basis set group =>   2
Atom 122C    basis set group =>   2
Atom 123C    basis set group =>   2
Atom 124C    basis set group =>   2
Atom 125N    basis set group =>   3
Atom 126C    basis set group =>   2
Atom 127C    basis set group =>   2
Atom 128H    basis set group =>   4
Atom 129H    basis set group =>   4
Atom 130H    basis set group =>   4
Atom 131H    basis set group =>   4
Atom 132H    basis set group =>   4
Atom 133H    basis set group =>   4
Atom 134C    basis set group =>   2
Atom 135C    basis set group =>   2
Atom 136C    basis set group =>   2
Atom 137C    basis set group =>   2
Atom 138C    basis set group =>   2
Atom 139C    basis set group =>   2
Atom 140H    basis set group =>   4
Atom 141H    basis set group =>   4
Atom 142H    basis set group =>   4
Atom 143H    basis set group =>   4
Atom 144C    basis set group =>   2
Atom 145C    basis set group =>   2
Atom 146C    basis set group =>   2
Atom 147N    basis set group =>   3
Atom 148C    basis set group =>   2
Atom 149C    basis set group =>   2
Atom 150H    basis set group =>   4
Atom 151H    basis set group =>   4
Atom 152H    basis set group =>   4
Atom 153H    basis set group =>   4

-------------------------------------
AUXILIARY/J BASIS SET IN INPUT FORMAT
-------------------------------------

 # Auxiliary/J basis set for element : H 
 NewAuxJGTO H 
 S 3 
   1      15.6752927000      0.1007184237
   2       3.6063578000      0.3404257499
   3       1.2080016000      0.6491996172
 S 1 
   1       0.4726794000      1.0000000000
 S 1 
   1       0.2018100000      1.0000000000
 P 2 
   1       2.0281365000      0.5596620919
   2       0.5358730000      0.5596620919
  end;

 # Auxiliary/J basis set for element : C 
 NewAuxJGTO C 
 S 3 
   1     459.7023860000      0.1098751775
   2     132.9577920000      0.2844848472
   3      41.5658170000      0.6964707648
 S 1 
   1      13.9155610000      1.0000000000
 S 1 
   1       4.9305290000     -1.0000000000
 S 1 
   1       1.8229480000      1.0000000000
 S 1 
   1       0.6920510000      1.0000000000
 S 1 
   1       0.2650930000      1.0000000000
 P 1 
   1       0.3278473579      1.0000000000
 P 1 
   1       0.7868336591      1.0000000000
 P 1 
   1       1.9710183160      1.0000000000
 D 1 
   1       4.0133010000      1.0000000000
 D 1 
   1       1.2475050000      1.0000000000
 D 1 
   1       0.4081480000      1.0000000000
  end;

 # Auxiliary/J basis set for element : N 
 NewAuxJGTO N 
 S 3 
   1     680.5425300000      0.1043830093
   2     196.7562140000      0.2751518961
   3      61.2707930000      0.7090825511
 S 1 
   1      20.3644630000      1.0000000000
 S 1 
   1       7.1424770000     -1.0000000000
 S 1 
   1       2.6080260000      1.0000000000
 S 1 
   1       0.9763730000      1.0000000000
 S 1 
   1       0.3686330000      1.0000000000
 P 1 
   1       0.4707391941      1.0000000000
 P 1 
   1       1.1297740658     -1.0000000000
 P 1 
   1       2.8300840347      1.0000000000
 D 1 
   1       5.8329865000      1.0000000000
 D 1 
   1       1.7326865000      1.0000000000
 D 1 
   1       0.5452425000      1.0000000000
  end;

 # Auxiliary/J basis set for element : Pd
 NewAuxJGTO Pd
 S 4 
   1      51.0211803000      0.0154414011
   2      17.6543867000     -0.3899991562
   3      10.3849330000      1.7000917225
   4       6.2315704000     -2.2542519748
 S 1 
   1       3.6656295000     -1.0000000000
 S 1 
   1       2.1995933000      1.0000000000
 S 1 
   1       1.2683839000      1.0000000000
 S 1 
   1       0.7461081000      1.0000000000
 S 1 
   1       0.4477087000      1.0000000000
 S 1 
   1       0.2581689000      1.0000000000
 S 1 
   1       0.1518640000      1.0000000000
 P 1 
   1       5.6999676000      1.0000000000
 P 1 
   1       2.5155374000     -1.0000000000
 P 1 
   1       1.1229524000      1.0000000000
 P 1 
   1       0.5047808000     -1.0000000000
 P 1 
   1       0.2274325000     -1.0000000000
 D 1 
   1       3.8006002000      1.0000000000
 D 1 
   1       1.5882692000     -1.0000000000
 D 1 
   1       0.6550157000     -1.0000000000
 D 1 
   1       0.2680210000      1.0000000000
 D 1 
   1       0.1093843000     -1.0000000000
 F 2 
   1       2.0106185000     -1.3134732431
   2       0.8268460000      0.9210621264
 F 1 
   1       0.3451253000      1.0000000000
 G 1 
   1       7.5375072000      1.0000000000
 G 1 
   1       2.7664349000      1.0000000000
 G 1 
   1       1.0133462000      1.0000000000
  end;

-------------------------
ECP PARAMETER INFORMATION
-------------------------

 Group 1, Type Pd ECP Def2-ECP (replacing 28 core electrons, lmax=3)

Atom   0Pd   ECP group =>   1
Atom   1Pd   ECP group =>   1


-------------------------
ECP BASIS IN INPUT FORMAT
-------------------------

 #ECP Def2-ECP
 NewECP Pd
   N_core 28
   lmax f
   s 4
     1      12.4300000000    240.2290403000  2
     2       6.1707594000     35.1719435000  2
     3      13.2700000000     31.9295543000  2
     4       6.6300000000      5.3982169000  2
   p 4
     1      11.0800000000    170.4172760000  2
     2       5.8295541000     28.4721329000  2
     3      13.2700000000     31.9295543000  2
     4       6.6300000000      5.3982169000  2
   d 4
     1       9.5100000000     69.0138449000  2
     2       4.1397811000     11.7508616000  2
     3      13.2700000000     31.9295543000  2
     4       6.6300000000      5.3982169000  2
   f 2
     1      13.2700000000    -31.9295543000  2
     2       6.6300000000     -5.3982169000  2
 End




           ************************************************************
           *        Program running with 32 parallel MPI-processes    *
           *              working on a common directory               *
           ************************************************************
------------------------------------------------------------------------------
                           ORCA GTO INTEGRAL CALCULATION
                           -- RI-GTO INTEGRALS CHOSEN --
------------------------------------------------------------------------------

                         BASIS SET STATISTICS AND STARTUP INFO

Gaussian basis set:
 # of primitive gaussian shells          ... 2048
 # of primitive gaussian functions       ... 3660
 # of contracted shells                  ... 1058
 # of contracted basis functions         ... 2058
 Highest angular momentum                ...    2
 Maximum contraction depth               ...    6
Auxiliary gaussian basis set:
 # of primitive gaussian shells          ... 1790
 # of primitive gaussian functions       ... 3886
 # of contracted shells                  ... 1422
 # of contracted aux-basis functions     ... 3394
 Highest angular momentum                ...    4
 Maximum contraction depth               ...    4
Ratio of auxiliary to basis functions    ...  1.65
Integral package used                  ... LIBINT
 One Electron integrals                  
   ECP integrals                         ... done
 Ordering auxiliary basis shells         ... done
 Integral threshhold             Thresh  ...  2.500e-11
 Primitive cut-off               TCut    ...  2.500e-12
 Pre-screening matrix                    ... done
 Shell pair data                         ... 
 Ordering of the shell pairs             ... done (   0.045 sec) 212429 of 560211 pairs
 Determination of significant pairs      ... done (   0.001 sec)
 Creation of shell pair data             ... done (   0.020 sec)
 Storage of shell pair data              ... done (   0.037 sec)
 Shell pair data done in (   0.102 sec)
 Computing two index integrals           ... done
 Cholesky decomposition of the V-matrix  ... done


Timings:
 Total evaluation time                   ...   9.424 sec (  0.157 min)
 One electron matrix time                ...   5.793 sec (  0.097 min) = 61.5%
 Schwartz matrix evaluation time         ...   2.167 sec (  0.036 min) = 23.0%
 Two index repulsion integral time       ...   0.229 sec (  0.004 min) =  2.4%
 Cholesky decomposition of V             ...   1.104 sec (  0.018 min) = 11.7%
 Three index repulsion integral time     ...   0.000 sec (  0.000 min) =  0.0%



           ************************************************************
           *        Program running with 32 parallel MPI-processes    *
           *              working on a common directory               *
           ************************************************************
-------------------------------------------------------------------------------
                                 ORCA SCF
-------------------------------------------------------------------------------

------------
SCF SETTINGS
------------
Hamiltonian:
 Density Functional     Method          .... DFT(GTOs)
 Exchange Functional    Exchange        .... B973C
 Correlation Functional Correlation     .... B973C
 Gradients option       PostSCFGGA      .... off
   Density functional embedding theory  .... OFF
 RI-approximation to the Coulomb term is turned on
   Number of auxiliary basis functions  .... 3394


General Settings:
 Integral files         IntName         .... _s_4d2_b_B97-3c
 Hartree-Fock type      HFTyp           .... RHF
 Total Charge           Charge          ....    4
 Multiplicity           Mult            ....    1
 Number of Electrons    NEL             ....  672
 Basis Dimension        Dim             .... 2058
 Nuclear Repulsion      ENuc            ....  18296.1772750380 Eh

Convergence Acceleration:
 DIIS                   CNVDIIS         .... on
   Start iteration      DIISMaxIt       ....     0
   Startup error        DIISStart       ....  0.200000
   # of expansion vecs  DIISMaxEq       ....     5
   Bias factor          DIISBfac        ....   1.050
   Max. coefficient     DIISMaxC        ....  10.000
 Newton-Raphson         CNVNR           .... off
 SOSCF                  CNVSOSCF        .... off
 Level Shifting         CNVShift        .... on
   Level shift para.    LevelShift      ....    0.2500
   Turn off err/grad.   ShiftErr        ....    0.0000
 Zerner damping         CNVZerner       .... off
 Static damping         CNVDamp         .... on
   Fraction old density DampFac         ....    0.8500
   Max. Damping (<1)    DampMax         ....    0.9800
   Min. Damping (>=0)   DampMin         ....    0.0000
   Turn off err/grad.   DampErr         ....    0.0300
 Fernandez-Rico         CNVRico         .... off

SCF Procedure:
 Maximum # iterations   MaxIter         ....  2000
 SCF integral mode      SCFMode         .... Direct
   Integral package                     .... LIBINT
 Reset frequency        DirectResetFreq ....    20
 Integral Threshold     Thresh          ....  2.500e-11 Eh
 Primitive CutOff       TCut            ....  2.500e-12 Eh

Convergence Tolerance:
 Convergence Check Mode ConvCheckMode   .... Total+1el-Energy
 Convergence forced     ConvForced      .... 0
 Energy Change          TolE            ....  1.000e-08 Eh
 1-El. energy change                    ....  1.000e-05 Eh
 DIIS Error             TolErr          ....  5.000e-07


Diagonalization of the overlap matrix:
Smallest eigenvalue                        ... 5.718e-06
Time for diagonalization                   ...    0.591 sec
Threshold for overlap eigenvalues          ... 1.000e-08
Number of eigenvalues below threshold      ... 0
Time for construction of square roots      ...    0.509 sec
Total time needed                          ...    1.107 sec

--------------------------------
INITIAL GUESS: MINIMAL BASIS EHT
--------------------------------
The minimal basis has 562 functions
EHT matrix was diagonalized
Basis set overlap was calculated now projecting the orbitals
Using GuessMode=FMatrix for the initial guess
C*T matrix was formed
Effective Fockian was calculated
Effective Fockian was diagonalized
Initial density was built
                      ------------------
                      INITIAL GUESS DONE
                      ------------------
-------------------
DFT GRID GENERATION
-------------------

General Integration Accuracy     IntAcc      ...  5.340
Radial Grid Type                 RadialGrid  ... Gauss-Chebyshev
Angular Grid (max. acc.)         AngularGrid ... Lebedev-590
Angular grid pruning method      GridPruning ... 3 (G Style)
Weight generation scheme         WeightScheme... Becke
Basis function cutoff            BFCut       ...    1.0000e-11
Integration weight cutoff        WCut        ...    1.0000e-14
Grids for H and He will be reduced by one unit

# of grid points (after initial pruning)     ... 2250644 (   0.0 sec)
# of grid points (after weights+screening)   ... 1837753 (  10.1 sec)
nearest neighbour list constructed           ...    0.0 sec
Grid point re-assignment to atoms done       ...    0.2 sec
Grid point division into batches done        ...   18.7 sec
Reduced shell lists constructed in   20.0 sec

Total number of grid points                  ...  1837753
Total number of batches                      ...    28802
Average number of points per batch           ...       63
Average number of grid points per atom       ...    11933
Average number of shells per batch           ...   220.72 (20.86%)
Average number of basis functions per batch  ...   433.33 (21.06%)
Average number of large shells per batch     ...   119.74 (54.25%)
Average number of large basis fcns per batch ...   240.74 (55.56%)
Maximum spatial batch extension              ...   7.03,  5.06, 22.37 au
Average spatial batch extension              ...   0.03,  0.03,  0.03 au

Time for grid setup =   31.077 sec

--------------
SCF ITERATIONS
--------------
ITER       Energy         Delta-E        Max-DP      RMS-DP      [F,P]     Damp
               ***  Starting incremental Fock matrix formation  ***
  0  -4031.8259490958   0.00000000000032.49374299  0.09355581  5.2171739 0.8500
  1  -4040.1326453236  -8.30669622774424.97934820  0.05907359  4.5234600 0.8500
                               ***Turning on DIIS***
  2  -4047.4248033827  -7.292158059128 3.75535108  0.01451896  3.8792160 0.8500
  3  -4052.3231873812  -4.898383998527 3.85317330  0.01332507  3.3180645 0.8500
  4  -4056.1512951013  -3.828107720063 3.36856001  0.01150844  2.8205673 0.8500
  5  -4058.2122439149  -2.060948813632 2.70207842  0.00972943  2.3740204 0.8500
  6  -4060.2494874954  -2.037243580482 2.69438983  0.00861116  2.0336712 0.8500
  7  -4061.6017600601  -1.352272564694 2.05761621  0.00705970  1.7176855 0.8500
  8  -4063.8469802379  -2.245220177792 1.93094541  0.00630897  1.4703632 0.8500
  9  -4065.8367733189  -1.989793080971 1.73827244  0.00550230  1.2552211 0.8500
 10  -4066.9260294954  -1.089256176507 1.27883082  0.00444877  1.0515777 0.8500
 11  -4068.6410939072  -1.715064411852 1.17561316  0.00389625  0.8989713 0.8500
 12  -4069.9851493250  -1.344055417780 1.05843514  0.00344153  0.7685257 0.8500
 13  -4071.0487663416  -1.063617016618 0.92272420  0.00295817  0.6535263 0.8500
 14  -4071.9762309652  -0.927464623546 0.81393518  0.00252954  0.5533609 0.8500
 15  -4072.6463582963  -0.670127331148 0.64771403  0.00209973  0.4671082 0.8500
 16  -4073.3521949332  -0.705836636876 0.51798714  0.00175406  0.3960115 0.8500
 17  -4073.9618872087  -0.609692275477 0.45188439  0.00151922  0.3380048 0.8500
 18  -4074.4697409769  -0.507853768217 0.40076271  0.00131652  0.2879526 0.8500
 19  -4074.8958790545  -0.426138077641 0.35643037  0.00114010  0.2443220 0.8500
               *** Restarting incremental Fock matrix formation ***
                                   *** Resetting DIIS ***
 20  -4075.2541126126  -0.358233558032 0.29629752  0.00094238  0.2071046 0.8500
 21  -4075.5641512199  -0.310038607364 0.25182859  0.00080833  0.1763699 0.8500
 22  -4075.8264393401  -0.262288120128 0.21584404  0.00069584  0.1497410 0.8500
 23  -4076.0482347894  -0.221795449299 0.18351884  0.00059097  0.1269983 0.8500
 24  -4076.2369051338  -0.188670344414 0.15583465  0.00050118  0.1078927 0.8500
 25  -4076.3974251290  -0.160519995221 0.13245738  0.00042513  0.0917284 0.8500
 26  -4076.5339166498  -0.136491520771 0.11275217  0.00036278  0.0780542 0.8500
 27  -4076.6497906052  -0.115873955438 0.09597711  0.00030959  0.0663378 0.8500
 28  -4076.7481683541  -0.098377748851 0.08160222  0.00026296  0.0563324 0.8500
 29  -4076.8317869619  -0.083618607838 0.06932666  0.00022312  0.0478672 0.8500
 30  -4076.9028797452  -0.071092783339 0.05898967  0.00018988  0.0407024 0.8500
 31  -4076.9632978973  -0.060418152068 0.05028091  0.00016223  0.0346103 0.8500
 32  -4077.0146309945  -0.051333097188 0.28561979  0.00092315  0.0294104 0.0000
 33  -4077.3053314940  -0.290700499500 0.00530564  0.00002460  0.0017593 0.0000
 34  -4077.3053199538   0.000011540171 0.00274904  0.00000683  0.0028688 0.0000
 35  -4077.3053415908  -0.000021636999 0.00141999  0.00000601  0.0007659 0.0000
 36  -4077.3053450583  -0.000003467518 0.00196475  0.00000806  0.0002210 0.0000
 37  -4077.3053459834  -0.000000925040 0.00113359  0.00000476  0.0000812 0.0000
 38  -4077.3053465162  -0.000000532800 0.00183110  0.00000539  0.0000373 0.0000
 39  -4077.3053467940  -0.000000277803 0.00683233  0.00002696  0.0000497 0.0000
               *** Restarting incremental Fock matrix formation ***
                                   *** Resetting DIIS ***
 40  -4077.3053470773  -0.000000283271 0.00151030  0.00000688  0.0000574 0.0000
 41  -4077.3053472289  -0.000000151667 0.00062835  0.00000202  0.0001096 0.0000
 42  -4077.3053473338  -0.000000104912 0.00277269  0.00001059  0.0000165 0.0000
 43  -4077.3053473507  -0.000000016873 0.00094484  0.00000451  0.0000155 0.0000
 44  -4077.3053473765  -0.000000025764 0.00199819  0.00000740  0.0000158 0.0000
 45  -4077.3053475144  -0.000000137970 0.00162324  0.00000704  0.0000076 0.0000
 46  -4077.3053476153  -0.000000100888 0.00078873  0.00000260  0.0000116 0.0000
 47  -4077.3053476602  -0.000000044896 0.00099292  0.00000354  0.0000078 0.0000
 48  -4077.3053476013   0.000000058899 0.00090581  0.00000356  0.0000126 0.0000
 49  -4077.3053474901   0.000000111257 0.00030167  0.00000099  0.0000097 0.0000
 50  -4077.3053476308  -0.000000140761 0.00064990  0.00000208  0.0000025 0.0000
 51  -4077.3053476947  -0.000000063865 0.00126969  0.00000269  0.0000023 0.0000
 52  -4077.3053476562   0.000000038519 0.00034143  0.00000144  0.0000016 0.0000
 53  -4077.3053476183   0.000000037853 0.00033178  0.00000111  0.0000033 0.0000
 54  -4077.3053474971   0.000000121174 0.00027596  0.00000070  0.0000017 0.0000
 55  -4077.3053475824  -0.000000085274 0.00032365  0.00000091  0.0000015 0.0000
 56  -4077.3053477228  -0.000000140382 0.00012259  0.00000043  0.0000025 0.0000
                            ***DIIS convergence achieved***

               *****************************************************
               *                     SUCCESS                       *
               *           SCF CONVERGED AFTER  57 CYCLES          *
[...]
 30 C      6.1230     6.0000    -0.1230     3.9271     3.9271    -0.0000
 31 C      6.0538     6.0000    -0.0538     3.7526     3.7526    -0.0000
 32 C      6.1067     6.0000    -0.1067     4.0528     4.0528    -0.0000
 33 N      7.0436     7.0000    -0.0436     3.3085     3.3085    -0.0000
 34 C      6.1396     6.0000    -0.1396     4.0301     4.0301    -0.0000
 35 C      6.0462     6.0000    -0.0462     3.6665     3.6665    -0.0000
 36 H      0.7293     1.0000     0.2707     0.8910     0.8910    -0.0000
 37 H      0.8096     1.0000     0.1904     0.9587     0.9587    -0.0000
 38 H      0.8525     1.0000     0.1475     0.9667     0.9667    -0.0000
 39 H      0.7818     1.0000     0.2182     0.9049     0.9049    -0.0000
 40 C      6.0218     6.0000    -0.0218     3.3618     3.3618    -0.0000
 41 C      5.9721     6.0000     0.0279     3.0581     3.0581    -0.0000
 42 C      6.1369     6.0000    -0.1369     3.6915     3.6915    -0.0000
 43 C      6.1023     6.0000    -0.1023     3.8521     3.8521    -0.0000
 44 C      6.1906     6.0000    -0.1906     4.1754     4.1754    -0.0000
 45 C      6.2036     6.0000    -0.2036     3.9099     3.9099    -0.0000
 46 C      6.0094     6.0000    -0.0094     3.7429     3.7429    -0.0000
 47 C      6.1202     6.0000    -0.1202     3.7588     3.7588    -0.0000
 48 C      6.1818     6.0000    -0.1818     3.9712     3.9712    -0.0000
 49 N      7.0986     7.0000    -0.0986     3.3175     3.3175    -0.0000
 50 C      6.0856     6.0000    -0.0856     3.7320     3.7320    -0.0000
 51 C      5.6929     6.0000     0.3071     3.2057     3.2057    -0.0000
 52 H      0.7507     1.0000     0.2493     0.9002     0.9002    -0.0000
 53 H      0.7691     1.0000     0.2309     0.9241     0.9241    -0.0000
 54 H      0.7538     1.0000     0.2462     0.8980     0.8980    -0.0000
 55 H      0.7478     1.0000     0.2522     0.8940     0.8940    -0.0000
 56 H      0.8190     1.0000     0.1810     0.9564     0.9564    -0.0000
 57 H      0.8221     1.0000     0.1779     0.9615     0.9615    -0.0000
 58 C      6.1801     6.0000    -0.1801     4.1030     4.1030    -0.0000
 59 C      6.1183     6.0000    -0.1183     3.8137     3.8137    -0.0000
 60 C      6.1530     6.0000    -0.1530     4.1595     4.1595    -0.0000
 61 C      6.1342     6.0000    -0.1342     3.8916     3.8916    -0.0000
 62 C      6.0571     6.0000    -0.0571     3.8488     3.8488    -0.0000
 63 C      6.1552     6.0000    -0.1552     3.6669     3.6669    -0.0000
 64 H      0.7584     1.0000     0.2416     0.9045     0.9045    -0.0000
 65 H      0.7722     1.0000     0.2278     0.9230     0.9230    -0.0000
 66 H      0.7567     1.0000     0.2433     0.9022     0.9022    -0.0000
 67 H      0.7869     1.0000     0.2131     0.8948     0.8948    -0.0000
 68 C      6.0834     6.0000    -0.0834     3.8928     3.8928    -0.0000
 69 C      6.0996     6.0000    -0.0996     3.7315     3.7315    -0.0000
 70 C      6.1127     6.0000    -0.1127     3.9890     3.9890    -0.0000
 71 N      7.0882     7.0000    -0.0882     3.3722     3.3722    -0.0000
 72 C      6.1345     6.0000    -0.1345     4.0117     4.0117    -0.0000
 73 C      6.0516     6.0000    -0.0516     3.7251     3.7251    -0.0000
 74 H      0.7410     1.0000     0.2590     0.8939     0.8939    -0.0000
 75 H      0.8323     1.0000     0.1677     0.9634     0.9634    -0.0000
 76 H      0.8038     1.0000     0.1962     0.9512     0.9512    -0.0000
 77 H      0.7390     1.0000     0.2610     0.8980     0.8980    -0.0000
 78 C      5.9897     6.0000     0.0103     3.2449     3.2449    -0.0000
 79 C      5.9439     6.0000     0.0561     2.9963     2.9963    -0.0000
 80 C      6.2123     6.0000    -0.2123     3.6956     3.6956    -0.0000
 81 C      6.0876     6.0000    -0.0876     3.8199     3.8199    -0.0000
 82 C      6.1782     6.0000    -0.1782     4.1649     4.1649    -0.0000
 83 C      6.2211     6.0000    -0.2211     3.9349     3.9349    -0.0000
 84 C      6.0485     6.0000    -0.0485     3.7253     3.7253    -0.0000
 85 C      6.1415     6.0000    -0.1415     3.8318     3.8318    -0.0000
 86 C      6.1260     6.0000    -0.1260     4.0021     4.0021    -0.0000
 87 N      7.0819     7.0000    -0.0819     3.2668     3.2668    -0.0000
 88 C      6.1278     6.0000    -0.1278     3.6657     3.6657    -0.0000
 89 C      5.5887     6.0000     0.4113     3.1419     3.1419    -0.0000
 90 H      0.7460     1.0000     0.2540     0.8973     0.8973    -0.0000
 91 H      0.7688     1.0000     0.2312     0.9238     0.9238    -0.0000
 92 H      0.7532     1.0000     0.2468     0.8988     0.8988    -0.0000
 93 H      0.7464     1.0000     0.2536     0.8926     0.8926    -0.0000
 94 H      0.8202     1.0000     0.1798     0.9645     0.9645    -0.0000
 95 H      0.8481     1.0000     0.1519     0.9790     0.9790    -0.0000
 96 C      6.1946     6.0000    -0.1946     4.0993     4.0993    -0.0000
 97 C      6.1190     6.0000    -0.1190     3.8368     3.8368    -0.0000
 98 C      6.1628     6.0000    -0.1628     4.1838     4.1838    -0.0000
 99 C      6.1523     6.0000    -0.1523     3.9194     3.9194    -0.0000
100 C      6.0778     6.0000    -0.0778     3.8594     3.8594    -0.0000
101 C      6.1384     6.0000    -0.1384     3.6323     3.6323    -0.0000
102 H      0.7543     1.0000     0.2457     0.9011     0.9011    -0.0000
103 H      0.7762     1.0000     0.2238     0.9238     0.9238    -0.0000
104 H      0.7726     1.0000     0.2274     0.9101     0.9101    -0.0000
105 H      0.7708     1.0000     0.2292     0.8841     0.8841    -0.0000
106 C      6.1022     6.0000    -0.1022     3.9256     3.9256    -0.0000
107 C      6.0847     6.0000    -0.0847     3.7790     3.7790    -0.0000
108 C      6.0852     6.0000    -0.0852     4.0153     4.0153    -0.0000
109 N      7.0907     7.0000    -0.0907     3.2072     3.2072    -0.0000
110 C      6.1118     6.0000    -0.1118     4.0610     4.0610    -0.0000
111 C      5.9904     6.0000     0.0096     3.6345     3.6345    -0.0000
112 H      0.7231     1.0000     0.2769     0.8901     0.8901    -0.0000
113 H      0.7814     1.0000     0.2186     0.9364     0.9364    -0.0000
114 H      0.8586     1.0000     0.1414     0.9819     0.9819    -0.0000
115 H      0.7796     1.0000     0.2204     0.9076     0.9076    -0.0000
116 C      6.0051     6.0000    -0.0051     3.3393     3.3393    -0.0000
117 C      5.9809     6.0000     0.0191     3.0527     3.0527    -0.0000
118 C      6.1516     6.0000    -0.1516     3.6873     3.6873    -0.0000
119 C      6.0983     6.0000    -0.0983     3.8446     3.8446    -0.0000
120 C      6.1972     6.0000    -0.1972     4.1869     4.1869    -0.0000
121 C      6.1990     6.0000    -0.1990     3.9091     3.9091    -0.0000
122 C      6.0410     6.0000    -0.0410     3.7495     3.7495    -0.0000
123 C      6.1062     6.0000    -0.1062     3.7564     3.7564    -0.0000
124 C      6.1657     6.0000    -0.1657     3.9873     3.9873    -0.0000
125 N      7.0919     7.0000    -0.0919     3.3109     3.3109    -0.0000
126 C      6.1167     6.0000    -0.1167     3.7637     3.7637    -0.0000
127 C      5.6482     6.0000     0.3518     3.1112     3.1112    -0.0000
128 H      0.7526     1.0000     0.2474     0.9008     0.9008    -0.0000
129 H      0.7689     1.0000     0.2311     0.9239     0.9239    -0.0000
130 H      0.7526     1.0000     0.2474     0.8973     0.8973    -0.0000
131 H      0.7454     1.0000     0.2546     0.8912     0.8912    -0.0000
132 H      0.8281     1.0000     0.1719     0.9549     0.9549    -0.0000
133 H      0.8251     1.0000     0.1749     0.9616     0.9616    -0.0000
134 C      6.1902     6.0000    -0.1902     4.1130     4.1130    -0.0000
135 C      6.1314     6.0000    -0.1314     3.8141     3.8141    -0.0000
136 C      6.1455     6.0000    -0.1455     4.1337     4.1337    -0.0000
137 C      6.1530     6.0000    -0.1530     3.8944     3.8944    -0.0000
138 C      6.0526     6.0000    -0.0526     3.8407     3.8407    -0.0000
139 C      6.1587     6.0000    -0.1587     3.6255     3.6255    -0.0000
140 H      0.7601     1.0000     0.2399     0.9050     0.9050    -0.0000
141 H      0.7724     1.0000     0.2276     0.9226     0.9226    -0.0000
142 H      0.7540     1.0000     0.2460     0.9012     0.9012    -0.0000
143 H      0.7876     1.0000     0.2124     0.9002     0.9002    -0.0000
144 C      6.0395     6.0000    -0.0395     3.8513     3.8513    -0.0000
145 C      6.0549     6.0000    -0.0549     3.6974     3.6974    -0.0000
146 C      6.1276     6.0000    -0.1276     3.9229     3.9229    -0.0000
147 N      7.0905     7.0000    -0.0905     3.3500     3.3500    -0.0000
148 C      6.1364     6.0000    -0.1364     3.9309     3.9309    -0.0000
149 C      6.0754     6.0000    -0.0754     3.6802     3.6802    -0.0000
150 H      0.7492     1.0000     0.2508     0.9061     0.9061    -0.0000
151 H      0.8024     1.0000     0.1976     0.9528     0.9528    -0.0000
152 H      0.8130     1.0000     0.1870     0.9612     0.9612    -0.0000
153 H      0.7432     1.0000     0.2568     0.8982     0.8982    -0.0000

  Mayer bond orders larger than 0.100000
B(  0-Pd, 33-N ) :   0.5060 B(  0-Pd, 49-N ) :   0.5525 B(  0-Pd, 87-N ) :   0.5215 
B(  0-Pd,125-N ) :   0.5430 B(  1-Pd, 11-N ) :   0.5379 B(  1-Pd, 71-N ) :   0.5997 
B(  1-Pd,109-N ) :   0.4539 B(  1-Pd,147-N ) :   0.6023 B(  2-C ,  3-C ) :   1.8574 
B(  2-C ,  4-C ) :  -0.2920 B(  2-C , 20-C ) :   1.5112 B(  2-C , 25-C ) :  -0.1030 
B(  3-C ,  4-C ) :   1.4637 B(  3-C ,  8-C ) :   0.1066 B(  3-C , 13-C ) :  -0.2524 
B(  3-C , 20-C ) :  -0.4054 B(  3-C , 25-C ) :   0.1093 B(  4-C ,  5-C ) :   1.5361 
B(  4-C , 13-C ) :   1.0210 B(  5-C ,  6-C ) :   1.4142 B(  5-C , 14-H ) :   0.8535 
B(  6-C ,  7-C ) :   1.6390 B(  6-C , 15-H ) :   0.8694 B(  7-C ,  8-C ) :   1.3539 
B(  7-C , 13-C ) :  -0.1167 B(  7-C , 16-H ) :   0.8546 B(  8-C ,  9-C ) :   1.3120 
B(  8-C , 12-C ) :  -0.1406 B(  8-C , 13-C ) :   1.0653 B(  9-C , 10-C ) :   1.5641 
B(  9-C , 17-H ) :   0.8757 B( 10-C , 11-N ) :   1.2595 B( 10-C , 18-H ) :   0.9182 
B( 11-N , 12-C ) :   1.3873 B( 11-N ,109-N ) :   0.1264 B( 12-C , 13-C ) :   1.4316 
B( 12-C , 19-H ) :   0.8809 B( 20-C , 21-C ) :   1.3585 B( 20-C , 25-C ) :   1.4030 
B( 21-C , 22-C ) :   1.5470 B( 21-C , 26-H ) :   0.8833 B( 22-C , 23-C ) :   1.5815 
B( 22-C , 27-H ) :   0.8693 B( 23-C , 24-C ) :   1.3468 B( 23-C , 28-H ) :   0.8434 
B( 24-C , 25-C ) :   1.3104 B( 24-C , 30-C ) :   1.0074 B( 25-C , 29-H ) :   0.8826 
B( 30-C , 31-C ) :   1.3714 B( 30-C , 33-N ) :   0.1026 B( 30-C , 35-C ) :   1.3502 
B( 31-C , 32-C ) :   1.4944 B( 31-C , 36-H ) :   0.8473 B( 32-C , 33-N ) :   1.3838 
B( 32-C , 37-H ) :   0.9096 B( 33-N , 34-C ) :   1.3746 B( 33-N , 87-N ) :   0.1002 
B( 34-C , 35-C ) :   1.4355 B( 34-C , 38-H ) :   0.9515 B( 35-C , 39-H ) :   0.8751 
B( 40-C , 41-C ) :   1.9395 B( 40-C , 42-C ) :  -0.2408 B( 40-C , 58-C ) :   1.4920 
B( 41-C , 42-C ) :   1.3840 B( 41-C , 51-C ) :  -0.2039 B( 41-C , 58-C ) :  -0.3787 
B( 42-C , 43-C ) :   1.5355 B( 42-C , 50-C ) :  -0.1009 B( 42-C , 51-C ) :   1.0015 
B( 43-C , 44-C ) :   1.4212 B( 43-C , 52-H ) :   0.8620 B( 44-C , 45-C ) :   1.6140 
B( 44-C , 53-H ) :   0.8724 B( 45-C , 46-C ) :   1.3617 B( 45-C , 51-C ) :  -0.1252 
B( 45-C , 54-H ) :   0.8630 B( 46-C , 47-C ) :   1.2761 B( 46-C , 50-C ) :  -0.1102 
B( 46-C , 51-C ) :   1.0505 B( 47-C , 48-C ) :   1.5767 B( 47-C , 55-H ) :   0.8731 
B( 48-C , 49-N ) :   1.2145 B( 48-C , 56-H ) :   0.9162 B( 49-N , 50-C ) :   1.4760 
B( 50-C , 51-C ) :   1.4145 B( 50-C , 57-H ) :   0.8888 B( 58-C , 59-C ) :   1.3464 
B( 58-C , 63-C ) :   1.4550 B( 59-C , 60-C ) :   1.5272 B( 59-C , 64-H ) :   0.8838 
B( 60-C , 61-C ) :   1.5578 B( 60-C , 65-H ) :   0.8675 B( 61-C , 62-C ) :   1.3492 
B( 61-C , 66-H ) :   0.8533 B( 62-C , 63-C ) :   1.3366 B( 62-C , 68-C ) :   1.0094 
B( 63-C , 67-H ) :   0.8728 B( 68-C , 69-C ) :   1.3373 B( 68-C , 71-N ) :   0.1109 
B( 68-C , 73-C ) :   1.4142 B( 69-C , 70-C ) :   1.4574 B( 69-C , 74-H ) :   0.8597 
B( 70-C , 71-N ) :   1.3643 B( 70-C , 75-H ) :   0.9230 B( 71-N , 72-C ) :   1.4022 
B( 72-C , 73-C ) :   1.4321 B( 72-C , 76-H ) :   0.9316 B( 73-C , 77-H ) :   0.8520 
B( 78-C , 79-C ) :   1.8559 B( 78-C , 80-C ) :  -0.2994 B( 78-C , 96-C ) :   1.5377 
B( 78-C ,101-C ) :  -0.1105 B( 79-C , 80-C ) :   1.4811 B( 79-C , 81-C ) :  -0.1002 
B( 79-C , 89-C ) :  -0.2371 B( 79-C , 96-C ) :  -0.4066 B( 80-C , 81-C ) :   1.5421 
B( 80-C , 88-C ) :  -0.1151 B( 80-C , 89-C ) :   1.0369 B( 81-C , 82-C ) :   1.4122 
B( 81-C , 90-H ) :   0.8505 B( 82-C , 83-C ) :   1.6328 B( 82-C , 91-H ) :   0.8711 
B( 83-C , 84-C ) :   1.3673 B( 83-C , 89-C ) :  -0.1274 B( 83-C , 92-H ) :   0.8587 
B( 84-C , 85-C ) :   1.2852 B( 84-C , 88-C ) :  -0.1241 B( 84-C , 89-C ) :   1.0555 
B( 85-C , 86-C ) :   1.6110 B( 85-C , 93-H ) :   0.8702 B( 86-C , 87-N ) :   1.2649 
B( 86-C , 94-H ) :   0.8897 B( 87-N , 88-C ) :   1.4217 B( 88-C , 89-C ) :   1.3773 
B( 88-C , 95-H ) :   0.9033 B( 96-C , 97-C ) :   1.3663 B( 96-C ,101-C ) :   1.4284 
B( 97-C , 98-C ) :   1.5388 B( 97-C ,102-H ) :   0.8811 B( 98-C , 99-C ) :   1.5701 
B( 98-C ,103-H ) :   0.8717 B( 99-C ,100-C ) :   1.3466 B( 99-C ,104-H ) :   0.8542 
B(100-C ,101-C ) :   1.3444 B(100-C ,106-C ) :   1.0395 B(101-C ,105-H ) :   0.8653 
B(106-C ,107-C ) :   1.3617 B(106-C ,109-N ) :   0.1184 B(106-C ,111-C ) :   1.3365 
B(107-C ,108-C ) :   1.5121 B(107-C ,112-H ) :   0.8351 B(108-C ,109-N ) :   1.3941 
B(108-C ,113-H ) :   0.8940 B(109-N ,110-C ) :   1.4065 B(110-C ,111-C ) :   1.4498 
B(110-C ,114-H ) :   0.9314 B(111-C ,115-H ) :   0.8482 B(116-C ,117-C ) :   1.9156 
B(116-C ,118-C ) :  -0.2602 B(116-C ,127-C ) :   0.1140 B(116-C ,134-C ) :   1.5309 
B(116-C ,139-C ) :  -0.1067 B(117-C ,118-C ) :   1.4280 B(117-C ,127-C ) :  -0.2329 
B(117-C ,134-C ) :  -0.3943 B(118-C ,119-C ) :   1.5388 B(118-C ,126-C ) :  -0.1151 
B(118-C ,127-C ) :   0.9869 B(119-C ,120-C ) :   1.4253 B(119-C ,128-H ) :   0.8637 
B(120-C ,121-C ) :   1.6161 B(120-C ,129-H ) :   0.8713 B(121-C ,122-C ) :   1.3677 
B(121-C ,127-C ) :  -0.1282 B(121-C ,130-H ) :   0.8613 B(122-C ,123-C ) :   1.2644 
B(122-C ,126-C ) :  -0.1079 B(122-C ,127-C ) :   1.0304 B(123-C ,124-C ) :   1.5834 
B(123-C ,131-H ) :   0.8684 B(124-C ,125-N ) :   1.2055 B(124-C ,132-H ) :   0.9164 
B(125-N ,126-C ) :   1.4932 B(126-C ,127-C ) :   1.4006 B(126-C ,133-H ) :   0.8952 
B(134-C ,135-C ) :   1.3520 B(134-C ,139-C ) :   1.4480 B(135-C ,136-C ) :   1.5259 
B(135-C ,140-H ) :   0.8853 B(136-C ,137-C ) :   1.5477 B(136-C ,141-H ) :   0.8677 
B(137-C ,138-C ) :   1.3643 B(137-C ,142-H ) :   0.8518 B(138-C ,139-C ) :   1.3075 
B(138-C ,144-C ) :   1.0059 B(139-C ,143-H ) :   0.8702 B(144-C ,145-C ) :   1.3941 
B(144-C ,147-N ) :   0.1130 B(144-C ,149-C ) :   1.3009 B(145-C ,146-C ) :   1.3979 
B(145-C ,150-H ) :   0.8573 B(146-C ,147-N ) :   1.3907 B(146-C ,151-H ) :   0.9436 
B(147-N ,148-C ) :   1.3509 B(148-C ,149-C ) :   1.4133 B(148-C ,152-H ) :   0.9178 
B(149-C ,153-H ) :   0.8734 

-------
TIMINGS
-------

Total SCF time: 0 days 0 hours 9 min 46 sec 

Total time                  ....     586.316 sec
Sum of individual times     ....     573.147 sec  ( 97.8%)

Fock matrix formation       ....     242.626 sec  ( 41.4%)
  Split-RI-J                ....     107.763 sec  ( 44.4% of F)
  XC integration            ....     120.431 sec  ( 49.6% of F)
    Basis function eval.    ....      23.693 sec  ( 19.7% of XC)
    Density eval.           ....      53.266 sec  ( 44.2% of XC)
    XC-Functional eval.     ....       6.872 sec  (  5.7% of XC)
    XC-Potential eval.      ....      16.576 sec  ( 13.8% of XC)
Diagonalization             ....      54.786 sec  (  9.3%)
Density matrix formation    ....       2.549 sec  (  0.4%)
Population analysis         ....       7.251 sec  (  1.2%)
Initial guess               ....       7.311 sec  (  1.2%)
Orbital Transformation      ....       0.000 sec  (  0.0%)
Orbital Orthonormalization  ....       0.000 sec  (  0.0%)
DIIS solution               ....     227.547 sec  ( 38.8%)
Grid generation             ....      31.077 sec  (  5.3%)


-------------------------------------------------------------------------------
                          DFT DISPERSION CORRECTION                            
                                                                               
                              DFTD3 V3.1  Rev 1                                
                          USING Becke-Johnson damping                          
-------------------------------------------------------------------------------
The B97-3c composite method is recognized
Using three-body term ABC
Active option DFTDOPT                   ...         4   

molecular C6(AA) [au] = 365244.805290 


            DFT-D V3
 parameters
 s6 scaling factor         :     1.0000 
 a1 scaling factor         :     0.3700 
 s8 scaling factor         :     1.5000 
 a2 scaling factor         :     4.1000 
 Damping factor alpha9(ATM):    16.0000 
 ad hoc parameters k1-k3   :    16.0000     1.3333    -4.0000 

 Edisp/kcal,au: -377.738906868001  -0.601965200826 
 E6   /kcal   : -187.160784222 
 E8   /kcal   : -191.932397082 
 E6(ABC)      :   1.354274436 
 % E8         :  50.810862633 
 % E6(ABC)    :  -0.358521299 

-------------------------   ----------------
Dispersion correction           -0.601965201
-------------------------   ----------------

------------------   -----------------
SRB correction            -0.607111149
------------------   -----------------

-------------------------   --------------------
FINAL SINGLE POINT ENERGY     -4078.514424125815
-------------------------   --------------------


                            ***************************************
                            *     ORCA property calculations      *
                            ***************************************

                                    ---------------------
                                    Active property flags
                                    ---------------------
   (+) Dipole Moment


------------------------------------------------------------------------------
                       ORCA ELECTRIC PROPERTIES CALCULATION
------------------------------------------------------------------------------

Dipole Moment Calculation                       ... on
Quadrupole Moment Calculation                   ... off
Polarizability Calculation                      ... off
GBWName                                         ... _s_4d2_b_B97-3c.gbw
Electron density file                           ... _s_4d2_b_B97-3c.scfp
The origin for moment calculation is the CENTER OF MASS  = ( 0.205015, -0.151261  0.342426)

-------------
DIPOLE MOMENT
-------------
                                X             Y             Z
Electronic contribution:     79.05772     -60.35200       2.41537
Nuclear contribution   :    -79.06968      60.79118      -2.40106
                        -----------------------------------------
Total Dipole Moment    :     -0.01196       0.43918       0.01431
                        -----------------------------------------
Magnitude (a.u.)       :      0.43958
Magnitude (Debye)      :      1.11732



--------------------
Rotational spectrum 
--------------------
 
Rotational constants in cm-1:     0.000667     0.000396     0.000370 
Rotational constants in MHz :    20.006217    11.866941    11.090787 

 Dipole components along the rotational axes: 
x,y,z [a.u.] :     0.405114    -0.150044    -0.081231 
x,y,z [Debye]:     1.029719    -0.381381    -0.206473 

 

Timings for individual modules:

Sum of individual times         ...      609.549 sec (=  10.159 min)
GTO integral calculation        ...       20.482 sec (=   0.341 min)   3.4 %
SCF iterations                  ...      589.067 sec (=   9.818 min)  96.6 %
                             ****ORCA TERMINATED NORMALLY****
TOTAL RUN TIME: 0 days 0 hours 10 minutes 32 seconds 118 msec
