Job execution start: Tue Jun 22 16:51:08 BST 2021
Shared library path: /work/e05/e05/atarzia/orca_4_2_1_linux_x86-64_openmpi314:/work/e05/e05/atarzia/openmpi-3.1.4/lib:/opt/cray/pe/papi/6.0.0.4/lib64:/opt/cray/libfabric/1.11.0.0.233/lib64
Slurm Job ID is: 344723
Slurm Job name is: s_5a1_b_B97-3c
nid001246

                                 *****************
                                 * O   R   C   A *
                                 *****************

           --- An Ab Initio, DFT and Semiempirical electronic structure package ---

                  #######################################################
                  #                        -***-                        #
                  #          Department of theory and spectroscopy      #
                  #               Directorship: Frank Neese             #
                  #        Max Planck Institute fuer Kohlenforschung    #
                  #                Kaiser Wilhelm Platz 1               #
                  #                 D-45470 Muelheim/Ruhr               #
                  #                      Germany                        #
                  #                                                     #
                  #                  All rights reserved                #
                  #                        -***-                        #
                  #######################################################


                         Program Version 4.2.1 -  RELEASE  -


 With contributions from (in alphabetic order):
   Daniel Aravena         : Magnetic Suceptibility
   Michael Atanasov       : Ab Initio Ligand Field Theory (pilot matlab implementation)
   Alexander A. Auer      : GIAO ZORA, VPT2
   Ute Becker             : Parallelization
   Giovanni Bistoni       : ED, misc. LED, open-shell LED, HFLD
   Martin Brehm           : Molecular dynamics
   Dmytro Bykov           : SCF Hessian
   Vijay G. Chilkuri      : MRCI spin determinant printing, contributions to CSF-ICE
   Dipayan Datta          : RHF DLPNO-CCSD density
   Achintya Kumar Dutta   : EOM-CC, STEOM-CC
   Dmitry Ganyushin       : Spin-Orbit,Spin-Spin,Magnetic field MRCI
   Miquel Garcia          : C-PCM Hessian, Gaussian charge scheme
   Yang Guo               : DLPNO-NEVPT2, CIM, IAO-localization
   Andreas Hansen         : Spin unrestricted coupled pair/coupled cluster methods
   Benjamin Helmich-Paris : CASSCF linear response (MC-RPA)
   Lee Huntington         : MR-EOM, pCC
   Robert Izsak           : Overlap fitted RIJCOSX, COSX-SCS-MP3, EOM
   Christian Kollmar      : KDIIS, OOCD, Brueckner-CCSD(T), CCSD density
   Simone Kossmann        : Meta GGA functionals, TD-DFT gradient, OOMP2, MP2 Hessian
   Martin Krupicka        : AUTO-CI
   Lucas Lang             : DCDCAS
   Dagmar Lenk            : GEPOL surface, SMD
   Dimitrios Liakos       : Extrapolation schemes; Compound Job, initial MDCI parallelization
   Dimitrios Manganas     : Further ROCIS development; embedding schemes
   Dimitrios Pantazis     : SARC Basis sets
   Taras Petrenko         : DFT Hessian,TD-DFT gradient, ASA, ECA, R-Raman, ABS, FL, XAS/XES, NRVS
   Peter Pinski           : DLPNO-MP2, DLPNO-MP2 Gradient
   Christoph Reimann      : Effective Core Potentials
   Marius Retegan         : Local ZFS, SOC
   Christoph Riplinger    : Optimizer, TS searches, QM/MM, DLPNO-CCSD(T), (RO)-DLPNO pert. Triples
   Tobias Risthaus        : Range-separated hybrids, TD-DFT gradient, RPA, STAB
   Michael Roemelt        : Original ROCIS implementation
   Masaaki Saitow         : Open-shell DLPNO-CCSD energy and density
   Barbara Sandhoefer     : DKH picture change effects
   Avijit Sen             : IP-ROCIS
   Kantharuban Sivalingam : CASSCF convergence, NEVPT2, FIC-MRCI
   Bernardo de Souza      : ESD, SOC TD-DFT
   Georgi Stoychev        : AutoAux, RI-MP2 NMR
   Willem Van den Heuvel  : Paramagnetic NMR
   Boris Wezisla          : Elementary symmetry handling
   Frank Wennmohs         : Technical directorship


 We gratefully acknowledge several colleagues who have allowed us to
 interface, adapt or use parts of their codes:
   Stefan Grimme, W. Hujo, H. Kruse,             : VdW corrections, initial TS optimization,
                  C. Bannwarth                     DFT functionals, gCP, sTDA/sTD-DF
   Ed Valeev, F. Pavosevic, A. Kumar             : LibInt (2-el integral package), F12 methods
   Garnet Chan, S. Sharma, J. Yang, R. Olivares  : DMRG
   Ulf Ekstrom                                   : XCFun DFT Library
   Mihaly Kallay                                 : mrcc  (arbitrary order and MRCC methods)
   Andreas Klamt, Michael Diedenhofen            : otool_cosmo (COSMO solvation model)
   Jiri Pittner, Ondrej Demel                    : Mk-CCSD
   Frank Weinhold                                : gennbo (NPA and NBO analysis)
   Christopher J. Cramer and Donald G. Truhlar   : smd solvation model
   Lars Goerigk                                  : TD-DFT with DH, B97 family of functionals
   V. Asgeirsson, H. Jonsson                     : NEB implementation
   FAccTs GmbH                                   : IRC, NEB, NEB-TS, Multilevel, MM, QM/MM, CI optimization
   S Lehtola, MJT Oliveira, MAL Marques          : LibXC Library


 Your calculation uses the libint2 library for the computation of 2-el integrals
 For citations please refer to: http://libint.valeyev.net

 Your ORCA version has been built with support for libXC version: 4.2.3
 For citations please refer to: https://tddft.org/programs/libxc/

 This ORCA versions uses:
   CBLAS   interface :  Fast vector & matrix operations
   LAPACKE interface :  Fast linear algebra routines
   SCALAPACK package :  Parallel linear algebra routines




***************************************
The coordinates will be read from file: s_5a1_b.xyz
***************************************


Your calculation utilizes the atom-pairwise dispersion correction
with the Becke-Johnson damping scheme (D3BJ)
Cite in your paper:
S.Grimme, S.Ehrlich, L.Goerigk, J Comput Chem, (2011), 32, 1456–1465 
S.Grimme, J.Antony, S.Ehrlich and H.Krieg, J.Chem.Phys., 132, (2010), 154104 
   

Your calculation employs the composite approach B97-3c by Grimme and coworkers.
For the correct reference, please check the publication list of the Grimme group:
http://www.thch.uni-bonn.de/tc/index.php?section=publikationen&subsection=grimme#2017
   

XCFun DFT library Copyright 2009-2010 Ulf Ekstrom and contributors.
See http://admol.org/xcfun for more information. This is free soft-
ware; see the source code for copying conditions. There is ABSOLUTELY
NO WARRANTY; not even for MERCHANTABILITY or FITNESS FOR A PARTICULAR
PURPOSE. For details see the documentation. Scientific users of this 
library should cite U. Ekstrom, L. Visscher, R. Bast, A. J. Thorvald-
sen and K. Ruud; J.Chem.Theor.Comp. 2010, DOI: 10.1021/ct100117s
XCFun Version 0.99 
----- Orbital basis set information -----
Your calculation utilizes the basis: def2-mTZVP
----- AuxJ basis set information -----
Your calculation utilizes the basis: def2-mTZVP/J
cite the ECPs for Pd [Def2-ECP] as follows:
Ce-Yb(ecp-28): M. Dolg, H. Stoll, H.Preuss, J. Chem. Phys., 1989, 90, 1730-1734.
Y-Cd(ecp-28), Hf-Hg(ecp-46): D. Andrae,U. Haeussermann, M. Dolg, H. Stoll, H. Preuss, Theor. Chim. Acta, 1990, 77, 123-141.
In-Sb(ecp-28), Tl-Bi(ecp-46): B. Metz, H. Stoll, M. Dolg, J. Chem. Phys., 2000, 113, 2563-2569.
Te-Xe(ecp-28), Po-Rn(ecp-46): K. A. Peterson, D. Figgen, E. Goll, H. Stoll, M. Dolg, J. Chem. Phys., 2003, 119, 11113-11123.
Rb(ecp-28), Cs(ecp-46): T. Leininger, A. Nicklass, W. Kuechle, H. Stoll, M. Dolg, A. Bergner, Chem. Phys. Lett., 1996, 255, 274-280.
Sr(ecp-28), Ba(ecp-46): M. Kaupp, P. V. Schleyer, H. Stoll and H. Preuss, J. Chem. Phys., 1991, 94, 1360-1366.
La(ecp-46): M. Dolg, H. Stoll, A. Savin, H. Preuss, Theor. Chim. Acta, 1989, 75, 173-194.
Lu(ecp-28): X. Cao, M. Dolg, J. Chem. Phys., 2001, 115, 7348-7355.

ECP parameters for Pd [Def2-ECP] have been obtained from:
TURBOMOLE (7.0.2)

================================================================================
                                        WARNINGS
                       Please study these warnings very carefully!
================================================================================


INFO   : the flag for use of LIBINT has been found!

================================================================================
                                       INPUT FILE
================================================================================
NAME = s_5a1_b_B97-3c.in
|  1> ! DFT SP B97-3c TightSCF printbasis  Grid6 NOFINALGRID SlowConv 
|  2> 
|  3> %base "_s_5a1_b_B97-3c"
|  4> %maxcore 3000
|  5> %scf
|  6>    MaxIter 2000
|  7> end
|  8> %pal
|  9>    nprocs 32
| 10> end
| 11> 
| 12> * xyzfile 4 1 s_5a1_b.xyz
| 13> 
| 14>                          ****END OF INPUT****
================================================================================

                       ****************************
                       * Single Point Calculation *
                       ****************************

---------------------------------
CARTESIAN COORDINATES (ANGSTROEM)
---------------------------------
  Pd     0.791100    6.614100    0.329800
  Pd     0.509000   -4.786100   -0.004100
  C      7.035000   -0.445700    0.832500
  C      6.707400   -1.608600    0.883400
  C      6.357100   -2.972000    0.919200
  C      7.329200   -3.938300    1.112900
  C      7.003900   -5.299300    1.131000
  C      5.710700   -5.715600    0.948300
  C      4.691000   -4.761300    0.744800
  C      3.349500   -5.129800    0.536900
  N      2.388900   -4.250700    0.346000
  C      2.671800   -2.923400    0.350200
  C      3.945100   -2.460700    0.535300
  C      5.003100   -3.371800    0.735400
  H      8.355500   -3.633900    1.252300
  H      7.789600   -6.022200    1.287600
  H      5.464200   -6.765300    0.956900
  H      3.077700   -6.182400    0.531200
  H      1.821700   -2.260600    0.193900
  H      4.161400   -1.404300    0.527400
  C      7.371300    0.918700    0.719800
  C      8.687400    1.291500    0.351400
  C      9.004400    2.606600    0.171400
  C      8.033500    3.617900    0.343300
  C      8.309500    4.981900    0.114400
  C      7.338000    5.931800    0.255900
  C      6.030100    5.573900    0.657200
  C      5.747100    4.250400    0.913100
  C      6.722200    3.248900    0.746600
  C      6.414800    1.888500    0.932400
  H      9.430100    0.521300    0.205900
  H     10.005700    2.891300   -0.118100
  H      9.305900    5.265000   -0.192100
  H      7.565400    6.962900    0.034300
  H      4.774600    3.951600    1.271700
  H      5.417400    1.607600    1.233300
  C      4.984500    6.598400    0.772900
  C      5.254200    7.911300    1.172900
  C      4.223300    8.834300    1.236800
  C      2.934800    8.433700    0.923300
  N      2.672100    7.177000    0.557900
  C      3.658400    6.287800    0.471200
  H      6.257000    8.201100    1.444600
  H      4.416400    9.851900    1.535600
  H      2.092300    9.121400    0.960000
  H      3.382800    5.293800    0.126700
  C     -0.860700    2.549100    6.559600
  C     -0.770900    3.743200    6.388000
  C     -0.728800    5.116000    6.077800
  C     -1.220300    6.070900    6.950600
  C     -1.256900    7.423200    6.591000
  C     -0.833900    7.839100    5.354200
  C     -0.317600    6.897900    4.438600
  C      0.093300    7.249600    3.137300
  N      0.591600    6.375100    2.291800
  C      0.755800    5.079700    2.669400
  C      0.350900    4.628300    3.891600
  C     -0.229300    5.526700    4.809900
  H     -1.589100    5.766200    7.918300
  H     -1.642700    8.140500    7.299200
  H     -0.891400    8.878800    5.073900
  H     -0.003100    8.274600    2.792800
  H      1.232300    4.424900    1.938300
  H      0.464100    3.593800    4.173000
  C     -1.048200    1.164800    6.748500
  C     -1.770100    0.714800    7.881300
  C     -2.036500   -0.613000    8.041000
  C     -1.600700   -1.560000    7.088400
  C     -1.900000   -2.932300    7.206600
  C     -1.468400   -3.827700    6.271600
  C     -0.697400   -3.404100    5.162900
  C     -0.399700   -2.066900    5.022500
  C     -0.846700   -1.119100    5.966900
  C     -0.583200    0.256300    5.819500
  H     -2.111900    1.437900    8.606700
  H     -2.594500   -0.958700    8.899200
  H     -2.485500   -3.265100    8.051000
  H     -1.739800   -4.867500    6.367200
  H      0.212100   -1.721000    4.203700
  H     -0.022000    0.597100    4.963300
  C     -0.234200   -4.411000    4.197900
  C      0.122100   -5.695900    4.621100
  C      0.501500   -6.648500    3.690900
  C      0.538200   -6.299500    2.353300
  N      0.235700   -5.061700    1.947200
  C     -0.144500   -4.141400    2.831000
  H      0.113100   -5.941700    5.671300
  H      0.766900   -7.646100    4.001300
  H      0.811500   -7.022100    1.583300
  H     -0.399900   -3.166300    2.428000
  C     -5.813200    2.481000   -0.277000
  C     -5.538800    3.658800   -0.297600
  C     -5.162700    5.016100   -0.289500
  C     -6.102200    6.026000   -0.394800
  C     -5.719400    7.372500   -0.365200
  C     -4.403600    7.731300   -0.224500
  C     -3.413400    6.731400   -0.112700
  C     -2.047000    7.032100    0.039600
  N     -1.121800    6.099500    0.138400
  C     -1.468700    4.790000    0.098000
  C     -2.767500    4.392300   -0.038700
  C     -3.787300    5.357700   -0.149800
  H     -7.145800    5.770900   -0.501200
  H     -6.480600    8.132600   -0.452300
  H     -4.116500    8.770400   -0.197800
  H     -1.712300    8.067100    0.080800
  H     -0.653800    4.077700    0.183400
  H     -3.030700    3.347200   -0.061600
  C     -6.117100    1.106400   -0.195500
  C     -7.420000    0.699200    0.182200
  C     -7.708300   -0.625900    0.331800
  C     -6.721600   -1.612600    0.115000
  C     -6.976500   -2.986500    0.303100
  C     -5.999300   -3.917800    0.099200
  C     -4.704800   -3.530300   -0.320500
  C     -4.435500   -2.193800   -0.516100
  C     -5.421500   -1.210900   -0.295000
  C     -5.143500    0.161100   -0.444600
  H     -8.174700    1.451200    0.358100
  H     -8.699300   -0.938500    0.627800
  H     -7.962000   -3.292300    0.622600
  H     -6.211000   -4.959100    0.285500
  H     -3.470000   -1.870000   -0.872300
  H     -4.156300    0.470300   -0.751700
  C     -3.676600   -4.560400   -0.524200
  C     -4.001500   -5.834800   -1.003500
  C     -3.013000   -6.795000   -1.133300
  C     -1.710000   -6.469300   -0.797900
  N     -1.390400   -5.247500   -0.368400
  C     -2.335500   -4.316900   -0.228000
  H     -5.017300   -6.065100   -1.283500
  H     -3.249500   -7.783400   -1.492700
  H     -0.902300   -7.192100   -0.875000
  H     -2.004500   -3.352300    0.153100
  C     -0.161700    3.133300   -6.288500
  C     -0.086900    4.318100   -6.055900
  C     -0.041200    5.664900   -5.647800
  C     -0.394700    6.703100   -6.490800
  C     -0.410000    8.026100   -6.032800
  C     -0.101800    8.330700   -4.731100
  C      0.268700    7.301100   -3.840400
  C      0.548300    7.534800   -2.478100
  N      0.900000    6.574000   -1.653000
  C      1.042800    5.301800   -2.111600
  C      0.762300    4.964600   -3.403000
  C      0.332500    5.958000   -4.305700
  H     -0.669000    6.489300   -7.512700
  H     -0.685700    8.811700   -6.719700
  H     -0.140100    9.349900   -4.380800
  H      0.470400    8.537000   -2.068600
  H      1.395000    4.563600   -1.388500
  H      0.857800    3.948700   -3.750500
  C     -0.290400    1.753700   -6.548400
  C     -0.850500    1.320300   -7.774600
  C     -1.019600   -0.011200   -8.017300
  C     -0.637600   -0.978300   -7.061700
  C     -0.808200   -2.359700   -7.286100
  C     -0.406400   -3.275300   -6.357300
  C      0.184500   -2.860200   -5.140600
  C      0.338600   -1.516800   -4.887000
  C     -0.060600   -0.550500   -5.834900
  C      0.099300    0.828300   -5.601000
  H     -1.143000    2.057100   -8.507700
  H     -1.450100   -0.345300   -8.950300
  H     -1.259900   -2.683400   -8.212200
  H     -0.560300   -4.327300   -6.541900
  H      0.810300   -1.179800   -3.976800
  H      0.533700    1.157700   -4.669800
  C      0.645600   -3.889500   -4.197200
  C      1.276700   -5.043400   -4.672100
  C      1.678500   -6.023900   -3.781300
  C      1.440900   -5.837200   -2.432000
  N      0.851800   -4.727800   -1.970800
  C      0.466000   -3.774900   -2.818400
  H      1.461400   -5.160700   -5.728400
  H      2.166200   -6.919800   -4.129900
  H      1.729700   -6.589000   -1.696700
  H     -0.017400   -2.908300   -2.379300

----------------------------
CARTESIAN COORDINATES (A.U.)
----------------------------
  NO LB      ZA    FRAG     MASS         X           Y           Z
   0 Pd   18.0000*   0   106.400    1.494962   12.498838    0.623232
   1 Pd   18.0000*   0   106.400    0.961871   -9.044418   -0.007748
   2 C     6.0000    0    12.011   13.294223   -0.842251    1.573197
   3 C     6.0000    0    12.011   12.675149   -3.039813    1.669384
   4 C     6.0000    0    12.011   12.013178   -5.616266    1.737036
   5 C     6.0000    0    12.011   13.850181   -7.442308    2.103076
   6 C     6.0000    0    12.011   13.235453  -10.014226    2.137280
   7 C     6.0000    0    12.011   10.791659  -10.800919    1.792027
   8 C     6.0000    0    12.011    8.864705   -8.997553    1.407468
   9 C     6.0000    0    12.011    6.329638   -9.693917    1.014594
  10 N     7.0000    0    14.007    4.514367   -8.032659    0.653845
  11 C     6.0000    0    12.011    5.048970   -5.524425    0.661782
  12 C     6.0000    0    12.011    7.455159   -4.650049    1.011570
  13 C     6.0000    0    12.011    9.454489   -6.371779    1.389705
  14 H     1.0000    0     1.008   15.789607   -6.867076    2.366504
  15 H     1.0000    0     1.008   14.720211  -11.380309    2.433211
  16 H     1.0000    0     1.008   10.325842  -12.784564    1.808279
  17 H     1.0000    0     1.008    5.816010  -11.683043    1.003823
  18 H     1.0000    0     1.008    3.442514   -4.271915    0.366418
  19 H     1.0000    0     1.008    7.863906   -2.653742    0.996642
  20 C     6.0000    0    12.011   13.929738    1.736091    1.360225
  21 C     6.0000    0    12.011   16.416807    2.440581    0.664050
  22 C     6.0000    0    12.011   17.015850    4.925760    0.323899
  23 C     6.0000    0    12.011   15.181115    6.836840    0.648743
  24 C     6.0000    0    12.011   15.702679    9.414427    0.216185
  25 C     6.0000    0    12.011   13.866810   11.209477    0.483581
  26 C     6.0000    0    12.011   11.395238   10.533144    1.241928
  27 C     6.0000    0    12.011   10.860445    8.032092    1.725509
  28 C     6.0000    0    12.011   12.703117    6.139531    1.410870
  29 C     6.0000    0    12.011   12.122215    3.568748    1.761981
  30 H     1.0000    0     1.008   17.820306    0.985114    0.389095
  31 H     1.0000    0     1.008   18.908033    5.463765   -0.223177
  32 H     1.0000    0     1.008   17.585602    9.949408   -0.363016
  33 H     1.0000    0     1.008   14.296534   13.157974    0.064818
  34 H     1.0000    0     1.008    9.022686    7.467442    2.403165
  35 H     1.0000    0     1.008   10.237402    3.037924    2.330599
  36 C     6.0000    0    12.011    9.419340   12.469169    1.460569
  37 C     6.0000    0    12.011    9.928999   14.950190    2.216460
  38 C     6.0000    0    12.011    7.980880   16.694408    2.337213
  39 C     6.0000    0    12.011    5.545968   15.937383    1.744784
  40 N     7.0000    0    14.007    5.049537   13.562564    1.054278
  41 C     6.0000    0    12.011    6.913374   11.882220    0.890439
  42 H     1.0000    0     1.008   11.824016   15.497833    2.729898
  43 H     1.0000    0     1.008    8.345786   18.617393    2.901863
  44 H     1.0000    0     1.008    3.953874   17.236948    1.814137
  45 H     1.0000    0     1.008    6.392566   10.003832    0.239428
  46 C     6.0000    0    12.011   -1.626487    4.817101   12.395848
  47 C     6.0000    0    12.011   -1.456790    7.073623   12.071571
  48 C     6.0000    0    12.011   -1.377232    9.667839   11.485377
  49 C     6.0000    0    12.011   -2.306033   11.472338   13.134730
  50 C     6.0000    0    12.011   -2.375197   14.027815   12.455185
  51 C     6.0000    0    12.011   -1.575843   14.813752   10.117972
  52 C     6.0000    0    12.011   -0.600177   13.035142    8.387738
  53 C     6.0000    0    12.011    0.176311   13.699759    5.928638
  54 N     7.0000    0    14.007    1.117962   12.047193    4.330874
  55 C     6.0000    0    12.011    1.428255    9.599242    5.044435
  56 C     6.0000    0    12.011    0.663105    8.746219    7.354058
  57 C     6.0000    0    12.011   -0.433314   10.443949    9.089394
  58 H     1.0000    0     1.008   -3.002964   10.896539   14.963418
  59 H     1.0000    0     1.008   -3.104253   15.383316   13.793489
  60 H     1.0000    0     1.008   -1.684502   16.778500    9.588281
  61 H     1.0000    0     1.008   -0.005858   15.636728    5.277627
  62 H     1.0000    0     1.008    2.328710    8.361849    3.662856
  63 H     1.0000    0     1.008    0.877022    6.791298    7.885827
  64 C     6.0000    0    12.011   -1.980811    2.201153   12.752817
  65 C     6.0000    0    12.011   -3.345004    1.350776   14.893499
  66 C     6.0000    0    12.011   -3.848427   -1.158402   15.195288
  67 C     6.0000    0    12.011   -3.024885   -2.947973   13.395135
  68 C     6.0000    0    12.011   -3.590480   -5.541244   13.618500
  69 C     6.0000    0    12.011   -2.774874   -7.233305   11.851606
  70 C     6.0000    0    12.011   -1.317895   -6.432817    9.756467
  71 C     6.0000    0    12.011   -0.755324   -3.905875    9.491150
  72 C     6.0000    0    12.011   -1.600031   -2.114793   11.275807
  73 C     6.0000    0    12.011   -1.102088    0.484337   10.997261
  74 H     1.0000    0     1.008   -3.990913    2.717237   16.264306
  75 H     1.0000    0     1.008   -4.902894   -1.811680   16.817051
  76 H     1.0000    0     1.008   -4.696914   -6.170145   15.214185
  77 H     1.0000    0     1.008   -3.287746   -9.198242   12.032264
  78 H     1.0000    0     1.008    0.400811   -3.252219    7.943842
  79 H     1.0000    0     1.008   -0.041574    1.128355    9.379278
  80 C     6.0000    0    12.011   -0.442574   -8.335582    7.932881
  81 C     6.0000    0    12.011    0.230736  -10.763691    8.732613
  82 C     6.0000    0    12.011    0.947698  -12.563844    6.974790
  83 C     6.0000    0    12.011    1.017051  -11.904330    4.447093
  84 N     7.0000    0    14.007    0.445408   -9.565227    3.679675
  85 C     6.0000    0    12.011   -0.273065   -7.826112    5.349815
  86 H     1.0000    0     1.008    0.213728  -11.228186   10.717204
  87 H     1.0000    0     1.008    1.449231  -14.449035    7.561361
  88 H     1.0000    0     1.008    1.533513  -13.269846    2.992003
  89 H     1.0000    0     1.008   -0.755701   -5.983440    4.588255
  90 C     6.0000    0    12.011  -10.985356    4.688411   -0.523454
  91 C     6.0000    0    12.011  -10.466815    6.914130   -0.562382
  92 C     6.0000    0    12.011   -9.756089    9.479055   -0.547076
  93 C     6.0000    0    12.011  -11.531487   11.387490   -0.746064
  94 C     6.0000    0    12.011  -10.808100   13.932006   -0.690128
  95 C     6.0000    0    12.011   -8.321598   14.610040   -0.424244
  96 C     6.0000    0    12.011   -6.450391   12.720502   -0.212972
  97 C     6.0000    0    12.011   -3.868269   13.288743    0.074833
  98 N     7.0000    0    14.007   -2.119895   11.526385    0.261538
  99 C     6.0000    0    12.011   -2.775441    9.051788    0.185193
 100 C     6.0000    0    12.011   -5.229817    8.300244   -0.073132
 101 C     6.0000    0    12.011   -7.156960   10.124586   -0.283081
 102 H     1.0000    0     1.008  -13.503605   10.905421   -0.947131
 103 H     1.0000    0     1.008  -12.246559   15.368387   -0.854723
 104 H     1.0000    0     1.008   -7.779058   16.573654   -0.373788
 105 H     1.0000    0     1.008   -3.235778   15.244610    0.152690
 106 H     1.0000    0     1.008   -1.235503    7.705736    0.346576
 107 H     1.0000    0     1.008   -5.727193    6.325291   -0.116407
 108 C     6.0000    0    12.011  -11.559644    2.090793   -0.369441
 109 C     6.0000    0    12.011  -14.021768    1.321297    0.344308
 110 C     6.0000    0    12.011  -14.566576   -1.182780    0.627011
 111 C     6.0000    0    12.011  -12.701983   -3.047372    0.217319
 112 C     6.0000    0    12.011  -13.183674   -5.643667    0.572776
 113 C     6.0000    0    12.011  -11.337034   -7.403569    0.187461
 114 C     6.0000    0    12.011   -8.890784   -6.671300   -0.605657
 115 C     6.0000    0    12.011   -8.381880   -4.145681   -0.975288
 116 C     6.0000    0    12.011  -10.245150   -2.288269   -0.557469
 117 C     6.0000    0    12.011   -9.719806    0.304435   -0.840172
 118 H     1.0000    0     1.008  -15.447944    2.742371    0.676711
 119 H     1.0000    0     1.008  -16.439295   -1.773508    1.186370
 120 H     1.0000    0     1.008  -15.045999   -6.221545    1.176543
 121 H     1.0000    0     1.008  -11.737089   -9.371341    0.539517
 122 H     1.0000    0     1.008   -6.557350   -3.533788   -1.648408
 123 H     1.0000    0     1.008   -7.854269    0.888738   -1.420507
 124 C     6.0000    0    12.011   -6.947767   -8.617907   -0.990594
 125 C     6.0000    0    12.011   -7.561739  -11.026174   -1.896340
 126 C     6.0000    0    12.011   -5.693745  -12.840689   -2.141627
 127 C     6.0000    0    12.011   -3.231432  -12.225205   -1.507812
 128 N     7.0000    0    14.007   -2.627475   -9.916338   -0.696175
 129 C     6.0000    0    12.011   -4.413455   -8.157759   -0.430858
 130 H     1.0000    0     1.008   -9.481323  -11.461378   -2.425463
 131 H     1.0000    0     1.008   -6.140665  -14.708494   -2.820794
 132 H     1.0000    0     1.008   -1.705100  -13.591099   -1.653510
 133 H     1.0000    0     1.008   -3.787956   -6.334929    0.289317
 134 C     6.0000    0    12.011   -0.305569    5.921079  -11.883543
 135 C     6.0000    0    12.011   -0.164217    8.160026  -11.443992
 136 C     6.0000    0    12.011   -0.077857   10.705110  -10.672795
 137 C     6.0000    0    12.011   -0.745875   12.667023  -12.265834
 138 C     6.0000    0    12.011   -0.774788   15.167131  -11.400340
 139 C     6.0000    0    12.011   -0.192374   15.742742   -8.940483
 140 C     6.0000    0    12.011    0.507769   13.797079   -7.257304
 141 C     6.0000    0    12.011    1.036137   14.238708   -4.682930
 142 N     7.0000    0    14.007    1.700754   12.423060   -3.123717
 143 C     6.0000    0    12.011    1.970606   10.018950   -3.990346
 144 C     6.0000    0    12.011    1.440538    9.381734   -6.430738
 145 C     6.0000    0    12.011    0.628334   11.258988   -8.136594
 146 H     1.0000    0     1.008   -1.264227   12.263000  -14.196946
 147 H     1.0000    0     1.008   -1.295785   16.651700  -12.698393
 148 H     1.0000    0     1.008   -0.264751   17.668750   -8.278512
 149 H     1.0000    0     1.008    0.888927   16.132592   -3.909087
 150 H     1.0000    0     1.008    2.636168    8.623954   -2.623885
 151 H     1.0000    0     1.008    1.621007    7.461962   -7.087418
 152 C     6.0000    0    12.011   -0.548776    3.314013  -12.374683
 153 C     6.0000    0    12.011   -1.607212    2.495005  -14.691865
 154 C     6.0000    0    12.011   -1.926765   -0.021165  -15.150501
 155 C     6.0000    0    12.011   -1.204889   -1.848719  -13.344679
 156 C     6.0000    0    12.011   -1.527277   -4.459187  -13.768734
 157 C     6.0000    0    12.011   -0.767985   -6.189420  -12.013556
 158 C     6.0000    0    12.011    0.348654   -5.404995   -9.714326
 159 C     6.0000    0    12.011    0.639861   -2.866337   -9.235092
 160 C     6.0000    0    12.011   -0.114517   -1.040294  -11.026363
 161 C     6.0000    0    12.011    0.187650    1.565260  -10.584356
 162 H     1.0000    0     1.008   -2.159957    3.887356  -16.077223
 163 H     1.0000    0     1.008   -2.740292   -0.652522  -16.913616
 164 H     1.0000    0     1.008   -2.380866   -5.070891  -15.518809
 165 H     1.0000    0     1.008   -1.058814   -8.177412  -12.362399
 166 H     1.0000    0     1.008    1.531245   -2.229499   -7.515063
 167 H     1.0000    0     1.008    1.008547    2.187736   -8.824643
 168 C     6.0000    0    12.011    1.220007   -7.350090   -7.931559
 169 C     6.0000    0    12.011    2.412613   -9.530645   -8.828989
 170 C     6.0000    0    12.011    3.171905  -11.383521   -7.145621
 171 C     6.0000    0    12.011    2.722906  -11.030709   -4.595814
 172 N     7.0000    0    14.007    1.609669   -8.934247   -3.724272
 173 C     6.0000    0    12.011    0.880612   -7.133527   -5.326004
 174 H     1.0000    0     1.008    2.761646   -9.752310  -10.825107
 175 H     1.0000    0     1.008    4.093525  -13.076527   -7.804380
 176 H     1.0000    0     1.008    3.268659  -12.451405   -3.206298
 177 H     1.0000    0     1.008   -0.032881   -5.495891   -4.496225
* core charge reduced due to ECP

--------------------------------
INTERNAL COORDINATES (ANGSTROEM)
--------------------------------
 Pd     0   0   0     0.000000000000     0.00000000     0.00000000
 Pd     1   0   0    11.408577021697     0.00000000     0.00000000
 C      2   1   0     7.882109344585    54.98158997     0.00000000
 C      3   2   1     1.209234873794    41.46144679   171.58022378
 C      4   3   2     1.408137525244   178.36807148   132.16752072
 C      5   4   3     1.384280964978   120.31384871    44.33337272
 C      6   5   4     1.399453000283   121.16112569   180.99352327
 C      7   6   5     1.370784891951   120.85838003     0.42296399
 C      8   7   6     1.411342917225   119.70144909   359.72528993
 C      9   8   7     1.406640291617   122.22326557   179.26622330
 N     10   9   8     1.316059261584   122.85755144   179.99627958
 C     11  10   9     1.357120237857   120.04626113   359.69663191
 C     12  11  10     1.367350061250   121.70144421     0.70637422
 C     13  12  11     1.410498925912   119.94173680   359.66529038
 H      6   5   4     1.079529253888   119.26513930     0.99998491
 H      7   6   5     1.079088717391   118.95600860   180.17398154
 H      8   7   6     1.078288597733   120.68009088   179.63105398
 H     10   9   8     1.087140510698   119.52867507     0.02380029
 H     12  11  10     1.089221529350   115.59456564   180.50948226
 H     13  12  11     1.078345519766   121.15142536   179.39558394
 C      3   2   1     1.409746906363   136.21795990   349.07232006
 C     21   3   2     1.416621900861   119.80910877   208.50081213
 C     22  21   3     1.364689345602   120.24535252   176.56204553
 C     23  22  21     1.412417824158   120.94804805   359.81448487
 C     24  23  22     1.410342940564   122.56139314   182.59496322
 C     25  24  23     1.366068998989   121.09909103   178.25632408
 C     26  25  24     1.414120401522   120.74070797     0.98759162
 C     27  26  25     1.377398293886   119.07379675     0.39109838
 C     28  27  26     1.407673438692   121.28668525   358.20313274
 C     21   3   2     1.378623607081   120.19794215    26.78589014
 H     22  21   3     1.079806269661   119.10012697   357.18610823
 H     23  22  21     1.080493419693   120.29936941   180.54195079
 H     25  24  23     1.080231836228   118.68685636   359.19634857
 H     26  25  24     1.078881147300   119.56343259   182.56888047
 H     28  27  26     1.078717595110   120.87363443   176.69386240
 H     30  21   3     1.079005273388   120.07993498     3.00793052
 C     27  26  25     1.468422997641   120.28839710   181.57174616
 C     37  27  26     1.398729602175   122.69117281   326.66462987
 C     38  37  27     1.385195661270   119.67871706   178.79922635
 C     39  38  37     1.385277899918   119.28156531     1.05244760
 N     40  39  38     1.334849557066   121.14830922   359.80351178
 C     41  40  39     1.330782183530   120.06854485   359.05531058
 H     38  37  27     1.078616136538   120.23125801   357.89444553
 H     39  38  37     1.077997592762   120.56218534   180.49317841
 H     40  39  38     1.088156436364   121.98939515   179.92043619
 H     42  41  40     1.087507062046   116.33005663   182.56604773
 C      1   2   3     7.619913141237    59.03522715   262.53646435
 C     47   1   2     1.209704678837    48.80260424   179.40226919
 C     48  47   1     1.408039875146   174.78854791    42.00915349
 C     49  48  47     1.383902489339   121.54541429   124.87803759
 C     50  49  48     1.399773913888   120.92187510   184.46658553
 C     51  50  49     1.371705525979   121.09682768     1.39485068
 C     52  51  50     1.410938159524   119.71558735   358.21223025
 C     53  52  51     1.409224393062   122.64600445   177.86359506
 N     54  53  52     1.314504998089   122.57806420   179.02005649
 C     55  54  53     1.359266184380   120.07431491   358.51450451
 C     56  55  54     1.364360220030   121.89118054     3.56410743
 C     57  56  55     1.409620335410   119.66058504   358.58372299
 H     50  49  48     1.079490074063   119.46826619     3.87411808
 H     51  50  49     1.079309116982   118.87049359   180.28518583
 H     52  51  50     1.078355428419   120.68089171   178.23509482
 H     54  53  52     1.085632631234   120.18307518   358.47307408
 H     56  55  54     1.091019019083   116.01323658   183.71316299
 H     57  56  55     1.078049372710   121.34250893   178.52207784
 C     47   1   2     1.409654549881   131.47297230   354.87430036
 C     65  47   1     1.416642315477   119.13536886   200.94005544
 C     66  65  47     1.363644341462   120.16569787   175.87212773
 C     67  66  65     1.412153461916   120.90990617     0.05328669
 C     68  67  66     1.409524394964   122.05942670   182.11614964
 C     69  68  67     1.364640875835   120.94405291   179.92744261
 C     70  69  68     1.415306910179   120.83987787     0.57583625
 C     71  70  69     1.377113390393   119.22590178   359.04412942
 C     72  71  70     1.410682529841   121.04073338     0.22893448
 C     65  47   1     1.380086319764   120.75919807    18.41163158
 H     66  65  47     1.079771276706   119.06403067   356.45504434
 H     67  66  65     1.080453483497   120.36209784   180.55190169
 H     69  68  67     1.080082149653   118.72816709     0.31793719
 H     70  69  68     1.078879678185   119.47888384   182.10000953
 H     72  71  70     1.079064173254   120.74333976   178.07447381
 H     74  65  47     1.078966412823   120.09857763     3.36539215
 C     71  70  69     1.469566891979   118.75304806   178.80076708
 C     81  71  70     1.398933858336   120.72684499   325.21075381
 C     82  81  71     1.384436044027   119.90262563   177.24141669
 C     83  82  81     1.382867184512   118.91580279     0.91049550
 N     84  83  82     1.337375153052   121.41917478     1.02733077
 C     85  84  83     1.331392718171   120.18450019   358.23135392
 H     82  81  71     1.078618876156   120.11442114   356.50268742
 H     83  82  81     1.077956900808   120.71595899   180.76025297
 H     84  83  82     1.090753707305   121.48551571   181.24813723
 H     86  85  84     1.085568132362   116.20883983   181.56988324
 C     63  56  55     7.637104919405    86.80281157   265.20463162
 C     91  63  56     1.209517490572    63.11432613    55.90800131
 C     92  91  63     1.408467291065   177.29163632   350.70218717
 C     93  92  91     1.383346070222   121.44839789   203.49579310
 C     94  93  92     1.400169364756   120.98226162   179.01717980
 C     95  94  93     1.371081168276   121.07785013   359.67758693
 C     96  95  94     1.411664014559   119.73095235     0.26343832
 C     97  96  95     1.407360913199   122.56506857   180.28115572
 N     98  97  96     1.317383482514   122.59663756   180.29033941
 C     99  98  97     1.355271935812   120.13311398   359.85627596
 C    100  99  98     1.365186294980   121.86895092   359.73236049
 C    101 100  99     1.408663341611   119.80135361     0.36801124
 H     94  93  92     1.079582294223   119.43996331   359.02609772
 H     95  94  93     1.079242261960   118.86581317   179.86590374
 H     96  95  94     1.078363626056   120.67755693   180.29271555
 H     98  97  96     1.088552492992   120.38250882     0.30464904
 H    100  99  98     1.085691696570   116.06913496   179.89241785
 H    101 100  99     1.077976187121   121.12094615   180.48901253
 C     91  63  56     1.410149857285   115.47814766   238.10920808
 C    109  91  63     1.416339486140   119.59818970   143.62511019
 C    110 109  91     1.364326595797   120.18971876   183.37859119
 C    111 110 109     1.412145891896   120.94070499     0.00000000
 C    112 111 110     1.409949229582   122.28001226   177.91510930
 C    113 112 111     1.365216004887   121.02368608   180.67963080
 C    114 113 112     1.414932715715   120.81989270   359.35345988
 C    115 114 113     1.377321349577   119.12750195     0.34548272
 C    116 115 114     1.409671458177   121.16836474     0.52715864
 C    109  91  63     1.379688319875   120.35589468   325.45419843
 H    110 109  91     1.079822624323   119.08810527     2.79766078
 H    111 110 109     1.080470156922   120.32169365   179.49319845
 H    113 112 111     1.080187085648   118.70239478     0.10152640
 H    114 113 112     1.078809654202   119.48468880   177.75522887
 H    116 115 114     1.078848983871   120.87117529   182.37421360
 H    118 109  91     1.079110230699   120.04141862   356.92949752
 C    115 114 113     1.469624081185   119.29060944   179.73490278
 C    125 115 114     1.399779932704   121.54811551    34.01140056
 C    126 125 115     1.384183633049   119.86187796   182.49982925
 C    127 126 125     1.384334731920   119.09454133   359.29445810
 N    128 127 126     1.333945145049   121.26643723   359.23489505
 C    129 128 127     1.333770043898   120.21095028     1.35254823
 H    126 125 115     1.078558171820   120.12539596     3.29630411
 H    127 126 125     1.077977351339   120.70629526   179.45465483
 H    128 127 126     1.086629440058   121.73189840   179.45846146
 H    130 129 128     1.088692504796   116.07867550   178.35884078
 C    107 100  99     6.558928523776    94.19581153   262.48399890
 C    135 107 100     1.209730895695    70.96756242    53.77426185
 C    136 135 107     1.408014325211   174.01404248   349.59098269
 C    137 136 135     1.383282505492   122.20664723   215.29329921
 C    138 137 136     1.400116812984   120.83963242   176.41894087
 C    139 138 137     1.371929768611   121.17875063   358.69130377
 C    140 139 138     1.410919168486   119.73223116     1.51396903
 C    141 140 139     1.410196135295   122.75043557   182.49806038
 N    142 141 140     1.314389417182   122.57040105   180.36703045
 C    143 142 141     1.359852433171   120.01754054     1.84744170
 C    144 143 142     1.363854116099   121.94016137   356.43047024
 C    145 144 143     1.409410830808   119.66381489     1.09747653
 H    138 137 136     1.079458447556   119.55180237   356.86050900
 H    139 138 137     1.079356039498   118.84019393   179.66899770
 H    140 139 138     1.078399564169   120.66791121   181.53813801
 H    142 141 140     1.085432402317   120.21456672     0.82380882
 H    144 143 142     1.091722350234   116.30186573   176.42227177
 H    145 144 143     1.077928249004   121.33517408   181.39025919
 C    135 107 100     1.409754538918   108.41936690   235.50327579
 C    153 135 107     1.416020483609   119.68803373   149.79973358
 C    154 153 135     1.363961271444   120.12631600   182.14888453
 C    155 154 153     1.412224404973   120.96866951   359.71838445
 C    156 155 154     1.409867256163   122.04245666   179.67708913
 C    157 156 155     1.364710973064   120.89150418   178.69492451
 C    158 157 156     1.414860314660   120.75641479     0.40426915
 C    159 158 157     1.375784623406   119.45721044     0.83502537
 C    160 159 158     1.411244394143   120.87069700   358.74473713
 C    153 135 107     1.380506432437   120.24542527   331.25569927
 H    154 153 135     1.079752795782   119.09330379     1.91577798
 H    155 154 153     1.080482327482   120.32478052   179.76830713
 H    157 156 155     1.080035087393   118.73418603   359.00397191
 H    158 157 156     1.079104429608   119.71221659   179.03936460
 H    160 159 158     1.079135732890   120.62192273   181.61473119
 H    162 153 135     1.079046412347   120.08275631   358.03209751
 C    159 158 157     1.470399693961   118.51098153   182.28305886
 C    169 159 158     1.398321289976   120.08508825    39.70768941
 C    170 169 159     1.384322263781   119.79754242   181.60822313
 C    171 170 169     1.382722365481   118.84402664     0.13872474
 N    172 171 170     1.338100373664   121.59645185   359.04744708
 C    173 172 171     1.332398517712   120.07674865     0.67712925
 H    170 169 159     1.078722888419   119.97162268     2.47102419
 H    171 170 169     1.077965704464   120.78918229   179.98884768
 H    172 171 170     1.090538752177   121.28982071   179.24981749
 H    174 173 172     1.085117472903   116.27796269   179.17788814

---------------------------
INTERNAL COORDINATES (A.U.)
---------------------------
 Pd     0   0   0     0.000000000000     0.00000000     0.00000000
 Pd     1   0   0    21.559086148755     0.00000000     0.00000000
 C      2   1   0    14.895028018888    54.98158997     0.00000000
 C      3   2   1     2.285122743058    41.46144679   171.58022378
 C      4   3   2     2.660994281609   178.36807148   132.16752072
 C      5   4   3     2.615911916208   120.31384871    44.33337272
 C      6   5   4     2.644582907829   121.16112569   180.99352327
 C      7   6   5     2.590408034303   120.85838003     0.42296399
 C      8   7   6     2.667051594604   119.70144909   359.72528993
 C      9   8   7     2.658164920095   122.22326557   179.26622330
 N     10   9   8     2.486991580404   122.85755144   179.99627958
 C     11  10   9     2.564585580351   120.04626113   359.69663191
 C     12  11  10     2.583917144963   121.70144421     0.70637422
 C     13  12  11     2.665456682164   119.94173680   359.66529038
 H      6   5   4     2.040014643405   119.26513930     0.99998491
 H      7   6   5     2.039182150073   118.95600860   180.17398154
 H      8   7   6     2.037670143044   120.68009088   179.63105398
 H     10   9   8     2.054397834310   119.52867507     0.02380029
 H     12  11  10     2.058330389643   115.59456564   180.50948226
 H     13  12  11     2.037777710099   121.15142536   179.39558394
 C      3   2   1     2.664035571169   136.21795990   349.07232006
 C     21   3   2     2.677027427943   119.80910877   208.50081213
 C     22  21   3     2.578889121068   120.24535252   176.56204553
 C     23  22  21     2.669082874328   120.94804805   359.81448487
 C     24  23  22     2.665161912576   122.56139314   182.59496322
 C     25  24  23     2.581496288130   121.09909103   178.25632408
 C     26  25  24     2.672300279267   120.74070797     0.98759162
 C     27  26  25     2.602905552775   119.07379675     0.39109838
 C     28  27  26     2.660117285124   121.28668525   358.20313274
 C     21   3   2     2.605221059141   120.19794215    26.78589014
 H     22  21   3     2.040538127351   119.10012697   357.18610823
 H     23  22  21     2.041836652724   120.29936941   180.54195079
 H     25  24  23     2.041342331613   118.68685636   359.19634857
 H     26  25  24     2.038789899448   119.56343259   182.56888047
 H     28  27  26     2.038480830600   120.87363443   176.69386240
 H     30  21   3     2.039024463761   120.07993498     3.00793052
 C     27  26  25     2.774917314293   120.28839710   181.57174616
 C     37  27  26     2.643215883519   122.69117281   326.66462987
 C     38  37  27     2.617640441695   119.67871706   178.79922635
 C     39  38  37     2.617795850218   119.28156531     1.05244760
 N     40  39  38     2.522500092841   121.14830922   359.80351178
 C     41  40  39     2.514813870773   120.06854485   359.05531058
 H     38  37  27     2.038289101685   120.23125801   357.89444553
 H     39  38  37     2.037120223346   120.56218534   180.49317841
 H     40  39  38     2.056317655591   121.98939515   179.92043619
 H     42  41  40     2.055090515972   116.33005663   182.56604773
 C      1   2   3    14.399549001206    59.03522715   262.53646435
 C     47   1   2     2.286010545925    48.80260424   179.40226919
 C     48  47   1     2.660809749666   174.78854791    42.00915349
 C     49  48  47     2.615196700903   121.54541429   124.87803759
 C     50  49  48     2.645189346654   120.92187510   184.46658553
 C     51  50  49     2.592147780486   121.09682768     1.39485068
 C     52  51  50     2.666286713399   119.71558735   358.21223025
 C     53  52  51     2.663048164128   122.64600445   177.86359506
 N     54  53  52     2.484054448058   122.57806420   179.02005649
 C     55  54  53     2.568640831579   120.07431491   358.51450451
 C     56  55  54     2.578267163873   121.89118054     3.56410743
 C     57  56  55     2.663796386730   119.66058504   358.58372299
 H     50  49  48     2.039940604265   119.46826619     3.87411808
 H     51  50  49     2.039598644940   118.87049359   180.28518583
 H     52  51  50     2.037796434739   120.68089171   178.23509482
 H     54  53  52     2.051548355081   120.18307518   358.47307408
 H     56  55  54     2.061727152966   116.01323658   183.71316299
 H     57  56  55     2.037218073267   121.34250893   178.52207784
 C     47   1   2     2.663861042711   131.47297230   354.87430036
 C     65  47   1     2.677066005976   119.13536886   200.94005544
 C     66  65  47     2.576914349434   120.16569787   175.87212773
 C     67  66  65     2.668583302089   120.90990617     0.05328669
 C     68  67  66     2.663615085564   122.05942670   182.11614964
 C     69  68  67     2.578797526483   120.94405291   179.92744261
 C     70  69  68     2.674542455684   120.83987787     0.57583625
 C     71  70  69     2.602367163199   119.22590178   359.04412942
 C     72  71  70     2.665803643308   121.04073338     0.22893448
 C     65  47   1     2.607985185525   120.75919807    18.41163158
 H     66  65  47     2.040472000249   119.06403067   356.45504434
 H     67  66  65     2.041761184250   120.36209784   180.55190169
 H     69  68  67     2.041059464982   118.72816709     0.31793719
 H     70  69  68     2.038787123222   119.47888384   182.10000953
 H     72  71  70     2.039135768376   120.74333976   178.07447381
 H     74  65  47     2.038951027935   120.09857763     3.36539215
 C     71  70  69     2.777078961318   118.75304806   178.80076708
 C     81  71  70     2.643601871726   120.72684499   325.21075381
 C     82  81  71     2.616204973140   119.90262563   177.24141669
 C     83  82  81     2.613240258314   118.91580279     0.91049550
 N     84  83  82     2.527272777579   121.41917478     1.02733077
 C     85  84  83     2.515967614041   120.18450019   358.23135392
 H     82  81  71     2.038294278813   120.11442114   356.50268742
 H     83  82  81     2.037043326698   120.71595899   180.76025297
 H     84  83  82     2.061225786366   121.48551571   181.24813723
 H     86  85  84     2.051426469877   116.20883983   181.56988324
 C     63  56  55    14.432036753698    86.80281157   265.20463162
 C     91  63  56     2.285656811369    63.11432613    55.90800131
 C     92  91  63     2.661617448699   177.29163632   350.70218717
 C     93  92  91     2.614145221157   121.44839789   203.49579310
 C     94  93  92     2.645936640495   120.98226162   179.01717980
 C     95  94  93     2.590967915418   121.07785013   359.67758693
 C     96  95  94     2.667658380628   119.73095235     0.26343832
 C     97  96  95     2.659526697531   122.56506857   180.28115572
 N     98  97  96     2.489493995302   122.59663756   180.29033941
 C     99  98  97     2.561092795674   120.13311398   359.85627596
 C    100  99  98     2.579828219294   121.86895092   359.73236049
 C    101 100  99     2.661987930540   119.80135361     0.36801124
 H     94  93  92     2.040114875112   119.43996331   359.02609772
 H     95  94  93     2.039472307258   118.86581317   179.86590374
 H     96  95  94     2.037811926028   120.67755693   180.29271555
 H     98  97  96     2.057066094153   120.38250882     0.30464904
 H    100  99  98     2.051659972389   116.06913496   179.89241785
 H    101 100  99     2.037079772547   121.12094615   180.48901253
 C     91  63  56     2.664797038056   115.47814766   238.10920808
 C    109  91  63     2.676493741464   119.59818970   143.62511019
 C    110 109  91     2.578203623282   120.18971876   183.37859119
 C    111 110 109     2.668568996826   120.94070499     0.00000000
 C    112 111 110     2.664417906644   122.28001226   177.91510930
 C    113 112 111     2.579884362883   121.02368608   180.67963080
 C    114 113 112     2.673835330626   120.81989270   359.35345988
 C    115 114 113     2.602760149103   119.12750195     0.34548272
 C    116 115 114     2.663892994761   121.16836474     0.52715864
 C    109  91  63     2.607233074734   120.35589468   325.45419843
 H    110 109  91     2.040569033183   119.08810527     2.79766078
 H    111 110 109     2.041792692458   120.32169365   179.49319845
 H    113 112 111     2.041257765273   118.70239478     0.10152640
 H    114 113 112     2.038654797073   119.48468880   177.75522887
 H    116 115 114     2.038729119376   120.87117529   182.37421360
 H    118 109  91     2.039222804334   120.04141862   356.92949752
 C    115 114 113     2.777187033256   119.29060944   179.73490278
 C    125 115 114     2.645200720569   121.54811551    34.01140056
 C    126 125 115     2.615727985518   119.86187796   182.49982925
 C    127 126 125     2.616013521004   119.09454133   359.29445810
 N    128 127 126     2.520791001817   121.26643723   359.23489505
 C    129 128 127     2.520460108596   120.21095028     1.35254823
 H    126 125 115     2.038179564243   120.12539596     3.29630411
 H    127 126 125     2.037081972601   120.70629526   179.45465483
 H    128 127 126     2.053432050765   121.73189840   179.45846146
 H    130 129 128     2.057330678118   116.07867550   178.35884078
 C    107 100  99    12.394578641901    94.19581153   262.48399890
 C    135 107 100     2.286060088608    70.96756242    53.77426185
 C    136 135 107     2.660761467287   174.01404248   349.59098269
 C    137 136 135     2.614025101224   122.20664723   215.29329921
 C    138 137 136     2.645837332038   120.83963242   176.41894087
 C    139 138 137     2.592571537648   121.17875063   358.69130377
 C    140 139 138     2.666250825538   119.73223116     1.51396903
 C    141 140 139     2.664884490821   122.75043557   182.49806038
 N    142 141 140     2.483836031798   122.57040105   180.36703045
 C    143 142 141     2.569748681239   120.01754054     1.84744170
 C    144 143 142     2.577310766048   121.94016137   356.43047024
 C    145 144 143     2.663400480410   119.66381489     1.09747653
 H    138 137 136     2.039880838829   119.55180237   356.86050900
 H    139 138 137     2.039687315644   118.84019393   179.66899770
 H    140 139 138     2.037879839220   120.66791121   181.53813801
 H    142 141 140     2.051169977264   120.21456672     0.82380882
 H    144 143 142     2.063056256223   116.30186573   176.42227177
 H    145 144 143     2.036989182634   121.33517408   181.39025919
 C    135 107 100     2.664049994608   108.41936690   235.50327579
 C    153 135 107     2.675890914044   119.68803373   149.79973358
 C    154 153 135     2.577513260305   120.12631600   182.14888453
 C    155 154 153     2.668717365038   120.96866951   359.71838445
 C    156 155 154     2.664262999331   122.04245666   179.67708913
 C    157 156 155     2.578929991047   120.89150418   178.69492451
 C    158 157 156     2.673698512461   120.75641479     0.40426915
 C    159 158 157     2.599856157497   119.45721044     0.83502537
 C    160 159 158     2.666865412962   120.87069700   358.74473713
 C    153 135 107     2.608779083423   120.24542527   331.25569927
 H    154 153 135     2.040437076365   119.09330379     1.91577798
 H    155 154 153     2.041815691482   120.32478052   179.76830713
 H    157 156 155     2.040970530198   118.73418603   359.00397191
 H    158 157 156     2.039211841861   119.71221659   179.03936460
 H    160 159 158     2.039270996490   120.62192273   181.61473119
 H    162 153 135     2.039102205127   120.08275631   358.03209751
 C    159 158 157     2.778652728988   118.51098153   182.28305886
 C    169 159 158     2.642444285286   120.08508825    39.70768941
 C    170 169 159     2.615989959636   119.79754242   181.60822313
 C    171 170 169     2.612966590006   118.84402664     0.13872474
 N    172 171 170     2.528643245923   121.59645185   359.04744708
 C    173 172 171     2.517868299717   120.07674865     0.67712925
 H    170 169 159     2.038490833505   119.97162268     2.47102419
 H    171 170 169     2.037059963196   120.78918229   179.98884768
 H    172 171 170     2.060819580043   121.28982071   179.24981749
 H    174 173 172     2.050574846920   116.27796269   179.17788814

---------------------
BASIS SET INFORMATION
---------------------
There are 4 groups of distinct atoms

 Group   1 Type Pd  : 7s7p6d contracted to 6s4p3d pattern {211111/4111/411}
 Group   2 Type C   : 11s6p1d contracted to 5s3p1d pattern {62111/411/1}
 Group   3 Type N   : 11s6p1d contracted to 5s3p1d pattern {62111/411/1}
 Group   4 Type H   : 5s contracted to 3s pattern {311}

Atom   0Pd   basis set group =>   1
Atom   1Pd   basis set group =>   1
Atom   2C    basis set group =>   2
Atom   3C    basis set group =>   2
Atom   4C    basis set group =>   2
Atom   5C    basis set group =>   2
Atom   6C    basis set group =>   2
Atom   7C    basis set group =>   2
Atom   8C    basis set group =>   2
Atom   9C    basis set group =>   2
Atom  10N    basis set group =>   3
Atom  11C    basis set group =>   2
Atom  12C    basis set group =>   2
Atom  13C    basis set group =>   2
Atom  14H    basis set group =>   4
Atom  15H    basis set group =>   4
Atom  16H    basis set group =>   4
Atom  17H    basis set group =>   4
Atom  18H    basis set group =>   4
Atom  19H    basis set group =>   4
Atom  20C    basis set group =>   2
Atom  21C    basis set group =>   2
Atom  22C    basis set group =>   2
Atom  23C    basis set group =>   2
Atom  24C    basis set group =>   2
Atom  25C    basis set group =>   2
Atom  26C    basis set group =>   2
Atom  27C    basis set group =>   2
Atom  28C    basis set group =>   2
Atom  29C    basis set group =>   2
Atom  30H    basis set group =>   4
Atom  31H    basis set group =>   4
Atom  32H    basis set group =>   4
Atom  33H    basis set group =>   4
Atom  34H    basis set group =>   4
Atom  35H    basis set group =>   4
Atom  36C    basis set group =>   2
Atom  37C    basis set group =>   2
Atom  38C    basis set group =>   2
Atom  39C    basis set group =>   2
Atom  40N    basis set group =>   3
Atom  41C    basis set group =>   2
Atom  42H    basis set group =>   4
Atom  43H    basis set group =>   4
Atom  44H    basis set group =>   4
Atom  45H    basis set group =>   4
Atom  46C    basis set group =>   2
Atom  47C    basis set group =>   2
Atom  48C    basis set group =>   2
Atom  49C    basis set group =>   2
Atom  50C    basis set group =>   2
Atom  51C    basis set group =>   2
Atom  52C    basis set group =>   2
Atom  53C    basis set group =>   2
Atom  54N    basis set group =>   3
Atom  55C    basis set group =>   2
Atom  56C    basis set group =>   2
Atom  57C    basis set group =>   2
Atom  58H    basis set group =>   4
Atom  59H    basis set group =>   4
Atom  60H    basis set group =>   4
Atom  61H    basis set group =>   4
Atom  62H    basis set group =>   4
Atom  63H    basis set group =>   4
Atom  64C    basis set group =>   2
Atom  65C    basis set group =>   2
Atom  66C    basis set group =>   2
Atom  67C    basis set group =>   2
Atom  68C    basis set group =>   2
Atom  69C    basis set group =>   2
Atom  70C    basis set group =>   2
Atom  71C    basis set group =>   2
Atom  72C    basis set group =>   2
Atom  73C    basis set group =>   2
Atom  74H    basis set group =>   4
Atom  75H    basis set group =>   4
Atom  76H    basis set group =>   4
Atom  77H    basis set group =>   4
Atom  78H    basis set group =>   4
Atom  79H    basis set group =>   4
Atom  80C    basis set group =>   2
Atom  81C    basis set group =>   2
Atom  82C    basis set group =>   2
Atom  83C    basis set group =>   2
Atom  84N    basis set group =>   3
Atom  85C    basis set group =>   2
Atom  86H    basis set group =>   4
Atom  87H    basis set group =>   4
Atom  88H    basis set group =>   4
Atom  89H    basis set group =>   4
Atom  90C    basis set group =>   2
Atom  91C    basis set group =>   2
Atom  92C    basis set group =>   2
Atom  93C    basis set group =>   2
Atom  94C    basis set group =>   2
Atom  95C    basis set group =>   2
Atom  96C    basis set group =>   2
Atom  97C    basis set group =>   2
Atom  98N    basis set group =>   3
Atom  99C    basis set group =>   2
Atom 100C    basis set group =>   2
Atom 101C    basis set group =>   2
Atom 102H    basis set group =>   4
Atom 103H    basis set group =>   4
Atom 104H    basis set group =>   4
Atom 105H    basis set group =>   4
Atom 106H    basis set group =>   4
Atom 107H    basis set group =>   4
Atom 108C    basis set group =>   2
Atom 109C    basis set group =>   2
Atom 110C    basis set group =>   2
Atom 111C    basis set group =>   2
Atom 112C    basis set group =>   2
Atom 113C    basis set group =>   2
Atom 114C    basis set group =>   2
Atom 115C    basis set group =>   2
Atom 116C    basis set group =>   2
Atom 117C    basis set group =>   2
Atom 118H    basis set group =>   4
Atom 119H    basis set group =>   4
Atom 120H    basis set group =>   4
Atom 121H    basis set group =>   4
Atom 122H    basis set group =>   4
Atom 123H    basis set group =>   4
Atom 124C    basis set group =>   2
Atom 125C    basis set group =>   2
Atom 126C    basis set group =>   2
Atom 127C    basis set group =>   2
Atom 128N    basis set group =>   3
Atom 129C    basis set group =>   2
Atom 130H    basis set group =>   4
Atom 131H    basis set group =>   4
Atom 132H    basis set group =>   4
Atom 133H    basis set group =>   4
Atom 134C    basis set group =>   2
Atom 135C    basis set group =>   2
Atom 136C    basis set group =>   2
Atom 137C    basis set group =>   2
Atom 138C    basis set group =>   2
Atom 139C    basis set group =>   2
Atom 140C    basis set group =>   2
Atom 141C    basis set group =>   2
Atom 142N    basis set group =>   3
Atom 143C    basis set group =>   2
Atom 144C    basis set group =>   2
Atom 145C    basis set group =>   2
Atom 146H    basis set group =>   4
Atom 147H    basis set group =>   4
Atom 148H    basis set group =>   4
Atom 149H    basis set group =>   4
Atom 150H    basis set group =>   4
Atom 151H    basis set group =>   4
Atom 152C    basis set group =>   2
Atom 153C    basis set group =>   2
Atom 154C    basis set group =>   2
Atom 155C    basis set group =>   2
Atom 156C    basis set group =>   2
Atom 157C    basis set group =>   2
Atom 158C    basis set group =>   2
Atom 159C    basis set group =>   2
Atom 160C    basis set group =>   2
Atom 161C    basis set group =>   2
Atom 162H    basis set group =>   4
Atom 163H    basis set group =>   4
Atom 164H    basis set group =>   4
Atom 165H    basis set group =>   4
Atom 166H    basis set group =>   4
Atom 167H    basis set group =>   4
Atom 168C    basis set group =>   2
Atom 169C    basis set group =>   2
Atom 170C    basis set group =>   2
Atom 171C    basis set group =>   2
Atom 172N    basis set group =>   3
Atom 173C    basis set group =>   2
Atom 174H    basis set group =>   4
Atom 175H    basis set group =>   4
Atom 176H    basis set group =>   4
Atom 177H    basis set group =>   4

-------------------------
BASIS SET IN INPUT FORMAT
-------------------------

 # Basis set for element : H 
 NewGTO H 
 S 3 
   1      34.0613410000      0.0254393072
   2       5.1235746000      0.1900859489
   3       1.1646626000      0.8524411301
 S 1 
   1       0.3272304100      1.0000000000
 S 1 
   1       0.1030724100      1.0000000000
  end;

 # Basis set for element : C 
 NewGTO C 
 S 6 
   1   13575.3496820000      0.0006064549
   2    2035.2333680000      0.0046979088
   3     463.2256235900      0.0243324776
   4     131.2001959800      0.0973999683
   5      42.8530158910      0.3019558425
   6      15.5841857660      0.6623360915
 S 2 
   1       6.2067138508      0.6559530854
   2       2.5764896527      0.3758563329
 S 1 
   1       0.5769633942      1.0000000000
 S 1 
   1       0.2297283136      1.0000000000
 S 1 
   1       0.0951644400      1.0000000000
 P 4 
   1      34.6972322440      0.0113272200
   2       7.9582622826      0.0761696592
   3       2.3780826883      0.3019225220
   4       0.8143320818      0.7278502735
 P 1 
   1       0.2888754725      1.0000000000
 P 1 
   1       0.1005682367      1.0000000000
 D 1 
   1       0.8000000000      1.0000000000
  end;

 # Basis set for element : N 
 NewGTO N 
 S 6 
   1   19730.8006470000      0.0005862639
   2    2957.8958745000      0.0045428821
   3     673.2213359500      0.0235584136
   4     190.6824949400      0.0947091933
   5      62.2954418980      0.2971978492
   6      22.6541611820      0.6691624689
 S 2 
   1       8.9791477428      0.6459668363
   2       3.6863002370      0.3870057440
 S 1 
   1       0.8466007680      1.0000000000
 S 1 
   1       0.3364713377      1.0000000000
 S 1 
   1       0.1364765367      1.0000000000
 P 4 
   1      49.2003805100      0.0114488252
   2      11.3467905370      0.0784223379
   3       3.4273972411      0.3081809474
   4       1.1785525134      0.7202719637
 P 1 
   1       0.4164220497      1.0000000000
 P 1 
   1       0.1426082601      1.0000000000
 D 1 
   1       0.8000000000      1.0000000000
  end;

 # Basis set for element : Pd
 NewGTO Pd
 S 2 
   1      18.0000000000     -0.8955869481
   2      14.6621343080      1.8822771923
 S 1 
   1       5.6388709265      1.0000000000
 S 1 
   1       1.3198953252      1.0000000000
 S 1 
   1       0.5781790851      1.0000000000
 S 1 
   1       0.1035216624      1.0000000000
 S 1 
   1       0.0375484427      1.0000000000
 P 4 
   1      12.5528993000      0.0701895210
   2       7.2444496380     -0.2749252830
   3       1.8905941078      0.5623121361
   4       0.9073716876      0.5736959368
 P 1 
   1       0.4087721081      1.0000000000
 P 1 
   1       0.1150000000      1.0000000000
 P 1 
   1       0.0370000000      1.0000000000
 D 4 
   1      22.3574575750      0.0063445039
   2      10.6825263820     -0.0225156052
   3       2.4858232550      0.3884291800
   4       1.0735333903      0.6828976806
 D 1 
   1       0.4261384285      1.0000000000
 D 1 
   1       0.1504635538      1.0000000000
  end;

---------------------------------
AUXILIARY/J BASIS SET INFORMATION
---------------------------------
There are 4 groups of distinct atoms

 Group   1 Type Pd  : 11s5p5d3f3g contracted to 8s5p5d2f3g pattern {41111111/11111/11111/21/111}
 Group   2 Type C   : 8s3p3d contracted to 6s3p3d pattern {311111/111/111}
 Group   3 Type N   : 8s3p3d contracted to 6s3p3d pattern {311111/111/111}
 Group   4 Type H   : 5s2p contracted to 3s1p pattern {311/2}

Atom   0Pd   basis set group =>   1
Atom   1Pd   basis set group =>   1
Atom   2C    basis set group =>   2
Atom   3C    basis set group =>   2
Atom   4C    basis set group =>   2
Atom   5C    basis set group =>   2
Atom   6C    basis set group =>   2
Atom   7C    basis set group =>   2
Atom   8C    basis set group =>   2
Atom   9C    basis set group =>   2
Atom  10N    basis set group =>   3
Atom  11C    basis set group =>   2
Atom  12C    basis set group =>   2
Atom  13C    basis set group =>   2
Atom  14H    basis set group =>   4
Atom  15H    basis set group =>   4
Atom  16H    basis set group =>   4
Atom  17H    basis set group =>   4
Atom  18H    basis set group =>   4
Atom  19H    basis set group =>   4
Atom  20C    basis set group =>   2
Atom  21C    basis set group =>   2
Atom  22C    basis set group =>   2
Atom  23C    basis set group =>   2
Atom  24C    basis set group =>   2
Atom  25C    basis set group =>   2
Atom  26C    basis set group =>   2
Atom  27C    basis set group =>   2
Atom  28C    basis set group =>   2
Atom  29C    basis set group =>   2
Atom  30H    basis set group =>   4
Atom  31H    basis set group =>   4
Atom  32H    basis set group =>   4
Atom  33H    basis set group =>   4
Atom  34H    basis set group =>   4
Atom  35H    basis set group =>   4
Atom  36C    basis set group =>   2
Atom  37C    basis set group =>   2
Atom  38C    basis set group =>   2
Atom  39C    basis set group =>   2
Atom  40N    basis set group =>   3
Atom  41C    basis set group =>   2
Atom  42H    basis set group =>   4
Atom  43H    basis set group =>   4
Atom  44H    basis set group =>   4
Atom  45H    basis set group =>   4
Atom  46C    basis set group =>   2
Atom  47C    basis set group =>   2
Atom  48C    basis set group =>   2
Atom  49C    basis set group =>   2
Atom  50C    basis set group =>   2
Atom  51C    basis set group =>   2
Atom  52C    basis set group =>   2
Atom  53C    basis set group =>   2
Atom  54N    basis set group =>   3
Atom  55C    basis set group =>   2
Atom  56C    basis set group =>   2
Atom  57C    basis set group =>   2
Atom  58H    basis set group =>   4
Atom  59H    basis set group =>   4
Atom  60H    basis set group =>   4
Atom  61H    basis set group =>   4
Atom  62H    basis set group =>   4
Atom  63H    basis set group =>   4
Atom  64C    basis set group =>   2
Atom  65C    basis set group =>   2
Atom  66C    basis set group =>   2
Atom  67C    basis set group =>   2
Atom  68C    basis set group =>   2
Atom  69C    basis set group =>   2
Atom  70C    basis set group =>   2
Atom  71C    basis set group =>   2
Atom  72C    basis set group =>   2
Atom  73C    basis set group =>   2
Atom  74H    basis set group =>   4
Atom  75H    basis set group =>   4
Atom  76H    basis set group =>   4
Atom  77H    basis set group =>   4
Atom  78H    basis set group =>   4
Atom  79H    basis set group =>   4
Atom  80C    basis set group =>   2
Atom  81C    basis set group =>   2
Atom  82C    basis set group =>   2
Atom  83C    basis set group =>   2
Atom  84N    basis set group =>   3
Atom  85C    basis set group =>   2
Atom  86H    basis set group =>   4
Atom  87H    basis set group =>   4
Atom  88H    basis set group =>   4
Atom  89H    basis set group =>   4
Atom  90C    basis set group =>   2
Atom  91C    basis set group =>   2
Atom  92C    basis set group =>   2
Atom  93C    basis set group =>   2
Atom  94C    basis set group =>   2
Atom  95C    basis set group =>   2
Atom  96C    basis set group =>   2
Atom  97C    basis set group =>   2
Atom  98N    basis set group =>   3
Atom  99C    basis set group =>   2
Atom 100C    basis set group =>   2
Atom 101C    basis set group =>   2
Atom 102H    basis set group =>   4
Atom 103H    basis set group =>   4
Atom 104H    basis set group =>   4
Atom 105H    basis set group =>   4
Atom 106H    basis set group =>   4
Atom 107H    basis set group =>   4
Atom 108C    basis set group =>   2
Atom 109C    basis set group =>   2
Atom 110C    basis set group =>   2
Atom 111C    basis set group =>   2
Atom 112C    basis set group =>   2
Atom 113C    basis set group =>   2
Atom 114C    basis set group =>   2
Atom 115C    basis set group =>   2
Atom 116C    basis set group =>   2
Atom 117C    basis set group =>   2
Atom 118H    basis set group =>   4
Atom 119H    basis set group =>   4
Atom 120H    basis set group =>   4
Atom 121H    basis set group =>   4
Atom 122H    basis set group =>   4
Atom 123H    basis set group =>   4
Atom 124C    basis set group =>   2
Atom 125C    basis set group =>   2
Atom 126C    basis set group =>   2
Atom 127C    basis set group =>   2
Atom 128N    basis set group =>   3
Atom 129C    basis set group =>   2
Atom 130H    basis set group =>   4
Atom 131H    basis set group =>   4
Atom 132H    basis set group =>   4
Atom 133H    basis set group =>   4
Atom 134C    basis set group =>   2
Atom 135C    basis set group =>   2
Atom 136C    basis set group =>   2
Atom 137C    basis set group =>   2
Atom 138C    basis set group =>   2
Atom 139C    basis set group =>   2
Atom 140C    basis set group =>   2
Atom 141C    basis set group =>   2
Atom 142N    basis set group =>   3
Atom 143C    basis set group =>   2
Atom 144C    basis set group =>   2
Atom 145C    basis set group =>   2
Atom 146H    basis set group =>   4
Atom 147H    basis set group =>   4
Atom 148H    basis set group =>   4
Atom 149H    basis set group =>   4
Atom 150H    basis set group =>   4
Atom 151H    basis set group =>   4
Atom 152C    basis set group =>   2
Atom 153C    basis set group =>   2
Atom 154C    basis set group =>   2
Atom 155C    basis set group =>   2
Atom 156C    basis set group =>   2
Atom 157C    basis set group =>   2
Atom 158C    basis set group =>   2
Atom 159C    basis set group =>   2
Atom 160C    basis set group =>   2
Atom 161C    basis set group =>   2
Atom 162H    basis set group =>   4
Atom 163H    basis set group =>   4
Atom 164H    basis set group =>   4
Atom 165H    basis set group =>   4
Atom 166H    basis set group =>   4
Atom 167H    basis set group =>   4
Atom 168C    basis set group =>   2
Atom 169C    basis set group =>   2
Atom 170C    basis set group =>   2
Atom 171C    basis set group =>   2
Atom 172N    basis set group =>   3
Atom 173C    basis set group =>   2
Atom 174H    basis set group =>   4
Atom 175H    basis set group =>   4
Atom 176H    basis set group =>   4
Atom 177H    basis set group =>   4

-------------------------------------
AUXILIARY/J BASIS SET IN INPUT FORMAT
-------------------------------------

 # Auxiliary/J basis set for element : H 
 NewAuxJGTO H 
 S 3 
   1      15.6752927000      0.1007184237
   2       3.6063578000      0.3404257499
   3       1.2080016000      0.6491996172
 S 1 
   1       0.4726794000      1.0000000000
 S 1 
   1       0.2018100000      1.0000000000
 P 2 
   1       2.0281365000      0.5596620919
   2       0.5358730000      0.5596620919
  end;

 # Auxiliary/J basis set for element : C 
 NewAuxJGTO C 
 S 3 
   1     459.7023860000      0.1098751775
   2     132.9577920000      0.2844848472
   3      41.5658170000      0.6964707648
 S 1 
   1      13.9155610000      1.0000000000
 S 1 
   1       4.9305290000     -1.0000000000
 S 1 
   1       1.8229480000      1.0000000000
 S 1 
   1       0.6920510000      1.0000000000
 S 1 
   1       0.2650930000      1.0000000000
 P 1 
   1       0.3278473579      1.0000000000
 P 1 
   1       0.7868336591      1.0000000000
 P 1 
   1       1.9710183160      1.0000000000
 D 1 
   1       4.0133010000      1.0000000000
 D 1 
   1       1.2475050000      1.0000000000
 D 1 
   1       0.4081480000      1.0000000000
  end;

 # Auxiliary/J basis set for element : N 
 NewAuxJGTO N 
 S 3 
   1     680.5425300000      0.1043830093
   2     196.7562140000      0.2751518961
   3      61.2707930000      0.7090825511
 S 1 
   1      20.3644630000      1.0000000000
 S 1 
   1       7.1424770000     -1.0000000000
 S 1 
   1       2.6080260000      1.0000000000
 S 1 
   1       0.9763730000      1.0000000000
 S 1 
   1       0.3686330000      1.0000000000
 P 1 
   1       0.4707391941      1.0000000000
 P 1 
   1       1.1297740658     -1.0000000000
 P 1 
   1       2.8300840347      1.0000000000
 D 1 
   1       5.8329865000      1.0000000000
 D 1 
   1       1.7326865000      1.0000000000
 D 1 
   1       0.5452425000      1.0000000000
  end;

 # Auxiliary/J basis set for element : Pd
 NewAuxJGTO Pd
 S 4 
   1      51.0211803000      0.0154414011
   2      17.6543867000     -0.3899991562
   3      10.3849330000      1.7000917225
   4       6.2315704000     -2.2542519748
 S 1 
   1       3.6656295000     -1.0000000000
 S 1 
   1       2.1995933000      1.0000000000
 S 1 
   1       1.2683839000      1.0000000000
 S 1 
   1       0.7461081000      1.0000000000
 S 1 
   1       0.4477087000      1.0000000000
 S 1 
   1       0.2581689000      1.0000000000
 S 1 
   1       0.1518640000      1.0000000000
 P 1 
   1       5.6999676000      1.0000000000
 P 1 
   1       2.5155374000     -1.0000000000
 P 1 
   1       1.1229524000      1.0000000000
 P 1 
   1       0.5047808000     -1.0000000000
 P 1 
   1       0.2274325000     -1.0000000000
 D 1 
   1       3.8006002000      1.0000000000
 D 1 
   1       1.5882692000     -1.0000000000
 D 1 
   1       0.6550157000     -1.0000000000
 D 1 
   1       0.2680210000      1.0000000000
 D 1 
   1       0.1093843000     -1.0000000000
 F 2 
   1       2.0106185000     -1.3134732431
   2       0.8268460000      0.9210621264
 F 1 
   1       0.3451253000      1.0000000000
 G 1 
   1       7.5375072000      1.0000000000
 G 1 
   1       2.7664349000      1.0000000000
 G 1 
   1       1.0133462000      1.0000000000
  end;

-------------------------
ECP PARAMETER INFORMATION
-------------------------

 Group 1, Type Pd ECP Def2-ECP (replacing 28 core electrons, lmax=3)

Atom   0Pd   ECP group =>   1
Atom   1Pd   ECP group =>   1


-------------------------
ECP BASIS IN INPUT FORMAT
-------------------------

 #ECP Def2-ECP
 NewECP Pd
   N_core 28
   lmax f
   s 4
     1      12.4300000000    240.2290403000  2
     2       6.1707594000     35.1719435000  2
     3      13.2700000000     31.9295543000  2
     4       6.6300000000      5.3982169000  2
   p 4
     1      11.0800000000    170.4172760000  2
     2       5.8295541000     28.4721329000  2
     3      13.2700000000     31.9295543000  2
     4       6.6300000000      5.3982169000  2
   d 4
     1       9.5100000000     69.0138449000  2
     2       4.1397811000     11.7508616000  2
     3      13.2700000000     31.9295543000  2
     4       6.6300000000      5.3982169000  2
   f 2
     1      13.2700000000    -31.9295543000  2
     2       6.6300000000     -5.3982169000  2
 End




           ************************************************************
           *        Program running with 32 parallel MPI-processes    *
           *              working on a common directory               *
           ************************************************************
------------------------------------------------------------------------------
                           ORCA GTO INTEGRAL CALCULATION
                           -- RI-GTO INTEGRALS CHOSEN --
------------------------------------------------------------------------------

                         BASIS SET STATISTICS AND STARTUP INFO

Gaussian basis set:
 # of primitive gaussian shells          ... 2376
 # of primitive gaussian functions       ... 4244
 # of contracted shells                  ... 1226
 # of contracted basis functions         ... 2386
 Highest angular momentum                ...    2
 Maximum contraction depth               ...    6
Auxiliary gaussian basis set:
 # of primitive gaussian shells          ... 2070
 # of primitive gaussian functions       ... 4486
 # of contracted shells                  ... 1646
 # of contracted aux-basis functions     ... 3922
 Highest angular momentum                ...    4
 Maximum contraction depth               ...    4
Ratio of auxiliary to basis functions    ...  1.64
Integral package used                  ... LIBINT
 One Electron integrals                  
   ECP integrals                         ... done
 Ordering auxiliary basis shells         ... done
 Integral threshhold             Thresh  ...  2.500e-11
 Primitive cut-off               TCut    ...  2.500e-12
 Pre-screening matrix                    ... done
 Shell pair data                         ... 
 Ordering of the shell pairs             ... done (   0.049 sec) 225096 of 752151 pairs
 Determination of significant pairs      ... done (   0.001 sec)
 Creation of shell pair data             ... done (   0.022 sec)
 Storage of shell pair data              ... done (   0.040 sec)
 Shell pair data done in (   0.112 sec)
 Computing two index integrals           ... done
 Cholesky decomposition of the V-matrix  ... done


Timings:
 Total evaluation time                   ...   9.968 sec (  0.166 min)
 One electron matrix time                ...   5.910 sec (  0.099 min) = 59.3%
 Schwartz matrix evaluation time         ...   2.886 sec (  0.048 min) = 29.0%
 Two index repulsion integral time       ...   0.303 sec (  0.005 min) =  3.0%
 Cholesky decomposition of V             ...   0.726 sec (  0.012 min) =  7.3%
 Three index repulsion integral time     ...   0.001 sec (  0.000 min) =  0.0%



           ************************************************************
           *        Program running with 32 parallel MPI-processes    *
           *              working on a common directory               *
           ************************************************************
-------------------------------------------------------------------------------
                                 ORCA SCF
-------------------------------------------------------------------------------

------------
SCF SETTINGS
------------
Hamiltonian:
 Density Functional     Method          .... DFT(GTOs)
 Exchange Functional    Exchange        .... B973C
 Correlation Functional Correlation     .... B973C
 Gradients option       PostSCFGGA      .... off
   Density functional embedding theory  .... OFF
 RI-approximation to the Coulomb term is turned on
   Number of auxiliary basis functions  .... 3922


General Settings:
 Integral files         IntName         .... _s_5a1_b_B97-3c
 Hartree-Fock type      HFTyp           .... RHF
 Total Charge           Charge          ....    4
 Multiplicity           Mult            ....    1
 Number of Electrons    NEL             ....  776
 Basis Dimension        Dim             .... 2386
 Nuclear Repulsion      ENuc            ....  21865.5087828687 Eh

Convergence Acceleration:
 DIIS                   CNVDIIS         .... on
   Start iteration      DIISMaxIt       ....     0
   Startup error        DIISStart       ....  0.200000
   # of expansion vecs  DIISMaxEq       ....     5
   Bias factor          DIISBfac        ....   1.050
   Max. coefficient     DIISMaxC        ....  10.000
 Newton-Raphson         CNVNR           .... off
 SOSCF                  CNVSOSCF        .... off
 Level Shifting         CNVShift        .... on
   Level shift para.    LevelShift      ....    0.2500
   Turn off err/grad.   ShiftErr        ....    0.0000
 Zerner damping         CNVZerner       .... off
 Static damping         CNVDamp         .... on
   Fraction old density DampFac         ....    0.8500
   Max. Damping (<1)    DampMax         ....    0.9800
   Min. Damping (>=0)   DampMin         ....    0.0000
   Turn off err/grad.   DampErr         ....    0.0300
 Fernandez-Rico         CNVRico         .... off

SCF Procedure:
 Maximum # iterations   MaxIter         ....  2000
 SCF integral mode      SCFMode         .... Direct
   Integral package                     .... LIBINT
 Reset frequency        DirectResetFreq ....    20
 Integral Threshold     Thresh          ....  2.500e-11 Eh
 Primitive CutOff       TCut            ....  2.500e-12 Eh

Convergence Tolerance:
 Convergence Check Mode ConvCheckMode   .... Total+1el-Energy
 Convergence forced     ConvForced      .... 0
 Energy Change          TolE            ....  1.000e-08 Eh
 1-El. energy change                    ....  1.000e-05 Eh
 DIIS Error             TolErr          ....  5.000e-07


Diagonalization of the overlap matrix:
Smallest eigenvalue                        ... 5.855e-06
Time for diagonalization                   ...    0.763 sec
Threshold for overlap eigenvalues          ... 1.000e-08
[...]
 65 C      6.1801     6.0000    -0.1801     3.8761     3.8761    -0.0000
 66 C      6.2330     6.0000    -0.2330     3.9244     3.9244    -0.0000
 67 C      5.8457     6.0000     0.1543     3.5887     3.5887    -0.0000
 68 C      6.2818     6.0000    -0.2818     4.1109     4.1109    -0.0000
 69 C      6.1736     6.0000    -0.1736     3.9926     3.9926    -0.0000
 70 C      6.0436     6.0000    -0.0436     3.6834     3.6834    -0.0000
 71 C      6.2853     6.0000    -0.2853     3.7302     3.7302    -0.0000
 72 C      5.7002     6.0000     0.2998     3.7117     3.7117    -0.0000
 73 C      6.2966     6.0000    -0.2966     3.5531     3.5531    -0.0000
 74 H      0.7688     1.0000     0.2312     0.9090     0.9090    -0.0000
 75 H      0.7690     1.0000     0.2310     0.9025     0.9025    -0.0000
 76 H      0.7692     1.0000     0.2308     0.9050     0.9050    -0.0000
 77 H      0.7653     1.0000     0.2347     0.9053     0.9053    -0.0000
 78 H      0.7905     1.0000     0.2095     0.8869     0.8869    -0.0000
 79 H      0.8286     1.0000     0.1714     0.9009     0.9009    -0.0000
 80 C      5.9918     6.0000     0.0082     3.7769     3.7769    -0.0000
 81 C      6.1735     6.0000    -0.1735     4.0077     4.0077    -0.0000
 82 C      6.0473     6.0000    -0.0473     3.9150     3.9150    -0.0000
 83 C      6.1412     6.0000    -0.1412     3.9562     3.9562    -0.0000
 84 N      7.0657     7.0000    -0.0657     3.3135     3.3135    -0.0000
 85 C      6.1062     6.0000    -0.1062     3.8628     3.8628    -0.0000
 86 H      0.7370     1.0000     0.2630     0.8973     0.8973    -0.0000
 87 H      0.7564     1.0000     0.2436     0.9135     0.9135    -0.0000
 88 H      0.8099     1.0000     0.1901     0.9491     0.9491    -0.0000
 89 H      0.8081     1.0000     0.1919     0.9475     0.9475    -0.0000
 90 C      5.9749     6.0000     0.0251     3.2637     3.2637    -0.0000
 91 C      5.9315     6.0000     0.0685     2.9929     2.9929    -0.0000
 92 C      6.2200     6.0000    -0.2200     3.7131     3.7131    -0.0000
 93 C      6.0850     6.0000    -0.0850     3.8117     3.8117    -0.0000
 94 C      6.1843     6.0000    -0.1843     4.1543     4.1543    -0.0000
 95 C      6.2293     6.0000    -0.2293     3.9341     3.9341    -0.0000
 96 C      5.8025     6.0000     0.1975     3.4182     3.4182    -0.0000
 97 C      6.2466     6.0000    -0.2466     3.7604     3.7604    -0.0000
 98 N      7.0799     7.0000    -0.0799     3.2858     3.2858    -0.0000
 99 C      6.1241     6.0000    -0.1241     3.9624     3.9624    -0.0000
100 C      6.0036     6.0000    -0.0036     3.6603     3.6603    -0.0000
101 C      5.8155     6.0000     0.1845     3.4092     3.4092    -0.0000
102 H      0.7453     1.0000     0.2547     0.8965     0.8965    -0.0000
103 H      0.7752     1.0000     0.2248     0.9255     0.9255    -0.0000
104 H      0.7694     1.0000     0.2306     0.9034     0.9034    -0.0000
105 H      0.7965     1.0000     0.2035     0.9312     0.9312    -0.0000
106 H      0.8574     1.0000     0.1426     0.9693     0.9693    -0.0000
107 H      0.8166     1.0000     0.1834     0.9340     0.9340    -0.0000
108 C      6.1618     6.0000    -0.1618     3.9130     3.9130    -0.0000
109 C      6.1699     6.0000    -0.1699     3.8733     3.8733    -0.0000
110 C      6.2319     6.0000    -0.2319     3.9218     3.9218    -0.0000
111 C      5.8410     6.0000     0.1590     3.6013     3.6013    -0.0000
112 C      6.2808     6.0000    -0.2808     4.1058     4.1058    -0.0000
113 C      6.1714     6.0000    -0.1714     3.9911     3.9911    -0.0000
114 C      6.0520     6.0000    -0.0520     3.6759     3.6759    -0.0000
115 C      6.2663     6.0000    -0.2663     3.7425     3.7425    -0.0000
116 C      5.7225     6.0000     0.2775     3.7576     3.7576    -0.0000
117 C      6.2976     6.0000    -0.2976     3.5515     3.5515    -0.0000
118 H      0.7683     1.0000     0.2317     0.9083     0.9083    -0.0000
119 H      0.7691     1.0000     0.2309     0.9026     0.9026    -0.0000
120 H      0.7694     1.0000     0.2306     0.9050     0.9050    -0.0000
121 H      0.7677     1.0000     0.2323     0.9065     0.9065    -0.0000
122 H      0.7891     1.0000     0.2109     0.8837     0.8837    -0.0000
123 H      0.8169     1.0000     0.1831     0.9030     0.9030    -0.0000
124 C      5.9627     6.0000     0.0373     3.7147     3.7147    -0.0000
125 C      6.1642     6.0000    -0.1642     4.0038     4.0038    -0.0000
126 C      6.0659     6.0000    -0.0659     3.9466     3.9466    -0.0000
127 C      6.1134     6.0000    -0.1134     3.9499     3.9499    -0.0000
128 N      7.0600     7.0000    -0.0600     3.3034     3.3034    -0.0000
129 C      6.1483     6.0000    -0.1483     3.8662     3.8662    -0.0000
130 H      0.7397     1.0000     0.2603     0.8972     0.8972    -0.0000
131 H      0.7560     1.0000     0.2440     0.9133     0.9133    -0.0000
132 H      0.8109     1.0000     0.1891     0.9564     0.9564    -0.0000
133 H      0.8100     1.0000     0.1900     0.9483     0.9483    -0.0000
134 C      6.0166     6.0000    -0.0166     3.3417     3.3417    -0.0000
135 C      5.8902     6.0000     0.1098     2.9531     2.9531    -0.0000
136 C      6.1887     6.0000    -0.1887     3.7278     3.7278    -0.0000
137 C      6.0962     6.0000    -0.0962     3.8183     3.8183    -0.0000
138 C      6.1813     6.0000    -0.1813     4.1520     4.1520    -0.0000
139 C      6.2221     6.0000    -0.2221     3.9490     3.9490    -0.0000
140 C      5.8580     6.0000     0.1420     3.4898     3.4898    -0.0000
141 C      6.2162     6.0000    -0.2162     3.8249     3.8249    -0.0000
142 N      7.0769     7.0000    -0.0769     3.3597     3.3597    -0.0000
143 C      6.1937     6.0000    -0.1937     3.9772     3.9772    -0.0000
144 C      5.9638     6.0000     0.0362     3.5841     3.5841    -0.0000
145 C      5.8283     6.0000     0.1717     3.4365     3.4365    -0.0000
146 H      0.7456     1.0000     0.2544     0.8965     0.8965    -0.0000
147 H      0.7749     1.0000     0.2251     0.9257     0.9257    -0.0000
148 H      0.7683     1.0000     0.2317     0.9038     0.9038    -0.0000
149 H      0.7918     1.0000     0.2082     0.9310     0.9310    -0.0000
150 H      0.8507     1.0000     0.1493     0.9564     0.9564    -0.0000
151 H      0.8189     1.0000     0.1811     0.9272     0.9272    -0.0000
152 C      6.1350     6.0000    -0.1350     3.8388     3.8388    -0.0000
153 C      6.1789     6.0000    -0.1789     3.8732     3.8732    -0.0000
154 C      6.2319     6.0000    -0.2319     3.9247     3.9247    -0.0000
155 C      5.8516     6.0000     0.1484     3.5772     3.5772    -0.0000
156 C      6.2737     6.0000    -0.2737     4.0805     4.0805    -0.0000
157 C      6.1867     6.0000    -0.1867     3.9966     3.9966    -0.0000
158 C      6.0295     6.0000    -0.0295     3.6983     3.6983    -0.0000
159 C      6.3141     6.0000    -0.3141     3.7647     3.7647    -0.0000
160 C      5.6827     6.0000     0.3173     3.6864     3.6864    -0.0000
161 C      6.3004     6.0000    -0.3004     3.5688     3.5688    -0.0000
162 H      0.7673     1.0000     0.2327     0.9080     0.9080    -0.0000
163 H      0.7690     1.0000     0.2310     0.9024     0.9024    -0.0000
164 H      0.7692     1.0000     0.2308     0.9046     0.9046    -0.0000
165 H      0.7653     1.0000     0.2347     0.9061     0.9061    -0.0000
166 H      0.7924     1.0000     0.2076     0.8912     0.8912    -0.0000
167 H      0.8277     1.0000     0.1723     0.8962     0.8962    -0.0000
168 C      5.9859     6.0000     0.0141     3.7484     3.7484    -0.0000
169 C      6.1773     6.0000    -0.1773     4.0181     4.0181    -0.0000
170 C      6.0522     6.0000    -0.0522     3.9170     3.9170    -0.0000
171 C      6.1350     6.0000    -0.1350     3.9625     3.9625    -0.0000
172 N      7.0735     7.0000    -0.0735     3.3056     3.3056    -0.0000
173 C      6.1067     6.0000    -0.1067     3.8568     3.8568    -0.0000
174 H      0.7352     1.0000     0.2648     0.8969     0.8969    -0.0000
175 H      0.7557     1.0000     0.2443     0.9131     0.9131    -0.0000
176 H      0.8187     1.0000     0.1813     0.9554     0.9554    -0.0000
177 H      0.8008     1.0000     0.1992     0.9443     0.9443    -0.0000

  Mayer bond orders larger than 0.100000
B(  0-Pd, 40-N ) :   0.5274 B(  0-Pd, 54-N ) :   0.5507 B(  0-Pd, 98-N ) :   0.5084 
B(  0-Pd,142-N ) :   0.5562 B(  1-Pd, 10-N ) :   0.5258 B(  1-Pd, 84-N ) :   0.5371 
B(  1-Pd,128-N ) :   0.5216 B(  1-Pd,172-N ) :   0.5207 B(  2-C ,  3-C ) :   1.8624 
B(  2-C ,  4-C ) :  -0.2876 B(  2-C , 20-C ) :   1.5388 B(  3-C ,  4-C ) :   1.4619 
B(  3-C , 13-C ) :  -0.2036 B(  3-C , 20-C ) :  -0.4009 B(  4-C ,  5-C ) :   1.5275 
B(  4-C , 12-C ) :  -0.1303 B(  4-C , 13-C ) :   1.0538 B(  5-C ,  6-C ) :   1.4132 
B(  5-C , 14-H ) :   0.8564 B(  6-C ,  7-C ) :   1.6448 B(  6-C , 15-H ) :   0.8716 
B(  7-C ,  8-C ) :   1.2880 B(  7-C , 16-H ) :   0.8646 B(  8-C ,  9-C ) :   1.2968 
B(  8-C , 13-C ) :   1.0780 B(  9-C , 10-N ) :   1.4710 B(  9-C , 13-C ) :  -0.1139 
B(  9-C , 17-H ) :   0.9019 B( 10-N , 11-C ) :   1.2656 B( 10-N ,128-N ) :   0.1011 
B( 11-C , 12-C ) :   1.4429 B( 11-C , 13-C ) :   0.1047 B( 11-C , 18-H ) :   0.9417 
B( 12-C , 13-C ) :   1.4185 B( 12-C , 19-H ) :   0.8792 B( 20-C , 21-C ) :   1.2504 
B( 20-C , 29-C ) :   1.3826 B( 21-C , 22-C ) :   1.6583 B( 21-C , 30-H ) :   0.8829 
B( 22-C , 23-C ) :   1.2972 B( 22-C , 31-H ) :   0.8766 B( 23-C , 24-C ) :   1.3502 
B( 23-C , 27-C ) :  -0.1250 B( 23-C , 28-C ) :   1.0669 B( 23-C , 29-C ) :  -0.1051 
B( 24-C , 25-C ) :   1.7397 B( 24-C , 32-H ) :   0.8690 B( 25-C , 26-C ) :   1.2754 
B( 25-C , 33-H ) :   0.8377 B( 26-C , 27-C ) :   1.4007 B( 26-C , 36-C ) :   0.8957 
B( 27-C , 28-C ) :   1.4450 B( 27-C , 34-H ) :   0.8339 B( 28-C , 29-C ) :   1.2327 
B( 29-C , 35-H ) :   0.9379 B( 36-C , 37-C ) :   1.4528 B( 36-C , 41-C ) :   1.3988 
B( 37-C , 38-C ) :   1.5114 B( 37-C , 42-H ) :   0.8737 B( 38-C , 39-C ) :   1.4339 
B( 38-C , 43-H ) :   0.8707 B( 39-C , 40-N ) :   1.3604 B( 39-C , 44-H ) :   0.9282 
B( 40-N , 41-C ) :   1.3775 B( 40-N , 98-N ) :   0.1040 B( 41-C , 45-H ) :   0.9078 
B( 46-C , 47-C ) :   1.8829 B( 46-C , 48-C ) :  -0.2736 B( 46-C , 64-C ) :   1.5242 
B( 47-C , 48-C ) :   1.4448 B( 47-C , 57-C ) :  -0.1931 B( 47-C , 64-C ) :  -0.4180 
B( 48-C , 49-C ) :   1.5133 B( 48-C , 56-C ) :  -0.1039 B( 48-C , 57-C ) :   1.0689 
B( 49-C , 50-C ) :   1.4068 B( 49-C , 58-H ) :   0.8605 B( 50-C , 51-C ) :   1.6444 
B( 50-C , 59-H ) :   0.8738 B( 51-C , 52-C ) :   1.3047 B( 51-C , 60-H ) :   0.8646 
B( 52-C , 53-C ) :   1.2638 B( 52-C , 57-C ) :   1.0839 B( 53-C , 54-N ) :   1.5018 
B( 53-C , 57-C ) :  -0.1167 B( 53-C , 61-H ) :   0.9158 B( 54-N , 55-C ) :   1.2538 
B( 55-C , 56-C ) :   1.4718 B( 55-C , 57-C ) :   0.1031 B( 55-C , 62-H ) :   0.9293 
B( 56-C , 57-C ) :   1.3823 B( 56-C , 63-H ) :   0.8808 B( 64-C , 65-C ) :   1.2521 
B( 64-C , 73-C ) :   1.3405 B( 65-C , 66-C ) :   1.6602 B( 65-C , 74-H ) :   0.8849 
B( 66-C , 67-C ) :   1.3019 B( 66-C , 72-C ) :  -0.1004 B( 66-C , 75-H ) :   0.8783 
B( 67-C , 68-C ) :   1.3533 B( 67-C , 71-C ) :  -0.1238 B( 67-C , 72-C ) :   1.0487 
B( 67-C , 73-C ) :  -0.1062 B( 68-C , 69-C ) :   1.7477 B( 68-C , 76-H ) :   0.8683 
B( 69-C , 70-C ) :   1.2699 B( 69-C , 77-H ) :   0.8297 B( 70-C , 71-C ) :   1.4093 
B( 70-C , 80-C ) :   0.9057 B( 71-C , 72-C ) :   1.3930 B( 71-C , 78-H ) :   0.8580 
B( 72-C , 73-C ) :   1.2448 B( 73-C , 79-H ) :   0.9489 B( 80-C , 81-C ) :   1.4390 
B( 80-C , 85-C ) :   1.3979 B( 81-C , 82-C ) :   1.5112 B( 81-C , 86-H ) :   0.8667 
B( 82-C , 83-C ) :   1.4494 B( 82-C , 87-H ) :   0.8654 B( 83-C , 84-N ) :   1.3234 
B( 83-C , 88-H ) :   0.9242 B( 84-N , 85-C ) :   1.4019 B( 85-C , 89-H ) :   0.9063 
B( 90-C , 91-C ) :   1.8555 B( 90-C , 92-C ) :  -0.2881 B( 90-C ,108-C ) :   1.5338 
B( 91-C , 92-C ) :   1.4732 B( 91-C ,101-C ) :  -0.1956 B( 91-C ,108-C ) :  -0.4113 
B( 91-C ,117-C ) :   0.1032 B( 92-C , 93-C ) :   1.5217 B( 92-C ,100-C ) :  -0.1217 
B( 92-C ,101-C ) :   1.0632 B( 93-C , 94-C ) :   1.4044 B( 93-C ,102-H ) :   0.8567 
B( 94-C , 95-C ) :   1.6439 B( 94-C ,103-H ) :   0.8723 B( 95-C , 96-C ) :   1.3025 
B( 95-C ,104-H ) :   0.8664 B( 96-C , 97-C ) :   1.2153 B( 96-C ,101-C ) :   1.0880 
B( 97-C , 98-N ) :   1.4745 B( 97-C ,101-C ) :  -0.1178 B( 97-C ,105-H ) :   0.9283 
B( 98-N , 99-C ) :   1.2884 B( 99-C ,100-C ) :   1.5095 B( 99-C ,101-C ) :   0.1090 
B( 99-C ,106-H ) :   0.9044 B(100-C ,101-C ) :   1.3928 B(100-C ,107-H ) :   0.8777 
B(108-C ,109-C ) :   1.2578 B(108-C ,117-C ) :   1.3723 B(109-C ,110-C ) :   1.6578 
B(109-C ,118-H ) :   0.8824 B(110-C ,111-C ) :   1.2995 B(110-C ,119-H ) :   0.8783 
B(111-C ,112-C ) :   1.3500 B(111-C ,115-C ) :  -0.1214 B(111-C ,116-C ) :   1.0623 
B(111-C ,117-C ) :  -0.1065 B(112-C ,113-C ) :   1.7477 B(112-C ,120-H ) :   0.8690 
B(113-C ,114-C ) :   1.2673 B(113-C ,121-H ) :   0.8332 B(114-C ,115-C ) :   1.4064 
B(114-C ,124-C ) :   0.9044 B(115-C ,116-C ) :   1.4257 B(115-C ,122-H ) :   0.8468 
B(116-C ,117-C ) :   1.2349 B(117-C ,123-H ) :   0.9389 B(124-C ,125-C ) :   1.4414 
B(124-C ,129-C ) :   1.3725 B(125-C ,126-C ) :   1.5210 B(125-C ,130-H ) :   0.8685 
B(126-C ,127-C ) :   1.4552 B(126-C ,131-H ) :   0.8669 B(127-C ,128-N ) :   1.3545 
B(127-C ,132-H ) :   0.9181 B(128-N ,129-C ) :   1.3780 B(129-C ,133-H ) :   0.9146 
B(134-C ,135-C ) :   1.8740 B(134-C ,136-C ) :  -0.2745 B(134-C ,152-C ) :   1.5304 
B(135-C ,136-C ) :   1.4521 B(135-C ,145-C ) :  -0.1880 B(135-C ,152-C ) :  -0.4226 
B(136-C ,137-C ) :   1.5129 B(136-C ,144-C ) :  -0.1048 B(136-C ,145-C ) :   1.0794 
B(137-C ,138-C ) :   1.4045 B(137-C ,146-H ) :   0.8582 B(138-C ,139-C ) :   1.6477 
B(138-C ,147-H ) :   0.8734 B(139-C ,140-C ) :   1.3099 B(139-C ,148-H ) :   0.8632 
B(140-C ,141-C ) :   1.2502 B(140-C ,145-C ) :   1.0881 B(141-C ,142-N ) :   1.5154 
B(141-C ,145-C ) :  -0.1133 B(141-C ,149-H ) :   0.9189 B(142-N ,143-C ) :   1.2524 
B(143-C ,144-C ) :   1.4800 B(143-C ,145-C ) :   0.1167 B(143-C ,150-H ) :   0.9252 
B(144-C ,145-C ) :   1.3753 B(144-C ,151-H ) :   0.8867 B(152-C ,153-C ) :   1.2579 
B(152-C ,161-C ) :   1.3320 B(153-C ,154-C ) :   1.6580 B(153-C ,162-H ) :   0.8837 
B(154-C ,155-C ) :   1.3089 B(154-C ,160-C ) :  -0.1016 B(154-C ,163-H ) :   0.8778 
B(155-C ,156-C ) :   1.3446 B(155-C ,159-C ) :  -0.1260 B(155-C ,160-C ) :   1.0400 
B(155-C ,161-C ) :  -0.1040 B(156-C ,157-C ) :   1.7333 B(156-C ,164-H ) :   0.8703 
B(157-C ,158-C ) :   1.2724 B(157-C ,165-H ) :   0.8357 B(158-C ,159-C ) :   1.4456 
B(158-C ,168-C ) :   0.8751 B(159-C ,160-C ) :   1.3733 B(159-C ,166-H ) :   0.8659 
B(160-C ,161-C ) :   1.2576 B(161-C ,167-H ) :   0.9464 B(168-C ,169-C ) :   1.4434 
B(168-C ,173-C ) :   1.3928 B(169-C ,170-C ) :   1.5116 B(169-C ,174-H ) :   0.8689 
B(170-C ,171-C ) :   1.4538 B(170-C ,175-H ) :   0.8645 B(171-C ,172-N ) :   1.3290 
B(171-C ,176-H ) :   0.9264 B(172-N ,173-C ) :   1.4051 B(173-C ,177-H ) :   0.9100 


-------
TIMINGS
-------

Total SCF time: 0 days 0 hours 13 min 24 sec 

Total time                  ....     804.959 sec
Sum of individual times     ....     787.358 sec  ( 97.8%)

Fock matrix formation       ....     289.582 sec  ( 36.0%)
  Split-RI-J                ....     134.408 sec  ( 46.4% of F)
  XC integration            ....     131.989 sec  ( 45.6% of F)
    Basis function eval.    ....      25.379 sec  ( 19.2% of XC)
    Density eval.           ....      55.041 sec  ( 41.7% of XC)
    XC-Functional eval.     ....       8.448 sec  (  6.4% of XC)
    XC-Potential eval.      ....      19.392 sec  ( 14.7% of XC)
Diagonalization             ....      78.121 sec  (  9.7%)
Density matrix formation    ....       3.544 sec  (  0.4%)
Population analysis         ....      11.152 sec  (  1.4%)
Initial guess               ....      11.017 sec  (  1.4%)
Orbital Transformation      ....       0.000 sec  (  0.0%)
Orbital Orthonormalization  ....       0.000 sec  (  0.0%)
DIIS solution               ....     354.182 sec  ( 44.0%)
Grid generation             ....      39.760 sec  (  4.9%)


-------------------------------------------------------------------------------
                          DFT DISPERSION CORRECTION                            
                                                                               
                              DFTD3 V3.1  Rev 1                                
                          USING Becke-Johnson damping                          
-------------------------------------------------------------------------------
The B97-3c composite method is recognized
Using three-body term ABC
Active option DFTDOPT                   ...         4   

molecular C6(AA) [au] = 487786.287620 


            DFT-D V3
 parameters
 s6 scaling factor         :     1.0000 
 a1 scaling factor         :     0.3700 
 s8 scaling factor         :     1.5000 
 a2 scaling factor         :     4.1000 
 Damping factor alpha9(ATM):    16.0000 
 ad hoc parameters k1-k3   :    16.0000     1.3333    -4.0000 

 Edisp/kcal,au: -425.997531807081  -0.678870206703 
 E6   /kcal   : -209.443697510 
 E8   /kcal   : -217.193898822 
 E6(ABC)      :   0.640064525 
 % E8         :  50.984778691 
 % E6(ABC)    :  -0.150250759 

-------------------------   ----------------
Dispersion correction           -0.678870207
-------------------------   ----------------

------------------   -----------------
SRB correction            -0.706331290
------------------   -----------------

-------------------------   --------------------
FINAL SINGLE POINT ENERGY     -4692.850434237458
-------------------------   --------------------


                            ***************************************
                            *     ORCA property calculations      *
                            ***************************************

                                    ---------------------
                                    Active property flags
                                    ---------------------
   (+) Dipole Moment


------------------------------------------------------------------------------
                       ORCA ELECTRIC PROPERTIES CALCULATION
------------------------------------------------------------------------------

Dipole Moment Calculation                       ... on
Quadrupole Moment Calculation                   ... off
Polarizability Calculation                      ... off
GBWName                                         ... _s_5a1_b_B97-3c.gbw
Electron density file                           ... _s_5a1_b_B97-3c.scfp
The origin for moment calculation is the CENTER OF MASS  = ( 0.537553,  1.905708  0.322940)

-------------
DIPOLE MOMENT
-------------
                                X             Y             Z
Electronic contribution:     52.55711      -3.02537      -0.62211
Nuclear contribution   :    -52.54596       2.05315       0.59331
                        -----------------------------------------
Total Dipole Moment    :      0.01115      -0.97223      -0.02880
                        -----------------------------------------
Magnitude (a.u.)       :      0.97272
Magnitude (Debye)      :      2.47246



--------------------
Rotational spectrum 
--------------------
 
Rotational constants in cm-1:     0.000402     0.000282     0.000277 
Rotational constants in MHz :    12.049576     8.459113     8.301018 

 Dipole components along the rotational axes: 
x,y,z [a.u.] :     0.970074     0.061483    -0.036886 
x,y,z [Debye]:     2.465732     0.156277    -0.093756 

 

Timings for individual modules:

Sum of individual times         ...      828.558 sec (=  13.809 min)
GTO integral calculation        ...       20.968 sec (=   0.349 min)   2.5 %
SCF iterations                  ...      807.590 sec (=  13.460 min)  97.5 %
                             ****ORCA TERMINATED NORMALLY****
TOTAL RUN TIME: 0 days 0 hours 14 minutes 4 seconds 516 msec
