Job execution start: Tue Jun 22 10:57:01 BST 2021
Shared library path: /work/e05/e05/atarzia/orca_4_2_1_linux_x86-64_openmpi314:/work/e05/e05/atarzia/openmpi-3.1.4/lib:/opt/cray/pe/papi/6.0.0.4/lib64:/opt/cray/libfabric/1.11.0.0.233/lib64
Slurm Job ID is: 344584
Slurm Job name is: s_5a3_c_PBE0
nid001515

                                 *****************
                                 * O   R   C   A *
                                 *****************

           --- An Ab Initio, DFT and Semiempirical electronic structure package ---

                  #######################################################
                  #                        -***-                        #
                  #          Department of theory and spectroscopy      #
                  #               Directorship: Frank Neese             #
                  #        Max Planck Institute fuer Kohlenforschung    #
                  #                Kaiser Wilhelm Platz 1               #
                  #                 D-45470 Muelheim/Ruhr               #
                  #                      Germany                        #
                  #                                                     #
                  #                  All rights reserved                #
                  #                        -***-                        #
                  #######################################################


                         Program Version 4.2.1 -  RELEASE  -


 With contributions from (in alphabetic order):
   Daniel Aravena         : Magnetic Suceptibility
   Michael Atanasov       : Ab Initio Ligand Field Theory (pilot matlab implementation)
   Alexander A. Auer      : GIAO ZORA, VPT2
   Ute Becker             : Parallelization
   Giovanni Bistoni       : ED, misc. LED, open-shell LED, HFLD
   Martin Brehm           : Molecular dynamics
   Dmytro Bykov           : SCF Hessian
   Vijay G. Chilkuri      : MRCI spin determinant printing, contributions to CSF-ICE
   Dipayan Datta          : RHF DLPNO-CCSD density
   Achintya Kumar Dutta   : EOM-CC, STEOM-CC
   Dmitry Ganyushin       : Spin-Orbit,Spin-Spin,Magnetic field MRCI
   Miquel Garcia          : C-PCM Hessian, Gaussian charge scheme
   Yang Guo               : DLPNO-NEVPT2, CIM, IAO-localization
   Andreas Hansen         : Spin unrestricted coupled pair/coupled cluster methods
   Benjamin Helmich-Paris : CASSCF linear response (MC-RPA)
   Lee Huntington         : MR-EOM, pCC
   Robert Izsak           : Overlap fitted RIJCOSX, COSX-SCS-MP3, EOM
   Christian Kollmar      : KDIIS, OOCD, Brueckner-CCSD(T), CCSD density
   Simone Kossmann        : Meta GGA functionals, TD-DFT gradient, OOMP2, MP2 Hessian
   Martin Krupicka        : AUTO-CI
   Lucas Lang             : DCDCAS
   Dagmar Lenk            : GEPOL surface, SMD
   Dimitrios Liakos       : Extrapolation schemes; Compound Job, initial MDCI parallelization
   Dimitrios Manganas     : Further ROCIS development; embedding schemes
   Dimitrios Pantazis     : SARC Basis sets
   Taras Petrenko         : DFT Hessian,TD-DFT gradient, ASA, ECA, R-Raman, ABS, FL, XAS/XES, NRVS
   Peter Pinski           : DLPNO-MP2, DLPNO-MP2 Gradient
   Christoph Reimann      : Effective Core Potentials
   Marius Retegan         : Local ZFS, SOC
   Christoph Riplinger    : Optimizer, TS searches, QM/MM, DLPNO-CCSD(T), (RO)-DLPNO pert. Triples
   Tobias Risthaus        : Range-separated hybrids, TD-DFT gradient, RPA, STAB
   Michael Roemelt        : Original ROCIS implementation
   Masaaki Saitow         : Open-shell DLPNO-CCSD energy and density
   Barbara Sandhoefer     : DKH picture change effects
   Avijit Sen             : IP-ROCIS
   Kantharuban Sivalingam : CASSCF convergence, NEVPT2, FIC-MRCI
   Bernardo de Souza      : ESD, SOC TD-DFT
   Georgi Stoychev        : AutoAux, RI-MP2 NMR
   Willem Van den Heuvel  : Paramagnetic NMR
   Boris Wezisla          : Elementary symmetry handling
   Frank Wennmohs         : Technical directorship


 We gratefully acknowledge several colleagues who have allowed us to
 interface, adapt or use parts of their codes:
   Stefan Grimme, W. Hujo, H. Kruse,             : VdW corrections, initial TS optimization,
                  C. Bannwarth                     DFT functionals, gCP, sTDA/sTD-DF
   Ed Valeev, F. Pavosevic, A. Kumar             : LibInt (2-el integral package), F12 methods
   Garnet Chan, S. Sharma, J. Yang, R. Olivares  : DMRG
   Ulf Ekstrom                                   : XCFun DFT Library
   Mihaly Kallay                                 : mrcc  (arbitrary order and MRCC methods)
   Andreas Klamt, Michael Diedenhofen            : otool_cosmo (COSMO solvation model)
   Jiri Pittner, Ondrej Demel                    : Mk-CCSD
   Frank Weinhold                                : gennbo (NPA and NBO analysis)
   Christopher J. Cramer and Donald G. Truhlar   : smd solvation model
   Lars Goerigk                                  : TD-DFT with DH, B97 family of functionals
   V. Asgeirsson, H. Jonsson                     : NEB implementation
   FAccTs GmbH                                   : IRC, NEB, NEB-TS, Multilevel, MM, QM/MM, CI optimization
   S Lehtola, MJT Oliveira, MAL Marques          : LibXC Library


 Your calculation uses the libint2 library for the computation of 2-el integrals
 For citations please refer to: http://libint.valeyev.net

 Your ORCA version has been built with support for libXC version: 4.2.3
 For citations please refer to: https://tddft.org/programs/libxc/

 This ORCA versions uses:
   CBLAS   interface :  Fast vector & matrix operations
   LAPACKE interface :  Fast linear algebra routines
   SCALAPACK package :  Parallel linear algebra routines




***************************************
The coordinates will be read from file: s_5a3_c.xyz
***************************************


Your calculation utilizes the atom-pairwise dispersion correction
with the Becke-Johnson damping scheme (D3BJ)
Cite in your paper:
S.Grimme, S.Ehrlich, L.Goerigk, J Comput Chem, (2011), 32, 1456–1465 
S.Grimme, J.Antony, S.Ehrlich and H.Krieg, J.Chem.Phys., 132, (2010), 154104 
   

----- Orbital basis set information -----
Your calculation utilizes the basis: def2-SVP
   F. Weigend and R. Ahlrichs, Phys. Chem. Chem. Phys. 7, 3297 (2005).

cite the ECPs for Pd [Def2-ECP] as follows:
Ce-Yb(ecp-28): M. Dolg, H. Stoll, H.Preuss, J. Chem. Phys., 1989, 90, 1730-1734.
Y-Cd(ecp-28), Hf-Hg(ecp-46): D. Andrae,U. Haeussermann, M. Dolg, H. Stoll, H. Preuss, Theor. Chim. Acta, 1990, 77, 123-141.
In-Sb(ecp-28), Tl-Bi(ecp-46): B. Metz, H. Stoll, M. Dolg, J. Chem. Phys., 2000, 113, 2563-2569.
Te-Xe(ecp-28), Po-Rn(ecp-46): K. A. Peterson, D. Figgen, E. Goll, H. Stoll, M. Dolg, J. Chem. Phys., 2003, 119, 11113-11123.
Rb(ecp-28), Cs(ecp-46): T. Leininger, A. Nicklass, W. Kuechle, H. Stoll, M. Dolg, A. Bergner, Chem. Phys. Lett., 1996, 255, 274-280.
Sr(ecp-28), Ba(ecp-46): M. Kaupp, P. V. Schleyer, H. Stoll and H. Preuss, J. Chem. Phys., 1991, 94, 1360-1366.
La(ecp-46): M. Dolg, H. Stoll, A. Savin, H. Preuss, Theor. Chim. Acta, 1989, 75, 173-194.
Lu(ecp-28): X. Cao, M. Dolg, J. Chem. Phys., 2001, 115, 7348-7355.

ECP parameters for Pd [Def2-ECP] have been obtained from:
TURBOMOLE (7.0.2)

================================================================================
                                        WARNINGS
                       Please study these warnings very carefully!
================================================================================


INFO   : the flag for use of LIBINT has been found!

================================================================================
                                       INPUT FILE
================================================================================
NAME = s_5a3_c_PBE0.in
|  1> ! DFT SP RKS PBE0 def2-SVP D3BJ Grid6 NOFINALGRID SlowConv TightSCF printbasis 
|  2> 
|  3> %base "_s_5a3_c_PBE0"
|  4> %maxcore 3000
|  5> %scf
|  6>    MaxIter 2000
|  7> end
|  8> %pal
|  9>    nprocs 32
| 10> end
| 11> 
| 12> * xyzfile 4 1 s_5a3_c.xyz
| 13> 
| 14>                          ****END OF INPUT****
================================================================================

                       ****************************
                       * Single Point Calculation *
                       ****************************

---------------------------------
CARTESIAN COORDINATES (ANGSTROEM)
---------------------------------
  Pd     0.207900    3.993900    0.053800
  Pd     0.582200   -9.363500    0.526600
  C      7.422500   -5.595500    1.202100
  C      7.039200   -6.742200    1.234200
  C      6.580500   -8.071800    1.292700
  C      7.451300   -9.109600    1.577100
  C      6.998100  -10.431200    1.658300
  C      5.675700  -10.737000    1.464400
  C      4.755900   -9.708400    1.168100
  C      3.385300   -9.956500    0.966100
  N      2.524700   -9.001700    0.682400
  C      2.945600   -7.718100    0.566300
  C      4.253000   -7.369100    0.754300
  C      5.204100   -8.360000    1.070800
  H      8.496000   -8.892800    1.741500
  H      7.707600  -11.213100    1.881700
  H      5.330500  -11.756200    1.534600
  H      2.997500  -10.970100    1.043200
  H      2.179900   -6.987400    0.313300
  H      4.575600   -6.344400    0.663500
  C      7.867400   -4.258600    1.170300
  C      9.251800   -3.980600    1.283900
  C      9.697800   -2.691300    1.259400
  C      8.797700   -1.612200    1.121900
  C      9.235000   -0.270000    1.093000
  C      8.346700    0.756500    0.956000
  C      6.960600    0.486700    0.842300
  C      6.504200   -0.814900    0.870700
  C      7.406400   -1.886600    1.008400
  C      6.966000   -3.223300    1.035100
  H      9.945100   -4.801800    1.389200
  H     10.753700   -2.478300    1.345700
  H     10.293000   -0.068200    1.180600
  H      8.687800    1.780500    0.933100
  H      5.448500   -1.021500    0.783900
  H      5.910100   -3.430400    0.951200
  C      6.057900    1.557300    0.691400
  C      5.280800    2.473400    0.552900
  C      4.394900    3.550800    0.369900
  C      4.867800    4.859100    0.191900
  C      3.958200    5.882200   -0.004800
  C      2.603100    5.589300   -0.023000
  N      2.155400    4.343100    0.154100
  C      3.012300    3.343600    0.347900
  H      5.928900    5.053100    0.206700
  H      4.294000    6.896800   -0.146000
  H      1.853800    6.361800   -0.182400
  H      2.591600    2.350200    0.490900
  C      0.034200   -5.586700    7.372900
  C      0.127800   -6.734700    7.003800
  C      0.259500   -8.065600    6.564500
  C      0.370100   -9.104000    7.473200
  C      0.522800  -10.427100    7.043100
  C      0.573300  -10.733700    5.707800
  C      0.459900   -9.704500    4.748800
  C      0.510700   -9.953600    3.364400
  N      0.397600   -8.998200    2.466100
  C      0.217600   -7.712800    2.858000
  C      0.165100   -7.362800    4.177600
  C      0.292800   -8.354600    5.170900
  H      0.340900   -8.886700    8.530200
  H      0.605300  -11.209400    7.781900
  H      0.697600  -11.754100    5.381700
  H      0.649000  -10.968600    2.997600
  H      0.116400   -6.981300    2.058700
  H      0.025600   -6.336800    4.477600
  C     -0.068500   -4.248500    7.803000
  C     -0.207900   -3.968000    9.184500
  C     -0.303100   -2.677500    9.617100
  C     -0.264500   -1.599500    8.706000
  C     -0.361100   -0.256000    9.129400
  C     -0.324500    0.769300    8.230100
  C     -0.185800    0.497100    6.846700
  C     -0.086100   -0.805900    6.404400
  C     -0.124300   -1.876400    7.317600
  C     -0.028500   -3.214400    6.890900
  H     -0.237900   -4.788300    9.886100
  H     -0.409600   -2.462400   10.670800
  H     -0.466500   -0.052300   10.185400
  H     -0.400100    1.794400    8.560300
  H      0.019600   -1.014400    5.350800
  H      0.080300   -3.423500    5.837700
  C     -0.160500    1.566900    5.931000
  C     -0.148000    2.483100    5.141900
  C     -0.160900    3.560800    4.237700
  C     -0.392400    4.873400    4.674000
  C     -0.418400    5.896700    3.744000
  C     -0.218000    5.599700    2.404600
  N      0.009800    4.349200    1.993000
  C      0.043200    3.349600    2.870700
  H     -0.550400    5.070600    5.722800
  H     -0.595700    6.914600    4.051300
  H     -0.238700    6.372100    1.638800
  H      0.237600    2.352700    2.480100
  C     -6.653200    0.236100   -0.444100
  C     -6.270100    1.382400   -0.488200
  C     -5.811200    2.711300   -0.559900
  C     -6.688700    3.751300   -0.813800
  C     -6.235700    5.072200   -0.907300
  C     -4.907200    5.375100   -0.755400
  C     -3.980300    4.344200   -0.491000
  C     -2.603700    4.589500   -0.330200
  N     -1.736500    3.632600   -0.075400
  C     -2.155600    2.349200    0.048700
  C     -3.468800    2.002900   -0.099600
  C     -4.427700    2.996400   -0.382500
  H     -7.738600    3.537000   -0.944500
  H     -6.950500    5.856000   -1.106000
  H     -4.562400    6.393800   -0.834600
  H     -2.216700    5.602800   -0.416100
  H     -1.383600    1.616200    0.274200
  H     -3.790100    0.978400   -0.002200
  C     -7.097800   -1.100600   -0.399400
  C     -8.485700   -1.377400   -0.459800
  C     -8.931200   -2.666500   -0.423600
  C     -8.027200   -3.746700   -0.326600
  C     -8.463900   -5.088900   -0.288100
  C     -7.571500   -6.116400   -0.191600
  C     -6.181800   -5.847800   -0.129800
  C     -5.726100   -4.546200   -0.168300
  C     -6.632300   -3.473500   -0.265800
  C     -6.192400   -2.136900   -0.303500
  H     -9.182100   -0.555300   -0.534300
  H     -9.989900   -2.878700   -0.469400
  H     -9.524600   -5.289700   -0.335600
  H     -7.912100   -7.140500   -0.161500
  H     -4.667800   -4.340600   -0.121400
  H     -5.134000   -1.930700   -0.260100
  C     -5.275100   -6.919900   -0.019300
  C     -4.495000   -7.837900    0.085500
  C     -3.606400   -8.918400    0.234100
  C     -4.077000  -10.229900    0.393100
  C     -3.165200  -11.256100    0.560500
  C     -1.810100  -10.963000    0.570300
  N     -1.364500   -9.713600    0.410500
  C     -2.223600   -8.711300    0.243200
  H     -5.138200  -10.424000    0.387100
  H     -3.499100  -12.273300    0.686500
  H     -1.059100  -11.737900    0.708500
  H     -1.804700   -7.715500    0.112400
  C      0.708100    0.214000   -6.795800
  C      0.606900    1.361000   -6.425600
  C      0.466900    2.690900   -5.985900
  C      0.334500    3.727000   -6.894200
  C      0.173800    5.049000   -6.463800
  C      0.137100    5.356800   -5.128200
  C      0.272900    4.329900   -4.169600
  C      0.237300    4.580200   -2.784900
  N      0.371200    3.627200   -1.887000
  C      0.558500    2.343100   -2.279600
  C      0.597800    1.992000   -3.599400
  C      0.448100    2.981100   -4.592200
  H      0.352800    3.508700   -7.951300
  H      0.074100    5.829600   -7.202300
  H      0.006700    6.376200   -4.801800
  H      0.093700    5.594400   -2.417800
  H      0.677100    1.613700   -1.480900
  H      0.743700    0.967000   -3.900000
  C      0.820100   -1.123500   -7.225800
  C      0.960000   -1.403500   -8.607400
  C      1.064800   -2.693400   -9.039500
  C      1.036000   -3.771300   -8.127900
  C      1.143000   -5.114200   -8.550700
  C      1.115500   -6.139300   -7.650800
  C      0.975800   -5.867500   -6.267500
  C      0.866000   -4.565100   -5.825800
  C      0.895000   -3.494800   -6.739500
  C      0.789200   -2.157500   -6.313200
  H      0.982700   -0.583300   -9.309400
  H      1.171900   -2.908100  -10.093300
  H      1.249000   -5.317600   -9.606700
  H      1.199100   -7.163900   -7.980600
  H      0.759600   -4.356900   -4.772200
  H      0.679800   -1.948800   -5.260100
  C      0.959500   -6.936700   -5.350900
  C      0.954500   -7.851500   -4.560100
  C      0.975400   -8.928100   -3.654700
  C      1.224100  -10.238200   -4.088700
  C      1.256700  -11.260500   -3.157800
  C      1.045200  -10.964800   -1.819800
  N      0.801000   -9.716700   -1.410300
  C      0.761500   -8.718100   -2.288900
  H      1.389900  -10.434400   -5.136500
  H      1.447300  -12.276500   -3.463300
  H      1.070700  -11.736600   -1.053400
  H      0.553700   -7.723200   -1.900100

----------------------------
CARTESIAN COORDINATES (A.U.)
----------------------------
  NO LB      ZA    FRAG     MASS         X           Y           Z
   0 Pd   18.0000*   0   106.400    0.392874    7.547377    0.101667
   1 Pd   18.0000*   0   106.400    1.100199  -17.694451    0.995130
   2 C     6.0000    0    12.011   14.026492  -10.573963    2.271640
   3 C     6.0000    0    12.011   13.302160  -12.740912    2.332300
   4 C     6.0000    0    12.011   12.435343  -15.253491    2.442849
   5 C     6.0000    0    12.011   14.080916  -17.214649    2.980287
   6 C     6.0000    0    12.011   13.224492  -19.712111    3.133733
   7 C     6.0000    0    12.011   10.725519  -20.289989    2.767315
   8 C     6.0000    0    12.011    8.987349  -18.346217    2.207389
   9 C     6.0000    0    12.011    6.397290  -18.815058    1.825664
  10 N     7.0000    0    14.007    4.770992  -17.010748    1.289549
  11 C     6.0000    0    12.011    5.566377  -14.585095    1.070152
  12 C     6.0000    0    12.011    8.037005  -13.925581    1.425420
  13 C     6.0000    0    12.011    9.834324  -15.798110    2.023519
  14 H     1.0000    0     1.008   16.055113  -16.804957    3.290958
  15 H     1.0000    0     1.008   14.565253  -21.189688    3.555898
  16 H     1.0000    0     1.008   10.073185  -22.215998    2.899974
  17 H     1.0000    0     1.008    5.664454  -20.730485    1.971362
  18 H     1.0000    0     1.008    4.119414  -13.204272    0.592051
  19 H     1.0000    0     1.008    8.646631  -11.989178    1.253833
  20 C     6.0000    0    12.011   14.867231   -8.047588    2.211546
  21 C     6.0000    0    12.011   17.483368   -7.522244    2.426219
  22 C     6.0000    0    12.011   18.326186   -5.085820    2.379921
  23 C     6.0000    0    12.011   16.625244   -3.046616    2.120084
  24 C     6.0000    0    12.011   17.451621   -0.510226    2.065471
  25 C     6.0000    0    12.011   15.772977    1.429578    1.806578
  26 C     6.0000    0    12.011   13.153628    0.919730    1.591716
  27 C     6.0000    0    12.011   12.291157   -1.539938    1.645385
  28 C     6.0000    0    12.011   13.996068   -3.565157    1.905600
  29 C     6.0000    0    12.011   13.163832   -6.091154    1.956056
  30 H     1.0000    0     1.008   18.793515   -9.074087    2.625208
  31 H     1.0000    0     1.008   20.321548   -4.683308    2.543004
  32 H     1.0000    0     1.008   19.450951   -0.128879    2.231011
  33 H     1.0000    0     1.008   16.417563    3.364657    1.763303
  34 H     1.0000    0     1.008   10.296173   -1.930355    1.481356
  35 H     1.0000    0     1.008   11.168470   -6.482517    1.797507
  36 C     6.0000    0    12.011   11.447772    2.942871    1.306557
  37 C     6.0000    0    12.011    9.979266    4.674049    1.044830
  38 C     6.0000    0    12.011    8.305157    6.710040    0.699010
  39 C     6.0000    0    12.011    9.198809    9.182368    0.362638
  40 C     6.0000    0    12.011    7.479914   11.115747   -0.009071
  41 C     6.0000    0    12.011    4.919146   10.562246   -0.043464
  42 N     7.0000    0    14.007    4.073116    8.207270    0.291207
  43 C     6.0000    0    12.011    5.692422    6.318488    0.657436
  44 H     1.0000    0     1.008   11.203997    9.548975    0.390606
  45 H     1.0000    0     1.008    8.114484   13.033063   -0.275900
  46 H     1.0000    0     1.008    3.503174   12.022060   -0.344686
  47 H     1.0000    0     1.008    4.897414    4.441234    0.927667
  48 C     6.0000    0    12.011    0.064629  -10.557333   13.932762
  49 C     6.0000    0    12.011    0.241507  -12.726739   13.235264
  50 C     6.0000    0    12.011    0.490384  -15.241775   12.405107
  51 C     6.0000    0    12.011    0.699388  -17.204067   14.122301
  52 C     6.0000    0    12.011    0.987949  -19.704363   13.309530
  53 C     6.0000    0    12.011    1.083380  -20.283753   10.786179
  54 C     6.0000    0    12.011    0.869085  -18.338847    8.973931
  55 C     6.0000    0    12.011    0.965083  -18.809578    6.357795
  56 N     7.0000    0    14.007    0.751355  -17.004134    4.660254
  57 C     6.0000    0    12.011    0.411204  -14.575080    5.400837
  58 C     6.0000    0    12.011    0.311994  -13.913676    7.894520
  59 C     6.0000    0    12.011    0.553312  -15.787906    9.771585
  60 H     1.0000    0     1.008    0.644208  -16.793429   16.119742
  61 H     1.0000    0     1.008    1.143851  -21.182696   14.705660
  62 H     1.0000    0     1.008    1.318273  -22.212030   10.169939
  63 H     1.0000    0     1.008    1.226432  -20.727650    5.664643
  64 H     1.0000    0     1.008    0.219964  -13.192745    3.890379
  65 H     1.0000    0     1.008    0.048377  -11.974817    8.461438
  66 C     6.0000    0    12.011   -0.129446   -8.028501   14.745533
  67 C     6.0000    0    12.011   -0.392874   -7.498433   17.356190
  68 C     6.0000    0    12.011   -0.572776   -5.059742   18.173685
  69 C     6.0000    0    12.011   -0.499833   -3.022617   16.451956
  70 C     6.0000    0    12.011   -0.682380   -0.483770   17.252066
  71 C     6.0000    0    12.011   -0.613216    1.453766   15.552635
  72 C     6.0000    0    12.011   -0.351111    0.939383   12.938388
  73 C     6.0000    0    12.011   -0.162705   -1.522930   12.102562
  74 C     6.0000    0    12.011   -0.234893   -3.545882   13.828260
  75 C     6.0000    0    12.011   -0.053857   -6.074336   13.021914
  76 H     1.0000    0     1.008   -0.449566   -9.048576   18.682022
  77 H     1.0000    0     1.008   -0.774032   -4.653262   20.164890
  78 H     1.0000    0     1.008   -0.881557   -0.098833   19.247617
  79 H     1.0000    0     1.008   -0.756079    3.390925   16.176623
  80 H     1.0000    0     1.008    0.037039   -1.916938   10.111547
  81 H     1.0000    0     1.008    0.151745   -6.469477   11.031654
  82 C     6.0000    0    12.011   -0.303301    2.961012   11.207966
  83 C     6.0000    0    12.011   -0.279679    4.692379    9.716783
  84 C     6.0000    0    12.011   -0.304057    6.728937    8.008092
  85 C     6.0000    0    12.011   -0.741529    9.209391    8.832580
  86 C     6.0000    0    12.011   -0.790661   11.143148    7.075135
  87 C     6.0000    0    12.011   -0.411960   10.581899    4.544035
  88 N     7.0000    0    14.007    0.018519    8.218797    3.766224
  89 C     6.0000    0    12.011    0.081636    6.329827    5.424837
  90 H     1.0000    0     1.008   -1.040105    9.582045   10.814525
  91 H     1.0000    0     1.008   -1.125710   13.066700    7.655847
  92 H     1.0000    0     1.008   -0.451078   12.041524    3.096883
  93 H     1.0000    0     1.008    0.448999    4.445959    4.686710
  94 C     6.0000    0    12.011  -12.572726    0.446164   -0.839227
  95 C     6.0000    0    12.011  -11.848772    2.612357   -0.922564
  96 C     6.0000    0    12.011  -10.981577    5.123614   -1.058058
  97 C     6.0000    0    12.011  -12.639811    7.088930   -1.537859
  98 C     6.0000    0    12.011  -11.783765    9.585069   -1.714549
  99 C     6.0000    0    12.011   -9.273264   10.157467   -1.427499
 100 C     6.0000    0    12.011   -7.521677    8.209348   -0.927856
 101 C     6.0000    0    12.011   -4.920280    8.672898   -0.623988
 102 N     7.0000    0    14.007   -3.281509    6.864619   -0.142485
 103 C     6.0000    0    12.011   -4.073494    4.439345    0.092030
 104 C     6.0000    0    12.011   -6.555082    3.784932   -0.188217
 105 C     6.0000    0    12.011   -8.367140    5.662375   -0.722820
 106 H     1.0000    0     1.008  -14.623835    6.683961   -1.784846
 107 H     1.0000    0     1.008  -13.134541   11.066236   -2.090037
 108 H     1.0000    0     1.008   -8.621687   12.082531   -1.577165
 109 H     1.0000    0     1.008   -4.188956   10.587758   -0.786315
 110 H     1.0000    0     1.008   -2.614625    3.054175    0.518163
 111 H     1.0000    0     1.008   -7.162251    1.848908   -0.004157
 112 C     6.0000    0    12.011  -13.412898   -2.079833   -0.754757
 113 C     6.0000    0    12.011  -16.035649   -2.602909   -0.868896
 114 C     6.0000    0    12.011  -16.877522   -5.038955   -0.800488
 115 C     6.0000    0    12.011  -15.169210   -7.080237   -0.617185
 116 C     6.0000    0    12.011  -15.994453   -9.616627   -0.544430
 117 C     6.0000    0    12.011  -14.308061  -11.558321   -0.362072
 118 C     6.0000    0    12.011  -11.681909  -11.050740   -0.245286
 119 C     6.0000    0    12.011  -10.820761   -8.591073   -0.318041
 120 C     6.0000    0    12.011  -12.533231   -6.563964   -0.502289
 121 C     6.0000    0    12.011  -11.701940   -4.038156   -0.573532
 122 H     1.0000    0     1.008  -17.351654   -1.049365   -1.009681
 123 H     1.0000    0     1.008  -18.878175   -5.439955   -0.887037
 124 H     1.0000    0     1.008  -17.998886   -9.996084   -0.634192
 125 H     1.0000    0     1.008  -14.951702  -13.493589   -0.305191
 126 H     1.0000    0     1.008   -8.820864   -8.202545   -0.229413
 127 H     1.0000    0     1.008   -9.701854   -3.648494   -0.491518
 128 C     6.0000    0    12.011   -9.968494  -13.076716   -0.036472
 129 C     6.0000    0    12.011   -8.494319  -14.811484    0.161572
 130 C     6.0000    0    12.011   -6.815108  -16.853334    0.442385
 131 C     6.0000    0    12.011   -7.704413  -19.331709    0.742851
 132 C     6.0000    0    12.011   -5.981361  -21.270946    1.059191
 133 C     6.0000    0    12.011   -3.420593  -20.717068    1.077711
 134 N     7.0000    0    14.007   -2.578531  -18.356044    0.775733
 135 C     6.0000    0    12.011   -4.201995  -16.461971    0.459581
 136 H     1.0000    0     1.008   -9.709791  -19.698505    0.731513
 137 H     1.0000    0     1.008   -6.612341  -23.193176    1.297297
 138 H     1.0000    0     1.008   -2.001409  -22.181416    1.338871
 139 H     1.0000    0     1.008   -3.410389  -14.580182    0.212405
 140 C     6.0000    0    12.011    1.338115    0.404401  -12.842201
 141 C     6.0000    0    12.011    1.146875    2.571917  -12.142624
 142 C     6.0000    0    12.011    0.882313    5.085064  -11.311712
 143 C     6.0000    0    12.011    0.632113    7.043009  -13.028150
 144 C     6.0000    0    12.011    0.328434    9.541227  -12.214812
 145 C     6.0000    0    12.011    0.259081   10.122885   -9.690894
 146 C     6.0000    0    12.011    0.515706    8.182325   -7.879402
 147 C     6.0000    0    12.011    0.448432    8.655324   -5.262698
 148 N     7.0000    0    14.007    0.701466    6.854415   -3.565913
 149 C     6.0000    0    12.011    1.055412    4.427817   -4.307820
 150 C     6.0000    0    12.011    1.129678    3.764334   -6.801880
 151 C     6.0000    0    12.011    0.846786    5.633463   -8.678000
 152 H     1.0000    0     1.008    0.666695    6.630482  -15.025779
 153 H     1.0000    0     1.008    0.140029   11.016347  -13.610375
 154 H     1.0000    0     1.008    0.012661   12.049272   -9.074087
 155 H     1.0000    0     1.008    0.177067   10.571884   -4.568980
 156 H     1.0000    0     1.008    1.279534    3.049451   -2.798495
 157 H     1.0000    0     1.008    1.405389    1.827365   -7.369932
 158 C     6.0000    0    12.011    1.549764   -2.123107  -13.654783
 159 C     6.0000    0    12.011    1.814137   -2.652231  -16.265629
 160 C     6.0000    0    12.011    2.012180   -5.089788  -17.082179
 161 C     6.0000    0    12.011    1.957756   -7.126724  -15.359505
 162 C     6.0000    0    12.011    2.159957   -9.664437  -16.158481
 163 C     6.0000    0    12.011    2.107990  -11.601596  -14.457917
 164 C     6.0000    0    12.011    1.843995  -11.087968  -11.843859
 165 C     6.0000    0    12.011    1.636503   -8.626789  -11.009167
 166 C     6.0000    0    12.011    1.691305   -6.604215  -12.735809
 167 C     6.0000    0    12.011    1.491372   -4.077084  -11.930219
 168 H     1.0000    0     1.008    1.857034   -1.102277  -17.592216
 169 H     1.0000    0     1.008    2.214570   -5.495513  -19.073573
 170 H     1.0000    0     1.008    2.360268  -10.048808  -18.154032
 171 H     1.0000    0     1.008    2.265971  -13.537809  -15.081148
 172 H     1.0000    0     1.008    1.435436   -8.233348   -9.018151
 173 H     1.0000    0     1.008    1.284636   -3.682698   -9.940148
 174 C     6.0000    0    12.011    1.813192  -13.108463  -10.111736
 175 C     6.0000    0    12.011    1.803744  -14.837185   -8.617340
 176 C     6.0000    0    12.011    1.843239  -16.871664   -6.906382
 177 C     6.0000    0    12.011    2.313214  -19.347394   -7.726523
 178 C     6.0000    0    12.011    2.374819  -21.279261   -5.967377
 179 C     6.0000    0    12.011    1.975142  -20.720469   -3.438924
 180 N     7.0000    0    14.007    1.513671  -18.361902   -2.665081
 181 C     6.0000    0    12.011    1.439026  -16.474821   -4.325394
 182 H     1.0000    0     1.008    2.626530  -19.718158   -9.706578
 183 H     1.0000    0     1.008    2.735001  -23.199223   -6.544689
 184 H     1.0000    0     1.008    2.023330  -22.178960   -1.990638
 185 H     1.0000    0     1.008    1.046341  -14.594733   -3.590669
* core charge reduced due to ECP

--------------------------------
INTERNAL COORDINATES (ANGSTROEM)
--------------------------------
 Pd     0   0   0     0.000000000000     0.00000000     0.00000000
 Pd     1   0   0    13.371005014209     0.00000000     0.00000000
 C      2   1   0     7.838611378299    63.08084249     0.00000000
 C      3   2   1     1.209491707289    43.11332161   177.25400481
 C      4   3   2     1.407715915943   178.97801132   293.71236219
 C      5   4   3     1.384270508246   120.77477753   249.77120976
 C      6   5   4     1.399503569127   121.07677710   178.94946713
 C      7   6   5     1.371077171424   120.98060256   359.69979538
 C      8   7   6     1.411326925273   119.71768609     0.49415401
 C      9   8   7     1.407445192539   122.43372728   180.37317502
 N     10   9   8     1.316343834262   122.66569898   180.37848504
 C     11  10   9     1.355826308935   120.14562428     0.36208539
 C     12  11  10     1.366177060267   121.81290935   359.08529597
 C     13  12  11     1.409484398637   119.80584198     0.36368242
 H      6   5   4     1.079549762633   119.30691933   359.13900803
 H      7   6   5     1.079196654924   118.90143919   179.97147181
 H      8   7   6     1.078359735895   120.68679563   180.41264647
 H     10   9   8     1.087988147913   120.07679661     0.43808052
 H     12  11  10     1.088222394550   115.92338342   178.97813278
 H     13  12  11     1.078112002530   121.16905101   180.26284792
 C      3   2   1     1.409343414502   136.84605442   357.60042511
 C     21   3   2     1.416598856416   119.52817341   182.60729735
 C     22  21   3     1.364481857703   120.22694586   180.22184675
 C     23  22  21     1.411928847357   121.03333142     0.02441061
 C     24  23  22     1.411937441957   122.07814112   180.04354089
 C     25  24  23     1.364385627306   121.03785186   179.84039790
 C     26  25  24     1.416683782642   120.11810006     0.11522427
 C     27  26  25     1.379590547953   120.11301986     0.04724844
 C     28  27  26     1.407645914284   120.54947539   359.81109819
 C     21   3   2     1.379364741466   120.52412513     2.86438871
 H     22  21   3     1.079871483094   119.07874212     0.25205493
 H     23  22  21     1.080620886343   120.27831968   180.01801370
 H     25  24  23     1.080629908896   118.62602398   359.91811035
 H     26  25  24     1.079559919597   120.66730245   180.09531068
 H     28  27  26     1.079222076312   120.17009582   180.01603484
 H     30  21   3     1.079284221139   120.19384320   359.92463285
 C     27  26  25     1.408482325058   119.40017469   180.47407881
 C     37  27  26     1.209258396704   179.54123250   113.46823245
 C     38  37  27     1.406804382279   178.74900515   294.24764600
 C     39  38  37     1.402486114013   121.23785462   318.22458173
 C     40  39  38     1.383038922084   119.10146088   179.01651063
 C     41  40  39     1.386512769505   119.23398360   359.91094229
 N     42  41  40     1.335969363421   121.52259557     0.46011405
 C     43  42  41     1.330727733235   120.27423807   359.68314335
 H     40  39  38     1.078790178858   119.84601712   359.21877313
 H     41  40  39     1.078013098251   120.66343849   180.10793071
 H     42  41  40     1.087940761255   121.67178178   180.48881317
 H     44  43  42     1.088246778079   117.11852933   179.73480500
 C     19  12  11     7.510255730666    96.18388675    87.45477553
 C     49  19  12     1.209503935504    60.92293408   310.86327613
 C     50  49  19     1.407701740427   178.97049496    48.06010119
 C     51  50  49     1.384284150744   120.78574836   113.29052161
 C     52  51  50     1.399605983840   121.07254934   181.03337623
 C     53  52  51     1.370977716814   120.97967722     0.28825557
 C     54  53  52     1.411309037738   119.72125977   359.51485534
 C     55  54  53     1.407549221164   122.43731902   179.68003742
 N     56  55  54     1.316253645769   122.66223214   179.59218548
 C     57  56  55     1.355816643208   120.15159740   359.67235288
 C     58  57  56     1.366235854456   121.81370723     0.86099784
 C     59  58  57     1.409474873845   119.79705280   359.65388931
 H     52  51  50     1.079500314961   119.31409878     0.84019566
 H     53  52  51     1.079177918603   118.89738947   180.02535242
 H     54  53  52     1.078428421361   120.68804551   179.59457508
 H     56  55  54     1.088068991379   120.08231624   359.54695238
 H     58  57  56     1.088216053916   115.93340534   180.95986385
 H     59  58  57     1.078024234421   121.16977233   179.74539998
 C     49  19  12     1.409366006401   118.99721574   130.58071142
 C     67  49  19     1.416564456705   119.52512161   192.55025017
 C     68  67  49     1.364403184546   120.22310894   179.73570800
 C     69  68  67     1.411976334788   121.03883304   359.96231369
 C     70  69  68     1.411945951515   122.07931030   180.00030844
 C     71  70  69     1.364302070657   121.03688694   180.15369941
 C     72  71  70     1.416730775412   120.12525508   359.90596689
 C     73  72  71     1.379629798171   120.10501414   359.94367332
 C     74  73  72     1.407609224892   120.55190527     0.16714672
 C     67  49  19     1.379452507338   120.52387498    12.27357007
 H     68  67  49     1.079830843234   119.07536844   359.70728003
 H     69  68  67     1.080691422192   120.28337560   179.99224122
 H     71  70  69     1.080619660195   118.62507412     0.07885069
 H     72  71  70     1.079619104129   120.66955755   179.92332584
 H     74  73  72     1.079220876373   120.16714449   180.00070624
 H     76  67  49     1.079254599249   120.19372793     0.11107028
 C     73  72  71     1.408409961623   119.38583316   179.49751997
 C     83  73  72     1.209238396678   179.52908519   253.99252289
 C     84  83  73     1.406833799708   178.65927046    55.40280969
 C     85  84  83     1.402450961710   121.23387587    45.66514225
 C     86  85  84     1.383010806176   119.10490640   181.10744909
 C     87  86  85     1.386492524322   119.23505544     0.13394490
 N     88  87  86     1.336060496385   121.51634430   359.47957032
 C     89  88  87     1.330666378173   120.27656807     0.31928304
 H     86  85  84     1.078811049257   119.84808996     0.88846933
 H     87  86  85     1.077955931381   120.66906956   179.90570503
 H     88  87  86     1.087878619148   121.68097594   179.46865038
 H     90  89  88     1.088195446600   117.12329867   180.29650666
 C     94  90  89     7.779078726944   103.05844964   281.22640766
 C     95  94  90     1.209427182595    58.34716477    34.90642699
 C     96  95  94     1.407730553053   178.99296651    83.17395415
 C     97  96  95     1.384222330408   120.79325579   113.95282456
 C     98  97  96     1.399545661992   121.07573004   181.01976543
 C     99  98  97     1.371034014895   120.98051768     0.26571933
 C    100  99  98     1.411313494586   119.72036300   359.53182615
 C    101 100  99     1.407500014210   122.44193337   179.74685557
 N    102 101 100     1.316288908257   122.66844274   179.57228962
 C    103 102 101     1.355788029155   120.14684997   359.70683117
 C    104 103 102     1.366166468627   121.81292348     0.80880009
 C    105 104 103     1.409455167786   119.80631282   359.65346460
 H     98  97  96     1.079489226440   119.31489509     0.82608051
 H     99  98  97     1.079241942291   118.90530264   180.02760320
 H    100  99  98     1.078382756724   120.68932517   179.60841216
 H    102 101 100     1.088083039111   120.07586725   359.53171417
 H    104 103 102     1.088174273726   115.93208865   180.89052035
 H    105 104 103     1.078109781052   121.16729754   179.77675513
 C     95  94  90     1.409409145706   121.70599531   214.57817731
 C    113  95  94     1.416521376471   119.54142239   156.34762185
 C    114 113  95     1.364389790346   120.22626400   179.70876604
 C    115 114 113     1.411898381613   121.03839538   359.96603681
 C    116 115 114     1.411980870975   122.08032486   180.02905753
 C    117 116 115     1.364348291310   121.03220409   180.12336241
 C    118 117 116     1.416767902657   120.12545426   359.92290664
 C    119 118 117     1.379604037396   120.10930245   359.93731932
 C    120 119 118     1.407618549182   120.54820600     0.15207721
 C    113  95  94     1.379443242761   120.50725311   336.06148853
 H    114 113  95     1.079986861031   119.07721277   359.68979461
 H    115 114 113     1.080727611380   120.28186101   179.98623957
 H    117 116 115     1.080583814426   118.62233103     0.05547722
 H    118 117 116     1.079673645135   120.66202122   179.93054843
 H    120 119 118     1.079106046689   120.16461298   180.00683901
 H    122 113  95     1.079172164207   120.19680802     0.11037870
 C    119 118 117     1.408443662345   119.37811622   179.48212077
 C    129 119 118     1.209240691509   179.50907393   253.72428147
 C    130 129 119     1.406830540612   178.57300571    56.00845644
 C    131 130 129     1.402418486045   121.21625543    45.89779626
 C    132 131 130     1.382927489061   119.10557998   181.19172274
 C    133 132 131     1.386470216052   119.23510564     0.15747258
 N    134 133 132     1.336074758387   121.52085222   359.42827048
 C    135 134 133     1.330656751383   120.27071375     0.34028529
 H    132 131 130     1.078821695184   119.84833954     0.96311703
 H    133 132 131     1.077989355235   120.67252740   179.89989555
 H    134 133 132     1.087920148724   121.66902903   179.41350918
 H    136 135 134     1.088211142196   117.12004732   180.32118887
 C    111 104 103     7.505083192743    97.37500740   273.32033700
 C    141 111 104     1.209503402228    60.73628701    48.61428670
 C    142 141 111     1.407682528129   179.00531035   309.93386996
 C    143 142 141     1.384211638443   120.77722832   248.90566290
 C    144 143 142     1.399554446958   121.07924734   178.98316399
 C    145 144 143     1.371099956240   120.97666473   359.72500493
 C    146 145 144     1.411339509119   119.71658749     0.47436270
 C    147 146 145     1.407590686244   122.43548447   180.31052309
 N    148 147 146     1.316192470728   122.66831229   180.40418197
 C    149 148 147     1.355776109835   120.15138567     0.31225764
 C    150 149 148     1.366267814157   121.80922984   359.16399567
 C    151 150 149     1.409390201470   119.80569003     0.33807165
 H    144 143 142     1.079560183593   119.31128769   359.17209571
 H    145 144 143     1.079193541493   118.90778477   179.98006578
 H    146 145 144     1.078293781861   120.68582184   180.39747030
 H    148 147 146     1.088110752635   120.06405902     0.44928553
 H    150 149 148     1.088123159390   115.93775168   179.03825000
 H    151 150 149     1.078087273833   121.16873080   180.22932737
 C    141 111 104     1.409379384694   119.13469562   228.85994295
 C    159 141 111     1.416612356998   119.53665091   167.93831063
 C    160 159 141     1.364380980518   120.22011689   180.23117419
 C    161 160 159     1.411988813695   121.04326145     0.02827831
 C    162 161 160     1.411945200778   122.08584094   180.01752094
 C    163 162 161     1.364333635882   121.03594099   179.85813403
 C    164 163 162     1.416654587399   120.12524087     0.10049538
 C    165 164 163     1.379637883649   120.10498558     0.05200181
 C    166 165 164     1.407561998635   120.55450793   359.82358412
 C    159 141 111     1.379474381785   120.51158571   348.18904678
 H    160 159 141     1.079836714508   119.07646137     0.26036025
 H    161 160 159     1.080768680153   120.27957646   180.02047304
 H    163 162 161     1.080621839498   118.62509913   359.93110159
 H    164 163 162     1.079612041430   120.66502446   180.08085444
 H    166 165 164     1.079231745271   120.16645592   180.00408193
 H    168 159 141     1.079140241118   120.19220392   359.93164670
 C    165 164 163     1.408406862380   119.40452822   180.48244759
 C    175 165 164     1.209234749749   179.51276485   112.86157328
 C    176 175 165     1.406859456378   178.66201212   295.43161033
 C    177 176 175     1.402344358565   121.22348642   317.03241797
 C    178 177 176     1.383016579799   119.10613865   178.92652543
 C    179 178 177     1.386511716503   119.22912567   359.89097952
 N    180 179 178     1.336067924920   121.52566980     0.49545147
 C    181 180 179     1.330676583547   120.27108268   359.68014332
 H    178 177 176     1.078827567316   119.85044038   359.14043188
 H    179 178 177     1.077921430346   120.67191611   180.10201232
 H    180 179 178     1.087977228622   121.66243181   180.53976214
 H    182 181 180     1.088196806649   117.12085765   179.70536226

---------------------------
INTERNAL COORDINATES (A.U.)
---------------------------
 Pd     0   0   0     0.000000000000     0.00000000     0.00000000
 Pd     1   0   0    25.267537612143     0.00000000     0.00000000
 C      2   1   0    14.812828775224    63.08084249     0.00000000
 C      3   2   1     2.285608088024    43.11332161   177.25400481
 C      4   3   2     2.660197555495   178.97801132   293.71236219
 C      5   4   3     2.615892155849   120.77477753   249.77120976
 C      6   5   4     2.644678469096   121.07677710   178.94946713
 C      7   6   5     2.590960362463   120.98060256   359.69979538
 C      8   7   6     2.667021374195   119.71768609     0.49415401
 C      9   8   7     2.659685962402   122.43372728   180.37317502
 N     10   9   8     2.487529344831   122.66569898   180.37848504
 C     11  10   9     2.562140409052   120.14562428     0.36208539
 C     12  11  10     2.581700494350   121.81290935   359.08529597
 C     13  12  11     2.663539503458   119.80584198     0.36368242
 H      6   5   4     2.040053399315   119.30691933   359.13900803
 H      7   6   5     2.039386122451   118.90143919   179.97147181
 H      8   7   6     2.037804574690   120.68679563   180.41264647
 H     10   9   8     2.055999636509   120.07679661     0.43808052
 H     12  11  10     2.056442298499   115.92338342   178.97813278
 H     13  12  11     2.037336426476   121.16905101   180.26284792
 C      3   2   1     2.663273082054   136.84605442   357.60042511
 C     21   3   2     2.676983880253   119.52817341   182.60729735
 C     22  21   3     2.578497025762   120.22694586   180.22184675
 C     23  22  21     2.668158842089   121.03333142     0.02441061
 C     24  23  22     2.668175083528   122.07814112   180.04354089
 C     25  24  23     2.578315176667   121.03785186   179.84039790
 C     26  25  24     2.677144367560   120.11810006     0.11522427
 C     27  26  25     2.607048312577   120.11301986     0.04724844
 C     28  27  26     2.660065271530   120.54947539   359.81109819
 C     21   3   2     2.606621600158   120.52412513     2.86438871
 H     22  21   3     2.040661362879   119.07874212     0.25205493
 H     23  22  21     2.042077529783   120.27831968   180.01801370
 H     25  24  23     2.042094579937   118.62602398   359.91811035
 H     26  25  24     2.040072593196   120.66730245   180.09531068
 H     28  27  26     2.039434161912   120.17009582   180.01603484
 H     30  21   3     2.039551598616   120.19384320   359.92463285
 C     27  26  25     2.661645858828   119.40017469   180.47407881
 C     37  27  26     2.285167194916   179.54123250   113.46823245
 C     38  37  27     2.658475006508   178.74900515   294.24764600
 C     39  38  37     2.650314662113   121.23785462   318.22458173
 C     40  39  38     2.613564795293   119.10146088   179.01651063
 C     41  40  39     2.620129415549   119.23398360   359.91094229
 N     42  41  40     2.524616220175   121.52259557     0.46011405
 C     43  42  41     2.514710974627   120.27423807   359.68314335
 H     40  39  38     2.038617994005   119.84601712   359.21877313
 H     41  40  39     2.037149524474   120.66343849   180.10793071
 H     42  41  40     2.055910088702   121.67178178   180.48881317
 H     44  43  42     2.056488376692   117.11852933   179.73480500
 C     19  12  11    14.192326526671    96.18388675    87.45477553
 C     49  19  12     2.285631196003    60.92293408   310.86327613
 C     50  49  19     2.660170767651   178.97049496    48.06010119
 C     51  50  49     2.615917936433   120.78574836   113.29052161
 C     52  51  50     2.644872004855   121.07254934   181.03337623
 C     53  52  51     2.590772420487   120.97967722     0.28825557
 C     54  53  52     2.666987571652   119.72125977   359.51485534
 C     55  54  53     2.659882548015   122.43731902   179.68003742
 N     56  55  54     2.487358913279   122.66223214   179.59218548
 C     57  56  55     2.562122143476   120.15159740   359.67235288
 C     58  57  56     2.581811599265   121.81370723     0.86099784
 C     59  58  57     2.663521504210   119.79705280   359.65388931
 H     52  51  50     2.039959956757   119.31409878     0.84019566
 H     53  52  51     2.039350715935   118.89738947   180.02535242
 H     54  53  52     2.037934371410   120.68804551   179.59457508
 H     56  55  54     2.056152408518   120.08231624   359.54695238
 H     58  57  56     2.056430316437   115.93340534   180.95986385
 H     59  58  57     2.037170568787   121.16977233   179.74539998
 C     49  19  12     2.663315774557   118.99721574   130.58071142
 C     67  49  19     2.676918874219   119.52512161   192.55025017
 C     68  67  49     2.578348355042   120.22310894   179.73570800
 C     69  68  67     2.668248580326   121.03883304   359.96231369
 C     70  69  68     2.668191164262   122.07931030   180.00030844
 C     71  70  69     2.578157277484   121.03688694   180.15369941
 C     72  71  70     2.677233171027   120.12525508   359.90596689
 C     73  72  71     2.607122484739   120.10501414   359.94367332
 C     74  73  72     2.659995938626   120.55190527     0.16714672
 C     67  49  19     2.606787453619   120.52387498    12.27357007
 H     68  67  49     2.040584564674   119.07536844   359.70728003
 H     69  68  67     2.042210823221   120.28337560   179.99224122
 H     71  70  69     2.042075212700   118.62507412     0.07885069
 H     72  71  70     2.040184435753   120.66955755   179.92332584
 H     74  73  72     2.039431894356   120.16714449   180.00070624
 H     76  67  49     2.039495621355   120.19372793     0.11107028
 C     73  72  71     2.661509111755   119.38583316   179.49751997
 C     83  73  72     2.285129400343   179.52908519   253.99252289
 C     84  83  73     2.658530597391   178.65927046    55.40280969
 C     85  84  83     2.650248233886   121.23387587    45.66514225
 C     86  85  84     2.613511663927   119.10490640   181.10744909
 C     87  86  85     2.620091157697   119.23505544     0.13394490
 N     88  87  86     2.524788436518   121.51634430   359.47957032
 C     89  88  87     2.514595030364   120.27656807     0.31928304
 H     86  85  84     2.038657433345   119.84808996     0.88846933
 H     87  86  85     2.037041494747   120.66906956   179.90570503
 H     88  87  86     2.055792657139   121.68097594   179.46865038
 H     90  89  88     2.056391374253   117.12329867   180.29650666
 C     94  90  89    14.700328368138   103.05844964   281.22640766
 C     95  94  90     2.285486154025    58.34716477    34.90642699
 C     96  95  94     2.660225215624   178.99296651    83.17395415
 C     97  96  95     2.615801112929   120.79325579   113.95282456
 C     98  97  96     2.644758013082   121.07573004   181.01976543
 C     99  98  97     2.590878808443   120.98051768     0.26571933
 C    100  99  98     2.666995993875   119.72036300   359.53182615
 C    101 100  99     2.659789560346   122.44193337   179.74685557
 N    102 101 100     2.487425549724   122.66844274   179.57228962
 C    103 102 101     2.562068070752   120.14684997   359.70683117
 C    104 103 102     2.581680479051   121.81292348     0.80880009
 C    105 104 103     2.663484265156   119.80631282   359.65346460
 H     98  97  96     2.039939002490   119.31489509     0.82608051
 H     99  98  97     2.039471703171   118.90530264   180.02760320
 H    100  99  98     2.037848077752   120.68932517   179.60841216
 H    102 101 100     2.056178954884   120.07586725   359.53171417
 H    104 103 102     2.056351363322   115.93208865   180.89052035
 H    105 104 103     2.037332228490   121.16729754   179.77675513
 C     95  94  90     2.663397296028   121.70599531   214.57817731
 C    113  95  94     2.676837464376   119.54142239   156.34762185
 C    114 113  95     2.578323043672   120.22626400   179.70876604
 C    115 114 113     2.668101270174   121.03839538   359.96603681
 C    116 115 114     2.668257152479   122.08032486   180.02905753
 C    117 116 115     2.578244621859   121.03220409   180.12336241
 C    118 117 116     2.677303331352   120.12545426   359.92290664
 C    119 118 117     2.607073803931   120.10930245   359.93731932
 C    120 119 118     2.660013558981   120.54820600     0.15207721
 C    113  95  94     2.606769946107   120.50725311   336.06148853
 H    114 113  95     2.040879395582   119.07721277   359.68979461
 H    115 114 113     2.042279210876   120.28186101   179.98623957
 H    117 116 115     2.042007474014   118.62233103     0.05547722
 H    118 117 116     2.040287503318   120.66202122   179.93054843
 H    120 119 118     2.039214897700   120.16461298   180.00683901
 H    122 113  95     2.039339841703   120.19680802     0.11037870
 C    119 118 117     2.661572796889   119.37811622   179.48212077
 C    129 119 118     2.285133736945   179.50907393   253.72428147
 C    130 129 119     2.658524438594   178.57300571    56.00845644
 C    131 130 129     2.650186863773   121.21625543    45.89779626
 C    132 131 130     2.613354217396   119.10557998   181.19172274
 C    133 132 131     2.620049001177   119.23510564     0.15747258
 N    134 133 132     2.524815387797   121.52085222   359.42827048
 C    135 134 133     2.514576838366   120.27071375     0.34028529
 H    132 131 130     2.038677551231   119.84833954     0.96311703
 H    133 132 131     2.037104656677   120.67252740   179.89989555
 H    134 133 132     2.055871136664   121.66902903   179.41350918
 H    136 135 134     2.056421034632   117.12004732   180.32118887
 C    111 104 103    14.182551846580    97.37500740   273.32033700
 C    141 111 104     2.285630188256    60.73628701    48.61428670
 C    142 141 111     2.660134461670   179.00531035   309.93386996
 C    143 142 141     2.615780908043   120.77722832   248.90566290
 C    144 143 142     2.644774614262   121.07924734   178.98316399
 C    145 144 143     2.591003419524   120.97666473   359.72500493
 C    146 145 144     2.667045154218   119.71658749     0.47436270
 C    147 146 145     2.659960905659   122.43548447   180.31052309
 N    148 147 146     2.487243309204   122.66831229   180.40418197
 C    149 148 147     2.562045546502   120.15138567     0.31225764
 C    150 149 148     2.581871994347   121.80922984   359.16399567
 C    151 150 149     2.663361496611   119.80569003     0.33807165
 H    144 143 142     2.040073092077   119.31128769   359.17209571
 H    145 144 143     2.039380238918   118.90778477   179.98006578
 H    146 145 144     2.037679939627   120.68582184   180.39747030
 H    148 147 146     2.056231325855   120.06405902     0.44928553
 H    150 149 148     2.056254771223   115.93775168   179.03825000
 H    151 150 149     2.037289696010   121.16873080   180.22932737
 C    141 111 104     2.663341055866   119.13469562   228.85994295
 C    159 141 111     2.677009392655   119.53665091   167.93831063
 C    160 159 141     2.578306395510   120.22011689   180.23117419
 C    161 160 159     2.668272162044   121.04326145     0.02827831
 C    162 161 160     2.668189745575   122.08584094   180.01752094
 C    163 162 161     2.578216927115   121.03594099   179.85813403
 C    164 163 162     2.677089196548   120.12524087     0.10049538
 C    165 164 163     2.607137764080   120.10498558     0.05200181
 C    166 165 164     2.659906693934   120.55450793   359.82358412
 C    159 141 111     2.606828790333   120.51158571   348.18904678
 H    160 159 141     2.040595659774   119.07646137     0.26036025
 H    161 160 159     2.042356819609   120.27957646   180.02047304
 H    163 162 161     2.042079330985   118.62509913   359.93110159
 H    164 163 162     2.040171089186   120.66502446   180.08085444
 H    166 165 164     2.039452433595   120.16645592   180.00408193
 H    168 159 141     2.039279515807   120.19220392   359.93164670
 C    165 164 163     2.661503255034   119.40452822   180.48244759
 C    175 165 164     2.285122508646   179.51276485   112.86157328
 C    176 175 165     2.658579081472   178.66201212   295.43161033
 C    177 176 175     2.650046783138   121.22348642   317.03241797
 C    178 177 176     2.613522574493   119.10613865   178.92652543
 C    179 178 177     2.620127425664   119.22912567   359.89097952
 N    180 179 178     2.524802474415   121.52566980     0.49545147
 C    181 180 179     2.514614315726   120.27108268   359.68014332
 H    178 177 176     2.038688647951   119.85044038   359.14043188
 H    179 178 177     2.036976297239   120.67191611   180.10201232
 H    180 179 178     2.055979002038   121.66243181   180.53976214
 H    182 181 180     2.056393944373   117.12085765   179.70536226

---------------------
BASIS SET INFORMATION
---------------------
There are 4 groups of distinct atoms

 Group   1 Type Pd  : 7s6p5d1f contracted to 5s3p2d1f pattern {31111/411/41/1}
 Group   2 Type C   : 7s4p1d contracted to 3s2p1d pattern {511/31/1}
 Group   3 Type N   : 7s4p1d contracted to 3s2p1d pattern {511/31/1}
 Group   4 Type H   : 4s1p contracted to 2s1p pattern {31/1}

Atom   0Pd   basis set group =>   1
Atom   1Pd   basis set group =>   1
Atom   2C    basis set group =>   2
Atom   3C    basis set group =>   2
Atom   4C    basis set group =>   2
Atom   5C    basis set group =>   2
Atom   6C    basis set group =>   2
Atom   7C    basis set group =>   2
Atom   8C    basis set group =>   2
Atom   9C    basis set group =>   2
Atom  10N    basis set group =>   3
Atom  11C    basis set group =>   2
Atom  12C    basis set group =>   2
Atom  13C    basis set group =>   2
Atom  14H    basis set group =>   4
Atom  15H    basis set group =>   4
Atom  16H    basis set group =>   4
Atom  17H    basis set group =>   4
Atom  18H    basis set group =>   4
Atom  19H    basis set group =>   4
Atom  20C    basis set group =>   2
Atom  21C    basis set group =>   2
Atom  22C    basis set group =>   2
Atom  23C    basis set group =>   2
Atom  24C    basis set group =>   2
Atom  25C    basis set group =>   2
Atom  26C    basis set group =>   2
Atom  27C    basis set group =>   2
Atom  28C    basis set group =>   2
Atom  29C    basis set group =>   2
Atom  30H    basis set group =>   4
Atom  31H    basis set group =>   4
Atom  32H    basis set group =>   4
Atom  33H    basis set group =>   4
Atom  34H    basis set group =>   4
Atom  35H    basis set group =>   4
Atom  36C    basis set group =>   2
Atom  37C    basis set group =>   2
Atom  38C    basis set group =>   2
Atom  39C    basis set group =>   2
Atom  40C    basis set group =>   2
Atom  41C    basis set group =>   2
Atom  42N    basis set group =>   3
Atom  43C    basis set group =>   2
Atom  44H    basis set group =>   4
Atom  45H    basis set group =>   4
Atom  46H    basis set group =>   4
Atom  47H    basis set group =>   4
Atom  48C    basis set group =>   2
Atom  49C    basis set group =>   2
Atom  50C    basis set group =>   2
Atom  51C    basis set group =>   2
Atom  52C    basis set group =>   2
Atom  53C    basis set group =>   2
Atom  54C    basis set group =>   2
Atom  55C    basis set group =>   2
Atom  56N    basis set group =>   3
Atom  57C    basis set group =>   2
Atom  58C    basis set group =>   2
Atom  59C    basis set group =>   2
Atom  60H    basis set group =>   4
Atom  61H    basis set group =>   4
Atom  62H    basis set group =>   4
Atom  63H    basis set group =>   4
Atom  64H    basis set group =>   4
Atom  65H    basis set group =>   4
Atom  66C    basis set group =>   2
Atom  67C    basis set group =>   2
Atom  68C    basis set group =>   2
Atom  69C    basis set group =>   2
Atom  70C    basis set group =>   2
Atom  71C    basis set group =>   2
Atom  72C    basis set group =>   2
Atom  73C    basis set group =>   2
Atom  74C    basis set group =>   2
Atom  75C    basis set group =>   2
Atom  76H    basis set group =>   4
Atom  77H    basis set group =>   4
Atom  78H    basis set group =>   4
Atom  79H    basis set group =>   4
Atom  80H    basis set group =>   4
Atom  81H    basis set group =>   4
Atom  82C    basis set group =>   2
Atom  83C    basis set group =>   2
Atom  84C    basis set group =>   2
Atom  85C    basis set group =>   2
Atom  86C    basis set group =>   2
Atom  87C    basis set group =>   2
Atom  88N    basis set group =>   3
Atom  89C    basis set group =>   2
Atom  90H    basis set group =>   4
Atom  91H    basis set group =>   4
Atom  92H    basis set group =>   4
Atom  93H    basis set group =>   4
Atom  94C    basis set group =>   2
Atom  95C    basis set group =>   2
Atom  96C    basis set group =>   2
Atom  97C    basis set group =>   2
Atom  98C    basis set group =>   2
Atom  99C    basis set group =>   2
Atom 100C    basis set group =>   2
Atom 101C    basis set group =>   2
Atom 102N    basis set group =>   3
Atom 103C    basis set group =>   2
Atom 104C    basis set group =>   2
Atom 105C    basis set group =>   2
Atom 106H    basis set group =>   4
Atom 107H    basis set group =>   4
Atom 108H    basis set group =>   4
Atom 109H    basis set group =>   4
Atom 110H    basis set group =>   4
Atom 111H    basis set group =>   4
Atom 112C    basis set group =>   2
Atom 113C    basis set group =>   2
Atom 114C    basis set group =>   2
Atom 115C    basis set group =>   2
Atom 116C    basis set group =>   2
Atom 117C    basis set group =>   2
Atom 118C    basis set group =>   2
Atom 119C    basis set group =>   2
Atom 120C    basis set group =>   2
Atom 121C    basis set group =>   2
Atom 122H    basis set group =>   4
Atom 123H    basis set group =>   4
Atom 124H    basis set group =>   4
Atom 125H    basis set group =>   4
Atom 126H    basis set group =>   4
Atom 127H    basis set group =>   4
Atom 128C    basis set group =>   2
Atom 129C    basis set group =>   2
Atom 130C    basis set group =>   2
Atom 131C    basis set group =>   2
Atom 132C    basis set group =>   2
Atom 133C    basis set group =>   2
Atom 134N    basis set group =>   3
Atom 135C    basis set group =>   2
Atom 136H    basis set group =>   4
Atom 137H    basis set group =>   4
Atom 138H    basis set group =>   4
Atom 139H    basis set group =>   4
Atom 140C    basis set group =>   2
Atom 141C    basis set group =>   2
Atom 142C    basis set group =>   2
Atom 143C    basis set group =>   2
Atom 144C    basis set group =>   2
Atom 145C    basis set group =>   2
Atom 146C    basis set group =>   2
Atom 147C    basis set group =>   2
Atom 148N    basis set group =>   3
Atom 149C    basis set group =>   2
Atom 150C    basis set group =>   2
Atom 151C    basis set group =>   2
Atom 152H    basis set group =>   4
Atom 153H    basis set group =>   4
Atom 154H    basis set group =>   4
Atom 155H    basis set group =>   4
Atom 156H    basis set group =>   4
Atom 157H    basis set group =>   4
Atom 158C    basis set group =>   2
Atom 159C    basis set group =>   2
Atom 160C    basis set group =>   2
Atom 161C    basis set group =>   2
Atom 162C    basis set group =>   2
Atom 163C    basis set group =>   2
Atom 164C    basis set group =>   2
Atom 165C    basis set group =>   2
Atom 166C    basis set group =>   2
Atom 167C    basis set group =>   2
Atom 168H    basis set group =>   4
Atom 169H    basis set group =>   4
Atom 170H    basis set group =>   4
Atom 171H    basis set group =>   4
Atom 172H    basis set group =>   4
Atom 173H    basis set group =>   4
Atom 174C    basis set group =>   2
Atom 175C    basis set group =>   2
Atom 176C    basis set group =>   2
Atom 177C    basis set group =>   2
Atom 178C    basis set group =>   2
Atom 179C    basis set group =>   2
Atom 180N    basis set group =>   3
Atom 181C    basis set group =>   2
Atom 182H    basis set group =>   4
Atom 183H    basis set group =>   4
Atom 184H    basis set group =>   4
Atom 185H    basis set group =>   4

-------------------------
BASIS SET IN INPUT FORMAT
-------------------------

 # Basis set for element : H 
 NewGTO H 
 S 3 
   1      13.0107010000      0.0334854848
   2       1.9622572000      0.2347218709
   3       0.4445379600      0.8137702853
 S 1 
   1       0.1219496200      1.0000000000
 P 1 
   1       0.8000000000      1.0000000000
  end;

 # Basis set for element : C 
 NewGTO C 
 S 5 
   1    1238.4016938000      0.0055173650
   2     186.2900499200      0.0410888285
   3      42.2511763460      0.1822538213
   4      11.6765579320      0.4682845944
   5       3.5930506482      0.4457581734
 S 1 
   1       0.4024514736      1.0000000000
 S 1 
   1       0.1309018267      1.0000000000
 P 3 
   1       9.4680970621      0.0568883320
   2       2.0103545142      0.3129405934
   3       0.5477100471      0.7606501651
 P 1 
   1       0.1526861379      1.0000000000
 D 1 
   1       0.8000000000      1.0000000000
  end;

 # Basis set for element : N 
 NewGTO N 
 S 5 
   1    1712.8415853000     -0.0054477995
   2     257.6481267700     -0.0406271746
   3      58.4582458530     -0.1811196225
   4      16.1983679050     -0.4684397556
   5       5.0052600809     -0.4461684629
 S 1 
   1       0.5873185657      1.0000000000
 S 1 
   1       0.1876459225      1.0000000000
 P 3 
   1      13.5714702330     -0.0588481170
   2       2.9257372874     -0.3202462476
   3       0.7992775075     -0.7532822652
 P 1 
   1       0.2195434803      1.0000000000
 D 1 
   1       1.0000000000      1.0000000000
  end;

 # Basis set for element : Pd
 NewGTO Pd
 S 3 
   1       8.4756400000      2.1727229431
   2       7.1657170000     -2.9039633126
   3       3.1821100000     -0.2310570076
 S 1 
   1       1.3973644196      1.0000000000
 S 1 
   1       0.6053295587      1.0000000000
 S 1 
   1       0.1022951421      1.0000000000
 S 1 
   1       0.0373389729      1.0000000000
 P 4 
   1       4.2460970000     -0.8346018694
   2       3.3925940000      0.8828643810
   3       1.1975891264      0.6438870170
   4       0.5267375059      0.2760105151
 P 1 
   1       0.2060709410      1.0000000000
 P 1 
   1       0.0370000000      1.0000000000
 D 4 
   1       7.3613290985     -0.0186922795
   2       2.6291037258      0.2533662423
   3       1.1292744634      0.4840070353
   4       0.4447165990      0.4270306822
 D 1 
   1       0.1554489384      1.0000000000
 F 1 
   1       1.2462900000      1.0000000000
  end;

-------------------------
ECP PARAMETER INFORMATION
-------------------------

 Group 1, Type Pd ECP Def2-ECP (replacing 28 core electrons, lmax=3)

Atom   0Pd   ECP group =>   1
Atom   1Pd   ECP group =>   1


-------------------------
ECP BASIS IN INPUT FORMAT
-------------------------

 #ECP Def2-ECP
 NewECP Pd
   N_core 28
   lmax f
   s 4
     1      12.4300000000    240.2290403000  2
     2       6.1707594000     35.1719435000  2
     3      13.2700000000     31.9295543000  2
     4       6.6300000000      5.3982169000  2
   p 4
     1      11.0800000000    170.4172760000  2
     2       5.8295541000     28.4721329000  2
     3      13.2700000000     31.9295543000  2
     4       6.6300000000      5.3982169000  2
   d 4
     1       9.5100000000     69.0138449000  2
     2       4.1397811000     11.7508616000  2
     3      13.2700000000     31.9295543000  2
     4       6.6300000000      5.3982169000  2
   f 2
     1      13.2700000000    -31.9295543000  2
     2       6.6300000000     -5.3982169000  2
 End




           ************************************************************
           *        Program running with 32 parallel MPI-processes    *
           *              working on a common directory               *
           ************************************************************
------------------------------------------------------------------------------
                           ORCA GTO INTEGRAL CALCULATION
------------------------------------------------------------------------------

                         BASIS SET STATISTICS AND STARTUP INFO

 # of primitive gaussian shells          ... 1798
 # of primitive gaussian functions       ... 3442
 # of contracted shells                  ...  934
 # of contracted basis functions         ... 2062
 Highest angular momentum                ...    3
 Maximum contraction depth               ...    5
 Integral package used                   ... LIBINT
 Integral threshhold            Thresh   ...  2.500e-11
 Primitive cut-off              TCut     ...  2.500e-12


------------------------------ INTEGRAL EVALUATION ----------------------------


 * One electron integrals 

   ECP integrals                         ... done
 Pre-screening matrix                    ... done
 Shell pair data                         ... done (   0.031 sec)



           ************************************************************
           *        Program running with 32 parallel MPI-processes    *
           *              working on a common directory               *
           ************************************************************
-------------------------------------------------------------------------------
                                 ORCA SCF
-------------------------------------------------------------------------------

------------
SCF SETTINGS
------------
Hamiltonian:
 Density Functional     Method          .... DFT(GTOs)
 Exchange Functional    Exchange        .... PBE
   PBE kappa parameter   XKappa         ....  0.804000
   PBE mue parameter    XMuePBE         ....  0.219520
 Correlation Functional Correlation     .... PBE
   PBE beta parameter  CBetaPBE         ....  0.066725
 LDA part of GGA corr.  LDAOpt          .... PW91-LDA
 Gradients option       PostSCFGGA      .... off
 Hybrid DFT is turned on
   Fraction HF Exchange ScalHFX         ....  0.250000
   Scaling of DF-GGA-X  ScalDFX         ....  0.750000
   Scaling of DF-GGA-C  ScalDFC         ....  1.000000
   Scaling of DF-LDA-C  ScalLDAC        ....  1.000000
   Perturbative correction              ....  0.000000
   Density functional embedding theory  .... OFF
   NL short-range parameter             ....  6.900000


General Settings:
 Integral files         IntName         .... _s_5a3_c_PBE0
 Hartree-Fock type      HFTyp           .... RHF
 Total Charge           Charge          ....    4
 Multiplicity           Mult            ....    1
 Number of Electrons    NEL             ....  824
 Basis Dimension        Dim             .... 2062
 Nuclear Repulsion      ENuc            ....  22679.5045571241 Eh

Convergence Acceleration:
 DIIS                   CNVDIIS         .... on
   Start iteration      DIISMaxIt       ....     0
   Startup error        DIISStart       ....  0.200000
   # of expansion vecs  DIISMaxEq       ....     5
   Bias factor          DIISBfac        ....   1.050
   Max. coefficient     DIISMaxC        ....  10.000
 Newton-Raphson         CNVNR           .... off
 SOSCF                  CNVSOSCF        .... off
 Level Shifting         CNVShift        .... on
   Level shift para.    LevelShift      ....    0.2500
   Turn off err/grad.   ShiftErr        ....    0.0000
 Zerner damping         CNVZerner       .... off
 Static damping         CNVDamp         .... on
   Fraction old density DampFac         ....    0.8500
   Max. Damping (<1)    DampMax         ....    0.9800
   Min. Damping (>=0)   DampMin         ....    0.0000
   Turn off err/grad.   DampErr         ....    0.0300
 Fernandez-Rico         CNVRico         .... off

SCF Procedure:
 Maximum # iterations   MaxIter         ....  2000
 SCF integral mode      SCFMode         .... Direct
   Integral package                     .... LIBINT
 Reset frequency        DirectResetFreq ....    20
 Integral Threshold     Thresh          ....  2.500e-11 Eh
 Primitive CutOff       TCut            ....  2.500e-12 Eh

Convergence Tolerance:
 Convergence Check Mode ConvCheckMode   .... Total+1el-Energy
 Convergence forced     ConvForced      .... 0
 Energy Change          TolE            ....  1.000e-08 Eh
 1-El. energy change                    ....  1.000e-05 Eh
 DIIS Error             TolErr          ....  5.000e-07


Diagonalization of the overlap matrix:
Smallest eigenvalue                        ... 2.387e-04
Time for diagonalization                   ...    0.611 sec
Threshold for overlap eigenvalues          ... 1.000e-08
Number of eigenvalues below threshold      ... 0
Time for construction of square roots      ...    0.636 sec
Total time needed                          ...    1.256 sec

-------------------
DFT GRID GENERATION
-------------------

General Integration Accuracy     IntAcc      ...  5.340
Radial Grid Type                 RadialGrid  ... Gauss-Chebyshev
Angular Grid (max. acc.)         AngularGrid ... Lebedev-590
Angular grid pruning method      GridPruning ... 3 (G Style)
Weight generation scheme         WeightScheme... Becke
Basis function cutoff            BFCut       ...    1.0000e-11
Integration weight cutoff        WCut        ...    1.0000e-14
Grids for H and He will be reduced by one unit

# of grid points (after initial pruning)     ... 2734628 (   0.0 sec)
# of grid points (after weights+screening)   ... 2265990 (  17.4 sec)
nearest neighbour list constructed           ...    0.0 sec
Grid point re-assignment to atoms done       ...    0.3 sec
Grid point division into batches done        ...   23.5 sec
Reduced shell lists constructed in   24.7 sec

Total number of grid points                  ...  2265990
Total number of batches                      ...    35503
Average number of points per batch           ...       63
Average number of grid points per atom       ...    12183
Average number of shells per batch           ...   128.22 (13.73%)
Average number of basis functions per batch  ...   265.59 (12.88%)
Average number of large shells per batch     ...    76.21 (59.44%)
Average number of large basis fcns per batch ...   157.96 (59.48%)
Maximum spatial batch extension              ...   8.48,  4.73,  9.76 au
Average spatial batch extension              ...   0.03,  0.03,  0.03 au

Time for grid setup =   43.160 sec

------------------------------
INITIAL GUESS: MODEL POTENTIAL
------------------------------
Loading Hartree-Fock densities                     ... done
  calling /work/e05/e05/atarzia/orca_4_2_1_linux_x86-64_openmpi314/orca _s_5a3_c_PBE0_atom46.inp > _s_5a3_c_PBE0_atom46.out in order to generate an atomic fitting density for atom 0 (Pd with ECP) on-the-fly... 
    atom 0 (Pd), assumed electronic state with S=3: 1s2 2s2 2p6 3s2 3p6 4s2 3d10 4p6 5s2 4d8           ... done
Calculating cut-offs                               ... done
Setting up the integral package                    ... done
Initializing the effective Hamiltonian             ... done
Starting the Coulomb interaction                   ... done (   0.9 sec)
Reading the grid                                   ... done
Mapping shells                                     ... done
Starting the XC term evaluation                    ... done (   1.2 sec)
  promolecular density results
     # of electrons  =    883.954946305
     EX              =   -921.709611390
     EC              =    -31.540397236
     EX+EC           =   -953.250008626
Transforming the Hamiltonian                       ... done (   0.4 sec)
Diagonalizing the Hamiltonian                      ... done (   0.6 sec)
Back transforming the eigenvectors                 ... done (   0.2 sec)
Now organizing SCF variables                       ... done
                      ------------------
                      INITIAL GUESS DONE (  71.8 sec)
                      ------------------
--------------
SCF ITERATIONS
--------------
ITER       Energy         Delta-E        Max-DP      RMS-DP      [F,P]     Damp
               ***  Starting incremental Fock matrix formation  ***
  0  -4988.4892659999   0.000000000000 0.03279393  0.00037063  0.4574256 0.8500
  1  -4988.8428108981  -0.353544898215 0.02777817  0.00033720  0.3869476 0.8500
                               ***Turning on DIIS***
  2  -4989.1044331671  -0.261622269012 0.02251745  0.00026972  0.3264827 0.8500
  3  -4989.2875211901  -0.183088023012 0.01720881  0.00018551  0.2755154 0.8500
  4  -4989.4244259165  -0.136904726449 0.01376748  0.00014010  0.2332330 0.8500
  5  -4989.5301215766  -0.105695660062 0.01138144  0.00011394  0.1978910 0.8500
  6  -4989.6152508239  -0.085129247280 0.00962585  0.00009568  0.1681499 0.8500
  7  -4989.6855531958  -0.070302371914 0.00825307  0.00008222  0.1429751 0.8500
  8  -4989.7444704461  -0.058917250313 0.00714585  0.00007061  0.1215758 0.8500
  9  -4989.7938044680  -0.049334021845 0.00612503  0.00006010  0.1033201 0.8500
 10  -4989.8350856800  -0.041281211998 0.00517871  0.00005094  0.0877645 0.8500
 11  -4989.8696959922  -0.034610312265 0.00436296  0.00004314  0.0745528 0.8500
 12  -4989.8987964295  -0.029100437321 0.00369426  0.00003660  0.0633488 0.8500
 13  -4989.9233184159  -0.024521986346 0.00314904  0.00003107  0.0538395 0.8500
 14  -4989.9440080149  -0.020689599052 0.00268526  0.00002637  0.0457542 0.8500
 15  -4989.9614808762  -0.017472861251 0.00227947  0.00002237  0.0388759 0.8500
 16  -4989.9762517215  -0.014770845330 0.00192943  0.00001898  0.0330298 0.8500
 17  -4989.9887504711  -0.012498749547 0.01090281  0.00010735  0.0280658 0.0000
 18  -4990.0586662733  -0.069915802276 0.00022343  0.00000230  0.0002212 0.0000
 19  -4990.0586707483  -0.000004474990 0.00011388  0.00000083  0.0000903 0.0000
               *** Restarting incremental Fock matrix formation ***
                                   *** Resetting DIIS ***
 20  -4990.0586705466   0.000000201715 0.00008639  0.00000058  0.0000605 0.0000
 21  -4990.0586703835   0.000000163123 0.00003610  0.00000020  0.0000851 0.0000
 22  -4990.0586705194  -0.000000135940 0.00001655  0.00000013  0.0000280 0.0000
 23  -4990.0586705836  -0.000000064174 0.00001836  0.00000015  0.0000073 0.0000
 24  -4990.0586705721   0.000000011536 0.00000599  0.00000005  0.0000019 0.0000
                            ***DIIS convergence achieved***

               *****************************************************
               *                     SUCCESS                       *
               *           SCF CONVERGED AFTER  25 CYCLES          *
               *****************************************************


----------------
TOTAL SCF ENERGY
----------------

Total Energy       :        -4990.05867052 Eh         -135786.39967 eV

Components:
Nuclear Repulsion  :        22679.50455712 Eh          617140.69383 eV
Electronic Energy  :       -27669.56322765 Eh         -752927.09350 eV
One Electron Energy:       -51880.75228807 Eh        -1411747.04159 eV
Two Electron Energy:        24211.18906043 Eh          658819.94809 eV

Virial components:
Potential Energy   :        -9774.97241221 Eh         -265990.52203 eV
Kinetic Energy     :         4784.91374169 Eh          130204.12236 eV
Virial Ratio       :            2.04287328


DFT components:
N(Alpha)           :      411.999775673606 electrons
N(Beta)            :      411.999775673606 electrons
N(Total)           :      823.999551347212 electrons
E(X)               :     -507.654558912750 Eh       
E(C)               :      -28.160964383087 Eh       
E(XC)              :     -535.815523295837 Eh       
DFET-embed. en.    :        0.000000000000 Eh       

---------------
SCF CONVERGENCE
---------------

  Last Energy change         ...    4.9542e-08  Tolerance :   1.0000e-08
  Last MAX-Density change    ...    6.6238e-06  Tolerance :   1.0000e-07
  Last RMS-Density change    ...    5.1051e-08  Tolerance :   5.0000e-09
  Last DIIS Error            ...    7.7341e-07  Tolerance :   5.0000e-07

             **** THE GBW FILE WAS UPDATED (_s_5a3_c_PBE0.gbw) ****
             **** DENSITY FILE WAS UPDATED (_s_5a3_c_PBE0.scfp) ****
             **** ENERGY FILE WAS UPDATED (_s_5a3_c_PBE0.en.tmp) ****
             **** THE GBW FILE WAS UPDATED (_s_5a3_c_PBE0.gbw) ****
             **** DENSITY FILE WAS UPDATED (_s_5a3_c_PBE0.scfp) ****
----------------
ORBITAL ENERGIES
----------------

  NO   OCC          E(Eh)            E(eV) 
   0   2.0000     -14.734213      -400.9383 
   1   2.0000     -14.734163      -400.9370 
   2   2.0000     -14.734146      -400.9365 
   3   2.0000     -14.734104      -400.9354 
   4   2.0000     -14.728783      -400.7906 
   5   2.0000     -14.728756      -400.7898 
   6   2.0000     -14.728688      -400.7880 
   7   2.0000     -14.728659      -400.7872 
   8   2.0000     -10.566740      -287.5356 
   9   2.0000     -10.566670      -287.5337 
  10   2.0000     -10.566655      -287.5333 
  11   2.0000     -10.566585      -287.5314 
  12   2.0000     -10.565027      -287.4890 
  13   2.0000     -10.564948      -287.4868 
  14   2.0000     -10.564946      -287.4868 
  15   2.0000     -10.564873      -287.4848 
  16   2.0000     -10.560887      -287.3763 
  17   2.0000     -10.560820      -287.3745 
  18   2.0000     -10.560819      -287.3745 
  19   2.0000     -10.560760      -287.3729 
  20   2.0000     -10.553745      -287.1820 
  21   2.0000     -10.553669      -287.1799 
  22   2.0000     -10.553646      -287.1793 
  23   2.0000     -10.553571      -287.1773 
  24   2.0000     -10.543904      -286.9142 
  25   2.0000     -10.543825      -286.9121 
  26   2.0000     -10.543813      -286.9117 
  27   2.0000     -10.543733      -286.9096 
  28   2.0000     -10.526732      -286.4469 
  29   2.0000     -10.526636      -286.4443 
  30   2.0000     -10.526635      -286.4443 
  31   2.0000     -10.526539      -286.4417 
  32   2.0000     -10.524444      -286.3847 
  33   2.0000     -10.524362      -286.3824 
  34   2.0000     -10.524361      -286.3824 
  35   2.0000     -10.524259      -286.3796 
  36   2.0000     -10.521674      -286.3093 
  37   2.0000     -10.521596      -286.3072 
  38   2.0000     -10.521585      -286.3069 
  39   2.0000     -10.521507      -286.3048 
  40   2.0000     -10.520585      -286.2797 
  41   2.0000     -10.520507      -286.2776 
  42   2.0000     -10.520499      -286.2773 
  43   2.0000     -10.520429      -286.2754 
  44   2.0000     -10.518385      -286.2198 
  45   2.0000     -10.518307      -286.2177 
  46   2.0000     -10.518294      -286.2173 
  47   2.0000     -10.518219      -286.2153 
  48   2.0000     -10.515930      -286.1530 
  49   2.0000     -10.515839      -286.1505 
  50   2.0000     -10.515839      -286.1505 
[...]
 57 C      5.8649     6.0000     0.1351     3.8486     3.8486    -0.0000
 58 C      5.9935     6.0000     0.0065     3.8953     3.8953    -0.0000
 59 C      5.9385     6.0000     0.0615     3.9455     3.9455    -0.0000
 60 H      0.9418     1.0000     0.0582     0.9907     0.9907    -0.0000
 61 H      0.9288     1.0000     0.0712     0.9817     0.9817    -0.0000
 62 H      0.9620     1.0000     0.0380     0.9913     0.9913    -0.0000
 63 H      0.9426     1.0000     0.0574     0.9992     0.9992    -0.0000
 64 H      0.9504     1.0000     0.0496     0.9888     0.9888    -0.0000
 65 H      0.9608     1.0000     0.0392     1.0132     1.0132    -0.0000
 66 C      6.0458     6.0000    -0.0458     3.7142     3.7142    -0.0000
 67 C      5.9546     6.0000     0.0454     3.8441     3.8441    -0.0000
 68 C      5.9908     6.0000     0.0092     3.8405     3.8405    -0.0000
 69 C      5.9886     6.0000     0.0114     3.8499     3.8499    -0.0000
 70 C      5.9897     6.0000     0.0103     3.8449     3.8449    -0.0000
 71 C      5.9581     6.0000     0.0419     3.8440     3.8440    -0.0000
 72 C      6.0579     6.0000    -0.0579     3.7118     3.7118    -0.0000
 73 C      6.0021     6.0000    -0.0021     3.8296     3.8296    -0.0000
 74 C      5.9466     6.0000     0.0534     3.8396     3.8396    -0.0000
 75 C      6.0109     6.0000    -0.0109     3.8335     3.8335    -0.0000
 76 H      0.9592     1.0000     0.0408     0.9904     0.9904    -0.0000
 77 H      0.9588     1.0000     0.0412     0.9906     0.9906    -0.0000
 78 H      0.9587     1.0000     0.0413     0.9906     0.9906    -0.0000
 79 H      0.9636     1.0000     0.0364     0.9905     0.9905    -0.0000
 80 H      1.0097     1.0000    -0.0097     0.9969     0.9969    -0.0000
 81 H      1.0125     1.0000    -0.0125     0.9964     0.9964    -0.0000
 82 C      5.9555     6.0000     0.0445     3.6975     3.6975    -0.0000
 83 C      6.0360     6.0000    -0.0360     3.7021     3.7021    -0.0000
 84 C      6.1023     6.0000    -0.1023     3.8394     3.8394    -0.0000
 85 C      5.8911     6.0000     0.1089     3.8723     3.8723    -0.0000
 86 C      6.0222     6.0000    -0.0222     3.9207     3.9207    -0.0000
 87 C      5.8747     6.0000     0.1253     3.8720     3.8720    -0.0000
 88 N      7.2966     7.0000    -0.2966     3.3832     3.3832    -0.0000
 89 C      5.8344     6.0000     0.1656     3.8673     3.8673    -0.0000
 90 H      0.9247     1.0000     0.0753     0.9903     0.9903    -0.0000
 91 H      0.9190     1.0000     0.0810     0.9852     0.9852    -0.0000
 92 H      0.9217     1.0000     0.0783     0.9841     0.9841    -0.0000
 93 H      0.9443     1.0000     0.0557     0.9997     0.9997    -0.0000
 94 C      5.9731     6.0000     0.0269     3.6936     3.6936    -0.0000
 95 C      6.0700     6.0000    -0.0700     3.6978     3.6978    -0.0000
 96 C      6.0079     6.0000    -0.0079     3.7385     3.7385    -0.0000
 97 C      5.9632     6.0000     0.0368     3.8419     3.8419    -0.0000
 98 C      5.9800     6.0000     0.0200     3.8433     3.8433    -0.0000
 99 C      5.9881     6.0000     0.0119     3.8360     3.8360    -0.0000
100 C      6.0471     6.0000    -0.0471     3.8913     3.8913    -0.0000
101 C      5.8442     6.0000     0.1558     3.8574     3.8574    -0.0000
102 N      7.3083     7.0000    -0.3083     3.3674     3.3674    -0.0000
103 C      5.8650     6.0000     0.1350     3.8485     3.8485    -0.0000
104 C      5.9935     6.0000     0.0065     3.8953     3.8953    -0.0000
105 C      5.9385     6.0000     0.0615     3.9457     3.9457    -0.0000
106 H      0.9418     1.0000     0.0582     0.9907     0.9907    -0.0000
107 H      0.9287     1.0000     0.0713     0.9817     0.9817    -0.0000
108 H      0.9620     1.0000     0.0380     0.9913     0.9913    -0.0000
109 H      0.9428     1.0000     0.0572     0.9991     0.9991    -0.0000
110 H      0.9505     1.0000     0.0495     0.9888     0.9888    -0.0000
111 H      0.9607     1.0000     0.0393     1.0132     1.0132    -0.0000
112 C      6.0458     6.0000    -0.0458     3.7142     3.7142    -0.0000
113 C      5.9547     6.0000     0.0453     3.8441     3.8441    -0.0000
114 C      5.9909     6.0000     0.0091     3.8406     3.8406    -0.0000
115 C      5.9885     6.0000     0.0115     3.8499     3.8499    -0.0000
116 C      5.9897     6.0000     0.0103     3.8450     3.8450    -0.0000
117 C      5.9582     6.0000     0.0418     3.8440     3.8440    -0.0000
118 C      6.0578     6.0000    -0.0578     3.7118     3.7118    -0.0000
119 C      6.0020     6.0000    -0.0020     3.8296     3.8296    -0.0000
120 C      5.9466     6.0000     0.0534     3.8395     3.8395    -0.0000
121 C      6.0109     6.0000    -0.0109     3.8336     3.8336    -0.0000
122 H      0.9591     1.0000     0.0409     0.9904     0.9904    -0.0000
123 H      0.9588     1.0000     0.0412     0.9906     0.9906    -0.0000
124 H      0.9587     1.0000     0.0413     0.9906     0.9906    -0.0000
125 H      0.9636     1.0000     0.0364     0.9905     0.9905    -0.0000
126 H      1.0097     1.0000    -0.0097     0.9969     0.9969    -0.0000
127 H      1.0125     1.0000    -0.0125     0.9964     0.9964    -0.0000
128 C      5.9554     6.0000     0.0446     3.6976     3.6976    -0.0000
129 C      6.0362     6.0000    -0.0362     3.7024     3.7024    -0.0000
130 C      6.1024     6.0000    -0.1024     3.8395     3.8395    -0.0000
131 C      5.8911     6.0000     0.1089     3.8724     3.8724    -0.0000
132 C      6.0222     6.0000    -0.0222     3.9209     3.9209    -0.0000
133 C      5.8748     6.0000     0.1252     3.8718     3.8718    -0.0000
134 N      7.2964     7.0000    -0.2964     3.3837     3.3837    -0.0000
135 C      5.8341     6.0000     0.1659     3.8671     3.8671    -0.0000
136 H      0.9247     1.0000     0.0753     0.9903     0.9903    -0.0000
137 H      0.9190     1.0000     0.0810     0.9852     0.9852    -0.0000
138 H      0.9219     1.0000     0.0781     0.9841     0.9841    -0.0000
139 H      0.9443     1.0000     0.0557     0.9996     0.9996    -0.0000
140 C      5.9730     6.0000     0.0270     3.6936     3.6936    -0.0000
141 C      6.0701     6.0000    -0.0701     3.6977     3.6977    -0.0000
142 C      6.0080     6.0000    -0.0080     3.7386     3.7386    -0.0000
143 C      5.9633     6.0000     0.0367     3.8420     3.8420    -0.0000
144 C      5.9800     6.0000     0.0200     3.8434     3.8434    -0.0000
145 C      5.9880     6.0000     0.0120     3.8361     3.8361    -0.0000
146 C      6.0473     6.0000    -0.0473     3.8915     3.8915    -0.0000
147 C      5.8442     6.0000     0.1558     3.8573     3.8573    -0.0000
148 N      7.3080     7.0000    -0.3080     3.3680     3.3680    -0.0000
149 C      5.8650     6.0000     0.1350     3.8485     3.8485    -0.0000
150 C      5.9936     6.0000     0.0064     3.8953     3.8953    -0.0000
151 C      5.9384     6.0000     0.0616     3.9455     3.9455    -0.0000
152 H      0.9417     1.0000     0.0583     0.9907     0.9907    -0.0000
153 H      0.9288     1.0000     0.0712     0.9817     0.9817    -0.0000
154 H      0.9621     1.0000     0.0379     0.9913     0.9913    -0.0000
155 H      0.9429     1.0000     0.0571     0.9991     0.9991    -0.0000
156 H      0.9503     1.0000     0.0497     0.9886     0.9886    -0.0000
157 H      0.9606     1.0000     0.0394     1.0131     1.0131    -0.0000
158 C      6.0459     6.0000    -0.0459     3.7142     3.7142    -0.0000
159 C      5.9546     6.0000     0.0454     3.8441     3.8441    -0.0000
160 C      5.9909     6.0000     0.0091     3.8405     3.8405    -0.0000
161 C      5.9885     6.0000     0.0115     3.8499     3.8499    -0.0000
162 C      5.9897     6.0000     0.0103     3.8449     3.8449    -0.0000
163 C      5.9581     6.0000     0.0419     3.8440     3.8440    -0.0000
164 C      6.0578     6.0000    -0.0578     3.7118     3.7118    -0.0000
165 C      6.0021     6.0000    -0.0021     3.8297     3.8297    -0.0000
166 C      5.9466     6.0000     0.0534     3.8396     3.8396    -0.0000
167 C      6.0108     6.0000    -0.0108     3.8335     3.8335    -0.0000
168 H      0.9592     1.0000     0.0408     0.9904     0.9904    -0.0000
169 H      0.9587     1.0000     0.0413     0.9906     0.9906    -0.0000
170 H      0.9587     1.0000     0.0413     0.9906     0.9906    -0.0000
171 H      0.9636     1.0000     0.0364     0.9905     0.9905    -0.0000
172 H      1.0097     1.0000    -0.0097     0.9969     0.9969    -0.0000
173 H      1.0126     1.0000    -0.0126     0.9964     0.9964    -0.0000
174 C      5.9553     6.0000     0.0447     3.6975     3.6975    -0.0000
175 C      6.0362     6.0000    -0.0362     3.7025     3.7025    -0.0000
176 C      6.1024     6.0000    -0.1024     3.8394     3.8394    -0.0000
177 C      5.8911     6.0000     0.1089     3.8724     3.8724    -0.0000
178 C      6.0222     6.0000    -0.0222     3.9210     3.9210    -0.0000
179 C      5.8749     6.0000     0.1251     3.8718     3.8718    -0.0000
180 N      7.2962     7.0000    -0.2962     3.3843     3.3843    -0.0000
181 C      5.8343     6.0000     0.1657     3.8670     3.8670    -0.0000
182 H      0.9247     1.0000     0.0753     0.9903     0.9903    -0.0000
183 H      0.9190     1.0000     0.0810     0.9853     0.9853    -0.0000
184 H      0.9220     1.0000     0.0780     0.9840     0.9840    -0.0000
185 H      0.9440     1.0000     0.0560     0.9995     0.9995    -0.0000

  Mayer bond orders larger than 0.100000
B(  0-Pd, 42-N ) :   0.5428 B(  0-Pd, 88-N ) :   0.5424 B(  0-Pd,102-N ) :   0.5498 
B(  0-Pd,148-N ) :   0.5502 B(  1-Pd, 10-N ) :   0.5501 B(  1-Pd, 56-N ) :   0.5496 
B(  1-Pd,134-N ) :   0.5428 B(  1-Pd,180-N ) :   0.5432 B(  2-C ,  3-C ) :   2.5837 
B(  2-C , 20-C ) :   1.0101 B(  3-C ,  4-C ) :   1.0033 B(  4-C ,  5-C ) :   1.4333 
B(  4-C , 13-C ) :   1.2316 B(  5-C ,  6-C ) :   1.2715 B(  5-C , 14-H ) :   0.9915 
B(  6-C ,  7-C ) :   1.4690 B(  6-C , 15-H ) :   0.9814 B(  7-C ,  8-C ) :   1.2388 
B(  7-C , 16-H ) :   0.9960 B(  8-C ,  9-C ) :   1.2945 B(  8-C , 13-C ) :   1.2195 
B(  9-C , 10-N ) :   1.4204 B(  9-C , 17-H ) :   0.9559 B( 10-N , 11-C ) :   1.1993 
B( 11-C , 12-C ) :   1.5311 B( 11-C , 18-H ) :   0.9493 B( 12-C , 13-C ) :   1.2958 
B( 12-C , 19-H ) :   0.9570 B( 20-C , 21-C ) :   1.2121 B( 20-C , 29-C ) :   1.4194 
B( 21-C , 22-C ) :   1.4968 B( 21-C , 30-H ) :   0.9912 B( 22-C , 23-C ) :   1.2451 
B( 22-C , 31-H ) :   0.9919 B( 23-C , 24-C ) :   1.2449 B( 23-C , 28-C ) :   1.2358 
B( 24-C , 25-C ) :   1.4999 B( 24-C , 32-H ) :   0.9913 B( 25-C , 26-C ) :   1.2068 
B( 25-C , 33-H ) :   0.9914 B( 26-C , 27-C ) :   1.4088 B( 26-C , 36-C ) :   1.0218 
B( 27-C , 28-C ) :   1.2437 B( 27-C , 34-H ) :   0.9961 B( 28-C , 29-C ) :   1.2405 
B( 29-C , 35-H ) :   0.9964 B( 36-C , 37-C ) :   2.5791 B( 37-C , 38-C ) :   1.0269 
B( 38-C , 39-C ) :   1.3399 B( 38-C , 43-C ) :   1.3616 B( 39-C , 40-C ) :   1.4068 
B( 39-C , 44-H ) :   0.9864 B( 40-C , 41-C ) :   1.4174 B( 40-C , 45-H ) :   0.9728 
B( 41-C , 42-N ) :   1.3118 B( 41-C , 46-H ) :   0.9549 B( 42-N , 43-C ) :   1.3351 
B( 43-C , 47-H ) :   0.9620 B( 48-C , 49-C ) :   2.5836 B( 48-C , 66-C ) :   1.0101 
B( 49-C , 50-C ) :   1.0033 B( 50-C , 51-C ) :   1.4333 B( 50-C , 59-C ) :   1.2316 
B( 51-C , 52-C ) :   1.2714 B( 51-C , 60-H ) :   0.9915 B( 52-C , 53-C ) :   1.4690 
B( 52-C , 61-H ) :   0.9814 B( 53-C , 54-C ) :   1.2387 B( 53-C , 62-H ) :   0.9960 
B( 54-C , 55-C ) :   1.2943 B( 54-C , 59-C ) :   1.2197 B( 55-C , 56-N ) :   1.4207 
B( 55-C , 63-H ) :   0.9558 B( 56-N , 57-C ) :   1.1993 B( 57-C , 58-C ) :   1.5311 
B( 57-C , 64-H ) :   0.9492 B( 58-C , 59-C ) :   1.2957 B( 58-C , 65-H ) :   0.9570 
B( 66-C , 67-C ) :   1.2122 B( 66-C , 75-C ) :   1.4193 B( 67-C , 68-C ) :   1.4967 
B( 67-C , 76-H ) :   0.9913 B( 68-C , 69-C ) :   1.2451 B( 68-C , 77-H ) :   0.9918 
B( 69-C , 70-C ) :   1.2449 B( 69-C , 74-C ) :   1.2357 B( 70-C , 71-C ) :   1.4999 
B( 70-C , 78-H ) :   0.9914 B( 71-C , 72-C ) :   1.2069 B( 71-C , 79-H ) :   0.9914 
B( 72-C , 73-C ) :   1.4087 B( 72-C , 82-C ) :   1.0220 B( 73-C , 74-C ) :   1.2438 
B( 73-C , 80-H ) :   0.9961 B( 74-C , 75-C ) :   1.2405 B( 75-C , 81-H ) :   0.9964 
B( 82-C , 83-C ) :   2.5791 B( 83-C , 84-C ) :   1.0269 B( 84-C , 85-C ) :   1.3400 
B( 84-C , 89-C ) :   1.3615 B( 85-C , 86-C ) :   1.4068 B( 85-C , 90-H ) :   0.9864 
B( 86-C , 87-C ) :   1.4174 B( 86-C , 91-H ) :   0.9728 B( 87-C , 88-N ) :   1.3117 
B( 87-C , 92-H ) :   0.9547 B( 88-N , 89-C ) :   1.3353 B( 89-C , 93-H ) :   0.9620 
B( 94-C , 95-C ) :   2.5838 B( 94-C ,112-C ) :   1.0100 B( 95-C , 96-C ) :   1.0032 
B( 96-C , 97-C ) :   1.4333 B( 96-C ,105-C ) :   1.2316 B( 97-C , 98-C ) :   1.2714 
B( 97-C ,106-H ) :   0.9916 B( 98-C , 99-C ) :   1.4691 B( 98-C ,107-H ) :   0.9814 
B( 99-C ,100-C ) :   1.2388 B( 99-C ,108-H ) :   0.9960 B(100-C ,101-C ) :   1.2944 
B(100-C ,105-C ) :   1.2196 B(101-C ,102-N ) :   1.4207 B(101-C ,109-H ) :   0.9558 
B(102-N ,103-C ) :   1.1993 B(103-C ,104-C ) :   1.5312 B(103-C ,110-H ) :   0.9492 
B(104-C ,105-C ) :   1.2958 B(104-C ,111-H ) :   0.9569 B(112-C ,113-C ) :   1.2122 
B(112-C ,121-C ) :   1.4193 B(113-C ,114-C ) :   1.4967 B(113-C ,122-H ) :   0.9912 
B(114-C ,115-C ) :   1.2452 B(114-C ,123-H ) :   0.9918 B(115-C ,116-C ) :   1.2449 
B(115-C ,120-C ) :   1.2357 B(116-C ,117-C ) :   1.5000 B(116-C ,124-H ) :   0.9914 
B(117-C ,118-C ) :   1.2068 B(117-C ,125-H ) :   0.9914 B(118-C ,119-C ) :   1.4087 
B(118-C ,128-C ) :   1.0220 B(119-C ,120-C ) :   1.2437 B(119-C ,126-H ) :   0.9962 
B(120-C ,121-C ) :   1.2405 B(121-C ,127-H ) :   0.9964 B(128-C ,129-C ) :   2.5791 
B(129-C ,130-C ) :   1.0271 B(130-C ,131-C ) :   1.3400 B(130-C ,135-C ) :   1.3613 
B(131-C ,132-C ) :   1.4068 B(131-C ,136-H ) :   0.9864 B(132-C ,133-C ) :   1.4175 
B(132-C ,137-H ) :   0.9728 B(133-C ,134-N ) :   1.3115 B(133-C ,138-H ) :   0.9548 
B(134-N ,135-C ) :   1.3354 B(135-C ,139-H ) :   0.9620 B(140-C ,141-C ) :   2.5836 
B(140-C ,158-C ) :   1.0101 B(141-C ,142-C ) :   1.0033 B(142-C ,143-C ) :   1.4334 
B(142-C ,151-C ) :   1.2315 B(143-C ,144-C ) :   1.2714 B(143-C ,152-H ) :   0.9915 
B(144-C ,145-C ) :   1.4690 B(144-C ,153-H ) :   0.9814 B(145-C ,146-C ) :   1.2388 
B(145-C ,154-H ) :   0.9960 B(146-C ,147-C ) :   1.2944 B(146-C ,151-C ) :   1.2196 
B(147-C ,148-N ) :   1.4206 B(147-C ,155-H ) :   0.9559 B(148-N ,149-C ) :   1.1994 
B(149-C ,150-C ) :   1.5310 B(149-C ,156-H ) :   0.9493 B(150-C ,151-C ) :   1.2959 
B(150-C ,157-H ) :   0.9569 B(158-C ,159-C ) :   1.2121 B(158-C ,167-C ) :   1.4194 
B(159-C ,160-C ) :   1.4968 B(159-C ,168-H ) :   0.9913 B(160-C ,161-C ) :   1.2451 
B(160-C ,169-H ) :   0.9918 B(161-C ,162-C ) :   1.2450 B(161-C ,166-C ) :   1.2357 
B(162-C ,163-C ) :   1.4999 B(162-C ,170-H ) :   0.9913 B(163-C ,164-C ) :   1.2069 
B(163-C ,171-H ) :   0.9914 B(164-C ,165-C ) :   1.4087 B(164-C ,174-C ) :   1.0219 
B(165-C ,166-C ) :   1.2438 B(165-C ,172-H ) :   0.9961 B(166-C ,167-C ) :   1.2404 
B(167-C ,173-H ) :   0.9964 B(174-C ,175-C ) :   2.5792 B(175-C ,176-C ) :   1.0270 
B(176-C ,177-C ) :   1.3401 B(176-C ,181-C ) :   1.3612 B(177-C ,178-C ) :   1.4068 
B(177-C ,182-H ) :   0.9864 B(178-C ,179-C ) :   1.4175 B(178-C ,183-H ) :   0.9728 
B(179-C ,180-N ) :   1.3115 B(179-C ,184-H ) :   0.9549 B(180-N ,181-C ) :   1.3354 
B(181-C ,185-H ) :   0.9620 

-------
TIMINGS
-------

Total SCF time: 0 days 0 hours 19 min 30 sec 

Total time                  ....    1170.737 sec
Sum of individual times     ....    1160.581 sec  ( 99.1%)

Fock matrix formation       ....     944.756 sec  ( 80.7%)
  XC integration            ....      39.668 sec  (  4.2% of F)
    Basis function eval.    ....       7.560 sec  ( 19.1% of XC)
    Density eval.           ....      11.587 sec  ( 29.2% of XC)
    XC-Functional eval.     ....       1.597 sec  (  4.0% of XC)
    XC-Potential eval.      ....       4.501 sec  ( 11.3% of XC)
Diagonalization             ....      24.730 sec  (  2.1%)
Density matrix formation    ....       1.330 sec  (  0.1%)
Population analysis         ....       7.470 sec  (  0.6%)
Initial guess               ....      28.656 sec  (  2.4%)
Orbital Transformation      ....       0.000 sec  (  0.0%)
Orbital Orthonormalization  ....       0.000 sec  (  0.0%)
DIIS solution               ....     110.480 sec  (  9.4%)
Grid generation             ....      43.160 sec  (  3.7%)


-------------------------------------------------------------------------------
                          DFT DISPERSION CORRECTION                            
                                                                               
                              DFTD3 V3.1  Rev 1                                
                          USING Becke-Johnson damping                          
-------------------------------------------------------------------------------
The PBE0 functional is recognized
Active option DFTDOPT                   ...         4   

molecular C6(AA) [au] = 550465.044345 


            DFT-D V3
 parameters
 s6 scaling factor         :     1.0000 
 a1 scaling factor         :     0.4145 
 s8 scaling factor         :     1.2177 
 a2 scaling factor         :     4.8593 
 ad hoc parameters k1-k3   :    16.0000     1.3333    -4.0000 

 Edisp/kcal,au: -179.636962178666  -0.286269690645 
 E6   /kcal   : -110.745798979 
 E8   /kcal   : -68.891163199 
 % E8         :  38.350216105 

-------------------------   ----------------
Dispersion correction           -0.286269691
-------------------------   ----------------


-------------------------   --------------------
FINAL SINGLE POINT ENERGY     -4990.344940213181
-------------------------   --------------------


                            ***************************************
                            *     ORCA property calculations      *
                            ***************************************

                                    ---------------------
                                    Active property flags
                                    ---------------------
   (+) Dipole Moment


------------------------------------------------------------------------------
                       ORCA ELECTRIC PROPERTIES CALCULATION
------------------------------------------------------------------------------

Dipole Moment Calculation                       ... on
Quadrupole Moment Calculation                   ... off
Polarizability Calculation                      ... off
GBWName                                         ... _s_5a3_c_PBE0.gbw
Electron density file                           ... _s_5a3_c_PBE0.scfp
The origin for moment calculation is the CENTER OF MASS  = ( 0.733097, -5.071622  0.594248)

-------------
DIPOLE MOMENT
-------------
                                X             Y             Z
Electronic contribution:      1.00712      -0.13768      -3.48607
Nuclear contribution   :     -1.00337       0.13969       3.47584
                        -----------------------------------------
Total Dipole Moment    :      0.00375       0.00201      -0.01023
                        -----------------------------------------
Magnitude (a.u.)       :      0.01108
Magnitude (Debye)      :      0.02817



--------------------
Rotational spectrum 
--------------------
 
Rotational constants in cm-1:     0.000318     0.000209     0.000207 
Rotational constants in MHz :     9.529602     6.276287     6.204876 

 Dipole components along the rotational axes: 
x,y,z [a.u.] :     0.003095     0.004869    -0.009461 
x,y,z [Debye]:     0.007866     0.012377    -0.024048 

 

Timings for individual modules:

Sum of individual times         ...     1201.083 sec (=  20.018 min)
GTO integral calculation        ...       18.918 sec (=   0.315 min)   1.6 %
SCF iterations                  ...     1182.164 sec (=  19.703 min)  98.4 %
                             ****ORCA TERMINATED NORMALLY****
TOTAL RUN TIME: 0 days 0 hours 20 minutes 7 seconds 268 msec
