Job execution start: Tue Jun 22 10:57:01 BST 2021
Shared library path: /work/e05/e05/atarzia/orca_4_2_1_linux_x86-64_openmpi314:/work/e05/e05/atarzia/openmpi-3.1.4/lib:/opt/cray/pe/papi/6.0.0.4/lib64:/opt/cray/libfabric/1.11.0.0.233/lib64
Slurm Job ID is: 344581
Slurm Job name is: s_5a1_d_PBE0
nid001187

                                 *****************
                                 * O   R   C   A *
                                 *****************

           --- An Ab Initio, DFT and Semiempirical electronic structure package ---

                  #######################################################
                  #                        -***-                        #
                  #          Department of theory and spectroscopy      #
                  #               Directorship: Frank Neese             #
                  #        Max Planck Institute fuer Kohlenforschung    #
                  #                Kaiser Wilhelm Platz 1               #
                  #                 D-45470 Muelheim/Ruhr               #
                  #                      Germany                        #
                  #                                                     #
                  #                  All rights reserved                #
                  #                        -***-                        #
                  #######################################################


                         Program Version 4.2.1 -  RELEASE  -


 With contributions from (in alphabetic order):
   Daniel Aravena         : Magnetic Suceptibility
   Michael Atanasov       : Ab Initio Ligand Field Theory (pilot matlab implementation)
   Alexander A. Auer      : GIAO ZORA, VPT2
   Ute Becker             : Parallelization
   Giovanni Bistoni       : ED, misc. LED, open-shell LED, HFLD
   Martin Brehm           : Molecular dynamics
   Dmytro Bykov           : SCF Hessian
   Vijay G. Chilkuri      : MRCI spin determinant printing, contributions to CSF-ICE
   Dipayan Datta          : RHF DLPNO-CCSD density
   Achintya Kumar Dutta   : EOM-CC, STEOM-CC
   Dmitry Ganyushin       : Spin-Orbit,Spin-Spin,Magnetic field MRCI
   Miquel Garcia          : C-PCM Hessian, Gaussian charge scheme
   Yang Guo               : DLPNO-NEVPT2, CIM, IAO-localization
   Andreas Hansen         : Spin unrestricted coupled pair/coupled cluster methods
   Benjamin Helmich-Paris : CASSCF linear response (MC-RPA)
   Lee Huntington         : MR-EOM, pCC
   Robert Izsak           : Overlap fitted RIJCOSX, COSX-SCS-MP3, EOM
   Christian Kollmar      : KDIIS, OOCD, Brueckner-CCSD(T), CCSD density
   Simone Kossmann        : Meta GGA functionals, TD-DFT gradient, OOMP2, MP2 Hessian
   Martin Krupicka        : AUTO-CI
   Lucas Lang             : DCDCAS
   Dagmar Lenk            : GEPOL surface, SMD
   Dimitrios Liakos       : Extrapolation schemes; Compound Job, initial MDCI parallelization
   Dimitrios Manganas     : Further ROCIS development; embedding schemes
   Dimitrios Pantazis     : SARC Basis sets
   Taras Petrenko         : DFT Hessian,TD-DFT gradient, ASA, ECA, R-Raman, ABS, FL, XAS/XES, NRVS
   Peter Pinski           : DLPNO-MP2, DLPNO-MP2 Gradient
   Christoph Reimann      : Effective Core Potentials
   Marius Retegan         : Local ZFS, SOC
   Christoph Riplinger    : Optimizer, TS searches, QM/MM, DLPNO-CCSD(T), (RO)-DLPNO pert. Triples
   Tobias Risthaus        : Range-separated hybrids, TD-DFT gradient, RPA, STAB
   Michael Roemelt        : Original ROCIS implementation
   Masaaki Saitow         : Open-shell DLPNO-CCSD energy and density
   Barbara Sandhoefer     : DKH picture change effects
   Avijit Sen             : IP-ROCIS
   Kantharuban Sivalingam : CASSCF convergence, NEVPT2, FIC-MRCI
   Bernardo de Souza      : ESD, SOC TD-DFT
   Georgi Stoychev        : AutoAux, RI-MP2 NMR
   Willem Van den Heuvel  : Paramagnetic NMR
   Boris Wezisla          : Elementary symmetry handling
   Frank Wennmohs         : Technical directorship


 We gratefully acknowledge several colleagues who have allowed us to
 interface, adapt or use parts of their codes:
   Stefan Grimme, W. Hujo, H. Kruse,             : VdW corrections, initial TS optimization,
                  C. Bannwarth                     DFT functionals, gCP, sTDA/sTD-DF
   Ed Valeev, F. Pavosevic, A. Kumar             : LibInt (2-el integral package), F12 methods
   Garnet Chan, S. Sharma, J. Yang, R. Olivares  : DMRG
   Ulf Ekstrom                                   : XCFun DFT Library
   Mihaly Kallay                                 : mrcc  (arbitrary order and MRCC methods)
   Andreas Klamt, Michael Diedenhofen            : otool_cosmo (COSMO solvation model)
   Jiri Pittner, Ondrej Demel                    : Mk-CCSD
   Frank Weinhold                                : gennbo (NPA and NBO analysis)
   Christopher J. Cramer and Donald G. Truhlar   : smd solvation model
   Lars Goerigk                                  : TD-DFT with DH, B97 family of functionals
   V. Asgeirsson, H. Jonsson                     : NEB implementation
   FAccTs GmbH                                   : IRC, NEB, NEB-TS, Multilevel, MM, QM/MM, CI optimization
   S Lehtola, MJT Oliveira, MAL Marques          : LibXC Library


 Your calculation uses the libint2 library for the computation of 2-el integrals
 For citations please refer to: http://libint.valeyev.net

 Your ORCA version has been built with support for libXC version: 4.2.3
 For citations please refer to: https://tddft.org/programs/libxc/

 This ORCA versions uses:
   CBLAS   interface :  Fast vector & matrix operations
   LAPACKE interface :  Fast linear algebra routines
   SCALAPACK package :  Parallel linear algebra routines




***************************************
The coordinates will be read from file: s_5a1_d.xyz
***************************************


Your calculation utilizes the atom-pairwise dispersion correction
with the Becke-Johnson damping scheme (D3BJ)
Cite in your paper:
S.Grimme, S.Ehrlich, L.Goerigk, J Comput Chem, (2011), 32, 1456–1465 
S.Grimme, J.Antony, S.Ehrlich and H.Krieg, J.Chem.Phys., 132, (2010), 154104 
   

----- Orbital basis set information -----
Your calculation utilizes the basis: def2-SVP
   F. Weigend and R. Ahlrichs, Phys. Chem. Chem. Phys. 7, 3297 (2005).

cite the ECPs for Pd [Def2-ECP] as follows:
Ce-Yb(ecp-28): M. Dolg, H. Stoll, H.Preuss, J. Chem. Phys., 1989, 90, 1730-1734.
Y-Cd(ecp-28), Hf-Hg(ecp-46): D. Andrae,U. Haeussermann, M. Dolg, H. Stoll, H. Preuss, Theor. Chim. Acta, 1990, 77, 123-141.
In-Sb(ecp-28), Tl-Bi(ecp-46): B. Metz, H. Stoll, M. Dolg, J. Chem. Phys., 2000, 113, 2563-2569.
Te-Xe(ecp-28), Po-Rn(ecp-46): K. A. Peterson, D. Figgen, E. Goll, H. Stoll, M. Dolg, J. Chem. Phys., 2003, 119, 11113-11123.
Rb(ecp-28), Cs(ecp-46): T. Leininger, A. Nicklass, W. Kuechle, H. Stoll, M. Dolg, A. Bergner, Chem. Phys. Lett., 1996, 255, 274-280.
Sr(ecp-28), Ba(ecp-46): M. Kaupp, P. V. Schleyer, H. Stoll and H. Preuss, J. Chem. Phys., 1991, 94, 1360-1366.
La(ecp-46): M. Dolg, H. Stoll, A. Savin, H. Preuss, Theor. Chim. Acta, 1989, 75, 173-194.
Lu(ecp-28): X. Cao, M. Dolg, J. Chem. Phys., 2001, 115, 7348-7355.

ECP parameters for Pd [Def2-ECP] have been obtained from:
TURBOMOLE (7.0.2)

================================================================================
                                        WARNINGS
                       Please study these warnings very carefully!
================================================================================


INFO   : the flag for use of LIBINT has been found!

================================================================================
                                       INPUT FILE
================================================================================
NAME = s_5a1_d_PBE0.in
|  1> ! DFT SP RKS PBE0 def2-SVP D3BJ Grid6 NOFINALGRID SlowConv TightSCF printbasis 
|  2> 
|  3> %base "_s_5a1_d_PBE0"
|  4> %maxcore 3000
|  5> %scf
|  6>    MaxIter 2000
|  7> end
|  8> %pal
|  9>    nprocs 32
| 10> end
| 11> 
| 12> * xyzfile 4 1 s_5a1_d.xyz
| 13> 
| 14>                          ****END OF INPUT****
================================================================================

                       ****************************
                       * Single Point Calculation *
                       ****************************

---------------------------------
CARTESIAN COORDINATES (ANGSTROEM)
---------------------------------
  Pd     0.104100    5.162200   -0.260600
  Pd    -0.156200   -6.150600    0.342200
  C      6.532700   -2.448500    0.312200
  C      6.280500   -3.605900    0.556400
  C      5.883800   -4.934600    0.805400
  C      6.793900   -5.922300    1.135300
  C      6.374000   -7.237700    1.368100
  C      5.051300   -7.587700    1.272000
  C      4.091700   -6.610400    0.933100
  C      2.718400   -6.904700    0.810600
  N      1.825500   -5.995800    0.490900
  C      2.210900   -4.710000    0.265900
  C      3.515700   -4.322300    0.358400
  C      4.504100   -5.268900    0.698300
  H      7.841600   -5.674800    1.215700
  H      7.112000   -7.982000    1.625400
  H      4.736800   -8.603600    1.451000
  H      2.361700   -7.914200    0.985500
  H      1.416000   -4.006900    0.000600
  H      3.811200   -3.302300    0.171800
  C      6.799600   -1.106500   -0.030500
  C      8.033100   -0.770500   -0.639000
  C      8.270300    0.510600   -1.043600
  C      7.300600    1.520900   -0.861900
  C      7.503300    2.844000   -1.304400
  C      6.548800    3.801300   -1.116500
  C      5.332300    3.494000   -0.462000
  C      5.109900    2.206800   -0.026500
  C      6.074200    1.196300   -0.221000
  C      5.846600   -0.132300    0.185400
  H      8.773800   -1.542300   -0.786100
  H      9.206700    0.768600   -1.516800
  H      8.429700    3.088300   -1.803100
  H      6.714900    4.798500   -1.493400
  H      4.206000    1.952400    0.505100
  H      4.915500   -0.385200    0.669200
  C      4.341100    4.560200   -0.263300
  C      4.739400    5.876800   -0.010400
  C      3.786900    6.873400    0.120900
  C      2.448000    6.539400    0.016100
  N      2.065100    5.275900   -0.190400
  C      2.969200    4.311800   -0.334000
  H      5.786300    6.114700    0.093500
  H      4.081500    7.894100    0.304200
  H      1.664000    7.295600    0.102400
  H      2.583600    3.318000   -0.533600
  C      0.190000    1.689800    6.513200
  C      0.058500    2.857500    6.227300
  C     -0.072400    4.193400    5.800200
  C     -0.215100    5.236300    6.697500
  C     -0.334600    6.557800    6.250900
  C     -0.309100    6.858800    4.912900
  C     -0.160200    5.823900    3.965800
  C     -0.114900    6.065100    2.578000
  N      0.029900    5.100800    1.699300
  C      0.136600    3.809200    2.105500
  C      0.106000    3.469700    3.427700
  C     -0.043000    4.475300    4.405200
  H     -0.235900    5.027300    7.756400
  H     -0.446600    7.345900    6.979700
  H     -0.399500    7.879400    4.576800
  H     -0.202600    7.077200    2.197600
  H      0.253700    3.055800    1.320000
  H      0.198400    2.443500    3.745600
  C      0.390600    0.327800    6.818400
  C      0.987600   -0.035200    8.050000
  C      1.243800   -1.346300    8.326300
  C      0.917900   -2.361000    7.399900
  C      1.198900   -3.720500    7.646000
  C      0.869700   -4.681500    6.734500
  C      0.230600   -4.339400    5.519200
  C     -0.046300   -3.017400    5.253300
  C      0.292100   -2.004600    6.174500
  C      0.040200   -0.646000    5.905800
  H      1.243000    0.738800    8.758300
  H      1.706300   -1.626400    9.261800
  H      1.685400   -3.990700    8.571700
  H      1.121400   -5.711800    6.932900
  H     -0.562100   -2.733000    4.349200
  H     -0.433300   -0.370100    4.976100
  C     -0.124200   -5.408900    4.576200
  C     -0.549600   -6.659600    5.034900
  C     -0.828600   -7.667300    4.127300
  C     -0.691200   -7.408700    2.775300
  N     -0.314700   -6.203800    2.331000
  C     -0.034500   -5.230800    3.194700
  H     -0.671200   -6.835500    6.092100
  H     -1.148600   -8.639600    4.465400
  H     -0.888200   -8.175500    2.024300
  H      0.293300   -4.288500    2.768900
  C     -6.668100   -2.162500   -0.034500
  C     -6.470000   -3.349800   -0.152700
  C     -6.135600   -4.714300   -0.257600
  C     -7.091300   -5.688800   -0.480600
  C     -6.733200   -7.039400   -0.570700
  C     -5.427500   -7.437600   -0.436400
  C     -4.422800   -6.474900   -0.203200
  C     -3.064000   -6.817200   -0.048400
  N     -2.129200   -5.921400    0.173300
  C     -2.454200   -4.602500    0.258700
  C     -3.740200   -4.167400    0.123700
  C     -4.772300   -5.098300   -0.113900
  H     -8.126900   -5.403300   -0.588000
  H     -7.505600   -7.772200   -0.747400
  H     -5.160700   -8.480200   -0.505200
  H     -2.754700   -7.855000   -0.113700
  H     -1.626800   -3.912400    0.448100
  H     -3.987900   -3.120700    0.199600
  C     -6.872500   -0.780800    0.162000
  C     -8.088100   -0.325500    0.727700
  C     -8.265400    1.001000    0.992400
  C     -7.250700    1.940600    0.706700
  C     -7.391600    3.311300    1.004900
  C     -6.394600    4.198300    0.718600
  C     -5.194800    3.767500    0.104000
  C     -5.032700    2.432300   -0.191000
  C     -6.041900    1.493600    0.107500
  C     -5.876300    0.120100   -0.154000
  H     -8.863000   -1.042400    0.954300
  H     -9.188000    1.350800    1.432600
  H     -8.304800    3.649700    1.472000
  H     -6.514000    5.236600    0.986400
  H     -4.142500    2.081400   -0.689800
  H     -4.958800   -0.225400   -0.605300
  C     -4.156100    4.759700   -0.204600
  C     -4.494000    6.058800   -0.597200
  C     -3.496900    6.990900   -0.831500
  C     -2.174600    6.608700   -0.688200
  N     -1.849700    5.358100   -0.347400
  C     -2.796900    4.457400   -0.104300
  H     -5.529100    6.332200   -0.728700
  H     -3.744700    7.998700   -1.123300
  H     -1.356800    7.314600   -0.852500
  H     -2.457000    3.473800    0.200900
  C     -0.151700    0.996200   -6.627200
  C      0.033500    2.180500   -6.466400
  C      0.226000    3.546800   -6.183400
  C      0.415300    4.480700   -7.186000
  C      0.595700    5.835300   -6.882100
  C      0.585600    6.277900   -5.583900
  C      0.390600    5.357600   -4.532600
  C      0.358400    5.747100   -3.178500
  N      0.170800    4.889400   -2.202700
  C      0.004300    3.568100   -2.469500
  C      0.017500    3.088800   -3.748000
  C      0.211200    3.976700   -4.826300
  H      0.425400    4.159300   -8.216500
  H      0.742800    6.535400   -7.690300
  H      0.723100    7.323400   -5.358000
  H      0.492900    6.788800   -2.907600
  H     -0.146400    2.908900   -1.608700
  H     -0.122400    2.039900   -3.955100
  C     -0.415000   -0.379900   -6.786900
  C     -1.029700   -0.843800   -7.975100
  C     -1.346600   -2.163600   -8.111700
  C     -1.066600   -3.088100   -7.081600
  C     -1.410500   -4.451600   -7.183000
  C     -1.124900   -5.324600   -6.173500
  C     -0.468800   -4.885200   -4.999200
  C     -0.130700   -3.556600   -4.874200
  C     -0.423300   -2.632800   -5.898800
  C     -0.108600   -1.266400   -5.774900
  H     -1.250100   -0.138400   -8.762400
  H     -1.822800   -2.519800   -9.013800
  H     -1.910400   -4.795800   -8.076500
  H     -1.424300   -6.357300   -6.262300
  H      0.399100   -3.201900   -4.003700
  H      0.378400   -0.915400   -4.878000
  C     -0.162500   -5.863600   -3.946700
  C      0.203800   -7.174400   -4.268400
  C      0.437300   -8.091600   -3.257800
  C      0.314500   -7.684500   -1.941500
  N     -0.005100   -6.423100   -1.629100
  C     -0.241500   -5.535700   -2.592300
  H      0.315300   -7.467200   -5.300500
  H      0.711400   -9.108100   -3.489500
  H      0.477200   -8.375300   -1.112500
  H     -0.524800   -4.539200   -2.270200

----------------------------
CARTESIAN COORDINATES (A.U.)
----------------------------
  NO LB      ZA    FRAG     MASS         X           Y           Z
   0 Pd   18.0000*   0   106.400    0.196720    9.755144   -0.492463
   1 Pd   18.0000*   0   106.400   -0.295175  -11.622950    0.646664
   2 C     6.0000    0    12.011   12.345014   -4.626994    0.589972
   3 C     6.0000    0    12.011   11.868425   -6.814163    1.051444
   4 C     6.0000    0    12.011   11.118771   -9.325043    1.521985
   5 C     6.0000    0    12.011   12.838610  -11.191525    2.145406
   6 C     6.0000    0    12.011   12.045114  -13.677271    2.585334
   7 C     6.0000    0    12.011    9.545574  -14.338675    2.403732
   8 C     6.0000    0    12.011    7.732192  -12.491846    1.763303
   9 C     6.0000    0    12.011    5.137032  -13.047992    1.531812
  10 N     7.0000    0    14.007    3.449695  -11.330420    0.927667
  11 C     6.0000    0    12.011    4.177996   -8.900610    0.502478
  12 C     6.0000    0    12.011    6.643710   -8.167963    0.677278
  13 C     6.0000    0    12.011    8.511515   -9.956778    1.319596
  14 H     1.0000    0     1.008   14.818476  -10.723818    2.297340
  15 H     1.0000    0     1.008   13.439732  -15.083794    3.071561
  16 H     1.0000    0     1.008    8.951255  -16.258448    2.741993
  17 H     1.0000    0     1.008    4.462966  -14.955671    1.862325
  18 H     1.0000    0     1.008    2.675852   -7.571944    0.001134
  19 H     1.0000    0     1.008    7.202124   -6.240443    0.324655
  20 C     6.0000    0    12.011   12.849382   -2.090982   -0.057637
  21 C     6.0000    0    12.011   15.180359   -1.456034   -1.207535
  22 C     6.0000    0    12.011   15.628602    0.964894   -1.972118
  23 C     6.0000    0    12.011   13.796135    2.874084   -1.628755
  24 C     6.0000    0    12.011   14.179182    5.374381   -2.464959
  25 C     6.0000    0    12.011   12.375439    7.183416   -2.109879
  26 C     6.0000    0    12.011   10.076587    6.602703   -0.873053
  27 C     6.0000    0    12.011    9.656312    4.170248   -0.050078
  28 C     6.0000    0    12.011   11.478574    2.260679   -0.417629
  29 C     6.0000    0    12.011   11.048473   -0.250011    0.350355
  30 H     1.0000    0     1.008   16.580079   -2.914525   -1.485514
  31 H     1.0000    0     1.008   17.398142    1.452444   -2.866337
  32 H     1.0000    0     1.008   15.929824    5.836041   -3.407365
  33 H     1.0000    0     1.008   12.689322    9.067851   -2.822117
  34 H     1.0000    0     1.008    7.948188    3.689501    0.954501
  35 H     1.0000    0     1.008    9.288949   -0.727923    1.264605
  36 C     6.0000    0    12.011    8.203490    8.617529   -0.497565
  37 C     6.0000    0    12.011    8.956168   11.105543   -0.019653
  38 C     6.0000    0    12.011    7.156204   12.988844    0.228468
  39 C     6.0000    0    12.011    4.626050   12.357675    0.030425
  40 N     7.0000    0    14.007    3.902473    9.970006   -0.359804
  41 C     6.0000    0    12.011    5.610975    8.148121   -0.631169
  42 H     1.0000    0     1.008   10.934522   11.555108    0.176689
  43 H     1.0000    0     1.008    7.712917   14.917687    0.574855
  44 H     1.0000    0     1.008    3.144504   13.786686    0.193508
  45 H     1.0000    0     1.008    4.882296    6.270111   -1.008358
  46 C     6.0000    0    12.011    0.359048    3.193259   12.308164
  47 C     6.0000    0    12.011    0.110549    5.399892   11.767892
  48 C     6.0000    0    12.011   -0.136816    7.924378   10.960790
  49 C     6.0000    0    12.011   -0.406480    9.895173   12.656441
  50 C     6.0000    0    12.011   -0.632302   12.392446   11.812489
  51 C     6.0000    0    12.011   -0.584114   12.961254    9.284036
  52 C     6.0000    0    12.011   -0.302734   11.005576    7.494276
  53 C     6.0000    0    12.011   -0.217130   11.461378    4.871714
  54 N     7.0000    0    14.007    0.056503    9.639115    3.211212
  55 C     6.0000    0    12.011    0.258137    7.198345    3.978818
  56 C     6.0000    0    12.011    0.200311    6.556783    6.477414
  57 C     6.0000    0    12.011   -0.081258    8.457091    8.324622
  58 H     1.0000    0     1.008   -0.445786    9.500220   14.657472
  59 H     1.0000    0     1.008   -0.843952   13.881739   13.189721
  60 H     1.0000    0     1.008   -0.754946   14.889908    8.648899
  61 H     1.0000    0     1.008   -0.382859   13.373970    4.152862
  62 H     1.0000    0     1.008    0.479424    5.774625    2.494438
  63 H     1.0000    0     1.008    0.374922    4.617546    7.078158
  64 C     6.0000    0    12.011    0.738127    0.619452   12.884909
  65 C     6.0000    0    12.011    1.866294   -0.066518   15.212295
  66 C     6.0000    0    12.011    2.350441   -2.544138   15.734427
  67 C     6.0000    0    12.011    1.734580   -4.461643   13.983784
  68 C     6.0000    0    12.011    2.265593   -7.030726   14.448846
  69 C     6.0000    0    12.011    1.643495   -8.846753   12.726361
  70 C     6.0000    0    12.011    0.435771   -8.200278   10.429776
  71 C     6.0000    0    12.011   -0.087494   -5.702060    9.927298
  72 C     6.0000    0    12.011    0.551989   -3.788145   11.668114
  73 C     6.0000    0    12.011    0.075967   -1.220763   11.160345
  74 H     1.0000    0     1.008    2.348930    1.396130   16.550788
  75 H     1.0000    0     1.008    3.224440   -3.073451   17.502266
  76 H     1.0000    0     1.008    3.184944   -7.541330   16.198166
  77 H     1.0000    0     1.008    2.119139  -10.793738   13.101282
  78 H     1.0000    0     1.008   -1.062215   -5.164622    8.218797
  79 H     1.0000    0     1.008   -0.818818   -0.699388    9.403466
  80 C     6.0000    0    12.011   -0.234704  -10.221340    8.647765
  81 C     6.0000    0    12.011   -1.038593  -12.584820    9.514582
  82 C     6.0000    0    12.011   -1.565827  -14.489097    7.799467
  83 C     6.0000    0    12.011   -1.306179  -14.000414    5.244557
  84 N     7.0000    0    14.007   -0.594697  -11.723483    4.404952
  85 C     6.0000    0    12.011   -0.065196   -9.884779    6.037108
  86 H     1.0000    0     1.008   -1.268384  -12.917223   11.512401
  87 H     1.0000    0     1.008   -2.170539  -16.326478    8.438383
  88 H     1.0000    0     1.008   -1.678455  -15.449456    3.825373
  89 H     1.0000    0     1.008    0.554257   -8.104091    5.232463
  90 C     6.0000    0    12.011  -12.600883   -4.086533   -0.065196
  91 C     6.0000    0    12.011  -12.226528   -6.330205   -0.288561
  92 C     6.0000    0    12.011  -11.594604   -8.908736   -0.486793
  93 C     6.0000    0    12.011  -13.400615  -10.750274   -0.908202
  94 C     6.0000    0    12.011  -12.723904  -13.302538   -1.078467
  95 C     6.0000    0    12.011  -10.256489  -14.055027   -0.824676
  96 C     6.0000    0    12.011   -8.357881  -12.235788   -0.383992
  97 C     6.0000    0    12.011   -5.790121  -12.882641   -0.091463
  98 N     7.0000    0    14.007   -4.023605  -11.189824    0.327490
  99 C     6.0000    0    12.011   -4.637766   -8.697465    0.488872
 100 C     6.0000    0    12.011   -7.067954   -7.875245    0.233759
 101 C     6.0000    0    12.011   -9.018340   -9.634391   -0.215240
 102 H     1.0000    0     1.008  -15.357615  -10.210757   -1.111159
 103 H     1.0000    0     1.008  -14.183528  -14.687329   -1.412381
 104 H     1.0000    0     1.008   -9.752310  -16.025256   -0.954690
 105 H     1.0000    0     1.008   -5.205629  -14.843799   -0.214862
 106 H     1.0000    0     1.008   -3.074206   -7.393365    0.846786
 107 H     1.0000    0     1.008   -7.536039   -5.897268    0.377189
 108 C     6.0000    0    12.011  -12.987143   -1.475498    0.306136
 109 C     6.0000    0    12.011  -15.284294   -0.615106    1.375154
 110 C     6.0000    0    12.011  -15.619342    1.891616    1.875364
 111 C     6.0000    0    12.011  -13.701837    3.667203    1.335469
 112 C     6.0000    0    12.011  -13.968100    6.257450    1.898986
 113 C     6.0000    0    12.011  -12.084043    7.933637    1.357957
 114 C     6.0000    0    12.011   -9.816749    7.119543    0.196532
 115 C     6.0000    0    12.011   -9.510425    4.596381   -0.360938
 116 C     6.0000    0    12.011  -11.417536    2.822495    0.203146
 117 C     6.0000    0    12.011  -11.104598    0.226956   -0.291018
 118 H     1.0000    0     1.008  -16.748643   -1.969851    1.803366
 119 H     1.0000    0     1.008  -17.362804    2.552642    2.707222
 120 H     1.0000    0     1.008  -15.693798    6.896933    2.781677
 121 H     1.0000    0     1.008  -12.309676    9.895740    1.864026
 122 H     1.0000    0     1.008   -7.828191    3.933276   -1.303533
 123 H     1.0000    0     1.008   -9.370774   -0.425944   -1.143851
 124 C     6.0000    0    12.011   -7.853891    8.994529   -0.386638
 125 C     6.0000    0    12.011   -8.492429   11.449473   -1.128544
 126 C     6.0000    0    12.011   -6.608183   13.210886   -1.571307
 127 C     6.0000    0    12.011   -4.109398   12.488633   -1.300510
 128 N     7.0000    0    14.007   -3.495426   10.125342   -0.656491
 129 C     6.0000    0    12.011   -5.285375    8.423265   -0.197098
 130 H     1.0000    0     1.008  -10.448485   11.966124   -1.377043
 131 H     1.0000    0     1.008   -7.076457   15.115352   -2.122729
 132 H     1.0000    0     1.008   -2.563980   13.822591   -1.610992
 133 H     1.0000    0     1.008   -4.643057    6.564531    0.379646
 134 C     6.0000    0    12.011   -0.286671    1.882545  -12.523593
 135 C     6.0000    0    12.011    0.063306    4.120548  -12.219725
 136 C     6.0000    0    12.011    0.427078    6.702481  -11.684933
 137 C     6.0000    0    12.011    0.784803    8.467296  -13.579572
 138 C     6.0000    0    12.011    1.125710   11.027119  -13.005284
 139 C     6.0000    0    12.011    1.106624   11.863512  -10.552042
 140 C     6.0000    0    12.011    0.738127   10.124397   -8.565373
 141 C     6.0000    0    12.011    0.677278   10.860445   -6.006495
 142 N     7.0000    0    14.007    0.322765    9.239627   -4.162500
 143 C     6.0000    0    12.011    0.008126    6.742732   -4.666679
 144 C     6.0000    0    12.011    0.033070    5.836986   -7.082694
 145 C     6.0000    0    12.011    0.399110    7.514874   -9.120385
 146 H     1.0000    0     1.008    0.803889    7.859938  -15.526935
 147 H     1.0000    0     1.008    1.403689   12.350116  -14.532561
 148 H     1.0000    0     1.008    1.366461   13.839220  -10.125153
 149 H     1.0000    0     1.008    0.931446   12.828973   -5.494568
 150 H     1.0000    0     1.008   -0.276656    5.497024   -3.040002
 151 H     1.0000    0     1.008   -0.231302    3.854852   -7.474056
 152 C     6.0000    0    12.011   -0.784236   -0.717907  -12.825382
 153 C     6.0000    0    12.011   -1.945851   -1.594551  -15.070755
 154 C     6.0000    0    12.011   -2.544705   -4.088611  -15.328891
 155 C     6.0000    0    12.011   -2.015582   -5.835663  -13.382285
 156 C     6.0000    0    12.011   -2.665459   -8.412305  -13.573903
 157 C     6.0000    0    12.011   -2.125753  -10.062036  -11.666224
 158 C     6.0000    0    12.011   -0.885904   -9.231690   -9.447119
 159 C     6.0000    0    12.011   -0.246987   -6.721000   -9.210903
 160 C     6.0000    0    12.011   -0.799921   -4.975271  -11.147117
 161 C     6.0000    0    12.011   -0.205224   -2.393149  -10.912979
 162 H     1.0000    0     1.008   -2.362347   -0.261538  -16.558536
 163 H     1.0000    0     1.008   -3.444593   -4.761732  -17.033613
 164 H     1.0000    0     1.008   -3.610133   -9.062749  -15.262373
 165 H     1.0000    0     1.008   -2.691537  -12.013556  -11.834032
 166 H     1.0000    0     1.008    0.754190   -6.050714   -7.565897
 167 H     1.0000    0     1.008    0.715072   -1.729855   -9.218084
 168 C     6.0000    0    12.011   -0.307080  -11.080598   -7.458182
 169 C     6.0000    0    12.011    0.385126  -13.557651   -8.066107
 170 C     6.0000    0    12.011    0.826377  -15.290908   -6.156350
 171 C     6.0000    0    12.011    0.594319  -14.521600   -3.668903
 172 N     7.0000    0    14.007   -0.009638  -12.137900   -3.078553
 173 C     6.0000    0    12.011   -0.456369  -10.460957   -4.898737
 174 H     1.0000    0     1.008    0.595831  -14.110963  -10.016493
 175 H     1.0000    0     1.008    1.344351  -17.211815   -6.594199
 176 H     1.0000    0     1.008    0.901777  -15.827023   -2.102320
 177 H     1.0000    0     1.008   -0.991728   -8.577845   -4.290056
* core charge reduced due to ECP

--------------------------------
INTERNAL COORDINATES (ANGSTROEM)
--------------------------------
 Pd     0   0   0     0.000000000000     0.00000000     0.00000000
 Pd     1   0   0    11.331838675608     0.00000000     0.00000000
 C      2   1   0     7.645117894447    59.75248945     0.00000000
 C      3   2   1     1.209468164112    49.71203853   168.24798845
 C      4   3   2     1.408834830631   175.50116798     8.87217037
 C      5   4   3     1.382992158329   122.03352826   170.54169846
 C      6   5   4     1.400281760932   120.87784097   180.48257253
 C      7   6   5     1.371594145511   121.14726476     0.22586389
 C      8   7   6     1.410957355840   119.73185451     0.00000000
 C      9   8   7     1.409812622301   122.59998332   179.64382648
 N     10   9   8     1.313612465684   122.60434736   180.22370313
 C     11  10   9     1.361043643679   120.09368418   359.85214591
 C     12  11  10     1.364320556174   121.87474503     0.16848044
 C     13  12  11     1.410148265254   119.73079822   359.88010935
 H      6   5   4     1.079534946169   119.51752116     0.57698670
 H      7   6   5     1.079272801473   118.84318002   180.12305401
 H      8   7   6     1.078426659537   120.66287358   179.87594528
 H     10   9   8     1.084857202585   120.03478577     0.40943617
 H     12  11  10     1.093892001068   116.20234877   179.79490938
 H     13  12  11     1.078211393930   121.27884213   179.59433109
 C      3   2   1     1.410547021549   128.84499272   345.41308109
 C     21   3   2     1.415870933383   119.67224645   212.87632062
 C     22  21   3     1.364251520065   120.11764900   176.25917010
 C     23  22  21     1.412104482678   120.95017003     0.19642331
 C     24  23  22     1.409782660554   122.16390304   181.84932459
 C     25  24  23     1.364844295149   120.96452210   179.96757824
 C     26  25  24     1.415159280788   120.83298733     0.50670144
 C     27  26  25     1.376955282498   119.21658016   359.21822659
 C     28  27  26     1.410253519762   121.04891759     0.10637025
 C     21   3   2     1.379814280981   120.20025911    30.74761556
 H     22  21   3     1.079791711396   119.11317876   356.90616379
 H     23  22  21     1.080429173986   120.31946998   180.58320537
 H     25  24  23     1.080093116356   118.71950749     0.33264688
 H     26  25  24     1.078911794356   119.50630169   182.00727090
 H     28  27  26     1.079051958897   120.76437556   177.89939934
 H     30  21   3     1.079336861225   120.03436021     3.49746582
 C     27  26  25     1.469265656714   119.00512763   179.09202213
 C     37  27  26     1.398583876641   121.02823764   325.21881874
 C     38  37  27     1.384813164293   119.91668213   177.45265928
 C     39  38  37     1.383904711315   118.98511363     0.87121766
 N     40  39  38     1.336295966469   121.13932745     0.90269735
 C     41  40  39     1.329476054692   120.49755434   358.29172594
 H     38  37  27     1.078606151475   120.09719714   356.76110554
 H     39  38  37     1.078061473201   120.63279963   180.73395178
 H     40  39  38     1.092676589847   121.41032099   180.67114824
 H     42  41  40     1.084511853324   116.27029257   182.10590968
 C     35  28  27     7.231492264395   152.01558301   279.31828354
 C     47  35  28     1.209361132995    80.14890197    77.26182635
 C     48  47  35     1.408608543918   175.94489468    23.10805512
 C     49  48  47     1.383167014500   121.86795427   189.49876889
 C     50  49  48     1.400033592454   120.90166584   179.56420537
 C     51  50  49     1.371676073277   121.11143907   359.76494622
 C     52  51  50     1.410740100089   119.72592521     0.00000000
 C     53  52  51     1.409332597367   122.61120397   180.54701539
 N     54  53  52     1.312613888392   122.48070276   179.67873206
 C     55  54  53     1.358165634229   120.47014823     0.33881361
 C     56  55  54     1.365433795539   121.62128392   359.59185129
 C     57  56  55     1.410297348079   119.75207772     0.16286524
 H     50  49  48     1.079528994516   119.49477514   359.47745620
 H     51  50  49     1.079256711816   118.86269192   179.86744636
 H     52  51  50     1.078313372819   120.67544500   180.13910912
 H     54  53  52     1.084777331990   120.15846170   359.57081638
 H     56  55  54     1.094684529899   116.63467015   179.91356004
 H     57  56  55     1.078278540081   121.34544193   180.45718330
 C     47  35  28     1.410117512834    97.81019454   258.18605133
 C     65  47  35     1.415986073378   119.72520374   120.01870401
 C     66  65  47     1.364171301560   120.11473626   183.13219963
 C     67  66  65     1.412106178727   120.95723372   359.79055158
 C     68  67  66     1.409881718443   122.16650321   178.52640396
 C     69  68  67     1.364817163579   120.95145056   179.82113214
 C     70  69  68     1.415074312536   120.81596188   359.68233699
 C     71  70  69     1.376611935151   119.26797213     0.71150152
 C     72  71  70     1.410279348214   121.01283781   359.73673090
 C     65  47  35     1.379820770970   120.15807305   301.77726093
 H     66  65  47     1.079812043830   119.11063028     2.59385350
 H     67  66  65     1.080519555584   120.32384563   179.52141645
 H     69  68  67     1.080097578925   118.72441461   359.58896499
 H     70  69  68     1.078996543090   119.55624571   178.20045500
 H     72  71  70     1.079041153061   120.73727936   182.04283539
 H     74  65  47     1.079196529831   120.05058696   356.97403466
 C     71  70  69     1.469340767147   118.96458257   180.93471506
 C     81  71  70     1.398435318490   120.92561694    35.71182514
 C     82  81  71     1.384571431888   119.81511429   182.49376620
 C     83  82  81     1.383349818376   118.98532493   359.40090216
 N     84  83  82     1.338259597388   121.38102079   359.01515999
 C     85  84  83     1.330871417531   120.13364466     1.48895007
 H     82  81  71     1.078609850687   120.10889620     3.20742671
 H     83  82  81     1.077997634506   120.70842913   179.42484244
 H     84  83  82     1.091234273655   121.55554671   179.24838870
 H     86  85  84     1.084752400320   116.35744172   178.20558418
 C     79  72  71     7.538271150602   153.42965186    73.50018659
 C     91  79  72     1.209502434888    81.36566025   285.86163902
 C     92  91  79     1.408789416485   175.51420867   339.86438137
 C     93  92  91     1.383019067114   122.03559769   170.74959273
 C     94  93  92     1.400169268339   120.88494383   180.48800451
 C     95  94  93     1.371660387997   121.14349469     0.22589172
 C     96  95  94     1.410884694084   119.73305724     0.00000000
 C     97  96  95     1.409776496470   122.60414203   179.63552645
 N     98  97  96     1.313567497314   122.60652315   180.24079984
 C     99  98  97     1.361034668919   120.09953458   359.82995817
 C    100  99  98     1.364306787347   121.86488675     0.18590919
 C    101 100  99     1.410056374760   119.74059296   359.87536027
 H     94  93  92     1.079588981974   119.50968347     0.58021955
 H     95  94  93     1.079268497641   118.84490827   180.12059282
 H     96  95  94     1.078392525938   120.65924576   179.87547023
 H     98  97  96     1.084877606000   120.02984628     0.40838037
 H    100  99  98     1.093938357496   116.20385449   179.80361253
 H    101 100  99     1.078284280698   121.27469746   179.58875561
 C     91  79  72     1.410491580975    96.34424428   104.57887721
 C    109  91  79     1.415979498439   119.67269726   239.93054104
 C    110 109  91     1.364222720086   120.11536409   176.25482049
 C    111 110 109     1.412122069794   120.95329839     0.18624533
 C    112 111 110     1.409820747471   122.16163987   181.85677517
 C    113 112 111     1.364824417279   120.96333737   179.97113410
 C    114 113 112     1.415217947879   120.83515853     0.50939703
 C    115 114 113     1.376975108707   119.21000134   359.21759582
 C    116 115 114     1.410228555944   121.05429723     0.10705882
 C    109  91  79     1.379815657978   120.20237045    57.79360199
 H    110 109  91     1.079705135674   119.10953688   356.90092688
 H    111 110 109     1.080429007385   120.32076883   180.57663961
 H    113 112 111     1.080107036363   118.72317254     0.33190126
 H    114 113 112     1.078906895890   119.50699091   182.00472010
 H    116 115 114     1.079068250853   120.76185545   177.90650647
 H    118 109  91     1.079281330331   120.03371213     3.50054287
 C    115 114 113     1.469214923012   119.01301708   179.09223106
 C    125 115 114     1.398560681558   121.02776909   325.24305709
 C    126 125 115     1.384888194043   119.91573693   177.45312738
 C    127 126 125     1.383867414169   118.98301600     0.86065710
 N    128 127 126     1.336302738903   121.14429213     0.91235771
 C    129 128 127     1.329490857434   120.49344298   358.28592915
 H    126 125 115     1.078643509228   120.10034722   356.74512421
 H    127 126 125     1.078059794260   120.62955725   180.72390037
 H    128 127 126     1.092742485675   121.40716566   180.67591636
 H    130 129 128     1.084503577680   116.27042305   182.10351585
 C     46  42  41     7.071391821275   126.65553628    74.18059938
 C    135  46  42     1.209430514747    60.30927981   347.54966116
 C    136 135  46     1.408517284239   175.95796149   325.41539929
 C    137 136 135     1.383188512098   121.87106975   189.51224935
 C    138 137 136     1.399943045270   120.90368538   179.56063571
 C    139 138 137     1.371612193734   121.11430508   359.76738111
 C    140 139 138     1.410747596135   119.72490628     0.00000000
 C    141 140 139     1.409373584256   122.60566051   180.53028518
 N    142 141 140     1.312641874237   122.47398945   179.68706766
 C    143 142 141     1.358211390027   120.47421778     0.33279187
 C    144 143 142     1.365454129585   121.61573433   359.60143144
 C    145 144 143     1.410183317870   119.75369738     0.16152208
 H    138 137 136     1.079504617869   119.48542564   359.46625808
 H    139 138 137     1.079335749431   118.85827617   179.87067037
 H    140 139 138     1.078428166361   120.67411840   180.13631243
 H    142 141 140     1.084719295486   120.16673523   359.58078539
 H    144 143 142     1.094637734595   116.63127286   179.93325654
 H    145 144 143     1.078264174495   121.33507165   180.45718866
 C    135  46  42     1.410135521856   119.35565857   170.09459942
 C    153 135  46     1.415937336184   119.72360948   176.57283963
 C    154 153 135     1.364169054773   120.12245017   183.15134957
 C    155 154 153     1.412163680315   120.94889129   359.78574403
 C    156 155 154     1.409851559562   122.16213181   178.52248278
 C    157 156 155     1.364839408136   120.95510492   179.82507157
 C    158 157 156     1.415104257643   120.80992329   359.67130679
 C    159 158 157     1.376631602863   119.26786187     0.72173535
 C    160 159 158     1.410257550946   121.01584160   359.73576216
 C    153 135  46     1.379821441347   120.16176251   358.34079065
 H    154 153 135     1.079817859641   119.10557760     2.60386036
 H    155 154 153     1.080476418068   120.32691140   179.51678757
 H    157 156 155     1.080146240099   118.72260081   359.58238700
 H    158 157 156     1.078886041248   119.55805086   178.19565685
 H    160 159 158     1.079013614372   120.73722638   182.04556690
 H    162 153 135     1.079258824379   120.05003110   356.96241842
 C    159 158 157     1.469300003403   118.96795955   180.93612805
 C    169 159 158     1.398521798185   120.92749195    35.70904352
 C    170 169 159     1.384590354581   119.81215515   182.48781079
 C    171 170 169     1.383277246253   118.98783815   359.38752854
 N    172 171 170     1.338233118705   121.38220799   359.03047235
 C    173 172 171     1.330833558339   120.13134417     1.48220283
 H    170 169 159     1.078607667319   120.10720971     3.19542350
 H    171 170 169     1.078001832095   120.70662518   179.42604841
 H    172 171 170     1.091291404713   121.55638527   179.26019940
 H    174 173 172     1.084905318449   116.35759147   178.19806369

---------------------------
INTERNAL COORDINATES (A.U.)
---------------------------
 Pd     0   0   0     0.000000000000     0.00000000     0.00000000
 Pd     1   0   0    21.414071690676     0.00000000     0.00000000
 C      2   1   0    14.447179082046    59.75248945     0.00000000
 C      3   2   1     2.285563597868    49.71203853   168.24798845
 C      4   3   2     2.662311997823   175.50116798     8.87217037
 C      5   4   3     2.613476424603   122.03352826   170.54169846
 C      6   5   4     2.646149038487   120.87784097   180.48257253
 C      7   6   5     2.591937301905   121.14726476     0.22586389
 C      8   7   6     2.666322989180   119.73185451     0.00000000
 C      9   8   7     2.664159756295   122.59998332   179.64382648
 N     10   9   8     2.482367806248   122.60434736   180.22370313
 C     11  10   9     2.571999742868   120.09368418   359.85214591
 C     12  11  10     2.578192210049   121.87474503     0.16848044
 C     13  12  11     2.664794029555   119.73079822   359.88010935
 H      6   5   4     2.040025400257   119.51752116     0.57698670
 H      7   6   5     2.039530018574   118.84318002   180.12305401
 H      8   7   6     2.037931042044   120.66287358   179.87594528
 H     10   9   8     2.050083007297   120.03478577     0.40943617
 H     12  11  10     2.067156302105   116.20234877   179.79490938
 H     13  12  11     2.037524249001   121.27884213   179.59433109
 C      3   2   1     2.665547569745   128.84499272   345.41308109
 C     21   3   2     2.675608305074   119.67224645   212.87632062
 C     22  21   3     2.578061750709   120.11764900   176.25917010
 C     23  22  21     2.668490744744   120.95017003     0.19642331
 C     24  23  22     2.664103136799   122.16390304   181.84932459
 C     25  24  23     2.579181933276   120.96452210   179.96757824
 C     26  25  24     2.674263476566   120.83298733     0.50670144
 C     27  26  25     2.602068382578   119.21658016   359.21822659
 C     28  27  26     2.664992931748   121.04891759     0.10637025
 C     21   3   2     2.607471106728   120.20025911    30.74761556
 H     22  21   3     2.040510616217   119.11317876   356.90616379
 H     23  22  21     2.041715245932   120.31946998   180.58320537
 H     25  24  23     2.041080189047   118.71950749     0.33264688
 H     26  25  24     2.038847813990   119.50630169   182.00727090
 H     28  27  26     2.039112686587   120.76437556   177.89939934
 H     30  21   3     2.039651073962   120.03436021     3.49746582
 C     27  26  25     2.776509709166   119.00512763   179.09202213
 C     37  27  26     2.642940502169   121.02823764   325.21881874
 C     38  37  27     2.616917627163   119.91668213   177.45265928
 C     39  38  37     2.615200899829   118.98511363     0.87121766
 N     40  39  38     2.525233410489   121.13932745     0.90269735
 C     41  40  39     2.512345644974   120.49755434   358.29172594
 H     38  37  27     2.038270232651   120.09719714   356.76110554
 H     39  38  37     2.037240939881   120.63279963   180.73395178
 H     40  39  38     2.064859507758   121.41032099   180.67114824
 H     42  41  40     2.049430391774   116.27029257   182.10590968
 C     35  28  27    13.665539919276   152.01558301   279.31828354
 C     47  35  28     2.285361338370    80.14890197    77.26182635
 C     48  47  35     2.661884377907   175.94489468    23.10805512
 C     49  48  47     2.613806854878   121.86795427   189.49876889
 C     50  49  48     2.645680068028   120.90166584   179.56420537
 C     51  50  49     2.592092122946   121.11143907   359.76494622
 C     52  51  50     2.665912435309   119.72592521     0.00000000
 C     53  52  51     2.663252640631   122.61120397   180.54701539
 N     54  53  52     2.480480768643   122.48070276   179.67873206
 C     55  54  53     2.566561093196   120.47014823     0.33881361
 C     56  55  54     2.580295927569   121.62128392   359.59185129
 C     57  56  55     2.665075755266   119.75207772     0.16286524
 H     50  49  48     2.040014153262   119.49477514   359.47745620
 H     51  50  49     2.039499613529   118.86269192   179.86744636
 H     52  51  50     2.037716961173   120.67544500   180.13910912
 H     54  53  52     2.049932073747   120.15846170   359.57081638
 H     56  55  54     2.068653964549   116.63467015   179.91356004
 H     57  56  55     2.037651136838   121.34544193   180.45718330
 C     47  35  28     2.664735915902    97.81019454   258.18605133
 C     65  47  35     2.675825888131   119.72520374   120.01870401
 C     66  65  47     2.577910159703   120.11473626   183.13219963
 C     67  66  65     2.668493949813   120.95723372   359.79055158
 C     68  67  66     2.664290329080   122.16650321   178.52640396
 C     69  68  67     2.579130662040   120.95145056   179.82113214
 C     70  69  68     2.674102909840   120.81596188   359.68233699
 C     71  70  69     2.601419550123   119.26797213     0.71150152
 C     72  71  70     2.665041740450   121.01283781   359.73673090
 C     65  47  35     2.607483371029   120.15807305   301.77726093
 H     66  65  47     2.040549038948   119.11063028     2.59385350
 H     67  66  65     2.041886042401   120.32384563   179.52141645
 H     69  68  67     2.041088622080   118.72441461   359.58896499
 H     70  69  68     2.039007965888   119.55624571   178.20045500
 H     72  71  70     2.039092266517   120.73727936   182.04283539
 H     74  65  47     2.039385886059   120.05058696   356.97403466
 C     71  70  69     2.776651647313   118.96458257   180.93471506
 C     81  71  70     2.642659767949   120.92561694    35.71182514
 C     82  81  71     2.616460819119   119.81511429   182.49376620
 C     83  82  81     2.614152304140   118.98532493   359.40090216
 N     84  83  82     2.528944135154   121.38102079   359.01515999
 C     85  84  83     2.514982498596   120.13364466     1.48895007
 H     82  81  71     2.038277223149   120.10889620     3.20742671
 H     83  82  81     2.037120302231   120.70842913   179.42484244
 H     84  83  82     2.062133925157   121.55554671   179.24838870
 H     86  85  84     2.049884959719   116.35744172   178.20558418
 C     79  72  71    14.245267997877   153.42965186    73.50018659
 C     91  79  72     2.285628360249    81.36566025   285.86163902
 C     92  91  79     2.662226177523   175.51420867   339.86438137
 C     93  92  91     2.613527274836   122.03559769   170.74959273
 C     94  93  92     2.645936458293   120.88494383   180.48800451
 C     95  94  93     2.592062482062   121.14349469     0.22589172
 C     96  95  94     2.666185678360   119.73305724     0.00000000
 C     97  96  95     2.664091488368   122.60414203   179.63552645
 N     98  97  96     2.482282828344   122.60652315   180.24079984
 C     99  98  97     2.571982783029   120.09953458   359.82995817
 C    100  99  98     2.578166190735   121.86488675     0.18590919
 C    101 100  99     2.664620381685   119.74059296   359.87536027
 H     94  93  92     2.040127513130   119.50968347     0.58021955
 H     95  94  93     2.039521885510   118.84490827   180.12059282
 H     96  95  94     2.037866538891   120.65924576   179.87547023
 H     98  97  96     2.050121564164   120.02984628     0.40838037
 H    100  99  98     2.067243903058   116.20385449   179.80361253
 H    101 100  99     2.037661985031   121.27469746   179.58875561
 C     91  79  72     2.665442802243    96.34424428   104.57887721
 C    109  91  79     2.675813463297   119.67269726   239.93054104
 C    110 109  91     2.578007326636   120.11536409   176.25482049
 C    111 110 109     2.668523979577   120.95329839     0.18624533
 C    112 111 110     2.664175110641   122.16163987   181.85677517
 C    113 112 111     2.579144369545   120.96333737   179.97113410
 C    114 113 112     2.674374341302   120.83515853     0.50939703
 C    115 114 113     2.602105848684   119.21000134   359.21759582
 C    116 115 114     2.664945756969   121.05429723     0.10705882
 C    109  91  79     2.607473708874   120.20237045    57.79360199
 H    110 109  91     2.040347011811   119.10953688   356.90092688
 H    111 110 109     2.041714931103   120.32076883   180.57663961
 H    113 112 111     2.041106494047   118.72317254     0.33190126
 H    114 113 112     2.038838557232   119.50699091   182.00472010
 H    116 115 114     2.039143473923   120.76185545   177.90650647
 H    118 109  91     2.039546135779   120.03371213     3.50054287
 C    115 114 113     2.776413836362   119.01301708   179.09223106
 C    125 115 114     2.642896669815   121.02776909   325.24305709
 C    126 125 115     2.617059412842   119.91573693   177.45312738
 C    127 126 125     2.615130418438   118.98301600     0.86065710
 N    128 127 126     2.525246208536   121.14429213     0.91235771
 C    129 128 127     2.512373618102   120.49344298   358.28592915
 H    126 125 115     2.038340828573   120.10034722   356.74512421
 H    127 126 125     2.037237767143   120.62955725   180.72390037
 H    128 127 126     2.064984032827   121.40716566   180.67591636
 H    130 129 128     2.049414753072   116.27042305   182.10351585
 C     46  42  41    13.362993927861   126.65553628    74.18059938
 C    135  46  42     2.285492450878    60.30927981   347.54966116
 C    136 135  46     2.661711922106   175.95796149   325.41539929
 C    137 136 135     2.613847479451   121.87106975   189.51224935
 C    138 137 136     2.645508958648   120.90368538   179.56063571
 C    139 138 137     2.591971408104   121.11430508   359.76738111
 C    140 139 138     2.665926600782   119.72490628     0.00000000
 C    141 140 139     2.663330094628   122.60566051   180.53028518
 N    142 141 140     2.480533654225   122.47398945   179.68706766
 C    143 142 141     2.566647559124   120.47421778     0.33279187
 C    144 143 142     2.580334353347   121.61573433   359.60143144
 C    145 144 143     2.664860269399   119.75369738     0.16152208
 H    138 137 136     2.039968088075   119.48542564   359.46625808
 H    139 138 137     2.039648972975   118.85827617   179.87067037
 H    140 139 138     2.037933889529   120.67411840   180.13631243
 H    142 141 140     2.049822400649   120.16673523   359.58078539
 H    144 143 142     2.068565534241   116.63127286   179.93325654
 H    145 144 143     2.037623989815   121.33507165   180.45718866
 C    135  46  42     2.664769948022   119.35565857   170.09459942
 C    153 135  46     2.675733788182   119.72360948   176.57283963
 C    154 153 135     2.577905913891   120.12245017   183.15134957
 C    155 154 153     2.668602612065   120.94889129   359.78574403
 C    156 155 154     2.664233337054   122.16213181   178.52248278
 C    157 156 155     2.579172698160   120.95510492   179.82507157
 C    158 157 156     2.674159497892   120.80992329   359.67130679
 C    159 158 157     2.601456716711   119.26786187     0.72173535
 C    160 159 158     2.665000549582   121.01584160   359.73576216
 C    153 135  46     2.607484637858   120.16176251   358.34079065
 H    154 153 135     2.040560029239   119.10557760     2.60386036
 H    155 154 153     2.041804524308   120.32691140   179.51678757
 H    157 156 155     2.041180578372   118.72260081   359.58238700
 H    158 157 156     2.038799147669   119.55805086   178.19565685
 H    160 159 158     2.039040225935   120.73722638   182.04556690
 H    162 153 135     2.039503605694   120.05003110   356.96241842
 C    159 158 157     2.776574615001   118.96795955   180.93612805
 C    169 159 158     2.642823190890   120.92749195    35.70904352
 C    170 169 159     2.616496577828   119.81215515   182.48781079
 C    171 170 169     2.614015162702   118.98783815   359.38752854
 N    172 171 170     2.528894097697   121.38220799   359.03047235
 C    173 172 171     2.514910955092   120.13134417     1.48220283
 H    170 169 159     2.038273097181   120.10720971     3.19542350
 H    171 170 169     2.037128234525   120.70662518   179.42604841
 H    172 171 170     2.062241887209   121.55638527   179.26019940
 H    174 173 172     2.050173933104   116.35759147   178.19806369

---------------------
BASIS SET INFORMATION
---------------------
There are 4 groups of distinct atoms

 Group   1 Type Pd  : 7s6p5d1f contracted to 5s3p2d1f pattern {31111/411/41/1}
 Group   2 Type C   : 7s4p1d contracted to 3s2p1d pattern {511/31/1}
 Group   3 Type N   : 7s4p1d contracted to 3s2p1d pattern {511/31/1}
 Group   4 Type H   : 4s1p contracted to 2s1p pattern {31/1}

Atom   0Pd   basis set group =>   1
Atom   1Pd   basis set group =>   1
Atom   2C    basis set group =>   2
Atom   3C    basis set group =>   2
Atom   4C    basis set group =>   2
Atom   5C    basis set group =>   2
Atom   6C    basis set group =>   2
Atom   7C    basis set group =>   2
Atom   8C    basis set group =>   2
Atom   9C    basis set group =>   2
Atom  10N    basis set group =>   3
Atom  11C    basis set group =>   2
Atom  12C    basis set group =>   2
Atom  13C    basis set group =>   2
Atom  14H    basis set group =>   4
Atom  15H    basis set group =>   4
Atom  16H    basis set group =>   4
Atom  17H    basis set group =>   4
Atom  18H    basis set group =>   4
Atom  19H    basis set group =>   4
Atom  20C    basis set group =>   2
Atom  21C    basis set group =>   2
Atom  22C    basis set group =>   2
Atom  23C    basis set group =>   2
Atom  24C    basis set group =>   2
Atom  25C    basis set group =>   2
Atom  26C    basis set group =>   2
Atom  27C    basis set group =>   2
Atom  28C    basis set group =>   2
Atom  29C    basis set group =>   2
Atom  30H    basis set group =>   4
Atom  31H    basis set group =>   4
Atom  32H    basis set group =>   4
Atom  33H    basis set group =>   4
Atom  34H    basis set group =>   4
Atom  35H    basis set group =>   4
Atom  36C    basis set group =>   2
Atom  37C    basis set group =>   2
Atom  38C    basis set group =>   2
Atom  39C    basis set group =>   2
Atom  40N    basis set group =>   3
Atom  41C    basis set group =>   2
Atom  42H    basis set group =>   4
Atom  43H    basis set group =>   4
Atom  44H    basis set group =>   4
Atom  45H    basis set group =>   4
Atom  46C    basis set group =>   2
Atom  47C    basis set group =>   2
Atom  48C    basis set group =>   2
Atom  49C    basis set group =>   2
Atom  50C    basis set group =>   2
Atom  51C    basis set group =>   2
Atom  52C    basis set group =>   2
Atom  53C    basis set group =>   2
Atom  54N    basis set group =>   3
Atom  55C    basis set group =>   2
Atom  56C    basis set group =>   2
Atom  57C    basis set group =>   2
Atom  58H    basis set group =>   4
Atom  59H    basis set group =>   4
Atom  60H    basis set group =>   4
Atom  61H    basis set group =>   4
Atom  62H    basis set group =>   4
Atom  63H    basis set group =>   4
Atom  64C    basis set group =>   2
Atom  65C    basis set group =>   2
Atom  66C    basis set group =>   2
Atom  67C    basis set group =>   2
Atom  68C    basis set group =>   2
Atom  69C    basis set group =>   2
Atom  70C    basis set group =>   2
Atom  71C    basis set group =>   2
Atom  72C    basis set group =>   2
Atom  73C    basis set group =>   2
Atom  74H    basis set group =>   4
Atom  75H    basis set group =>   4
Atom  76H    basis set group =>   4
Atom  77H    basis set group =>   4
Atom  78H    basis set group =>   4
Atom  79H    basis set group =>   4
Atom  80C    basis set group =>   2
Atom  81C    basis set group =>   2
Atom  82C    basis set group =>   2
Atom  83C    basis set group =>   2
Atom  84N    basis set group =>   3
Atom  85C    basis set group =>   2
Atom  86H    basis set group =>   4
Atom  87H    basis set group =>   4
Atom  88H    basis set group =>   4
Atom  89H    basis set group =>   4
Atom  90C    basis set group =>   2
Atom  91C    basis set group =>   2
Atom  92C    basis set group =>   2
Atom  93C    basis set group =>   2
Atom  94C    basis set group =>   2
Atom  95C    basis set group =>   2
Atom  96C    basis set group =>   2
Atom  97C    basis set group =>   2
Atom  98N    basis set group =>   3
Atom  99C    basis set group =>   2
Atom 100C    basis set group =>   2
Atom 101C    basis set group =>   2
Atom 102H    basis set group =>   4
Atom 103H    basis set group =>   4
Atom 104H    basis set group =>   4
Atom 105H    basis set group =>   4
Atom 106H    basis set group =>   4
Atom 107H    basis set group =>   4
Atom 108C    basis set group =>   2
Atom 109C    basis set group =>   2
Atom 110C    basis set group =>   2
Atom 111C    basis set group =>   2
Atom 112C    basis set group =>   2
Atom 113C    basis set group =>   2
Atom 114C    basis set group =>   2
Atom 115C    basis set group =>   2
Atom 116C    basis set group =>   2
Atom 117C    basis set group =>   2
Atom 118H    basis set group =>   4
Atom 119H    basis set group =>   4
Atom 120H    basis set group =>   4
Atom 121H    basis set group =>   4
Atom 122H    basis set group =>   4
Atom 123H    basis set group =>   4
Atom 124C    basis set group =>   2
Atom 125C    basis set group =>   2
Atom 126C    basis set group =>   2
Atom 127C    basis set group =>   2
Atom 128N    basis set group =>   3
Atom 129C    basis set group =>   2
Atom 130H    basis set group =>   4
Atom 131H    basis set group =>   4
Atom 132H    basis set group =>   4
Atom 133H    basis set group =>   4
Atom 134C    basis set group =>   2
Atom 135C    basis set group =>   2
Atom 136C    basis set group =>   2
Atom 137C    basis set group =>   2
Atom 138C    basis set group =>   2
Atom 139C    basis set group =>   2
Atom 140C    basis set group =>   2
Atom 141C    basis set group =>   2
Atom 142N    basis set group =>   3
Atom 143C    basis set group =>   2
Atom 144C    basis set group =>   2
Atom 145C    basis set group =>   2
Atom 146H    basis set group =>   4
Atom 147H    basis set group =>   4
Atom 148H    basis set group =>   4
Atom 149H    basis set group =>   4
Atom 150H    basis set group =>   4
Atom 151H    basis set group =>   4
Atom 152C    basis set group =>   2
Atom 153C    basis set group =>   2
Atom 154C    basis set group =>   2
Atom 155C    basis set group =>   2
Atom 156C    basis set group =>   2
Atom 157C    basis set group =>   2
Atom 158C    basis set group =>   2
Atom 159C    basis set group =>   2
Atom 160C    basis set group =>   2
Atom 161C    basis set group =>   2
Atom 162H    basis set group =>   4
Atom 163H    basis set group =>   4
Atom 164H    basis set group =>   4
Atom 165H    basis set group =>   4
Atom 166H    basis set group =>   4
Atom 167H    basis set group =>   4
Atom 168C    basis set group =>   2
Atom 169C    basis set group =>   2
Atom 170C    basis set group =>   2
Atom 171C    basis set group =>   2
Atom 172N    basis set group =>   3
Atom 173C    basis set group =>   2
Atom 174H    basis set group =>   4
Atom 175H    basis set group =>   4
Atom 176H    basis set group =>   4
Atom 177H    basis set group =>   4

-------------------------
BASIS SET IN INPUT FORMAT
-------------------------

 # Basis set for element : H 
 NewGTO H 
 S 3 
   1      13.0107010000      0.0334854848
   2       1.9622572000      0.2347218709
   3       0.4445379600      0.8137702853
 S 1 
   1       0.1219496200      1.0000000000
 P 1 
   1       0.8000000000      1.0000000000
  end;

 # Basis set for element : C 
 NewGTO C 
 S 5 
   1    1238.4016938000      0.0055173650
   2     186.2900499200      0.0410888285
   3      42.2511763460      0.1822538213
   4      11.6765579320      0.4682845944
   5       3.5930506482      0.4457581734
 S 1 
   1       0.4024514736      1.0000000000
 S 1 
   1       0.1309018267      1.0000000000
 P 3 
   1       9.4680970621      0.0568883320
   2       2.0103545142      0.3129405934
   3       0.5477100471      0.7606501651
 P 1 
   1       0.1526861379      1.0000000000
 D 1 
   1       0.8000000000      1.0000000000
  end;

 # Basis set for element : N 
 NewGTO N 
 S 5 
   1    1712.8415853000     -0.0054477995
   2     257.6481267700     -0.0406271746
   3      58.4582458530     -0.1811196225
   4      16.1983679050     -0.4684397556
   5       5.0052600809     -0.4461684629
 S 1 
   1       0.5873185657      1.0000000000
 S 1 
   1       0.1876459225      1.0000000000
 P 3 
   1      13.5714702330     -0.0588481170
   2       2.9257372874     -0.3202462476
   3       0.7992775075     -0.7532822652
 P 1 
   1       0.2195434803      1.0000000000
 D 1 
   1       1.0000000000      1.0000000000
  end;

 # Basis set for element : Pd
 NewGTO Pd
 S 3 
   1       8.4756400000      2.1727229431
   2       7.1657170000     -2.9039633126
   3       3.1821100000     -0.2310570076
 S 1 
   1       1.3973644196      1.0000000000
 S 1 
   1       0.6053295587      1.0000000000
 S 1 
   1       0.1022951421      1.0000000000
 S 1 
   1       0.0373389729      1.0000000000
 P 4 
   1       4.2460970000     -0.8346018694
   2       3.3925940000      0.8828643810
   3       1.1975891264      0.6438870170
   4       0.5267375059      0.2760105151
 P 1 
   1       0.2060709410      1.0000000000
 P 1 
   1       0.0370000000      1.0000000000
 D 4 
   1       7.3613290985     -0.0186922795
   2       2.6291037258      0.2533662423
   3       1.1292744634      0.4840070353
   4       0.4447165990      0.4270306822
 D 1 
   1       0.1554489384      1.0000000000
 F 1 
   1       1.2462900000      1.0000000000
  end;

-------------------------
ECP PARAMETER INFORMATION
-------------------------

 Group 1, Type Pd ECP Def2-ECP (replacing 28 core electrons, lmax=3)

Atom   0Pd   ECP group =>   1
Atom   1Pd   ECP group =>   1


-------------------------
ECP BASIS IN INPUT FORMAT
-------------------------

 #ECP Def2-ECP
 NewECP Pd
   N_core 28
   lmax f
   s 4
     1      12.4300000000    240.2290403000  2
     2       6.1707594000     35.1719435000  2
     3      13.2700000000     31.9295543000  2
     4       6.6300000000      5.3982169000  2
   p 4
     1      11.0800000000    170.4172760000  2
     2       5.8295541000     28.4721329000  2
     3      13.2700000000     31.9295543000  2
     4       6.6300000000      5.3982169000  2
   d 4
     1       9.5100000000     69.0138449000  2
     2       4.1397811000     11.7508616000  2
     3      13.2700000000     31.9295543000  2
     4       6.6300000000      5.3982169000  2
   f 2
     1      13.2700000000    -31.9295543000  2
     2       6.6300000000     -5.3982169000  2
 End




           ************************************************************
           *        Program running with 32 parallel MPI-processes    *
           *              working on a common directory               *
           ************************************************************
------------------------------------------------------------------------------
                           ORCA GTO INTEGRAL CALCULATION
------------------------------------------------------------------------------

                         BASIS SET STATISTICS AND STARTUP INFO

 # of primitive gaussian shells          ... 1702
 # of primitive gaussian functions       ... 3250
 # of contracted shells                  ...  886
 # of contracted basis functions         ... 1950
 Highest angular momentum                ...    3
 Maximum contraction depth               ...    5
 Integral package used                   ... LIBINT
 Integral threshhold            Thresh   ...  2.500e-11
 Primitive cut-off              TCut     ...  2.500e-12


------------------------------ INTEGRAL EVALUATION ----------------------------


 * One electron integrals 

   ECP integrals                         ... done
 Pre-screening matrix                    ... done
 Shell pair data                         ... done (   0.033 sec)



           ************************************************************
           *        Program running with 32 parallel MPI-processes    *
           *              working on a common directory               *
           ************************************************************
-------------------------------------------------------------------------------
                                 ORCA SCF
-------------------------------------------------------------------------------

------------
SCF SETTINGS
------------
Hamiltonian:
 Density Functional     Method          .... DFT(GTOs)
 Exchange Functional    Exchange        .... PBE
   PBE kappa parameter   XKappa         ....  0.804000
   PBE mue parameter    XMuePBE         ....  0.219520
 Correlation Functional Correlation     .... PBE
   PBE beta parameter  CBetaPBE         ....  0.066725
 LDA part of GGA corr.  LDAOpt          .... PW91-LDA
 Gradients option       PostSCFGGA      .... off
 Hybrid DFT is turned on
   Fraction HF Exchange ScalHFX         ....  0.250000
   Scaling of DF-GGA-X  ScalDFX         ....  0.750000
   Scaling of DF-GGA-C  ScalDFC         ....  1.000000
   Scaling of DF-LDA-C  ScalLDAC        ....  1.000000
   Perturbative correction              ....  0.000000
   Density functional embedding theory  .... OFF
   NL short-range parameter             ....  6.900000


General Settings:
 Integral files         IntName         .... _s_5a1_d_PBE0
 Hartree-Fock type      HFTyp           .... RHF
 Total Charge           Charge          ....    4
 Multiplicity           Mult            ....    1
 Number of Electrons    NEL             ....  776
 Basis Dimension        Dim             .... 1950
 Nuclear Repulsion      ENuc            ....  21809.4022066870 Eh

Convergence Acceleration:
 DIIS                   CNVDIIS         .... on
   Start iteration      DIISMaxIt       ....     0
   Startup error        DIISStart       ....  0.200000
   # of expansion vecs  DIISMaxEq       ....     5
   Bias factor          DIISBfac        ....   1.050
   Max. coefficient     DIISMaxC        ....  10.000
 Newton-Raphson         CNVNR           .... off
 SOSCF                  CNVSOSCF        .... off
 Level Shifting         CNVShift        .... on
   Level shift para.    LevelShift      ....    0.2500
   Turn off err/grad.   ShiftErr        ....    0.0000
 Zerner damping         CNVZerner       .... off
 Static damping         CNVDamp         .... on
   Fraction old density DampFac         ....    0.8500
   Max. Damping (<1)    DampMax         ....    0.9800
   Min. Damping (>=0)   DampMin         ....    0.0000
   Turn off err/grad.   DampErr         ....    0.0300
 Fernandez-Rico         CNVRico         .... off

SCF Procedure:
 Maximum # iterations   MaxIter         ....  2000
 SCF integral mode      SCFMode         .... Direct
   Integral package                     .... LIBINT
 Reset frequency        DirectResetFreq ....    20
 Integral Threshold     Thresh          ....  2.500e-11 Eh
 Primitive CutOff       TCut            ....  2.500e-12 Eh

Convergence Tolerance:
 Convergence Check Mode ConvCheckMode   .... Total+1el-Energy
 Convergence forced     ConvForced      .... 0
 Energy Change          TolE            ....  1.000e-08 Eh
 1-El. energy change                    ....  1.000e-05 Eh
 DIIS Error             TolErr          ....  5.000e-07


Diagonalization of the overlap matrix:
Smallest eigenvalue                        ... 2.368e-04
Time for diagonalization                   ...    0.575 sec
Threshold for overlap eigenvalues          ... 1.000e-08
Number of eigenvalues below threshold      ... 0
Time for construction of square roots      ...    0.440 sec
Total time needed                          ...    1.024 sec

-------------------
DFT GRID GENERATION
-------------------

General Integration Accuracy     IntAcc      ...  5.340
Radial Grid Type                 RadialGrid  ... Gauss-Chebyshev
Angular Grid (max. acc.)         AngularGrid ... Lebedev-590
Angular grid pruning method      GridPruning ... 3 (G Style)
Weight generation scheme         WeightScheme... Becke
Basis function cutoff            BFCut       ...    1.0000e-11
Integration weight cutoff        WCut        ...    1.0000e-14
Grids for H and He will be reduced by one unit

# of grid points (after initial pruning)     ... 2602788 (   0.0 sec)
# of grid points (after weights+screening)   ... 2136355 (  15.1 sec)
nearest neighbour list constructed           ...    0.0 sec
Grid point re-assignment to atoms done       ...    0.3 sec
Grid point division into batches done        ...   21.9 sec
Reduced shell lists constructed in   23.0 sec

Total number of grid points                  ...  2136355
Total number of batches                      ...    33471
Average number of points per batch           ...       63
Average number of grid points per atom       ...    12002
Average number of shells per batch           ...   137.31 (15.50%)
Average number of basis functions per batch  ...   280.74 (14.40%)
Average number of large shells per batch     ...    78.72 (57.33%)
Average number of large basis fcns per batch ...   163.04 (58.07%)
Maximum spatial batch extension              ...  15.19,  5.46, 12.35 au
Average spatial batch extension              ...   0.03,  0.03,  0.03 au

Time for grid setup =   38.924 sec

------------------------------
INITIAL GUESS: MODEL POTENTIAL
------------------------------
Loading Hartree-Fock densities                     ... done
  calling /work/e05/e05/atarzia/orca_4_2_1_linux_x86-64_openmpi314/orca _s_5a1_d_PBE0_atom46.inp > _s_5a1_d_PBE0_atom46.out in order to generate an atomic fitting density for atom 0 (Pd with ECP) on-the-fly... 
    atom 0 (Pd), assumed electronic state with S=3: 1s2 2s2 2p6 3s2 3p6 4s2 3d10 4p6 5s2 4d8           ... done
Calculating cut-offs                               ... done
Setting up the integral package                    ... done
Initializing the effective Hamiltonian             ... done
Starting the Coulomb interaction                   ... done (   0.9 sec)
Reading the grid                                   ... done
Mapping shells                                     ... done
Starting the XC term evaluation                    ... done (   1.1 sec)
  promolecular density results
     # of electrons  =    835.955741588
     EX              =   -880.951639416
     EC              =    -30.012479353
     EX+EC           =   -910.964118769
Transforming the Hamiltonian                       ... done (   0.3 sec)
Diagonalizing the Hamiltonian                      ... done (   0.5 sec)
Back transforming the eigenvectors                 ... done (   0.2 sec)
Now organizing SCF variables                       ... done
                      ------------------
                      INITIAL GUESS DONE (  71.9 sec)
                      ------------------
--------------
SCF ITERATIONS
--------------
ITER       Energy         Delta-E        Max-DP      RMS-DP      [F,P]     Damp
               ***  Starting incremental Fock matrix formation  ***
  0  -4684.5339973667   0.000000000000 0.03252362  0.00037235  0.4578682 0.8500
  1  -4684.8641295863  -0.330132219573 0.02774347  0.00034323  0.3874941 0.8500
                               ***Turning on DIIS***
  2  -4685.1064406187  -0.242311032391 0.02267476  0.00027476  0.3270947 0.8500
  3  -4685.2750685808  -0.168627962150 0.01762490  0.00018837  0.2761123 0.8500
  4  -4685.4011111648  -0.126042583946 0.01410029  0.00014224  0.2336880 0.8500
  5  -4685.4984311819  -0.097320017074 0.01160442  0.00011565  0.1982373 0.8500
  6  -4685.5768538931  -0.078422711234 0.00980272  0.00009712  0.1684423 0.8500
  7  -4685.6416610724  -0.064807179326 0.00839496  0.00008344  0.1432346 0.8500
  8  -4685.6960086191  -0.054347546658 0.00729409  0.00007169  0.1218137 0.8500
  9  -4685.7415356567  -0.045527037655 0.00625927  0.00006105  0.1035222 0.8500
 10  -4685.7796389277  -0.038103270930 0.00528150  0.00005176  0.0879277 0.8500
 11  -4685.8115895422  -0.031950614575 0.00444275  0.00004384  0.0746880 0.8500
 12  -4685.8384577055  -0.026868163295 0.00376380  0.00003719  0.0634662 0.8500
 13  -4685.8611018005  -0.022644094930 0.00321448  0.00003159  0.0539428 0.8500
 14  -4685.8802093592  -0.019107558757 0.00274332  0.00002682  0.0458424 0.8500
 15  -4685.8963478434  -0.016138484170 0.00232658  0.00002276  0.0389492 0.8500
 16  -4685.9099918616  -0.013644018170 0.00196727  0.00001931  0.0330913 0.8500
 17  -4685.9215379702  -0.011546108664 0.01111931  0.00010921  0.0281186 0.0000
 18  -4685.9861383389  -0.064600368620 0.00025766  0.00000234  0.0002052 0.0000
 19  -4685.9861423628  -0.000004023957 0.00015614  0.00000090  0.0000736 0.0000
               *** Restarting incremental Fock matrix formation ***
                                   *** Resetting DIIS ***
 20  -4685.9861423163   0.000000046562 0.00013483  0.00000064  0.0000509 0.0000
 21  -4685.9861421523   0.000000163905 0.00005470  0.00000024  0.0000625 0.0000
 22  -4685.9861422921  -0.000000139720 0.00001951  0.00000012  0.0000185 0.0000
 23  -4685.9861423579  -0.000000065829 0.00001933  0.00000013  0.0000063 0.0000
 24  -4685.9861423242   0.000000033695 0.00000567  0.00000005  0.0000024 0.0000
 25  -4685.9861422851   0.000000039119 0.00000634  0.00000004  0.0000010 0.0000
                            ***DIIS convergence achieved***

               *****************************************************
               *                     SUCCESS                       *
               *           SCF CONVERGED AFTER  26 CYCLES          *
               *****************************************************


----------------
TOTAL SCF ENERGY
----------------

Total Energy       :        -4685.98614216 Eh         -127512.16552 eV

Components:
Nuclear Repulsion  :        21809.40220669 Eh          593464.00517 eV
Electronic Energy  :       -26495.38834885 Eh         -720976.17069 eV
One Electron Energy:       -49736.54959880 Eh        -1353400.32013 eV
Two Electron Energy:        23241.16124996 Eh          632424.14943 eV

Virial components:
Potential Energy   :        -9169.80502209 Eh         -249523.08016 eV
Kinetic Energy     :         4483.81887993 Eh          122010.91464 eV
Virial Ratio       :            2.04508819


DFT components:
N(Alpha)           :      387.999984012612 electrons
N(Beta)            :      387.999984012612 electrons
N(Total)           :      775.999968025224 electrons
E(X)               :     -476.757018040596 Eh       
E(C)               :      -26.597348074274 Eh       
E(XC)              :     -503.354366114869 Eh       
DFET-embed. en.    :        0.000000000000 Eh       

---------------
SCF CONVERGENCE
---------------

  Last Energy change         ...    1.2508e-07  Tolerance :   1.0000e-08
  Last MAX-Density change    ...    2.0554e-06  Tolerance :   1.0000e-07
  Last RMS-Density change    ...    1.2550e-08  Tolerance :   5.0000e-09
  Last DIIS Error            ...    6.1793e-07  Tolerance :   5.0000e-07

             **** THE GBW FILE WAS UPDATED (_s_5a1_d_PBE0.gbw) ****
             **** DENSITY FILE WAS UPDATED (_s_5a1_d_PBE0.scfp) ****
             **** ENERGY FILE WAS UPDATED (_s_5a1_d_PBE0.en.tmp) ****
             **** THE GBW FILE WAS UPDATED (_s_5a1_d_PBE0.gbw) ****
             **** DENSITY FILE WAS UPDATED (_s_5a1_d_PBE0.scfp) ****
----------------
ORBITAL ENERGIES
----------------

  NO   OCC          E(Eh)            E(eV) 
   0   2.0000     -14.744708      -401.2239 
   1   2.0000     -14.744679      -401.2231 
   2   2.0000     -14.744323      -401.2134 
   3   2.0000     -14.744296      -401.2127 
   4   2.0000     -14.741040      -401.1241 
   5   2.0000     -14.741009      -401.1233 
   6   2.0000     -14.740442      -401.1078 
   7   2.0000     -14.740416      -401.1071 
   8   2.0000     -10.578790      -287.8635 
   9   2.0000     -10.578773      -287.8631 
  10   2.0000     -10.578689      -287.8608 
  11   2.0000     -10.578663      -287.8600 
  12   2.0000     -10.574141      -287.7370 
  13   2.0000     -10.574130      -287.7367 
  14   2.0000     -10.573688      -287.7247 
  15   2.0000     -10.573675      -287.7243 
  16   2.0000     -10.572643      -287.6963 
  17   2.0000     -10.572621      -287.6956 
  18   2.0000     -10.572019      -287.6793 
  19   2.0000     -10.571989      -287.6785 
  20   2.0000     -10.567795      -287.5643 
  21   2.0000     -10.567775      -287.5638 
  22   2.0000     -10.567384      -287.5531 
  23   2.0000     -10.567359      -287.5525 
  24   2.0000     -10.542264      -286.8696 
  25   2.0000     -10.542255      -286.8693 
  26   2.0000     -10.541728      -286.8550 
  27   2.0000     -10.541714      -286.8546 
  28   2.0000     -10.536669      -286.7173 
  29   2.0000     -10.536665      -286.7172 
  30   2.0000     -10.536585      -286.7151 
  31   2.0000     -10.536568      -286.7146 
  32   2.0000     -10.535561      -286.6872 
  33   2.0000     -10.535560      -286.6872 
  34   2.0000     -10.535434      -286.6837 
  35   2.0000     -10.535431      -286.6837 
  36   2.0000     -10.533756      -286.6381 
  37   2.0000     -10.533751      -286.6379 
  38   2.0000     -10.533647      -286.6351 
  39   2.0000     -10.533630      -286.6347 
  40   2.0000     -10.531516      -286.5771 
  41   2.0000     -10.531512      -286.5770 
  42   2.0000     -10.531497      -286.5766 
  43   2.0000     -10.531493      -286.5765 
  44   2.0000     -10.531102      -286.5659 
  45   2.0000     -10.531085      -286.5654 
  46   2.0000     -10.530993      -286.5629 
  47   2.0000     -10.530971      -286.5623 
  48   2.0000     -10.528278      -286.4890 
  49   2.0000     -10.528277      -286.4890 
  50   2.0000     -10.528208      -286.4871 
  51   2.0000     -10.528197      -286.4868 
  52   2.0000     -10.509801      -285.9862 
  53   2.0000     -10.509791      -285.9859 
  54   2.0000     -10.509736      -285.9844 
  55   2.0000     -10.509734      -285.9844 
  56   2.0000     -10.507968      -285.9363 
  57   2.0000     -10.507951      -285.9359 
  58   2.0000     -10.507888      -285.9342 
  59   2.0000     -10.507872      -285.9337 
  60   2.0000     -10.507587      -285.9260 
  61   2.0000     -10.507582      -285.9258 
  62   2.0000     -10.507432      -285.9218 
  63   2.0000     -10.507423      -285.9215 
  64   2.0000     -10.505423      -285.8671 
  65   2.0000     -10.505422      -285.8671 
  66   2.0000     -10.505419      -285.8670 
  67   2.0000     -10.505418      -285.8670 
  68   2.0000     -10.502386      -285.7844 
  69   2.0000     -10.502375      -285.7841 
  70   2.0000     -10.502339      -285.7832 
  71   2.0000     -10.502329      -285.7829 
  72   2.0000     -10.497701      -285.6570 
  73   2.0000     -10.497696      -285.6568 
  74   2.0000     -10.497525      -285.6522 
  75   2.0000     -10.497513      -285.6519 
  76   2.0000     -10.494550      -285.5712 
  77   2.0000     -10.494542      -285.5710 
  78   2.0000     -10.494522      -285.5705 
  79   2.0000     -10.494510      -285.5701 
  80   2.0000     -10.491151      -285.4787 
  81   2.0000     -10.491148      -285.4787 
  82   2.0000     -10.491110      -285.4776 
  83   2.0000     -10.491107      -285.4775 
  84   2.0000     -10.489862      -285.4436 
  85   2.0000     -10.489852      -285.4434 
  86   2.0000     -10.489828      -285.4427 
  87   2.0000     -10.489822      -285.4426 
  88   2.0000     -10.489609      -285.4368 
  89   2.0000     -10.489590      -285.4362 
  90   2.0000     -10.489546      -285.4350 
  91   2.0000     -10.489545      -285.4350 
  92   2.0000     -10.486048      -285.3399 
  93   2.0000     -10.486033      -285.3395 
  94   2.0000     -10.485990      -285.3383 
  95   2.0000     -10.485984      -285.3381 
  96   2.0000     -10.484636      -285.3015 
  97   2.0000     -10.484625      -285.3011 
  98   2.0000     -10.484584      -285.3000 
[...]
 46 C      5.9846     6.0000     0.0154     3.6932     3.6932    -0.0000
 47 C      6.0521     6.0000    -0.0521     3.7048     3.7048    -0.0000
 48 C      6.0121     6.0000    -0.0121     3.7477     3.7477    -0.0000
 49 C      5.9582     6.0000     0.0418     3.8338     3.8338    -0.0000
 50 C      5.9800     6.0000     0.0200     3.8432     3.8432    -0.0000
 51 C      5.9825     6.0000     0.0175     3.8362     3.8362    -0.0000
 52 C      6.0580     6.0000    -0.0580     3.8925     3.8925    -0.0000
 53 C      5.8405     6.0000     0.1595     3.8732     3.8732    -0.0000
 54 N      7.3169     7.0000    -0.3169     3.3562     3.3562    -0.0000
 55 C      5.8711     6.0000     0.1289     3.8265     3.8265    -0.0000
 56 C      5.9887     6.0000     0.0113     3.8938     3.8938    -0.0000
 57 C      5.9410     6.0000     0.0590     3.9550     3.9550    -0.0000
 58 H      0.9385     1.0000     0.0615     0.9906     0.9906    -0.0000
 59 H      0.9249     1.0000     0.0751     0.9815     0.9815    -0.0000
 60 H      0.9568     1.0000     0.0432     0.9913     0.9913    -0.0000
 61 H      0.9418     1.0000     0.0582     0.9996     0.9996    -0.0000
 62 H      0.9410     1.0000     0.0590     0.9832     0.9832    -0.0000
 63 H      0.9660     1.0000     0.0340     1.0139     1.0139    -0.0000
 64 C      6.0459     6.0000    -0.0459     3.7261     3.7261    -0.0000
 65 C      5.9523     6.0000     0.0477     3.8420     3.8420    -0.0000
 66 C      5.9890     6.0000     0.0110     3.8380     3.8380    -0.0000
 67 C      5.9915     6.0000     0.0085     3.8470     3.8470    -0.0000
 68 C      5.9865     6.0000     0.0135     3.8698     3.8698    -0.0000
 69 C      6.0156     6.0000    -0.0156     3.8655     3.8655    -0.0000
 70 C      5.9535     6.0000     0.0465     3.7819     3.7819    -0.0000
 71 C      6.0443     6.0000    -0.0443     3.8389     3.8389    -0.0000
 72 C      5.9433     6.0000     0.0567     3.8670     3.8670    -0.0000
 73 C      6.0243     6.0000    -0.0243     3.8345     3.8345    -0.0000
 74 H      0.9543     1.0000     0.0457     0.9903     0.9903    -0.0000
 75 H      0.9563     1.0000     0.0437     0.9905     0.9905    -0.0000
 76 H      0.9579     1.0000     0.0421     0.9907     0.9907    -0.0000
 77 H      0.9681     1.0000     0.0319     0.9891     0.9891    -0.0000
 78 H      1.0156     1.0000    -0.0156     0.9964     0.9964    -0.0000
 79 H      1.0127     1.0000    -0.0127     0.9968     0.9968    -0.0000
 80 C      6.0335     6.0000    -0.0335     3.9025     3.9025    -0.0000
 81 C      5.9376     6.0000     0.0624     3.8849     3.8849    -0.0000
 82 C      6.0151     6.0000    -0.0151     3.9260     3.9260    -0.0000
 83 C      5.8772     6.0000     0.1228     3.8569     3.8569    -0.0000
 84 N      7.3053     7.0000    -0.3053     3.3795     3.3795    -0.0000
 85 C      5.8599     6.0000     0.1401     3.8824     3.8824    -0.0000
 86 H      0.9232     1.0000     0.0768     0.9912     0.9912    -0.0000
 87 H      0.9210     1.0000     0.0790     0.9858     0.9858    -0.0000
 88 H      0.9113     1.0000     0.0887     0.9798     0.9798    -0.0000
 89 H      0.9510     1.0000     0.0490     1.0088     1.0088    -0.0000
 90 C      5.9859     6.0000     0.0141     3.6930     3.6930    -0.0000
 91 C      6.0501     6.0000    -0.0501     3.7062     3.7062    -0.0000
 92 C      6.0124     6.0000    -0.0124     3.7496     3.7496    -0.0000
 93 C      5.9579     6.0000     0.0421     3.8328     3.8328    -0.0000
 94 C      5.9804     6.0000     0.0196     3.8433     3.8433    -0.0000
 95 C      5.9827     6.0000     0.0173     3.8373     3.8373    -0.0000
 96 C      6.0587     6.0000    -0.0587     3.8907     3.8907    -0.0000
 97 C      5.8426     6.0000     0.1574     3.8720     3.8720    -0.0000
 98 N      7.3159     7.0000    -0.3159     3.3558     3.3558    -0.0000
 99 C      5.8758     6.0000     0.1242     3.8326     3.8326    -0.0000
100 C      5.9888     6.0000     0.0112     3.8941     3.8941    -0.0000
101 C      5.9403     6.0000     0.0597     3.9542     3.9542    -0.0000
102 H      0.9384     1.0000     0.0616     0.9906     0.9906    -0.0000
103 H      0.9250     1.0000     0.0750     0.9815     0.9815    -0.0000
104 H      0.9567     1.0000     0.0433     0.9913     0.9913    -0.0000
105 H      0.9391     1.0000     0.0609     0.9985     0.9985    -0.0000
106 H      0.9400     1.0000     0.0600     0.9841     0.9841    -0.0000
107 H      0.9653     1.0000     0.0347     1.0135     1.0135    -0.0000
108 C      6.0471     6.0000    -0.0471     3.7281     3.7281    -0.0000
109 C      5.9519     6.0000     0.0481     3.8422     3.8422    -0.0000
110 C      5.9890     6.0000     0.0110     3.8382     3.8382    -0.0000
111 C      5.9914     6.0000     0.0086     3.8473     3.8473    -0.0000
112 C      5.9862     6.0000     0.0138     3.8703     3.8703    -0.0000
113 C      6.0162     6.0000    -0.0162     3.8656     3.8656    -0.0000
114 C      5.9511     6.0000     0.0489     3.7808     3.7808    -0.0000
115 C      6.0455     6.0000    -0.0455     3.8382     3.8382    -0.0000
116 C      5.9434     6.0000     0.0566     3.8670     3.8670    -0.0000
117 C      6.0237     6.0000    -0.0237     3.8340     3.8340    -0.0000
118 H      0.9542     1.0000     0.0458     0.9903     0.9903    -0.0000
119 H      0.9562     1.0000     0.0438     0.9905     0.9905    -0.0000
120 H      0.9578     1.0000     0.0422     0.9907     0.9907    -0.0000
121 H      0.9679     1.0000     0.0321     0.9891     0.9891    -0.0000
122 H      1.0155     1.0000    -0.0155     0.9964     0.9964    -0.0000
123 H      1.0122     1.0000    -0.0122     0.9970     0.9970    -0.0000
124 C      6.0301     6.0000    -0.0301     3.9012     3.9012    -0.0000
125 C      5.9403     6.0000     0.0597     3.8870     3.8870    -0.0000
126 C      6.0132     6.0000    -0.0132     3.9261     3.9261    -0.0000
127 C      5.8769     6.0000     0.1231     3.8513     3.8513    -0.0000
128 N      7.3068     7.0000    -0.3068     3.3775     3.3775    -0.0000
129 C      5.8579     6.0000     0.1421     3.8840     3.8840    -0.0000
130 H      0.9234     1.0000     0.0766     0.9912     0.9912    -0.0000
131 H      0.9216     1.0000     0.0784     0.9858     0.9858    -0.0000
132 H      0.9117     1.0000     0.0883     0.9788     0.9788    -0.0000
133 H      0.9540     1.0000     0.0460     1.0090     1.0090    -0.0000
134 C      5.9846     6.0000     0.0154     3.6930     3.6930    -0.0000
135 C      6.0521     6.0000    -0.0521     3.7047     3.7047    -0.0000
136 C      6.0121     6.0000    -0.0121     3.7477     3.7477    -0.0000
137 C      5.9582     6.0000     0.0418     3.8338     3.8338    -0.0000
138 C      5.9800     6.0000     0.0200     3.8432     3.8432    -0.0000
139 C      5.9825     6.0000     0.0175     3.8362     3.8362    -0.0000
140 C      6.0580     6.0000    -0.0580     3.8924     3.8924    -0.0000
141 C      5.8404     6.0000     0.1596     3.8732     3.8732    -0.0000
142 N      7.3170     7.0000    -0.3170     3.3562     3.3562    -0.0000
143 C      5.8711     6.0000     0.1289     3.8265     3.8265    -0.0000
144 C      5.9888     6.0000     0.0112     3.8937     3.8937    -0.0000
145 C      5.9409     6.0000     0.0591     3.9549     3.9549    -0.0000
146 H      0.9386     1.0000     0.0614     0.9906     0.9906    -0.0000
147 H      0.9249     1.0000     0.0751     0.9815     0.9815    -0.0000
148 H      0.9567     1.0000     0.0433     0.9913     0.9913    -0.0000
149 H      0.9419     1.0000     0.0581     0.9996     0.9996    -0.0000
150 H      0.9410     1.0000     0.0590     0.9832     0.9832    -0.0000
151 H      0.9660     1.0000     0.0340     1.0139     1.0139    -0.0000
152 C      6.0459     6.0000    -0.0459     3.7262     3.7262    -0.0000
153 C      5.9524     6.0000     0.0476     3.8420     3.8420    -0.0000
154 C      5.9889     6.0000     0.0111     3.8379     3.8379    -0.0000
155 C      5.9915     6.0000     0.0085     3.8470     3.8470    -0.0000
156 C      5.9865     6.0000     0.0135     3.8698     3.8698    -0.0000
157 C      6.0155     6.0000    -0.0155     3.8655     3.8655    -0.0000
158 C      5.9535     6.0000     0.0465     3.7819     3.7819    -0.0000
159 C      6.0443     6.0000    -0.0443     3.8389     3.8389    -0.0000
160 C      5.9433     6.0000     0.0567     3.8670     3.8670    -0.0000
161 C      6.0243     6.0000    -0.0243     3.8345     3.8345    -0.0000
162 H      0.9543     1.0000     0.0457     0.9903     0.9903    -0.0000
163 H      0.9563     1.0000     0.0437     0.9905     0.9905    -0.0000
164 H      0.9579     1.0000     0.0421     0.9907     0.9907    -0.0000
165 H      0.9682     1.0000     0.0318     0.9891     0.9891    -0.0000
166 H      1.0156     1.0000    -0.0156     0.9964     0.9964    -0.0000
167 H      1.0127     1.0000    -0.0127     0.9968     0.9968    -0.0000
168 C      6.0336     6.0000    -0.0336     3.9027     3.9027    -0.0000
169 C      5.9375     6.0000     0.0625     3.8849     3.8849    -0.0000
170 C      6.0151     6.0000    -0.0151     3.9260     3.9260    -0.0000
171 C      5.8772     6.0000     0.1228     3.8570     3.8570    -0.0000
172 N      7.3052     7.0000    -0.3052     3.3796     3.3796    -0.0000
173 C      5.8600     6.0000     0.1400     3.8824     3.8824    -0.0000
174 H      0.9232     1.0000     0.0768     0.9912     0.9912    -0.0000
175 H      0.9210     1.0000     0.0790     0.9858     0.9858    -0.0000
176 H      0.9112     1.0000     0.0888     0.9797     0.9797    -0.0000
177 H      0.9510     1.0000     0.0490     1.0088     1.0088    -0.0000

  Mayer bond orders larger than 0.100000
B(  0-Pd, 40-N ) :   0.5424 B(  0-Pd, 54-N ) :   0.5438 B(  0-Pd,128-N ) :   0.5424 
B(  0-Pd,142-N ) :   0.5438 B(  1-Pd, 10-N ) :   0.5361 B(  1-Pd, 84-N ) :   0.5362 
B(  1-Pd, 98-N ) :   0.5360 B(  1-Pd,172-N ) :   0.5362 B(  2-C ,  3-C ) :   2.5859 
B(  2-C , 20-C ) :   1.0080 B(  3-C ,  4-C ) :   1.0056 B(  4-C ,  5-C ) :   1.4294 
B(  4-C , 13-C ) :   1.2406 B(  5-C ,  6-C ) :   1.2698 B(  5-C , 14-H ) :   0.9920 
B(  6-C ,  7-C ) :   1.4704 B(  6-C , 15-H ) :   0.9807 B(  7-C ,  8-C ) :   1.2403 
B(  7-C , 16-H ) :   0.9957 B(  8-C ,  9-C ) :   1.2845 B(  8-C , 13-C ) :   1.2257 
B(  9-C , 10-N ) :   1.4475 B(  9-C , 17-H ) :   0.9590 B( 10-N , 11-C ) :   1.1786 
B( 11-C , 12-C ) :   1.5392 B( 11-C , 18-H ) :   0.9396 B( 12-C , 13-C ) :   1.2897 
B( 12-C , 19-H ) :   0.9552 B( 20-C , 21-C ) :   1.2160 B( 20-C , 29-C ) :   1.4250 
B( 21-C , 22-C ) :   1.4960 B( 21-C , 30-H ) :   0.9913 B( 22-C , 23-C ) :   1.2420 
B( 22-C , 31-H ) :   0.9921 B( 23-C , 24-C ) :   1.2496 B( 23-C , 28-C ) :   1.2441 
B( 24-C , 25-C ) :   1.5083 B( 24-C , 32-H ) :   0.9905 B( 25-C , 26-C ) :   1.2385 
B( 25-C , 33-H ) :   0.9838 B( 26-C , 27-C ) :   1.4475 B( 26-C , 36-C ) :   1.0117 
B( 27-C , 28-C ) :   1.2537 B( 27-C , 34-H ) :   0.9848 B( 28-C , 29-C ) :   1.2377 
B( 29-C , 35-H ) :   0.9960 B( 36-C , 37-C ) :   1.3758 B( 36-C , 41-C ) :   1.3926 
B( 37-C , 38-C ) :   1.4016 B( 37-C , 42-H ) :   0.9796 B( 38-C , 39-C ) :   1.4307 
B( 38-C , 43-H ) :   0.9720 B( 39-C , 40-N ) :   1.2937 B( 39-C , 44-H ) :   0.9449 
B( 40-N , 41-C ) :   1.3491 B( 41-C , 45-H ) :   0.9568 B( 46-C , 47-C ) :   2.5852 
B( 46-C , 64-C ) :   1.0085 B( 47-C , 48-C ) :   1.0050 B( 48-C , 49-C ) :   1.4293 
B( 48-C , 57-C ) :   1.2397 B( 49-C , 50-C ) :   1.2706 B( 49-C , 58-H ) :   0.9920 
B( 50-C , 51-C ) :   1.4691 B( 50-C , 59-H ) :   0.9808 B( 51-C , 52-C ) :   1.2409 
B( 51-C , 60-H ) :   0.9959 B( 52-C , 53-C ) :   1.2850 B( 52-C , 57-C ) :   1.2253 
B( 53-C , 54-N ) :   1.4453 B( 53-C , 61-H ) :   0.9588 B( 54-N , 55-C ) :   1.1726 
B( 55-C , 56-C ) :   1.5374 B( 55-C , 62-H ) :   0.9394 B( 56-C , 57-C ) :   1.2915 
B( 56-C , 63-H ) :   0.9549 B( 64-C , 65-C ) :   1.2154 B( 64-C , 73-C ) :   1.4240 
B( 65-C , 66-C ) :   1.4962 B( 65-C , 74-H ) :   0.9913 B( 66-C , 67-C ) :   1.2418 
B( 66-C , 75-H ) :   0.9920 B( 67-C , 68-C ) :   1.2497 B( 67-C , 72-C ) :   1.2440 
B( 68-C , 69-C ) :   1.5077 B( 68-C , 76-H ) :   0.9906 B( 69-C , 70-C ) :   1.2391 
B( 69-C , 77-H ) :   0.9840 B( 70-C , 71-C ) :   1.4490 B( 70-C , 80-C ) :   1.0099 
B( 71-C , 72-C ) :   1.2529 B( 71-C , 78-H ) :   0.9851 B( 72-C , 73-C ) :   1.2386 
B( 73-C , 79-H ) :   0.9961 B( 80-C , 81-C ) :   1.3754 B( 80-C , 85-C ) :   1.3960 
B( 81-C , 82-C ) :   1.4005 B( 81-C , 86-H ) :   0.9799 B( 82-C , 83-C ) :   1.4312 
B( 82-C , 87-H ) :   0.9722 B( 83-C , 84-N ) :   1.3030 B( 83-C , 88-H ) :   0.9460 
B( 84-N , 85-C ) :   1.3480 B( 85-C , 89-H ) :   0.9554 B( 90-C , 91-C ) :   2.5857 
B( 90-C ,108-C ) :   1.0081 B( 91-C , 92-C ) :   1.0056 B( 92-C , 93-C ) :   1.4293 
B( 92-C ,101-C ) :   1.2406 B( 93-C , 94-C ) :   1.2700 B( 93-C ,102-H ) :   0.9920 
B( 94-C , 95-C ) :   1.4702 B( 94-C ,103-H ) :   0.9807 B( 95-C , 96-C ) :   1.2404 
B( 95-C ,104-H ) :   0.9957 B( 96-C , 97-C ) :   1.2845 B( 96-C ,101-C ) :   1.2255 
B( 97-C , 98-N ) :   1.4475 B( 97-C ,105-H ) :   0.9590 B( 98-N , 99-C ) :   1.1786 
B( 99-C ,100-C ) :   1.5392 B( 99-C ,106-H ) :   0.9396 B(100-C ,101-C ) :   1.2898 
B(100-C ,107-H ) :   0.9551 B(108-C ,109-C ) :   1.2159 B(108-C ,117-C ) :   1.4250 
B(109-C ,110-C ) :   1.4961 B(109-C ,118-H ) :   0.9913 B(110-C ,111-C ) :   1.2419 
B(110-C ,119-H ) :   0.9920 B(111-C ,112-C ) :   1.2496 B(111-C ,116-C ) :   1.2441 
B(112-C ,113-C ) :   1.5084 B(112-C ,120-H ) :   0.9905 B(113-C ,114-C ) :   1.2385 
B(113-C ,121-H ) :   0.9837 B(114-C ,115-C ) :   1.4475 B(114-C ,124-C ) :   1.0118 
B(115-C ,116-C ) :   1.2537 B(115-C ,122-H ) :   0.9848 B(116-C ,117-C ) :   1.2376 
B(117-C ,123-H ) :   0.9960 B(124-C ,125-C ) :   1.3758 B(124-C ,129-C ) :   1.3925 
B(125-C ,126-C ) :   1.4016 B(125-C ,130-H ) :   0.9796 B(126-C ,127-C ) :   1.4308 
B(126-C ,131-H ) :   0.9720 B(127-C ,128-N ) :   1.2937 B(127-C ,132-H ) :   0.9449 
B(128-N ,129-C ) :   1.3491 B(129-C ,133-H ) :   0.9568 B(134-C ,135-C ) :   2.5851 
B(134-C ,152-C ) :   1.0085 B(135-C ,136-C ) :   1.0051 B(136-C ,137-C ) :   1.4294 
B(136-C ,145-C ) :   1.2395 B(137-C ,138-C ) :   1.2706 B(137-C ,146-H ) :   0.9920 
B(138-C ,139-C ) :   1.4691 B(138-C ,147-H ) :   0.9807 B(139-C ,140-C ) :   1.2408 
B(139-C ,148-H ) :   0.9959 B(140-C ,141-C ) :   1.2850 B(140-C ,145-C ) :   1.2254 
B(141-C ,142-N ) :   1.4453 B(141-C ,149-H ) :   0.9588 B(142-N ,143-C ) :   1.1726 
B(143-C ,144-C ) :   1.5373 B(143-C ,150-H ) :   0.9394 B(144-C ,145-C ) :   1.2916 
B(144-C ,151-H ) :   0.9549 B(152-C ,153-C ) :   1.2155 B(152-C ,161-C ) :   1.4240 
B(153-C ,154-C ) :   1.4962 B(153-C ,162-H ) :   0.9913 B(154-C ,155-C ) :   1.2418 
B(154-C ,163-H ) :   0.9921 B(155-C ,156-C ) :   1.2497 B(155-C ,160-C ) :   1.2440 
B(156-C ,157-C ) :   1.5077 B(156-C ,164-H ) :   0.9906 B(157-C ,158-C ) :   1.2390 
B(157-C ,165-H ) :   0.9840 B(158-C ,159-C ) :   1.4490 B(158-C ,168-C ) :   1.0100 
B(159-C ,160-C ) :   1.2530 B(159-C ,166-H ) :   0.9851 B(160-C ,161-C ) :   1.2386 
B(161-C ,167-H ) :   0.9960 B(168-C ,169-C ) :   1.3753 B(168-C ,173-C ) :   1.3962 
B(169-C ,170-C ) :   1.4005 B(169-C ,174-H ) :   0.9799 B(170-C ,171-C ) :   1.4313 
B(170-C ,175-H ) :   0.9722 B(171-C ,172-N ) :   1.3031 B(171-C ,176-H ) :   0.9460 
B(172-N ,173-C ) :   1.3479 B(173-C ,177-H ) :   0.9553 

-------
TIMINGS
-------

Total SCF time: 0 days 0 hours 18 min 38 sec 

Total time                  ....    1118.253 sec
Sum of individual times     ....    1111.328 sec  ( 99.4%)

Fock matrix formation       ....     919.559 sec  ( 82.2%)
  XC integration            ....      35.390 sec  (  3.8% of F)
    Basis function eval.    ....       8.112 sec  ( 22.9% of XC)
    Density eval.           ....      12.051 sec  ( 34.1% of XC)
    XC-Functional eval.     ....       1.270 sec  (  3.6% of XC)
    XC-Potential eval.      ....       4.771 sec  ( 13.5% of XC)
Diagonalization             ....      23.080 sec  (  2.1%)
Density matrix formation    ....       1.310 sec  (  0.1%)
Population analysis         ....       6.123 sec  (  0.5%)
Initial guess               ....      32.930 sec  (  2.9%)
Orbital Transformation      ....       0.000 sec  (  0.0%)
Orbital Orthonormalization  ....       0.000 sec  (  0.0%)
DIIS solution               ....      89.401 sec  (  8.0%)
Grid generation             ....      38.924 sec  (  3.5%)


-------------------------------------------------------------------------------
                          DFT DISPERSION CORRECTION                            
                                                                               
                              DFTD3 V3.1  Rev 1                                
                          USING Becke-Johnson damping                          
-------------------------------------------------------------------------------
The PBE0 functional is recognized
Active option DFTDOPT                   ...         4   

molecular C6(AA) [au] = 487494.259539 


            DFT-D V3
 parameters
 s6 scaling factor         :     1.0000 
 a1 scaling factor         :     0.4145 
 s8 scaling factor         :     1.2177 
 a2 scaling factor         :     4.8593 
 ad hoc parameters k1-k3   :    16.0000     1.3333    -4.0000 

 Edisp/kcal,au: -178.914701391831  -0.285118694939 
 E6   /kcal   : -110.829598780 
 E8   /kcal   : -68.085102612 
 % E8         :  38.054504232 

-------------------------   ----------------
Dispersion correction           -0.285118695
-------------------------   ----------------


-------------------------   --------------------
FINAL SINGLE POINT ENERGY     -4686.271260854939
-------------------------   --------------------


                            ***************************************
                            *     ORCA property calculations      *
                            ***************************************

                                    ---------------------
                                    Active property flags
                                    ---------------------
   (+) Dipole Moment


------------------------------------------------------------------------------
                       ORCA ELECTRIC PROPERTIES CALCULATION
------------------------------------------------------------------------------

Dipole Moment Calculation                       ... on
Quadrupole Moment Calculation                   ... off
Polarizability Calculation                      ... off
GBWName                                         ... _s_5a1_d_PBE0.gbw
Electron density file                           ... _s_5a1_d_PBE0.scfp
The origin for moment calculation is the CENTER OF MASS  = (-0.047538, -0.918773  0.076931)

-------------
DIPOLE MOMENT
-------------
                                X             Y             Z
Electronic contribution:     -0.12770      -1.18563       0.01700
Nuclear contribution   :      0.12612       1.15319      -0.01462
                        -----------------------------------------
Total Dipole Moment    :     -0.00158      -0.03244       0.00238
                        -----------------------------------------
Magnitude (a.u.)       :      0.03257
Magnitude (Debye)      :      0.08278



--------------------
Rotational spectrum 
--------------------
 
Rotational constants in cm-1:     0.000394     0.000284     0.000277 
Rotational constants in MHz :    11.825231     8.508040     8.291470 

 Dipole components along the rotational axes: 
x,y,z [a.u.] :     0.032551     0.000154     0.001043 
x,y,z [Debye]:     0.082737     0.000391     0.002651 

 

Timings for individual modules:

Sum of individual times         ...     1148.488 sec (=  19.141 min)
GTO integral calculation        ...       18.942 sec (=   0.316 min)   1.6 %
SCF iterations                  ...     1129.545 sec (=  18.826 min)  98.4 %
                             ****ORCA TERMINATED NORMALLY****
TOTAL RUN TIME: 0 days 0 hours 19 minutes 15 seconds 28 msec
