Job execution start: Tue Jun 22 17:16:59 BST 2021
Shared library path: /work/e05/e05/atarzia/orca_4_2_1_linux_x86-64_openmpi314:/work/e05/e05/atarzia/openmpi-3.1.4/lib:/opt/cray/pe/papi/6.0.0.4/lib64:/opt/cray/libfabric/1.11.0.0.233/lib64
Slurm Job ID is: 344727
Slurm Job name is: s_5a3_b_B97-3c
nid001493

                                 *****************
                                 * O   R   C   A *
                                 *****************

           --- An Ab Initio, DFT and Semiempirical electronic structure package ---

                  #######################################################
                  #                        -***-                        #
                  #          Department of theory and spectroscopy      #
                  #               Directorship: Frank Neese             #
                  #        Max Planck Institute fuer Kohlenforschung    #
                  #                Kaiser Wilhelm Platz 1               #
                  #                 D-45470 Muelheim/Ruhr               #
                  #                      Germany                        #
                  #                                                     #
                  #                  All rights reserved                #
                  #                        -***-                        #
                  #######################################################


                         Program Version 4.2.1 -  RELEASE  -


 With contributions from (in alphabetic order):
   Daniel Aravena         : Magnetic Suceptibility
   Michael Atanasov       : Ab Initio Ligand Field Theory (pilot matlab implementation)
   Alexander A. Auer      : GIAO ZORA, VPT2
   Ute Becker             : Parallelization
   Giovanni Bistoni       : ED, misc. LED, open-shell LED, HFLD
   Martin Brehm           : Molecular dynamics
   Dmytro Bykov           : SCF Hessian
   Vijay G. Chilkuri      : MRCI spin determinant printing, contributions to CSF-ICE
   Dipayan Datta          : RHF DLPNO-CCSD density
   Achintya Kumar Dutta   : EOM-CC, STEOM-CC
   Dmitry Ganyushin       : Spin-Orbit,Spin-Spin,Magnetic field MRCI
   Miquel Garcia          : C-PCM Hessian, Gaussian charge scheme
   Yang Guo               : DLPNO-NEVPT2, CIM, IAO-localization
   Andreas Hansen         : Spin unrestricted coupled pair/coupled cluster methods
   Benjamin Helmich-Paris : CASSCF linear response (MC-RPA)
   Lee Huntington         : MR-EOM, pCC
   Robert Izsak           : Overlap fitted RIJCOSX, COSX-SCS-MP3, EOM
   Christian Kollmar      : KDIIS, OOCD, Brueckner-CCSD(T), CCSD density
   Simone Kossmann        : Meta GGA functionals, TD-DFT gradient, OOMP2, MP2 Hessian
   Martin Krupicka        : AUTO-CI
   Lucas Lang             : DCDCAS
   Dagmar Lenk            : GEPOL surface, SMD
   Dimitrios Liakos       : Extrapolation schemes; Compound Job, initial MDCI parallelization
   Dimitrios Manganas     : Further ROCIS development; embedding schemes
   Dimitrios Pantazis     : SARC Basis sets
   Taras Petrenko         : DFT Hessian,TD-DFT gradient, ASA, ECA, R-Raman, ABS, FL, XAS/XES, NRVS
   Peter Pinski           : DLPNO-MP2, DLPNO-MP2 Gradient
   Christoph Reimann      : Effective Core Potentials
   Marius Retegan         : Local ZFS, SOC
   Christoph Riplinger    : Optimizer, TS searches, QM/MM, DLPNO-CCSD(T), (RO)-DLPNO pert. Triples
   Tobias Risthaus        : Range-separated hybrids, TD-DFT gradient, RPA, STAB
   Michael Roemelt        : Original ROCIS implementation
   Masaaki Saitow         : Open-shell DLPNO-CCSD energy and density
   Barbara Sandhoefer     : DKH picture change effects
   Avijit Sen             : IP-ROCIS
   Kantharuban Sivalingam : CASSCF convergence, NEVPT2, FIC-MRCI
   Bernardo de Souza      : ESD, SOC TD-DFT
   Georgi Stoychev        : AutoAux, RI-MP2 NMR
   Willem Van den Heuvel  : Paramagnetic NMR
   Boris Wezisla          : Elementary symmetry handling
   Frank Wennmohs         : Technical directorship


 We gratefully acknowledge several colleagues who have allowed us to
 interface, adapt or use parts of their codes:
   Stefan Grimme, W. Hujo, H. Kruse,             : VdW corrections, initial TS optimization,
                  C. Bannwarth                     DFT functionals, gCP, sTDA/sTD-DF
   Ed Valeev, F. Pavosevic, A. Kumar             : LibInt (2-el integral package), F12 methods
   Garnet Chan, S. Sharma, J. Yang, R. Olivares  : DMRG
   Ulf Ekstrom                                   : XCFun DFT Library
   Mihaly Kallay                                 : mrcc  (arbitrary order and MRCC methods)
   Andreas Klamt, Michael Diedenhofen            : otool_cosmo (COSMO solvation model)
   Jiri Pittner, Ondrej Demel                    : Mk-CCSD
   Frank Weinhold                                : gennbo (NPA and NBO analysis)
   Christopher J. Cramer and Donald G. Truhlar   : smd solvation model
   Lars Goerigk                                  : TD-DFT with DH, B97 family of functionals
   V. Asgeirsson, H. Jonsson                     : NEB implementation
   FAccTs GmbH                                   : IRC, NEB, NEB-TS, Multilevel, MM, QM/MM, CI optimization
   S Lehtola, MJT Oliveira, MAL Marques          : LibXC Library


 Your calculation uses the libint2 library for the computation of 2-el integrals
 For citations please refer to: http://libint.valeyev.net

 Your ORCA version has been built with support for libXC version: 4.2.3
 For citations please refer to: https://tddft.org/programs/libxc/

 This ORCA versions uses:
   CBLAS   interface :  Fast vector & matrix operations
   LAPACKE interface :  Fast linear algebra routines
   SCALAPACK package :  Parallel linear algebra routines




***************************************
The coordinates will be read from file: s_5a3_b.xyz
***************************************


Your calculation utilizes the atom-pairwise dispersion correction
with the Becke-Johnson damping scheme (D3BJ)
Cite in your paper:
S.Grimme, S.Ehrlich, L.Goerigk, J Comput Chem, (2011), 32, 1456–1465 
S.Grimme, J.Antony, S.Ehrlich and H.Krieg, J.Chem.Phys., 132, (2010), 154104 
   

Your calculation employs the composite approach B97-3c by Grimme and coworkers.
For the correct reference, please check the publication list of the Grimme group:
http://www.thch.uni-bonn.de/tc/index.php?section=publikationen&subsection=grimme#2017
   

XCFun DFT library Copyright 2009-2010 Ulf Ekstrom and contributors.
See http://admol.org/xcfun for more information. This is free soft-
ware; see the source code for copying conditions. There is ABSOLUTELY
NO WARRANTY; not even for MERCHANTABILITY or FITNESS FOR A PARTICULAR
PURPOSE. For details see the documentation. Scientific users of this 
library should cite U. Ekstrom, L. Visscher, R. Bast, A. J. Thorvald-
sen and K. Ruud; J.Chem.Theor.Comp. 2010, DOI: 10.1021/ct100117s
XCFun Version 0.99 
----- Orbital basis set information -----
Your calculation utilizes the basis: def2-mTZVP
----- AuxJ basis set information -----
Your calculation utilizes the basis: def2-mTZVP/J
cite the ECPs for Pd [Def2-ECP] as follows:
Ce-Yb(ecp-28): M. Dolg, H. Stoll, H.Preuss, J. Chem. Phys., 1989, 90, 1730-1734.
Y-Cd(ecp-28), Hf-Hg(ecp-46): D. Andrae,U. Haeussermann, M. Dolg, H. Stoll, H. Preuss, Theor. Chim. Acta, 1990, 77, 123-141.
In-Sb(ecp-28), Tl-Bi(ecp-46): B. Metz, H. Stoll, M. Dolg, J. Chem. Phys., 2000, 113, 2563-2569.
Te-Xe(ecp-28), Po-Rn(ecp-46): K. A. Peterson, D. Figgen, E. Goll, H. Stoll, M. Dolg, J. Chem. Phys., 2003, 119, 11113-11123.
Rb(ecp-28), Cs(ecp-46): T. Leininger, A. Nicklass, W. Kuechle, H. Stoll, M. Dolg, A. Bergner, Chem. Phys. Lett., 1996, 255, 274-280.
Sr(ecp-28), Ba(ecp-46): M. Kaupp, P. V. Schleyer, H. Stoll and H. Preuss, J. Chem. Phys., 1991, 94, 1360-1366.
La(ecp-46): M. Dolg, H. Stoll, A. Savin, H. Preuss, Theor. Chim. Acta, 1989, 75, 173-194.
Lu(ecp-28): X. Cao, M. Dolg, J. Chem. Phys., 2001, 115, 7348-7355.

ECP parameters for Pd [Def2-ECP] have been obtained from:
TURBOMOLE (7.0.2)

================================================================================
                                        WARNINGS
                       Please study these warnings very carefully!
================================================================================


INFO   : the flag for use of LIBINT has been found!

================================================================================
                                       INPUT FILE
================================================================================
NAME = s_5a3_b_B97-3c.in
|  1> ! DFT SP B97-3c TightSCF printbasis  Grid6 NOFINALGRID SlowConv 
|  2> 
|  3> %base "_s_5a3_b_B97-3c"
|  4> %maxcore 3000
|  5> %scf
|  6>    MaxIter 2000
|  7> end
|  8> %pal
|  9>    nprocs 32
| 10> end
| 11> 
| 12> * xyzfile 4 1 s_5a3_b.xyz
| 13> 
| 14>                          ****END OF INPUT****
================================================================================

                       ****************************
                       * Single Point Calculation *
                       ****************************

---------------------------------
CARTESIAN COORDINATES (ANGSTROEM)
---------------------------------
  Pd     0.046300    5.794500    0.103100
  Pd     0.053300   -7.514400    0.007000
  C      7.014800   -3.856500   -0.043700
  C      6.595600   -4.991000   -0.039900
  C      6.122900   -6.316900   -0.036300
  C      7.012100   -7.378300   -0.046300
  C      6.558600   -8.702000   -0.043400
  C      5.217800   -8.987600   -0.031100
  C      4.278600   -7.934400   -0.020800
  C      2.890200   -8.163900   -0.009100
  N      2.008300   -7.187400    0.000500
  C      2.421900   -5.895500   -0.000100
  C      3.747800   -5.564700   -0.011600
  C      4.724300   -6.581500   -0.022800
  H      8.072800   -7.177900   -0.056400
  H      7.283000   -9.501900   -0.051300
  H      4.872500  -10.009200   -0.029300
  H      2.508600   -9.182400   -0.007800
  H      1.633100   -5.144500    0.009100
  H      4.065800   -4.534500   -0.012500
  C      7.508600   -2.536500   -0.048100
  C      8.908400   -2.319000   -0.077300
  C      9.406800   -1.048900   -0.081700
  C      8.546500    0.070500   -0.057100
  C      9.037600    1.394400   -0.060500
  C      8.186700    2.460800   -0.036000
  C      6.786200    2.251300   -0.007000
  C      6.278000    0.968500   -0.003200
  C      7.140400   -0.143300   -0.027800
  C      6.645400   -1.461200   -0.024000
  H      9.571500   -3.171200   -0.096100
  H     10.474300   -0.882500   -0.104000
  H     10.106700    1.549800   -0.082800
  H      8.568700    3.470600   -0.038700
  H      5.211000    0.808300    0.019000
  H      5.578400   -1.621600   -0.001500
  C      5.913900    3.356700    0.017500
  C      5.151600    4.295100    0.038600
  C      4.253400    5.377600    0.061500
  C      4.697600    6.707200    0.070100
  C      3.763200    7.727400    0.091100
  C      2.413100    7.411400    0.102700
  N      1.993900    6.142400    0.094800
  C      2.874400    5.146300    0.075200
  H      5.754900    6.921300    0.060100
  H      4.076800    8.758700    0.098200
  H      1.643400    8.181100    0.118700
  H      2.479800    4.132800    0.069900
  C     -0.271100    2.621400    7.149900
  C     -0.297500    3.762500    6.749500
  C     -0.349800    5.066700    6.222100
  C     -0.562200    6.167000    7.033800
  C     -0.641500    7.455900    6.493600
  C     -0.519800    7.666500    5.144000
  C     -0.297500    6.571500    4.282000
  C     -0.176100    6.717600    2.886100
  N      0.039100    5.699000    2.082500
  C      0.165000    4.446200    2.589600
  C      0.049300    4.194700    3.926500
  C     -0.198500    5.256900    4.819200
  H     -0.672100    6.026800    8.098500
  H     -0.807200    8.290000    7.158100
  H     -0.591200    8.661200    4.733800
  H     -0.261600    7.700800    2.431100
  H      0.366100    3.654200    1.867900
  H      0.145600    3.194700    4.317600
  C     -0.245000    1.285600    7.598700
  C     -0.256900    1.005500    8.986700
  C     -0.235300   -0.286300    9.425900
  C     -0.201200   -1.364900    8.515400
  C     -0.177100   -2.709200    8.946400
  C     -0.140500   -3.734800    8.047700
  C     -0.128600   -3.463200    6.656600
  C     -0.155400   -2.159800    6.206500
  C     -0.190300   -1.088700    7.119900
  C     -0.212500    0.250300    6.687000
  H     -0.282700    1.826300    9.687900
  H     -0.244000   -0.501700   10.484900
  H     -0.186600   -2.913000   10.007600
  H     -0.120700   -4.760400    8.384200
  H     -0.146400   -1.950800    5.147800
  H     -0.207500    0.459900    5.628300
  C     -0.079500   -4.543400    5.753800
  C     -0.029000   -5.480400    4.990800
  C      0.054700   -6.617800    4.166800
  C      0.219700   -7.891000    4.731700
  C      0.315600   -8.990700    3.898900
  C      0.246500   -8.806000    2.527300
  N      0.082300   -7.591800    1.991100
  C     -0.013200   -6.520000    2.773200
  H      0.272900   -7.999100    5.803700
  H      0.444800   -9.980300    4.306400
  H      0.324100   -9.644300    1.835900
  H     -0.147600   -5.560100    2.281700
  C     -6.995000    2.378100    0.049600
  C     -6.581300    3.514500    0.064400
  C     -6.065700    4.824300    0.080400
  C     -6.905200    5.924400    0.086000
  C     -6.389200    7.225500    0.101200
  C     -5.036600    7.449400    0.110600
  C     -4.145700    6.354400    0.105200
  C     -2.747500    6.516300    0.112900
  N     -1.914200    5.496600    0.107700
  C     -2.391000    4.228400    0.095400
  C     -3.730800    3.962300    0.086500
  C     -4.656000    5.025000    0.090500
  H     -7.974200    5.774400    0.078600
  H     -7.075500    8.058400    0.105300
  H     -4.645300    8.454100    0.121900
  H     -2.311900    7.514100    0.123400
  H     -1.644800    3.438100    0.093200
  H     -4.098200    2.948900    0.076200
  C     -7.464800    1.049500    0.032600
  C     -8.858200    0.795900    0.014200
  C     -9.322100   -0.487200   -0.002500
  C     -8.432300   -1.583500   -0.001500
  C     -8.888400   -2.919700   -0.018100
  C     -8.009100   -3.962800   -0.016400
  C     -6.613700   -3.717400    0.001900
  C     -6.139300   -2.422200    0.018000
  C     -7.031900   -1.333700    0.016900
  C     -6.573100   -0.003200    0.033700
  H     -9.543700    1.630200    0.013500
  H    -10.385000   -0.682100   -0.016600
  H     -9.953200   -3.103300   -0.032100
  H     -8.364500   -4.982200   -0.029000
  H     -5.076800   -2.233600    0.032100
  H     -5.510600    0.185600    0.047800
  C     -5.724400   -4.809600    0.003500
  C     -4.963200   -5.749200    0.004900
  C     -4.116600   -6.872900    0.005000
  C     -4.646500   -8.171800   -0.002000
  C     -3.782700   -9.251200   -0.002800
  C     -2.415300   -9.022700    0.003000
  N     -1.912900   -7.785300    0.009900
  C     -2.725700   -6.730600    0.011300
  H     -5.715800   -8.314700   -0.006900
  H     -4.162100  -10.260200   -0.008100
  H     -1.702400   -9.843500    0.001900
  H     -2.259800   -5.746500    0.017600
  C     -0.356400    2.719800   -6.982700
  C     -0.376100    3.855200   -6.566400
  C     -0.419700    5.152100   -6.020400
  C     -0.640200    6.263800   -6.814300
  C     -0.710700    7.545400   -6.255500
  C     -0.572100    7.737200   -4.904700
  C     -0.341100    6.630100   -4.060700
  C     -0.202900    6.756800   -2.664500
  N      0.020100    5.726800   -1.877700
  C      0.138100    4.481000   -2.403400
  C      0.006100    4.248100   -3.742100
  C     -0.250900    5.322900   -4.617100
  H     -0.763400    6.138500   -7.879400
  H     -0.883100    8.388700   -6.906500
  H     -0.636800    8.726300   -4.480100
  H     -0.281200    7.733600   -2.194800
  H      0.346600    3.678900   -1.695200
  H      0.096100    3.253500   -4.148200
  C     -0.338200    1.390500   -7.451100
  C     -0.373400    1.130900   -8.842700
  C     -0.359600   -0.154300   -9.301100
  C     -0.310700   -1.246200   -8.407300
  C     -0.294100   -2.584000   -8.858400
  C     -0.242800   -3.622700   -7.975700
  C     -0.207800   -3.371700   -6.581100
  C     -0.226700   -2.075000   -6.111500
  C     -0.276400   -0.990600   -7.008200
  C     -0.290900    0.341900   -6.555400
  H     -0.410500    1.961900   -9.531200
  H     -0.386000   -0.354100  -10.362900
  H     -0.321400   -2.772100   -9.922200
  H     -0.229000   -4.643200   -8.327500
  H     -0.200000   -1.881700   -5.050100
  H     -0.268100    0.536000   -5.493900
  C     -0.144200   -4.465100   -5.695300
  C     -0.081400   -5.413200   -4.947100
  C      0.014700   -6.561800   -4.140100
  C      0.177600   -7.826600   -4.724000
  C      0.285200   -8.937400   -3.907300
  C      0.229300   -8.771700   -2.532700
  N      0.067200   -7.565400   -1.978400
  C     -0.039200   -6.483300   -2.744700
  H      0.220100   -7.920000   -5.797900
  H      0.413100   -9.920900   -4.329600
  H      0.316000   -9.619000   -1.853500
  H     -0.171100   -5.530600   -2.238700

----------------------------
CARTESIAN COORDINATES (A.U.)
----------------------------
  NO LB      ZA    FRAG     MASS         X           Y           Z
   0 Pd   18.0000*   0   106.400    0.087494   10.950018    0.194831
   1 Pd   18.0000*   0   106.400    0.100722  -14.200158    0.013228
   2 C     6.0000    0    12.011   13.256051   -7.287729   -0.082581
   3 C     6.0000    0    12.011   12.463878   -9.431623   -0.075400
   4 C     6.0000    0    12.011   11.570604  -11.937211   -0.068597
   5 C     6.0000    0    12.011   13.250949  -13.942966   -0.087494
   6 C     6.0000    0    12.011   12.393958  -16.444397   -0.082014
   7 C     6.0000    0    12.011    9.860213  -16.984103   -0.058770
   8 C     6.0000    0    12.011    8.085382  -14.993843   -0.039306
   9 C     6.0000    0    12.011    5.461686  -15.427535   -0.017197
  10 N     7.0000    0    14.007    3.795137  -13.582218    0.000945
  11 C     6.0000    0    12.011    4.576728  -11.140880   -0.000189
  12 C     6.0000    0    12.011    7.082316  -10.515759   -0.021921
  13 C     6.0000    0    12.011    8.927633  -12.437233   -0.043086
  14 H     1.0000    0     1.008   15.255381  -13.564265   -0.106581
  15 H     1.0000    0     1.008   13.762875  -17.955989   -0.096943
  16 H     1.0000    0     1.008    9.207691  -18.914647   -0.055369
  17 H     1.0000    0     1.008    4.740567  -17.352221   -0.014740
  18 H     1.0000    0     1.008    3.086112   -9.721696    0.017197
  19 H     1.0000    0     1.008    7.683249   -8.568963   -0.023622
  20 C     6.0000    0    12.011   14.189198   -4.793290   -0.090896
  21 C     6.0000    0    12.011   16.834436   -4.382275   -0.146076
  22 C     6.0000    0    12.011   17.776276   -1.982134   -0.154391
  23 C     6.0000    0    12.011   16.150544    0.133226   -0.107903
  24 C     6.0000    0    12.011   17.078589    2.635034   -0.114328
  25 C     6.0000    0    12.011   15.470621    4.650238   -0.068030
  26 C     6.0000    0    12.011   12.824059    4.254340   -0.013228
  27 C     6.0000    0    12.011   11.863701    1.830200   -0.006047
  28 C     6.0000    0    12.011   13.493400   -0.270798   -0.052534
  29 C     6.0000    0    12.011   12.557986   -2.761268   -0.045353
  30 H     1.0000    0     1.008   18.087514   -5.992700   -0.181603
  31 H     1.0000    0     1.008   19.793558   -1.667683   -0.196532
  32 H     1.0000    0     1.008   19.098895    2.928698   -0.156469
  33 H     1.0000    0     1.008   16.192496    6.558484   -0.073132
  34 H     1.0000    0     1.008    9.847363    1.527466    0.035905
  35 H     1.0000    0     1.008   10.541648   -3.064380   -0.002835
  36 C     6.0000    0    12.011   11.175651    6.343244    0.033070
  37 C     6.0000    0    12.011    9.735113    8.116563    0.072943
  38 C     6.0000    0    12.011    8.037761   10.162191    0.116218
  39 C     6.0000    0    12.011    8.877177   12.674771    0.132470
  40 C     6.0000    0    12.011    7.111417   14.602670    0.172154
  41 C     6.0000    0    12.011    4.560098   14.005516    0.194075
  42 N     7.0000    0    14.007    3.767925   11.607454    0.179146
  43 C     6.0000    0    12.011    5.431829    9.725098    0.142107
  44 H     1.0000    0     1.008   10.875185   13.079361    0.113573
  45 H     1.0000    0     1.008    7.704036   16.551544    0.185571
  46 H     1.0000    0     1.008    3.105576   15.460038    0.224310
  47 H     1.0000    0     1.008    4.686143    7.809860    0.132092
  48 C     6.0000    0    12.011   -0.512305    4.953728   13.511353
  49 C     6.0000    0    12.011   -0.562194    7.110095   12.754707
  50 C     6.0000    0    12.011   -0.661026    9.574675   11.758065
  51 C     6.0000    0    12.011   -1.062404   11.653941   13.291956
  52 C     6.0000    0    12.011   -1.212259   14.089609   12.271126
  53 C     6.0000    0    12.011   -0.982280   14.487585    9.720751
  54 C     6.0000    0    12.011   -0.562194   12.418335    8.091807
  55 C     6.0000    0    12.011   -0.332781   12.694424    5.453939
  56 N     7.0000    0    14.007    0.073888   10.769549    3.935355
  57 C     6.0000    0    12.011    0.311805    8.402100    4.893635
  58 C     6.0000    0    12.011    0.093163    7.926834    7.420010
  59 C     6.0000    0    12.011   -0.375111    9.934101    9.106968
  60 H     1.0000    0     1.008   -1.270085   11.389001   15.303947
  61 H     1.0000    0     1.008   -1.525387   15.665830   13.526849
  62 H     1.0000    0     1.008   -1.117206   16.367296    8.945586
  63 H     1.0000    0     1.008   -0.494352   14.552403    4.594113
  64 H     1.0000    0     1.008    0.691829    6.905437    3.529819
  65 H     1.0000    0     1.008    0.275144    6.037108    8.159082
  66 C     6.0000    0    12.011   -0.462983    2.429432   14.359462
  67 C     6.0000    0    12.011   -0.485471    1.900120   16.982402
  68 C     6.0000    0    12.011   -0.444653   -0.541029   17.812370
  69 C     6.0000    0    12.011   -0.380213   -2.579287   16.091774
  70 C     6.0000    0    12.011   -0.334670   -5.119646   16.906246
  71 C     6.0000    0    12.011   -0.265507   -7.057749   15.207949
  72 C     6.0000    0    12.011   -0.243019   -6.544500   12.579151
  73 C     6.0000    0    12.011   -0.293663   -4.081431   11.728585
  74 C     6.0000    0    12.011   -0.359615   -2.057345   13.454661
  75 C     6.0000    0    12.011   -0.401567    0.472998   12.636599
  76 H     1.0000    0     1.008   -0.534226    3.451207   18.307478
  77 H     1.0000    0     1.008   -0.461093   -0.948076   19.813590
  78 H     1.0000    0     1.008   -0.352623   -5.504772   18.911623
  79 H     1.0000    0     1.008   -0.228090   -8.995852   15.843842
  80 H     1.0000    0     1.008   -0.276656   -3.686478    9.727932
  81 H     1.0000    0     1.008   -0.392118    0.869085   10.635946
  82 C     6.0000    0    12.011   -0.150233   -8.585782   10.873106
  83 C     6.0000    0    12.011   -0.054802  -10.356455    9.431245
  84 C     6.0000    0    12.011    0.103368  -12.505830    7.874111
  85 C     6.0000    0    12.011    0.415173  -14.911829    8.941617
  86 C     6.0000    0    12.011    0.596398  -16.989961    7.367853
  87 C     6.0000    0    12.011    0.465817  -16.640928    4.775905
  88 N     7.0000    0    14.007    0.155524  -14.346423    3.762634
  89 C     6.0000    0    12.011   -0.024944  -12.321014    5.240589
  90 H     1.0000    0     1.008    0.515706  -15.116108   10.967404
  91 H     1.0000    0     1.008    0.840550  -18.860034    8.137917
  92 H     1.0000    0     1.008    0.612460  -18.225086    3.469348
  93 H     1.0000    0     1.008   -0.278924  -10.507066    4.311788
  94 C     6.0000    0    12.011  -13.218634    4.493958    0.093730
  95 C     6.0000    0    12.011  -12.436855    6.641442    0.121698
  96 C     6.0000    0    12.011  -11.462512    9.116606    0.151934
  97 C     6.0000    0    12.011  -13.048937   11.195494    0.162516
  98 C     6.0000    0    12.011  -12.073838   13.654216    0.191240
  99 C     6.0000    0    12.011   -9.517795   14.077326    0.209004
 100 C     6.0000    0    12.011   -7.834238   12.008076    0.198799
 101 C     6.0000    0    12.011   -5.192023   12.314022    0.213350
 102 N     7.0000    0    14.007   -3.617314   10.387069    0.203524
 103 C     6.0000    0    12.011   -4.518335    7.990518    0.180280
 104 C     6.0000    0    12.011   -7.050190    7.487662    0.163461
 105 C     6.0000    0    12.011   -8.798565    9.495874    0.171020
 106 H     1.0000    0     1.008  -15.069054   10.912035    0.148532
 107 H     1.0000    0     1.008  -13.370757   15.228169    0.198988
 108 H     1.0000    0     1.008   -8.778345   15.975934    0.230358
 109 H     1.0000    0     1.008   -4.368858   14.199591    0.233192
 110 H     1.0000    0     1.008   -3.108222    6.497067    0.176122
 111 H     1.0000    0     1.008   -7.744476    5.572613    0.143997
 112 C     6.0000    0    12.011  -14.106428    1.983268    0.061605
 113 C     6.0000    0    12.011  -16.739572    1.504033    0.026834
 114 C     6.0000    0    12.011  -17.616216   -0.920675   -0.004724
 115 C     6.0000    0    12.011  -15.934738   -2.992381   -0.002835
 116 C     6.0000    0    12.011  -16.796642   -5.517433   -0.034204
 117 C     6.0000    0    12.011  -15.135006   -7.488607   -0.030992
 118 C     6.0000    0    12.011  -12.498082   -7.024868    0.003590
 119 C     6.0000    0    12.011  -11.601596   -4.577295    0.034015
 120 C     6.0000    0    12.011  -13.288365   -2.520328    0.031936
 121 C     6.0000    0    12.011  -12.421359   -0.006047    0.063684
 122 H     1.0000    0     1.008  -18.034979    3.080632    0.025511
 123 H     1.0000    0     1.008  -19.624806   -1.288982   -0.031369
 124 H     1.0000    0     1.008  -18.808822   -5.864387   -0.060660
 125 H     1.0000    0     1.008  -15.806614   -9.414994   -0.054802
 126 H     1.0000    0     1.008   -9.593762   -4.220892    0.060660
 127 H     1.0000    0     1.008  -10.413525    0.350733    0.090329
 128 C     6.0000    0    12.011  -10.817548   -9.088827    0.006614
 129 C     6.0000    0    12.011   -9.379089  -10.864413    0.009260
 130 C     6.0000    0    12.011   -7.779247  -12.987899    0.009449
 131 C     6.0000    0    12.011   -8.780612  -15.442464   -0.003779
 132 C     6.0000    0    12.011   -7.148267  -17.482234   -0.005291
 133 C     6.0000    0    12.011   -4.564256  -17.050432    0.005669
 134 N     7.0000    0    14.007   -3.614857  -14.712085    0.018708
 135 C     6.0000    0    12.011   -5.150827  -12.718991    0.021354
 136 H     1.0000    0     1.008  -10.801297  -15.712506   -0.013039
 137 H     1.0000    0     1.008   -7.865229  -19.388968   -0.015307
 138 H     1.0000    0     1.008   -3.217070  -18.601519    0.003590
 139 H     1.0000    0     1.008   -4.270403  -10.859311    0.033259
 140 C     6.0000    0    12.011   -0.673498    5.139677  -13.195391
 141 C     6.0000    0    12.011   -0.710726    7.285272  -12.408698
 142 C     6.0000    0    12.011   -0.793118    9.736058  -11.376907
 143 C     6.0000    0    12.011   -1.209803   11.836867  -12.877161
 144 C     6.0000    0    12.011   -1.343028   14.258740  -11.821182
 145 C     6.0000    0    12.011   -1.081112   14.621189   -9.268540
 146 C     6.0000    0    12.011   -0.644586   12.529073   -7.673611
 147 C     6.0000    0    12.011   -0.383425   12.768502   -5.035175
 148 N     7.0000    0    14.007    0.037983   10.822084   -3.548339
 149 C     6.0000    0    12.011    0.260971    8.467863   -4.541768
 150 C     6.0000    0    12.011    0.011527    8.027746   -7.071544
 151 C     6.0000    0    12.011   -0.474132   10.058823   -8.725055
 152 H     1.0000    0     1.008   -1.442617   11.600084  -14.889908
 153 H     1.0000    0     1.008   -1.668817   15.852346  -13.051394
 154 H     1.0000    0     1.008   -1.203378   16.490317   -8.466162
 155 H     1.0000    0     1.008   -0.531391   14.614386   -4.147571
 156 H     1.0000    0     1.008    0.654979    6.952113   -3.203464
 157 H     1.0000    0     1.008    0.181603    6.148224   -7.838962
 158 C     6.0000    0    12.011   -0.639105    2.627664  -14.080538
 159 C     6.0000    0    12.011   -0.705624    2.137091  -16.710281
 160 C     6.0000    0    12.011   -0.679546   -0.291585  -17.576532
 161 C     6.0000    0    12.011   -0.587138   -2.354977  -15.887495
 162 C     6.0000    0    12.011   -0.555768   -4.883052  -16.739950
 163 C     6.0000    0    12.011   -0.458826   -6.845911  -15.071889
 164 C     6.0000    0    12.011   -0.392685   -6.371590  -12.436477
 165 C     6.0000    0    12.011   -0.428401   -3.921182  -11.549061
 166 C     6.0000    0    12.011   -0.522320   -1.871963  -13.243579
 167 C     6.0000    0    12.011   -0.549721    0.646097  -12.387911
 168 H     1.0000    0     1.008   -0.775733    3.707454  -18.011358
 169 H     1.0000    0     1.008   -0.729434   -0.669152  -19.583043
 170 H     1.0000    0     1.008   -0.607358   -5.238510  -18.750241
 171 H     1.0000    0     1.008   -0.432747   -8.774376  -15.736694
 172 H     1.0000    0     1.008   -0.377945   -3.555898   -9.543306
 173 H     1.0000    0     1.008   -0.506636    1.012893  -10.381966
 174 C     6.0000    0    12.011   -0.272499   -8.437816  -10.762557
 175 C     6.0000    0    12.011   -0.153824  -10.229466   -9.348664
 176 C     6.0000    0    12.011    0.027779  -12.400005   -7.823655
 177 C     6.0000    0    12.011    0.335615  -14.790131   -8.927066
 178 C     6.0000    0    12.011    0.538950  -16.889238   -7.383727
 179 C     6.0000    0    12.011    0.433314  -16.576111   -4.786109
 180 N     7.0000    0    14.007    0.126990  -14.296534   -3.738634
 181 C     6.0000    0    12.011   -0.074077  -12.251661   -5.186731
 182 H     1.0000    0     1.008    0.415929  -14.966631  -10.956443
 183 H     1.0000    0     1.008    0.780646  -18.747784   -8.181758
 184 H     1.0000    0     1.008    0.597153  -18.177276   -3.502607
 185 H     1.0000    0     1.008   -0.323332  -10.451319   -4.230530
* core charge reduced due to ECP

--------------------------------
INTERNAL COORDINATES (ANGSTROEM)
--------------------------------
 Pd     0   0   0     0.000000000000     0.00000000     0.00000000
 Pd     1   0   0    13.309248792475     0.00000000     0.00000000
 C      2   1   0     7.864177334598    62.31500509     0.00000000
 C      3   2   1     1.209476469387    42.00097963   179.48017890
 C      4   3   2     1.407646638898   179.34156880   177.43813007
 C      5   4   3     1.384682851775   120.42101876     2.34995525
 C      6   5   4     1.399232771915   121.13156944   180.02424657
 C      7   6   5     1.370935188111   120.93595994     0.02698346
 C      8   7   6     1.411181409316   119.70268801     0.00000000
 C      9   8   7     1.407288776336   122.34113239   179.94575753
 N     10   9   8     1.315823703997   122.70179419   180.00243392
 C     11  10   9     1.356492141518   120.16057051   359.97452456
 C     12  11  10     1.366591270278   121.76017432     0.05317789
 C     13  12  11     1.409808472808   119.83519514     0.00000000
 H      6   5   4     1.079512232446   119.25828618     0.03025191
 H      7   6   5     1.079193115249   118.92221195   180.01032471
 H      8   7   6     1.078379288562   120.69949335   179.97565531
 H     10   9   8     1.087640795484   119.92490787     0.00000000
 H     12  11  10     1.089169904101   115.84012279   180.05180939
 H     13  12  11     1.078163647133   121.16232124   179.96699709
 C      3   2   1     1.409346586188   138.23000270   359.48401423
 C     21   3   2     1.416897642739   119.33955434   180.89983886
 C     22  21   3     1.364395811339   120.25463388   180.01633947
 C     23  22  21     1.412011901508   121.02169151     0.00000000
 C     24  23  22     1.412055940818   122.09569385   179.97300364
 C     25  24  23     1.364492587008   121.05213190   180.01910299
 C     26  25  24     1.416379716037   120.09128375     0.00000000
 C     27  26  25     1.379803435276   120.11611896     0.00000000
 C     28  27  26     1.407280412711   120.57978850     0.00000000
 C     21   3   2     1.379117522186   120.72478036     0.91691762
 H     22  21   3     1.079953651783   119.06659415     0.02633702
 H     23  22  21     1.080621349040   120.28252151   180.00211753
 H     25  24  23     1.080565250228   118.61916069     0.00000000
 H     26  25  24     1.079642223146   120.68314885   179.99658353
 H     28  27  26     1.079187601856   120.14694795   179.99330800
 H     30  21   3     1.079223521797   120.21851642     0.00000000
 C     27  26  25     1.408338276125   119.78181735   180.03216549
 C     37  27  26     1.209190249713   179.18966836   179.44168059
 C     38  37  27     1.406802722488   179.40060068   353.36483975
 C     39  38  37     1.401864387164   121.84357402   186.60179976
 C     40  39  38     1.383601243133   119.04158352   179.91990535
 C     41  40  39     1.386636423148   119.31672042     0.00000000
 N     42  41  40     1.336469995922   121.44856028     0.03807439
 C     43  42  41     1.329616343161   120.24617933     0.00000000
 H     40  39  38     1.078805867615   119.91535420   359.93537431
 H     41  40  39     1.077949470059   120.60189984   179.99505998
 H     42  41  40     1.088637763446   121.82988206   180.03459148
 H     44  43  42     1.087621027748   117.25293706   179.97944217
 C      1   2   3     7.734771917129    66.19483980   266.78159217
 C     49   1   2     1.209597590110    46.55261718   182.88484434
 C     50  49   1     1.407772598824   177.17866820    22.60630302
 C     51  50  49     1.383701824816   121.50809490   152.84632145
 C     52  51  50     1.399774174644   120.96472990   181.42073168
 C     53  52  51     1.371343651314   121.07639780     0.42100144
 C     54  53  52     1.411200301162   119.73308041   359.35686710
 C     55  54  53     1.408765409854   122.57161618   179.38481965
 N     56  55  54     1.315153968173   122.63117185   179.57926058
 C     57  56  55     1.357390533340   120.11500696   359.42686842
 C     58  57  56     1.365262007821   121.86926719     1.28491465
 C     59  58  57     1.409463362418   119.75394169   359.54363797
 H     52  51  50     1.079499949050   119.40139939     1.17000811
 H     53  52  51     1.079230999369   118.86377687   180.05413053
 H     54  53  52     1.078327450267   120.67437218   179.42050725
 H     56  55  54     1.086746285938   120.12605053   359.47203874
 H     58  57  56     1.090209200108   116.12253328   181.43120112
 H     59  58  57     1.078069060868   121.23474524   179.64827761
 C     49   1   2     1.409419841637   132.69972272     2.54760177
 C     67  49   1     1.416030232728   119.96323842   176.98502222
 C     68  67  49     1.364591675191   120.17251469   179.82664513
 C     69  68  67     1.411931662652   121.06424972     0.00000000
 C     70  69  68     1.411908035249   122.06627640   179.93802979
 C     71  70  69     1.364132182012   121.00965110   180.18560154
 C     72  71  70     1.417415740000   120.18127277   359.87942316
 C     73  72  71     1.379188098121   120.08048369   359.93328818
 C     74  73  72     1.408109647719   120.50759567     0.20861580
 C     67  49   1     1.379891021059   120.07514457   356.76246361
 H     68  67  49     1.079842451472   119.10069421   359.79633958
 H     69  68  67     1.080719135576   120.26092048   179.97891382
 H     71  70  69     1.080634133275   118.63206653     0.08762253
 H     72  71  70     1.079573827952   120.62313012   179.90583069
 H     74  73  72     1.079169907846   120.20028063   179.99991241
 H     76  67  49     1.079260325408   120.16671350   359.96726596
 C     73  72  71     1.408648533169   118.83924125   179.48332663
 C     83  73  72     1.209416491536   179.16845890   332.12898728
 C     84  83  73     1.407004068935   176.61361274    10.83444865
 C     85  84  83     1.402631544633   120.32626977    11.56054041
 C     86  85  84     1.382784415591   119.17600720   180.78730450
 C     87  86  85     1.385703958283   119.12209122     0.00000000
 N     88  87  86     1.337442978224   121.59846773   359.63655952
 C     89  88  87     1.330246556094   120.30294507     0.32199201
 H     86  85  84     1.078749206257   119.80080945     0.60211639
 H     87  86  85     1.077987499928   120.71161047   179.87309227
 H     88  87  86     1.089404704414   121.47188033   179.60330325
 H     90  89  88     1.086758307997   117.04180031   180.11321839
 C     65  58  57     7.688981682252    95.76913091   274.38005446
 C     95  65  58     1.209450987018    60.90205820    48.26629577
 C     96  95  65     1.407719929531   178.51603901    17.21709924
 C     97  96  95     1.383839448780   121.16587995   177.94100325
 C     98  97  96     1.399767212789   121.02026286   180.03425745
 C     99  98  97     1.371038413029   121.03390839     0.00000000
 C    100  99  98     1.411650441859   119.73020033     0.00000000
 C    101 100  99     1.407563192187   122.52485455   179.93395692
 N    102 101 100     1.316891802693   122.64846433   180.00970752
 C    103 102 101     1.354924636281   120.14046120   359.95287516
 C    104 103 102     1.365998704245   121.83974811     0.07604830
 C    105 104 103     1.409021763494   119.80776075     0.00000000
 H     98  97  96     1.079497920331   119.35737603     0.03977676
 H     99  98  97     1.079234409199   118.87982055   180.00899550
 H    100  99  98     1.078269664787   120.68063165   179.97535292
 H    102 101 100     1.088789442454   120.19058895     0.00000000
 H    104 103 102     1.086919210429   116.03943914   180.08467336
 H    105 104 103     1.077992768992   121.16298536   179.96642347
 C     95  65  58     1.409318629693   118.58416028   228.11803777
 C    113  95  65     1.416409220529   119.79403390   165.22856409
 C    114 113  95     1.364488076166   120.19747486   179.99204527
 C    115 114 113     1.411955640238   121.05542353     0.00000000
 C    116 115 114     1.411996179173   122.08592559   179.97746348
 C    117 116 115     1.364268664890   121.01990995   180.01815759
 C    118 117 116     1.416932323719   120.15383760     0.00000000
 C    119 118 117     1.379441049846   120.09574156     0.00000000
 C    120 119 118     1.407681860365   120.52784084     0.00000000
 C    113  95  65     1.379604070014   120.25645626   345.22265783
 H    114 113  95     1.079799624930   119.09100623     0.00000000
 H    115 114 113     1.080713296855   120.27319322   180.00316030
 H    117 116 115     1.080603535067   118.63516705     0.00000000
 H    118 117 116     1.079650072940   120.64645645   179.99059118
 H    120 119 118     1.079201102668   120.18703342   179.99068975
 H    122 113  95     1.079236072414   120.18848246     0.00000000
 C    119 118 117     1.408459403036   119.17747893   179.99131962
 C    129 119 118     1.209245864165   179.85858131   358.68373035
 C    130 129 119     1.406923331244   177.98151566     2.27170175
 C    131 130 129     1.402848609081   120.81151383   358.56726526
 C    132 131 130     1.382481623748   119.13739337   179.94616465
 C    133 132 131     1.386372478809   119.18164375     0.00000000
 N    134 133 132     1.335519423296   121.58522964     0.02827915
 C    135 134 133     1.331554689076   120.28263410     0.00000000
 H    132 131 130     1.078817366379   119.80611326   359.96088831
 H    133 132 131     1.077985830148   120.72384599   179.99915415
 H    134 133 132     1.087170759357   121.48832425   180.04296620
 H    136 135 134     1.088832085310   117.04623519   179.96615241
 C    111 104 103     7.228021185636   101.33894916   273.06700610
 C    141 111 104     1.209473827745    64.33240405    46.41351508
 C    142 141 111     1.407823344742   177.17688901   353.58126267
 C    143 142 141     1.383753717249   121.50133547   206.97683180
 C    144 143 142     1.399902228729   120.96474571   178.57924116
 C    145 144 143     1.371370788664   121.07329363   359.57803373
 C    146 145 144     1.411158180361   119.73163357     0.64375554
 C    147 146 145     1.408732256321   122.56583787   180.64154323
 N    148 147 146     1.315174224200   122.62393162   180.40377226
 C    149 148 147     1.357314307742   120.12293083     0.58554802
 C    150 149 148     1.365204783174   121.86805863   358.70100904
 C    151 150 149     1.409563421773   119.75257076     0.45091226
 H    144 143 142     1.079498188975   119.40705641   358.82957179
 H    145 144 143     1.079202321161   118.85740036   179.94363788
 H    146 145 144     1.078327436357   120.66880261   180.57997070
 H    148 147 146     1.086686348493   120.14313523     0.50623721
 H    150 149 148     1.090130221579   116.12599253   178.55553704
 H    151 150 149     1.078075308130   121.24459348   180.35988804
 C    141 111 104     1.409527683304   114.91911875   226.47101361
 C    159 141 111     1.416044406083   119.94347377   166.94376113
 C    160 159 141     1.364573208003   120.16837434   180.17621893
 C    161 160 159     1.411918999093   121.06802392     0.00000000
 C    162 161 160     1.411904957850   122.06681530   180.07083698
 C    163 162 161     1.364070625004   121.01065662   179.81028238
 C    164 163 162     1.417439649509   120.18327951     0.12599063
 C    165 164 163     1.379243365038   120.07506274     0.05673530
 C    166 165 164     1.408000120739   120.51245688   359.79513651
 C    159 141 111     1.379883234190   120.09280867   347.17249743
 H    160 159 141     1.079800750139   119.10282372     0.21413810
 H    161 160 159     1.080757253041   120.25880672   180.02584416
 H    163 162 161     1.080646723032   118.62965636   359.90274054
 H    164 163 162     1.079524863076   120.62619641   180.08485792
 H    166 165 164     1.079188463615   120.19350100   180.00734700
 H    168 159 141     1.079340956325   120.16220313     0.02461112
 C    165 164 163     1.408619948744   118.84040511   180.50472050
 C    175 165 164     1.209396829002   179.17099101    28.16951234
 C    176 175 165     1.407041637621   176.68257380   348.60489652
 C    177 176 175     1.402567167732   120.35133885   349.08448132
 C    178 177 176     1.382914780455   119.17729926   179.24272347
 C    179 178 177     1.385679060966   119.12082693     0.00000000
 N    180 179 178     1.337417133882   121.59343734     0.34310861
 C    181 180 179     1.330216922160   120.30903616   359.68903060
 H    178 177 176     1.078791462703   119.80635679   359.42345094
 H    179 178 177     1.077946172125   120.71212221   180.12747995
 H    180 179 178     1.089379098386   121.48473331   180.37490898
 H    182 181 180     1.086770859013   117.03985180   179.89593028

---------------------------
INTERNAL COORDINATES (A.U.)
---------------------------
 Pd     0   0   0     0.000000000000     0.00000000     0.00000000
 Pd     1   0   0    25.150835266000     0.00000000     0.00000000
 C      2   1   0    14.861141430980    62.31500509     0.00000000
 C      3   2   1     2.285579292563    42.00097963   179.48017890
 C      4   3   2     2.660066640851   179.34156880   177.43813007
 C      5   4   3     2.616671372192   120.42101876     2.34995525
 C      6   5   4     2.644166736526   121.13156944   180.02424657
 C      7   6   5     2.590692052885   120.93595994     0.02698346
 C      8   7   6     2.666746388889   119.70268801     0.00000000
 C      9   8   7     2.659390378615   122.34113239   179.94575753
 N     10   9   8     2.486546441076   122.70179419   180.00243392
 C     11  10   9     2.563398650285   120.16057051   359.97452456
 C     12  11  10     2.582483237833   121.76017432     0.05317789
 C     13  12  11     2.664151914888   119.83519514     0.00000000
 H      6   5   4     2.039982477540   119.25828618     0.03025191
 H      7   6   5     2.039379433433   118.92221195   180.01032471
 H      8   7   6     2.037841523875   120.69949335   179.97565531
 H     10   9   8     2.055343235544   119.92490787     0.00000000
 H     12  11  10     2.058232832061   115.84012279   180.05180939
 H     13  12  11     2.037434020632   121.16232124   179.96699709
 C      3   2   1     2.663279075672   138.23000270   359.48401423
 C     21   3   2     2.677548504576   119.33955434   180.89983886
 C     22  21   3     2.578334421700   120.25463388   180.01633947
 C     23  22  21     2.668315791687   121.02169151     0.00000000
 C     24  23  22     2.668399013923   122.09569385   179.97300364
 C     25  24  23     2.578517301211   121.05213190   180.01910299
 C     26  25  24     2.676569764950   120.09128375     0.00000000
 C     27  26  25     2.607450611316   120.11611896     0.00000000
 C     28  27  26     2.659374573655   120.57978850     0.00000000
 C     21   3   2     2.606154423423   120.72478036     0.91691762
 H     22  21   3     2.040816639199   119.06659415     0.02633702
 H     23  22  21     2.042078404153   120.28252151   180.00211753
 H     25  24  23     2.041972392763   118.61916069     0.00000000
 H     26  25  24     2.040228124364   120.68314885   179.99658353
 H     28  27  26     2.039369014631   120.14694795   179.99330800
 H     30  21   3     2.039436893482   120.21851642     0.00000000
 C     27  26  25     2.661373645796   119.78181735   180.03216549
 C     37  27  26     2.285038415765   179.18966836   179.44168059
 C     38  37  27     2.658471869957   179.40060068   353.36483975
 C     39  38  37     2.649139768638   121.84357402   186.60179976
 C     40  39  38     2.614627428075   119.04158352   179.91990535
 C     41  40  39     2.620363087069   119.31672042     0.00000000
 N     42  41  40     2.525562278496   121.44856028     0.03807439
 C     43  42  41     2.512610751760   120.24617933     0.00000000
 H     40  39  38     2.038647641459   119.91535420   359.93537431
 H     41  40  39     2.037029284617   120.60189984   179.99505998
 H     42  41  40     2.057227231957   121.82988206   180.03459148
 H     44  43  42     2.055305879938   117.25293706   179.97944217
 C      1   2   3    14.616600631718    66.19483980   266.78159217
 C     49   1   2     2.285808177559    46.55261718   182.88484434
 C     50  49   1     2.660304670616   177.17866820    22.60630302
 C     51  50  49     2.614817499910   121.50809490   152.84632145
 C     52  51  50     2.645189839413   120.96472990   181.42073168
 C     53  52  51     2.591463936476   121.07639780     0.42100144
 C     54  53  52     2.666782089304   119.73308041   359.35686710
 C     55  54  53     2.662180811565   122.57161618   179.38481965
 N     56  55  54     2.485280823786   122.63117185   179.57926058
 C     57  56  55     2.565096364789   120.11500696   359.42686842
 C     58  57  56     2.579971295830   121.86926719     1.28491465
 C     59  58  57     2.663499750767   119.75394169   359.54363797
 H     52  51  50     2.039959265287   119.40139939     1.17000811
 H     53  52  51     2.039451024046   118.86377687   180.05413053
 H     54  53  52     2.037743563695   120.67437218   179.42050725
 H     56  55  54     2.053652857479   120.12605053   359.47203874
 H     58  57  56     2.060196816885   116.12253328   181.43120112
 H     59  58  57     2.037255278493   121.23474524   179.64827761
 C     49   1   2     2.663417508409   132.69972272     2.54760177
 C     67  49   1     2.675909337209   119.96323842   176.98502222
 C     68  67  49     2.578704550739   120.17251469   179.82664513
 C     69  68  67     2.668164162225   121.06424972     0.00000000
 C     70  69  68     2.668119512903   122.06627640   179.93802979
 C     71  70  69     2.577836234471   121.00965110   180.18560154
 C     72  71  70     2.678527566509   120.18127277   359.87942316
 C     73  72  71     2.606287792613   120.08048369   359.93328818
 C     74  73  72     2.660941600722   120.50759567     0.20861580
 C     67  49   1     2.607616124459   120.07514457   356.76246361
 H     68  67  49     2.040606501063   119.10069421   359.79633958
 H     69  68  67     2.042263193927   120.26092048   179.97891382
 H     71  70  69     2.042102562858   118.63206653     0.08762253
 H     72  71  70     2.040098876179   120.62313012   179.90583069
 H     74  73  72     2.039335577798   120.20028063   179.99991241
 H     76  67  49     2.039506442228   120.16671350   359.96726596
 C     73  72  71     2.661959946640   118.83924125   179.48332663
 C     83  73  72     2.285465950852   179.16845890   332.12898728
 C     84  83  73     2.658852359600   176.61361274    10.83444865
 C     85  84  83     2.650589486156   120.32626977    11.56054041
 C     86  85  84     2.613083847720   119.17600720   180.78730450
 C     87  86  85     2.618600983845   119.12209122     0.00000000
 N     88  87  86     2.527400948579   121.59846773   359.63655952
 C     89  88  87     2.513801681610   120.30294507     0.32199201
 H     86  85  84     2.038540567011   119.80080945     0.60211639
 H     87  86  85     2.037101150653   120.71161047   179.87309227
 H     88  87  86     2.058676540348   121.47188033   179.60330325
 H     90  89  88     2.053675575878   117.04180031   180.11321839
 C     65  58  57    14.530069628193    95.76913091   274.38005446
 C     95  65  58     2.285531137866    60.90205820    48.26629577
 C     96  95  65     2.660205140077   178.51603901    17.21709924
 C     97  96  95     2.615077571511   121.16587995   177.94100325
 C     98  97  96     2.645176683414   121.02026286   180.03425745
 C     99  98  97     2.590887119710   121.03390839     0.00000000
 C    100  99  98     2.667632731942   119.73020033     0.00000000
 C    101 100  99     2.659908949422   122.52485455   179.93395692
 N    102 101 100     2.488564855096   122.64846433   180.00970752
 C    103 102 101     2.560436494673   120.14046120   359.95287516
 C    104 103 102     2.581363450315   121.83974811     0.07604830
 C    105 104 103     2.662665249739   119.80776075     0.00000000
 H     98  97  96     2.039955431564   119.35737603     0.03977676
 H     99  98  97     2.039457467691   118.87982055   180.00899550
 H    100  99  98     2.037634364963   120.68063165   179.97535292
 H    102 101 100     2.057513863743   120.19058895     0.00000000
 H    104 103 102     2.053979637409   116.03943914   180.08467336
 H    105 104 103     2.037111107743   121.16298536   179.96642347
 C     95  65  58     2.663226245553   118.58416028   228.11803777
 C    113  95  65     2.676625520361   119.79403390   165.22856409
 C    114 113  95     2.578508776955   120.19747486   179.99204527
 C    115 114 113     2.668209473295   121.05542353     0.00000000
 C    116 115 114     2.668286080781   122.08592559   179.97746348
 C    117 116 115     2.578094149732   121.01990995   180.01815759
 C    118 117 116     2.677614042130   120.15383760     0.00000000
 C    119 118 117     2.606765802098   120.09574156     0.00000000
 C    120 119 118     2.660133199778   120.52784084     0.00000000
 C    113  95  65     2.607073865570   120.25645626   345.22265783
 H    114 113  95     2.040525570629   119.09100623     0.00000000
 H    115 114 113     2.042252160344   120.27319322   180.00316030
 H    117 116 115     2.042044740624   118.63516705     0.00000000
 H    118 117 116     2.040242958325   120.64645645   179.99059118
 H    120 119 118     2.039394527469   120.18703342   179.99068975
 H    122 113  95     2.039460610712   120.18848246     0.00000000
 C    119 118 117     2.661602542484   119.17747893   179.99131962
 C    129 119 118     2.285143511849   179.85858131   358.68373035
 C    130 129 119     2.658699787476   177.98151566     2.27170175
 C    131 130 129     2.650999678515   120.81151383   358.56726526
 C    132 131 130     2.612511654062   119.13739337   179.94616465
 C    133 132 131     2.619864304555   119.18164375     0.00000000
 N    134 133 132     2.523765956561   121.58522964     0.02827915
 C    135 134 133     2.516273694692   120.28263410     0.00000000
 H    132 131 130     2.038669370974   119.80611326   359.96088831
 H    133 132 131     2.037097995228   120.72384599   179.99915415
 H    134 133 132     2.054454995991   121.48832425   180.04296620
 H    136 135 134     2.057594447062   117.04623519   179.96615241
 C    111 104 103    13.658980531032   101.33894916   273.06700610
 C    141 111 104     2.285574300583    64.33240405    46.41351508
 C    142 141 111     2.660400566503   177.17688901   353.58126267
 C    143 142 141     2.614915562396   121.50133547   206.97683180
 C    144 143 142     2.645431826564   120.96474571   178.57924116
 C    145 144 143     2.591515218634   121.07329363   359.57803373
 C    146 145 144     2.666702492525   119.73163357     0.64375554
 C    147 146 145     2.662118160468   122.56583787   180.64154323
 N    148 147 146     2.485319102130   122.62393162   180.40377226
 C    149 148 147     2.564952319284   120.12293083     0.58554802
 C    150 149 148     2.579863156917   121.86805863   358.70100904
 C    151 150 149     2.663688835544   119.75257076     0.45091226
 H    144 143 142     2.039955939226   119.40705641   358.82957179
 H    145 144 143     2.039396830087   118.85740036   179.94363788
 H    146 145 144     2.037743537408   120.66880261   180.57997070
 H    148 147 146     2.053539592122   120.14313523     0.50623721
 H    150 149 148     2.060047569095   116.12599253   178.55553704
 H    151 150 149     2.037267084109   121.24459348   180.35988804
 C    141 111 104     2.663621299625   114.91911875   226.47101361
 C    159 141 111     2.675936120969   119.94347377   166.94376113
 C    160 159 141     2.578669652812   120.16837434   180.17621893
 C    161 160 159     2.668140231566   121.06802392     0.00000000
 C    162 161 160     2.668113697461   122.06681530   180.07083698
 C    163 162 161     2.577719908585   121.01065662   179.81028238
 C    164 163 162     2.678572748933   120.18327951     0.12599063
 C    165 164 163     2.606392231949   120.07506274     0.05673530
 C    166 165 164     2.660734624724   120.51245688   359.79513651
 C    159 141 111     2.607601409410   120.09280867   347.17249743
 H    160 159 141     2.040527696965   119.10282372     0.21413810
 H    161 160 159     2.042335225496   120.25880672   180.02584416
 H    163 162 161     2.042126354050   118.62965636   359.90274054
 H    164 163 162     2.040006345973   120.62619641   180.08485792
 H    166 165 164     2.039370643120   120.19350100   180.00734700
 H    168 159 141     2.039658812578   120.16220313     0.02461112
 C    165 164 163     2.661905929905   118.84040511   180.50472050
 C    175 165 164     2.285428794046   179.17099101    28.16951234
 C    176 175 165     2.658923354128   176.68257380   348.60489652
 C    177 176 175     2.650467831443   120.35133885   349.08448132
 C    178 177 176     2.613330201611   119.17729926   179.24272347
 C    179 178 177     2.618553934735   119.12082693     0.00000000
 N    180 179 178     2.527352109850   121.59343734     0.34310861
 C    181 180 179     2.513745681589   120.30903616   359.68903060
 H    178 177 176     2.038620420120   119.80635679   359.42345094
 H    179 178 177     2.037023052426   120.71212221   180.12747995
 H    180 179 178     2.058628151967   121.48473331   180.37490898
 H    182 181 180     2.053699293861   117.03985180   179.89593028

---------------------
BASIS SET INFORMATION
---------------------
There are 4 groups of distinct atoms

 Group   1 Type Pd  : 7s7p6d contracted to 6s4p3d pattern {211111/4111/411}
 Group   2 Type C   : 11s6p1d contracted to 5s3p1d pattern {62111/411/1}
 Group   3 Type N   : 11s6p1d contracted to 5s3p1d pattern {62111/411/1}
 Group   4 Type H   : 5s contracted to 3s pattern {311}

Atom   0Pd   basis set group =>   1
Atom   1Pd   basis set group =>   1
Atom   2C    basis set group =>   2
Atom   3C    basis set group =>   2
Atom   4C    basis set group =>   2
Atom   5C    basis set group =>   2
Atom   6C    basis set group =>   2
Atom   7C    basis set group =>   2
Atom   8C    basis set group =>   2
Atom   9C    basis set group =>   2
Atom  10N    basis set group =>   3
Atom  11C    basis set group =>   2
Atom  12C    basis set group =>   2
Atom  13C    basis set group =>   2
Atom  14H    basis set group =>   4
Atom  15H    basis set group =>   4
Atom  16H    basis set group =>   4
Atom  17H    basis set group =>   4
Atom  18H    basis set group =>   4
Atom  19H    basis set group =>   4
Atom  20C    basis set group =>   2
Atom  21C    basis set group =>   2
Atom  22C    basis set group =>   2
Atom  23C    basis set group =>   2
Atom  24C    basis set group =>   2
Atom  25C    basis set group =>   2
Atom  26C    basis set group =>   2
Atom  27C    basis set group =>   2
Atom  28C    basis set group =>   2
Atom  29C    basis set group =>   2
Atom  30H    basis set group =>   4
Atom  31H    basis set group =>   4
Atom  32H    basis set group =>   4
Atom  33H    basis set group =>   4
Atom  34H    basis set group =>   4
Atom  35H    basis set group =>   4
Atom  36C    basis set group =>   2
Atom  37C    basis set group =>   2
Atom  38C    basis set group =>   2
Atom  39C    basis set group =>   2
Atom  40C    basis set group =>   2
Atom  41C    basis set group =>   2
Atom  42N    basis set group =>   3
Atom  43C    basis set group =>   2
Atom  44H    basis set group =>   4
Atom  45H    basis set group =>   4
Atom  46H    basis set group =>   4
Atom  47H    basis set group =>   4
Atom  48C    basis set group =>   2
Atom  49C    basis set group =>   2
Atom  50C    basis set group =>   2
Atom  51C    basis set group =>   2
Atom  52C    basis set group =>   2
Atom  53C    basis set group =>   2
Atom  54C    basis set group =>   2
Atom  55C    basis set group =>   2
Atom  56N    basis set group =>   3
Atom  57C    basis set group =>   2
Atom  58C    basis set group =>   2
Atom  59C    basis set group =>   2
Atom  60H    basis set group =>   4
Atom  61H    basis set group =>   4
Atom  62H    basis set group =>   4
Atom  63H    basis set group =>   4
Atom  64H    basis set group =>   4
Atom  65H    basis set group =>   4
Atom  66C    basis set group =>   2
Atom  67C    basis set group =>   2
Atom  68C    basis set group =>   2
Atom  69C    basis set group =>   2
Atom  70C    basis set group =>   2
Atom  71C    basis set group =>   2
Atom  72C    basis set group =>   2
Atom  73C    basis set group =>   2
Atom  74C    basis set group =>   2
Atom  75C    basis set group =>   2
Atom  76H    basis set group =>   4
Atom  77H    basis set group =>   4
Atom  78H    basis set group =>   4
Atom  79H    basis set group =>   4
Atom  80H    basis set group =>   4
Atom  81H    basis set group =>   4
Atom  82C    basis set group =>   2
Atom  83C    basis set group =>   2
Atom  84C    basis set group =>   2
Atom  85C    basis set group =>   2
Atom  86C    basis set group =>   2
Atom  87C    basis set group =>   2
Atom  88N    basis set group =>   3
Atom  89C    basis set group =>   2
Atom  90H    basis set group =>   4
Atom  91H    basis set group =>   4
Atom  92H    basis set group =>   4
Atom  93H    basis set group =>   4
Atom  94C    basis set group =>   2
Atom  95C    basis set group =>   2
Atom  96C    basis set group =>   2
Atom  97C    basis set group =>   2
Atom  98C    basis set group =>   2
Atom  99C    basis set group =>   2
Atom 100C    basis set group =>   2
Atom 101C    basis set group =>   2
Atom 102N    basis set group =>   3
Atom 103C    basis set group =>   2
Atom 104C    basis set group =>   2
Atom 105C    basis set group =>   2
Atom 106H    basis set group =>   4
Atom 107H    basis set group =>   4
Atom 108H    basis set group =>   4
Atom 109H    basis set group =>   4
Atom 110H    basis set group =>   4
Atom 111H    basis set group =>   4
Atom 112C    basis set group =>   2
Atom 113C    basis set group =>   2
Atom 114C    basis set group =>   2
Atom 115C    basis set group =>   2
Atom 116C    basis set group =>   2
Atom 117C    basis set group =>   2
Atom 118C    basis set group =>   2
Atom 119C    basis set group =>   2
Atom 120C    basis set group =>   2
Atom 121C    basis set group =>   2
Atom 122H    basis set group =>   4
Atom 123H    basis set group =>   4
Atom 124H    basis set group =>   4
Atom 125H    basis set group =>   4
Atom 126H    basis set group =>   4
Atom 127H    basis set group =>   4
Atom 128C    basis set group =>   2
Atom 129C    basis set group =>   2
Atom 130C    basis set group =>   2
Atom 131C    basis set group =>   2
Atom 132C    basis set group =>   2
Atom 133C    basis set group =>   2
Atom 134N    basis set group =>   3
Atom 135C    basis set group =>   2
Atom 136H    basis set group =>   4
Atom 137H    basis set group =>   4
Atom 138H    basis set group =>   4
Atom 139H    basis set group =>   4
Atom 140C    basis set group =>   2
Atom 141C    basis set group =>   2
Atom 142C    basis set group =>   2
Atom 143C    basis set group =>   2
Atom 144C    basis set group =>   2
Atom 145C    basis set group =>   2
Atom 146C    basis set group =>   2
Atom 147C    basis set group =>   2
Atom 148N    basis set group =>   3
Atom 149C    basis set group =>   2
Atom 150C    basis set group =>   2
Atom 151C    basis set group =>   2
Atom 152H    basis set group =>   4
Atom 153H    basis set group =>   4
Atom 154H    basis set group =>   4
Atom 155H    basis set group =>   4
Atom 156H    basis set group =>   4
Atom 157H    basis set group =>   4
Atom 158C    basis set group =>   2
Atom 159C    basis set group =>   2
Atom 160C    basis set group =>   2
Atom 161C    basis set group =>   2
Atom 162C    basis set group =>   2
Atom 163C    basis set group =>   2
Atom 164C    basis set group =>   2
Atom 165C    basis set group =>   2
Atom 166C    basis set group =>   2
Atom 167C    basis set group =>   2
Atom 168H    basis set group =>   4
Atom 169H    basis set group =>   4
Atom 170H    basis set group =>   4
Atom 171H    basis set group =>   4
Atom 172H    basis set group =>   4
Atom 173H    basis set group =>   4
Atom 174C    basis set group =>   2
Atom 175C    basis set group =>   2
Atom 176C    basis set group =>   2
Atom 177C    basis set group =>   2
Atom 178C    basis set group =>   2
Atom 179C    basis set group =>   2
Atom 180N    basis set group =>   3
Atom 181C    basis set group =>   2
Atom 182H    basis set group =>   4
Atom 183H    basis set group =>   4
Atom 184H    basis set group =>   4
Atom 185H    basis set group =>   4

-------------------------
BASIS SET IN INPUT FORMAT
-------------------------

 # Basis set for element : H 
 NewGTO H 
 S 3 
   1      34.0613410000      0.0254393072
   2       5.1235746000      0.1900859489
   3       1.1646626000      0.8524411301
 S 1 
   1       0.3272304100      1.0000000000
 S 1 
   1       0.1030724100      1.0000000000
  end;

 # Basis set for element : C 
 NewGTO C 
 S 6 
   1   13575.3496820000      0.0006064549
   2    2035.2333680000      0.0046979088
   3     463.2256235900      0.0243324776
   4     131.2001959800      0.0973999683
   5      42.8530158910      0.3019558425
   6      15.5841857660      0.6623360915
 S 2 
   1       6.2067138508      0.6559530854
   2       2.5764896527      0.3758563329
 S 1 
   1       0.5769633942      1.0000000000
 S 1 
   1       0.2297283136      1.0000000000
 S 1 
   1       0.0951644400      1.0000000000
 P 4 
   1      34.6972322440      0.0113272200
   2       7.9582622826      0.0761696592
   3       2.3780826883      0.3019225220
   4       0.8143320818      0.7278502735
 P 1 
   1       0.2888754725      1.0000000000
 P 1 
   1       0.1005682367      1.0000000000
 D 1 
   1       0.8000000000      1.0000000000
  end;

 # Basis set for element : N 
 NewGTO N 
 S 6 
   1   19730.8006470000      0.0005862639
   2    2957.8958745000      0.0045428821
   3     673.2213359500      0.0235584136
   4     190.6824949400      0.0947091933
   5      62.2954418980      0.2971978492
   6      22.6541611820      0.6691624689
 S 2 
   1       8.9791477428      0.6459668363
   2       3.6863002370      0.3870057440
 S 1 
   1       0.8466007680      1.0000000000
 S 1 
   1       0.3364713377      1.0000000000
 S 1 
   1       0.1364765367      1.0000000000
 P 4 
   1      49.2003805100      0.0114488252
   2      11.3467905370      0.0784223379
   3       3.4273972411      0.3081809474
   4       1.1785525134      0.7202719637
 P 1 
   1       0.4164220497      1.0000000000
 P 1 
   1       0.1426082601      1.0000000000
 D 1 
   1       0.8000000000      1.0000000000
  end;

 # Basis set for element : Pd
 NewGTO Pd
 S 2 
   1      18.0000000000     -0.8955869481
   2      14.6621343080      1.8822771923
 S 1 
   1       5.6388709265      1.0000000000
 S 1 
   1       1.3198953252      1.0000000000
 S 1 
   1       0.5781790851      1.0000000000
 S 1 
   1       0.1035216624      1.0000000000
 S 1 
   1       0.0375484427      1.0000000000
 P 4 
   1      12.5528993000      0.0701895210
   2       7.2444496380     -0.2749252830
   3       1.8905941078      0.5623121361
   4       0.9073716876      0.5736959368
 P 1 
   1       0.4087721081      1.0000000000
 P 1 
   1       0.1150000000      1.0000000000
 P 1 
   1       0.0370000000      1.0000000000
 D 4 
   1      22.3574575750      0.0063445039
   2      10.6825263820     -0.0225156052
   3       2.4858232550      0.3884291800
   4       1.0735333903      0.6828976806
 D 1 
   1       0.4261384285      1.0000000000
 D 1 
   1       0.1504635538      1.0000000000
  end;

---------------------------------
AUXILIARY/J BASIS SET INFORMATION
---------------------------------
There are 4 groups of distinct atoms

 Group   1 Type Pd  : 11s5p5d3f3g contracted to 8s5p5d2f3g pattern {41111111/11111/11111/21/111}
 Group   2 Type C   : 8s3p3d contracted to 6s3p3d pattern {311111/111/111}
 Group   3 Type N   : 8s3p3d contracted to 6s3p3d pattern {311111/111/111}
 Group   4 Type H   : 5s2p contracted to 3s1p pattern {311/2}

Atom   0Pd   basis set group =>   1
Atom   1Pd   basis set group =>   1
Atom   2C    basis set group =>   2
Atom   3C    basis set group =>   2
Atom   4C    basis set group =>   2
Atom   5C    basis set group =>   2
Atom   6C    basis set group =>   2
Atom   7C    basis set group =>   2
Atom   8C    basis set group =>   2
Atom   9C    basis set group =>   2
Atom  10N    basis set group =>   3
Atom  11C    basis set group =>   2
Atom  12C    basis set group =>   2
Atom  13C    basis set group =>   2
Atom  14H    basis set group =>   4
Atom  15H    basis set group =>   4
Atom  16H    basis set group =>   4
Atom  17H    basis set group =>   4
Atom  18H    basis set group =>   4
Atom  19H    basis set group =>   4
Atom  20C    basis set group =>   2
Atom  21C    basis set group =>   2
Atom  22C    basis set group =>   2
Atom  23C    basis set group =>   2
Atom  24C    basis set group =>   2
Atom  25C    basis set group =>   2
Atom  26C    basis set group =>   2
Atom  27C    basis set group =>   2
Atom  28C    basis set group =>   2
Atom  29C    basis set group =>   2
Atom  30H    basis set group =>   4
Atom  31H    basis set group =>   4
Atom  32H    basis set group =>   4
Atom  33H    basis set group =>   4
Atom  34H    basis set group =>   4
Atom  35H    basis set group =>   4
Atom  36C    basis set group =>   2
Atom  37C    basis set group =>   2
Atom  38C    basis set group =>   2
Atom  39C    basis set group =>   2
Atom  40C    basis set group =>   2
Atom  41C    basis set group =>   2
Atom  42N    basis set group =>   3
Atom  43C    basis set group =>   2
Atom  44H    basis set group =>   4
Atom  45H    basis set group =>   4
Atom  46H    basis set group =>   4
Atom  47H    basis set group =>   4
Atom  48C    basis set group =>   2
Atom  49C    basis set group =>   2
Atom  50C    basis set group =>   2
Atom  51C    basis set group =>   2
Atom  52C    basis set group =>   2
Atom  53C    basis set group =>   2
Atom  54C    basis set group =>   2
Atom  55C    basis set group =>   2
Atom  56N    basis set group =>   3
Atom  57C    basis set group =>   2
Atom  58C    basis set group =>   2
Atom  59C    basis set group =>   2
Atom  60H    basis set group =>   4
Atom  61H    basis set group =>   4
Atom  62H    basis set group =>   4
Atom  63H    basis set group =>   4
Atom  64H    basis set group =>   4
Atom  65H    basis set group =>   4
Atom  66C    basis set group =>   2
Atom  67C    basis set group =>   2
Atom  68C    basis set group =>   2
Atom  69C    basis set group =>   2
Atom  70C    basis set group =>   2
Atom  71C    basis set group =>   2
Atom  72C    basis set group =>   2
Atom  73C    basis set group =>   2
Atom  74C    basis set group =>   2
Atom  75C    basis set group =>   2
Atom  76H    basis set group =>   4
Atom  77H    basis set group =>   4
Atom  78H    basis set group =>   4
Atom  79H    basis set group =>   4
Atom  80H    basis set group =>   4
Atom  81H    basis set group =>   4
Atom  82C    basis set group =>   2
Atom  83C    basis set group =>   2
Atom  84C    basis set group =>   2
Atom  85C    basis set group =>   2
Atom  86C    basis set group =>   2
Atom  87C    basis set group =>   2
Atom  88N    basis set group =>   3
Atom  89C    basis set group =>   2
Atom  90H    basis set group =>   4
Atom  91H    basis set group =>   4
Atom  92H    basis set group =>   4
Atom  93H    basis set group =>   4
Atom  94C    basis set group =>   2
Atom  95C    basis set group =>   2
Atom  96C    basis set group =>   2
Atom  97C    basis set group =>   2
Atom  98C    basis set group =>   2
Atom  99C    basis set group =>   2
Atom 100C    basis set group =>   2
Atom 101C    basis set group =>   2
Atom 102N    basis set group =>   3
Atom 103C    basis set group =>   2
Atom 104C    basis set group =>   2
Atom 105C    basis set group =>   2
Atom 106H    basis set group =>   4
Atom 107H    basis set group =>   4
Atom 108H    basis set group =>   4
Atom 109H    basis set group =>   4
Atom 110H    basis set group =>   4
Atom 111H    basis set group =>   4
Atom 112C    basis set group =>   2
Atom 113C    basis set group =>   2
Atom 114C    basis set group =>   2
Atom 115C    basis set group =>   2
Atom 116C    basis set group =>   2
Atom 117C    basis set group =>   2
Atom 118C    basis set group =>   2
Atom 119C    basis set group =>   2
Atom 120C    basis set group =>   2
Atom 121C    basis set group =>   2
Atom 122H    basis set group =>   4
Atom 123H    basis set group =>   4
Atom 124H    basis set group =>   4
Atom 125H    basis set group =>   4
Atom 126H    basis set group =>   4
Atom 127H    basis set group =>   4
Atom 128C    basis set group =>   2
Atom 129C    basis set group =>   2
Atom 130C    basis set group =>   2
Atom 131C    basis set group =>   2
Atom 132C    basis set group =>   2
Atom 133C    basis set group =>   2
Atom 134N    basis set group =>   3
Atom 135C    basis set group =>   2
Atom 136H    basis set group =>   4
Atom 137H    basis set group =>   4
Atom 138H    basis set group =>   4
Atom 139H    basis set group =>   4
Atom 140C    basis set group =>   2
Atom 141C    basis set group =>   2
Atom 142C    basis set group =>   2
Atom 143C    basis set group =>   2
Atom 144C    basis set group =>   2
Atom 145C    basis set group =>   2
Atom 146C    basis set group =>   2
Atom 147C    basis set group =>   2
Atom 148N    basis set group =>   3
Atom 149C    basis set group =>   2
Atom 150C    basis set group =>   2
Atom 151C    basis set group =>   2
Atom 152H    basis set group =>   4
Atom 153H    basis set group =>   4
Atom 154H    basis set group =>   4
Atom 155H    basis set group =>   4
Atom 156H    basis set group =>   4
Atom 157H    basis set group =>   4
Atom 158C    basis set group =>   2
Atom 159C    basis set group =>   2
Atom 160C    basis set group =>   2
Atom 161C    basis set group =>   2
Atom 162C    basis set group =>   2
Atom 163C    basis set group =>   2
Atom 164C    basis set group =>   2
Atom 165C    basis set group =>   2
Atom 166C    basis set group =>   2
Atom 167C    basis set group =>   2
Atom 168H    basis set group =>   4
Atom 169H    basis set group =>   4
Atom 170H    basis set group =>   4
Atom 171H    basis set group =>   4
Atom 172H    basis set group =>   4
Atom 173H    basis set group =>   4
Atom 174C    basis set group =>   2
Atom 175C    basis set group =>   2
Atom 176C    basis set group =>   2
Atom 177C    basis set group =>   2
Atom 178C    basis set group =>   2
Atom 179C    basis set group =>   2
Atom 180N    basis set group =>   3
Atom 181C    basis set group =>   2
Atom 182H    basis set group =>   4
Atom 183H    basis set group =>   4
Atom 184H    basis set group =>   4
Atom 185H    basis set group =>   4

-------------------------------------
AUXILIARY/J BASIS SET IN INPUT FORMAT
-------------------------------------

 # Auxiliary/J basis set for element : H 
 NewAuxJGTO H 
 S 3 
   1      15.6752927000      0.1007184237
   2       3.6063578000      0.3404257499
   3       1.2080016000      0.6491996172
 S 1 
   1       0.4726794000      1.0000000000
 S 1 
   1       0.2018100000      1.0000000000
 P 2 
   1       2.0281365000      0.5596620919
   2       0.5358730000      0.5596620919
  end;

 # Auxiliary/J basis set for element : C 
 NewAuxJGTO C 
 S 3 
   1     459.7023860000      0.1098751775
   2     132.9577920000      0.2844848472
   3      41.5658170000      0.6964707648
 S 1 
   1      13.9155610000      1.0000000000
 S 1 
   1       4.9305290000     -1.0000000000
 S 1 
   1       1.8229480000      1.0000000000
 S 1 
   1       0.6920510000      1.0000000000
 S 1 
   1       0.2650930000      1.0000000000
 P 1 
   1       0.3278473579      1.0000000000
 P 1 
   1       0.7868336591      1.0000000000
 P 1 
   1       1.9710183160      1.0000000000
 D 1 
   1       4.0133010000      1.0000000000
 D 1 
   1       1.2475050000      1.0000000000
 D 1 
   1       0.4081480000      1.0000000000
  end;

 # Auxiliary/J basis set for element : N 
 NewAuxJGTO N 
 S 3 
   1     680.5425300000      0.1043830093
   2     196.7562140000      0.2751518961
   3      61.2707930000      0.7090825511
 S 1 
   1      20.3644630000      1.0000000000
 S 1 
   1       7.1424770000     -1.0000000000
 S 1 
   1       2.6080260000      1.0000000000
 S 1 
   1       0.9763730000      1.0000000000
 S 1 
   1       0.3686330000      1.0000000000
 P 1 
   1       0.4707391941      1.0000000000
 P 1 
   1       1.1297740658     -1.0000000000
 P 1 
   1       2.8300840347      1.0000000000
 D 1 
   1       5.8329865000      1.0000000000
 D 1 
   1       1.7326865000      1.0000000000
 D 1 
   1       0.5452425000      1.0000000000
  end;

 # Auxiliary/J basis set for element : Pd
 NewAuxJGTO Pd
 S 4 
   1      51.0211803000      0.0154414011
   2      17.6543867000     -0.3899991562
   3      10.3849330000      1.7000917225
   4       6.2315704000     -2.2542519748
 S 1 
   1       3.6656295000     -1.0000000000
 S 1 
   1       2.1995933000      1.0000000000
 S 1 
   1       1.2683839000      1.0000000000
 S 1 
   1       0.7461081000      1.0000000000
 S 1 
   1       0.4477087000      1.0000000000
 S 1 
   1       0.2581689000      1.0000000000
 S 1 
   1       0.1518640000      1.0000000000
 P 1 
   1       5.6999676000      1.0000000000
 P 1 
   1       2.5155374000     -1.0000000000
 P 1 
   1       1.1229524000      1.0000000000
 P 1 
   1       0.5047808000     -1.0000000000
 P 1 
   1       0.2274325000     -1.0000000000
 D 1 
   1       3.8006002000      1.0000000000
 D 1 
   1       1.5882692000     -1.0000000000
 D 1 
   1       0.6550157000     -1.0000000000
 D 1 
   1       0.2680210000      1.0000000000
 D 1 
   1       0.1093843000     -1.0000000000
 F 2 
   1       2.0106185000     -1.3134732431
   2       0.8268460000      0.9210621264
 F 1 
   1       0.3451253000      1.0000000000
 G 1 
   1       7.5375072000      1.0000000000
 G 1 
   1       2.7664349000      1.0000000000
 G 1 
   1       1.0133462000      1.0000000000
  end;

-------------------------
ECP PARAMETER INFORMATION
-------------------------

 Group 1, Type Pd ECP Def2-ECP (replacing 28 core electrons, lmax=3)

Atom   0Pd   ECP group =>   1
Atom   1Pd   ECP group =>   1


-------------------------
ECP BASIS IN INPUT FORMAT
-------------------------

 #ECP Def2-ECP
 NewECP Pd
   N_core 28
   lmax f
   s 4
     1      12.4300000000    240.2290403000  2
     2       6.1707594000     35.1719435000  2
     3      13.2700000000     31.9295543000  2
     4       6.6300000000      5.3982169000  2
   p 4
     1      11.0800000000    170.4172760000  2
     2       5.8295541000     28.4721329000  2
     3      13.2700000000     31.9295543000  2
     4       6.6300000000      5.3982169000  2
   d 4
     1       9.5100000000     69.0138449000  2
     2       4.1397811000     11.7508616000  2
     3      13.2700000000     31.9295543000  2
     4       6.6300000000      5.3982169000  2
   f 2
     1      13.2700000000    -31.9295543000  2
     2       6.6300000000     -5.3982169000  2
 End




           ************************************************************
           *        Program running with 32 parallel MPI-processes    *
           *              working on a common directory               *
           ************************************************************
------------------------------------------------------------------------------
                           ORCA GTO INTEGRAL CALCULATION
                           -- RI-GTO INTEGRALS CHOSEN --
------------------------------------------------------------------------------

                         BASIS SET STATISTICS AND STARTUP INFO

Gaussian basis set:
 # of primitive gaussian shells          ... 2520
 # of primitive gaussian functions       ... 4516
 # of contracted shells                  ... 1298
 # of contracted basis functions         ... 2538
 Highest angular momentum                ...    2
 Maximum contraction depth               ...    6
Auxiliary gaussian basis set:
 # of primitive gaussian shells          ... 2182
 # of primitive gaussian functions       ... 4742
 # of contracted shells                  ... 1742
 # of contracted aux-basis functions     ... 4162
 Highest angular momentum                ...    4
 Maximum contraction depth               ...    4
Ratio of auxiliary to basis functions    ...  1.64
Integral package used                  ... LIBINT
 One Electron integrals                  
   ECP integrals                         ... done
 Ordering auxiliary basis shells         ... done
 Integral threshhold             Thresh  ...  2.500e-11
 Primitive cut-off               TCut    ...  2.500e-12
 Pre-screening matrix                    ... done
 Shell pair data                         ... 
 Ordering of the shell pairs             ... done (   0.046 sec) 205722 of 843051 pairs
 Determination of significant pairs      ... done (   0.001 sec)
 Creation of shell pair data             ... done (   0.019 sec)
 Storage of shell pair data              ... done (   0.062 sec)
 Shell pair data done in (   0.127 sec)
 Computing two index integrals           ... done
 Cholesky decomposition of the V-matrix  ... done


Timings:
 Total evaluation time                   ...  10.198 sec (  0.170 min)
 One electron matrix time                ...   5.463 sec (  0.091 min) = 53.6%
 Schwartz matrix evaluation time         ...   3.242 sec (  0.054 min) = 31.8%
 Two index repulsion integral time       ...   0.342 sec (  0.006 min) =  3.4%
 Cholesky decomposition of V             ...   0.995 sec (  0.017 min) =  9.8%
 Three index repulsion integral time     ...   0.001 sec (  0.000 min) =  0.0%



           ************************************************************
           *        Program running with 32 parallel MPI-processes    *
           *              working on a common directory               *
           ************************************************************
-------------------------------------------------------------------------------
                                 ORCA SCF
-------------------------------------------------------------------------------

------------
SCF SETTINGS
------------
Hamiltonian:
[...]
 81 H      0.8214     1.0000     0.1786     0.8968     0.8968    -0.0000
 82 C      5.9560     6.0000     0.0440     3.1806     3.1806    -0.0000
 83 C      6.0007     6.0000    -0.0007     3.1343     3.1343    -0.0000
 84 C      5.9100     6.0000     0.0900     3.7722     3.7722    -0.0000
 85 C      6.2262     6.0000    -0.2262     3.9407     3.9407    -0.0000
 86 C      6.0068     6.0000    -0.0068     3.8280     3.8280    -0.0000
 87 C      6.1401     6.0000    -0.1401     3.9418     3.9418    -0.0000
 88 N      7.0353     7.0000    -0.0353     3.2919     3.2919    -0.0000
 89 C      6.1572     6.0000    -0.1572     3.7477     3.7477    -0.0000
 90 H      0.7550     1.0000     0.2450     0.9059     0.9059    -0.0000
 91 H      0.7575     1.0000     0.2425     0.9103     0.9103    -0.0000
 92 H      0.8161     1.0000     0.1839     0.9511     0.9511    -0.0000
 93 H      0.8116     1.0000     0.1884     0.9469     0.9469    -0.0000
 94 C      5.9837     6.0000     0.0163     3.2786     3.2786    -0.0000
 95 C      5.9420     6.0000     0.0580     2.9643     2.9643    -0.0000
 96 C      6.1847     6.0000    -0.1847     3.6531     3.6531    -0.0000
 97 C      6.0967     6.0000    -0.0967     3.8174     3.8174    -0.0000
 98 C      6.1846     6.0000    -0.1846     4.1543     4.1543    -0.0000
 99 C      6.2294     6.0000    -0.2294     3.9338     3.9338    -0.0000
100 C      5.7928     6.0000     0.2072     3.3969     3.3969    -0.0000
101 C      6.2605     6.0000    -0.2605     3.7832     3.7832    -0.0000
102 N      7.0646     7.0000    -0.0646     3.3070     3.3070    -0.0000
103 C      6.1623     6.0000    -0.1623     3.9638     3.9638    -0.0000
104 C      5.9596     6.0000     0.0404     3.6006     3.6006    -0.0000
105 C      5.8414     6.0000     0.1586     3.4212     3.4212    -0.0000
106 H      0.7477     1.0000     0.2523     0.8973     0.8973    -0.0000
107 H      0.7786     1.0000     0.2214     0.9264     0.9264    -0.0000
108 H      0.7729     1.0000     0.2271     0.9041     0.9041    -0.0000
109 H      0.8039     1.0000     0.1961     0.9330     0.9330    -0.0000
110 H      0.8524     1.0000     0.1476     0.9635     0.9635    -0.0000
111 H      0.8251     1.0000     0.1749     0.9301     0.9301    -0.0000
112 C      6.1427     6.0000    -0.1427     3.8432     3.8432    -0.0000
113 C      6.1762     6.0000    -0.1762     3.8604     3.8604    -0.0000
114 C      6.2301     6.0000    -0.2301     3.9320     3.9320    -0.0000
115 C      5.8448     6.0000     0.1552     3.5608     3.5608    -0.0000
116 C      6.2231     6.0000    -0.2231     3.9374     3.9374    -0.0000
117 C      6.1820     6.0000    -0.1820     3.8749     3.8749    -0.0000
118 C      6.1383     6.0000    -0.1383     3.8525     3.8525    -0.0000
119 C      6.2920     6.0000    -0.2920     3.5456     3.5456    -0.0000
120 C      5.6691     6.0000     0.3309     3.5623     3.5623    -0.0000
121 C      6.2927     6.0000    -0.2927     3.5838     3.5838    -0.0000
122 H      0.7729     1.0000     0.2271     0.9103     0.9103    -0.0000
123 H      0.7735     1.0000     0.2265     0.9046     0.9046    -0.0000
124 H      0.7733     1.0000     0.2267     0.9040     0.9040    -0.0000
125 H      0.7793     1.0000     0.2207     0.9129     0.9129    -0.0000
126 H      0.8111     1.0000     0.1889     0.9058     0.9058    -0.0000
127 H      0.8226     1.0000     0.1774     0.8931     0.8931    -0.0000
128 C      5.9557     6.0000     0.0443     3.1756     3.1756    -0.0000
129 C      5.9958     6.0000     0.0042     3.1311     3.1311    -0.0000
130 C      5.8989     6.0000     0.1011     3.7366     3.7366    -0.0000
131 C      6.2218     6.0000    -0.2218     3.9396     3.9396    -0.0000
132 C      6.0199     6.0000    -0.0199     3.8596     3.8596    -0.0000
133 C      6.1329     6.0000    -0.1329     3.9627     3.9627    -0.0000
134 N      7.0292     7.0000    -0.0292     3.2845     3.2845    -0.0000
135 C      6.1774     6.0000    -0.1774     3.7340     3.7340    -0.0000
136 H      0.7535     1.0000     0.2465     0.9044     0.9044    -0.0000
137 H      0.7566     1.0000     0.2434     0.9101     0.9101    -0.0000
138 H      0.8159     1.0000     0.1841     0.9523     0.9523    -0.0000
139 H      0.8124     1.0000     0.1876     0.9470     0.9470    -0.0000
140 C      5.9867     6.0000     0.0133     3.2780     3.2780    -0.0000
141 C      5.9238     6.0000     0.0762     2.9652     2.9652    -0.0000
142 C      6.1946     6.0000    -0.1946     3.6856     3.6856    -0.0000
143 C      6.0948     6.0000    -0.0948     3.8190     3.8190    -0.0000
144 C      6.1827     6.0000    -0.1827     4.1534     4.1534    -0.0000
145 C      6.2242     6.0000    -0.2242     3.9393     3.9393    -0.0000
146 C      5.8212     6.0000     0.1788     3.4570     3.4570    -0.0000
147 C      6.2372     6.0000    -0.2372     3.8203     3.8203    -0.0000
148 N      7.0638     7.0000    -0.0638     3.3220     3.3220    -0.0000
149 C      6.1966     6.0000    -0.1966     3.9698     3.9698    -0.0000
150 C      5.9534     6.0000     0.0466     3.5646     3.5646    -0.0000
151 C      5.8367     6.0000     0.1633     3.4222     3.4222    -0.0000
152 H      0.7478     1.0000     0.2522     0.8973     0.8973    -0.0000
153 H      0.7783     1.0000     0.2217     0.9265     0.9265    -0.0000
154 H      0.7723     1.0000     0.2277     0.9043     0.9043    -0.0000
155 H      0.8022     1.0000     0.1978     0.9338     0.9338    -0.0000
156 H      0.8485     1.0000     0.1515     0.9584     0.9584    -0.0000
157 H      0.8163     1.0000     0.1837     0.9291     0.9291    -0.0000
158 C      6.1462     6.0000    -0.1462     3.8531     3.8531    -0.0000
159 C      6.1710     6.0000    -0.1710     3.8624     3.8624    -0.0000
160 C      6.2302     6.0000    -0.2302     3.9323     3.9323    -0.0000
161 C      5.8417     6.0000     0.1583     3.5704     3.5704    -0.0000
162 C      6.2248     6.0000    -0.2248     3.9400     3.9400    -0.0000
163 C      6.1839     6.0000    -0.1839     3.8771     3.8771    -0.0000
164 C      6.1399     6.0000    -0.1399     3.8535     3.8535    -0.0000
165 C      6.2850     6.0000    -0.2850     3.5481     3.5481    -0.0000
166 C      5.6790     6.0000     0.3210     3.5771     3.5771    -0.0000
167 C      6.2913     6.0000    -0.2913     3.5880     3.5880    -0.0000
168 H      0.7717     1.0000     0.2283     0.9097     0.9097    -0.0000
169 H      0.7735     1.0000     0.2265     0.9047     0.9047    -0.0000
170 H      0.7735     1.0000     0.2265     0.9041     0.9041    -0.0000
171 H      0.7812     1.0000     0.2188     0.9138     0.9138    -0.0000
172 H      0.8099     1.0000     0.1901     0.9054     0.9054    -0.0000
173 H      0.8216     1.0000     0.1784     0.8967     0.8967    -0.0000
174 C      5.9564     6.0000     0.0436     3.1805     3.1805    -0.0000
175 C      6.0003     6.0000    -0.0003     3.1337     3.1337    -0.0000
176 C      5.9108     6.0000     0.0892     3.7742     3.7742    -0.0000
177 C      6.2260     6.0000    -0.2260     3.9396     3.9396    -0.0000
178 C      6.0070     6.0000    -0.0070     3.8282     3.8282    -0.0000
179 C      6.1387     6.0000    -0.1387     3.9403     3.9403    -0.0000
180 N      7.0367     7.0000    -0.0367     3.2907     3.2907    -0.0000
181 C      6.1566     6.0000    -0.1566     3.7477     3.7477    -0.0000
182 H      0.7549     1.0000     0.2451     0.9059     0.9059    -0.0000
183 H      0.7574     1.0000     0.2426     0.9103     0.9103    -0.0000
184 H      0.8159     1.0000     0.1841     0.9511     0.9511    -0.0000
185 H      0.8116     1.0000     0.1884     0.9467     0.9467    -0.0000

  Mayer bond orders larger than 0.100000
B(  0-Pd, 42-N ) :   0.5303 B(  0-Pd, 56-N ) :   0.5402 B(  0-Pd,102-N ) :   0.5305 
B(  0-Pd,148-N ) :   0.5397 B(  1-Pd, 10-N ) :   0.5396 B(  1-Pd, 88-N ) :   0.5338 
B(  1-Pd,134-N ) :   0.5306 B(  1-Pd,180-N ) :   0.5333 B(  2-C ,  3-C ) :   1.8418 
B(  2-C ,  4-C ) :  -0.2897 B(  2-C , 20-C ) :   1.5421 B(  3-C ,  4-C ) :   1.4647 
B(  3-C , 13-C ) :  -0.2035 B(  3-C , 20-C ) :  -0.4234 B(  4-C ,  5-C ) :   1.5153 
B(  4-C , 12-C ) :  -0.1408 B(  4-C , 13-C ) :   1.0353 B(  5-C ,  6-C ) :   1.4117 
B(  5-C , 14-H ) :   0.8623 B(  6-C ,  7-C ) :   1.6414 B(  6-C , 15-H ) :   0.8740 
B(  7-C ,  8-C ) :   1.2938 B(  7-C , 16-H ) :   0.8648 B(  8-C ,  9-C ) :   1.2512 
B(  8-C , 12-C ) :  -0.1032 B(  8-C , 13-C ) :   1.0710 B(  9-C , 10-N ) :   1.4689 
B(  9-C , 13-C ) :  -0.1131 B(  9-C , 17-H ) :   0.9202 B( 10-N , 11-C ) :   1.2691 
B( 10-N ,134-N ) :   0.1013 B( 11-C , 12-C ) :   1.4482 B( 11-C , 13-C ) :   0.1198 
B( 11-C , 18-H ) :   0.9305 B( 12-C , 13-C ) :   1.4112 B( 12-C , 19-H ) :   0.8872 
B( 20-C , 21-C ) :   1.2326 B( 20-C , 29-C ) :   1.3596 B( 21-C , 22-C ) :   1.6576 
B( 21-C , 30-H ) :   0.8901 B( 22-C , 23-C ) :   1.3075 B( 22-C , 31-H ) :   0.8794 
B( 23-C , 24-C ) :   1.3056 B( 23-C , 27-C ) :  -0.1078 B( 23-C , 28-C ) :   1.0228 
B( 23-C , 29-C ) :  -0.1011 B( 24-C , 25-C ) :   1.6608 B( 24-C , 32-H ) :   0.8802 
B( 25-C , 26-C ) :   1.2290 B( 25-C , 33-H ) :   0.8886 B( 26-C , 27-C ) :   1.3745 
B( 26-C , 36-C ) :   1.5020 B( 26-C , 37-C ) :  -0.4255 B( 27-C , 28-C ) :   1.2702 
B( 27-C , 34-H ) :   0.9354 B( 27-C , 37-C ) :   0.1022 B( 28-C , 29-C ) :   1.2925 
B( 29-C , 35-H ) :   0.9390 B( 36-C , 37-C ) :   1.8411 B( 36-C , 38-C ) :  -0.2986 
B( 37-C , 38-C ) :   1.4101 B( 38-C , 39-C ) :   1.3430 B( 38-C , 43-C ) :   1.3031 
B( 39-C , 40-C ) :   1.4725 B( 39-C , 44-H ) :   0.9195 B( 40-C , 41-C ) :   1.3990 
B( 40-C , 45-H ) :   0.8749 B( 41-C , 42-N ) :   1.3472 B( 41-C , 46-H ) :   0.9320 
B( 42-N , 43-C ) :   1.3733 B( 42-N ,102-N ) :   0.1007 B( 43-C , 47-H ) :   0.9527 
B( 48-C , 49-C ) :   1.8483 B( 48-C , 50-C ) :  -0.2928 B( 48-C , 66-C ) :   1.5345 
B( 49-C , 50-C ) :   1.4635 B( 49-C , 59-C ) :  -0.1918 B( 49-C , 66-C ) :  -0.4239 
B( 50-C , 51-C ) :   1.5202 B( 50-C , 58-C ) :  -0.1250 B( 50-C , 59-C ) :   1.0567 
B( 51-C , 52-C ) :   1.4056 B( 51-C , 60-H ) :   0.8596 B( 52-C , 53-C ) :   1.6437 
B( 52-C , 61-H ) :   0.8744 B( 53-C , 54-C ) :   1.3037 B( 53-C , 62-H ) :   0.8646 
B( 54-C , 55-C ) :   1.2460 B( 54-C , 58-C ) :  -0.1023 B( 54-C , 59-C ) :   1.0805 
B( 55-C , 56-N ) :   1.4910 B( 55-C , 59-C ) :  -0.1140 B( 55-C , 63-H ) :   0.9232 
B( 56-N , 57-C ) :   1.2569 B( 57-C , 58-C ) :   1.4677 B( 57-C , 59-C ) :   0.1243 
B( 57-C , 64-H ) :   0.9290 B( 58-C , 59-C ) :   1.3863 B( 58-C , 65-H ) :   0.8859 
B( 66-C , 67-C ) :   1.2424 B( 66-C , 75-C ) :   1.3588 B( 67-C , 68-C ) :   1.6541 
B( 67-C , 76-H ) :   0.8863 B( 68-C , 69-C ) :   1.3113 B( 68-C , 77-H ) :   0.8791 
B( 69-C , 70-C ) :   1.3025 B( 69-C , 73-C ) :  -0.1097 B( 69-C , 74-C ) :   1.0266 
B( 70-C , 71-C ) :   1.6651 B( 70-C , 78-H ) :   0.8806 B( 71-C , 72-C ) :   1.2211 
B( 71-C , 79-H ) :   0.8918 B( 72-C , 73-C ) :   1.3813 B( 72-C , 82-C ) :   1.5020 
B( 72-C , 83-C ) :  -0.4165 B( 73-C , 74-C ) :   1.2593 B( 73-C , 80-H ) :   0.9324 
B( 73-C , 82-C ) :  -0.1059 B( 73-C , 83-C ) :   0.1082 B( 74-C , 75-C ) :   1.3022 
B( 75-C , 81-H ) :   0.9351 B( 82-C , 83-C ) :   1.8543 B( 82-C , 84-C ) :  -0.2900 
B( 83-C , 84-C ) :   1.4094 B( 84-C , 85-C ) :   1.3366 B( 84-C , 89-C ) :   1.2924 
B( 85-C , 86-C ) :   1.4789 B( 85-C , 90-H ) :   0.9227 B( 86-C , 87-C ) :   1.4086 
B( 86-C , 91-H ) :   0.8723 B( 87-C , 88-N ) :   1.3329 B( 87-C , 92-H ) :   0.9294 
B( 88-N , 89-C ) :   1.3871 B( 89-C , 93-H ) :   0.9500 B( 94-C , 95-C ) :   1.8364 
B( 94-C , 96-C ) :  -0.2888 B( 94-C ,112-C ) :   1.5427 B( 95-C , 96-C ) :   1.4623 
B( 95-C ,105-C ) :  -0.1923 B( 95-C ,112-C ) :  -0.4261 B( 96-C , 97-C ) :   1.5169 
B( 96-C ,104-C ) :  -0.1370 B( 96-C ,105-C ) :   1.0447 B( 97-C , 98-C ) :   1.4061 
B( 97-C ,106-H ) :   0.8607 B( 98-C , 99-C ) :   1.6419 B( 98-C ,107-H ) :   0.8743 
B( 99-C ,100-C ) :   1.2995 B( 99-C ,108-H ) :   0.8672 B(100-C ,101-C ) :   1.2121 
B(100-C ,104-C ) :  -0.1055 B(100-C ,105-C ) :   1.0819 B(101-C ,102-N ) :   1.4713 
B(101-C ,105-C ) :  -0.1144 B(101-C ,109-H ) :   0.9317 B(102-N ,103-C ) :   1.2790 
B(103-C ,104-C ) :   1.4813 B(103-C ,105-C ) :   0.1231 B(103-C ,110-H ) :   0.9170 
B(104-C ,105-C ) :   1.3953 B(104-C ,111-H ) :   0.8912 B(112-C ,113-C ) :   1.2382 
B(112-C ,121-C ) :   1.3494 B(113-C ,114-C ) :   1.6551 B(113-C ,122-H ) :   0.8881 
B(114-C ,115-C ) :   1.3117 B(114-C ,123-H ) :   0.8792 B(115-C ,116-C ) :   1.3039 
B(115-C ,119-C ) :  -0.1115 B(115-C ,120-C ) :   1.0186 B(116-C ,117-C ) :   1.6628 
B(116-C ,124-H ) :   0.8806 B(117-C ,118-C ) :   1.2238 B(117-C ,125-H ) :   0.8907 
B(118-C ,119-C ) :   1.3778 B(118-C ,128-C ) :   1.5010 B(118-C ,129-C ) :  -0.4171 
B(119-C ,120-C ) :   1.2527 B(119-C ,126-H ) :   0.9370 B(119-C ,128-C ) :  -0.1017 
B(119-C ,129-C ) :   0.1054 B(120-C ,121-C ) :   1.3002 B(121-C ,127-H ) :   0.9402 
B(128-C ,129-C ) :   1.8554 B(128-C ,130-C ) :  -0.2939 B(129-C ,130-C ) :   1.4070 
B(130-C ,131-C ) :   1.3393 B(130-C ,135-C ) :   1.2738 B(131-C ,132-C ) :   1.4839 
B(131-C ,136-H ) :   0.9215 B(132-C ,133-C ) :   1.4221 B(132-C ,137-H ) :   0.8721 
B(133-C ,134-N ) :   1.3507 B(133-C ,138-H ) :   0.9237 B(134-N ,135-C ) :   1.3686 
B(135-C ,139-H ) :   0.9583 B(140-C ,141-C ) :   1.8480 B(140-C ,142-C ) :  -0.2921 
B(140-C ,158-C ) :   1.5360 B(141-C ,142-C ) :   1.4635 B(141-C ,151-C ) :  -0.1916 
B(141-C ,158-C ) :  -0.4252 B(142-C ,143-C ) :   1.5202 B(142-C ,150-C ) :  -0.1249 
B(142-C ,151-C ) :   1.0568 B(143-C ,144-C ) :   1.4054 B(143-C ,152-H ) :   0.8598 
B(144-C ,145-C ) :   1.6437 B(144-C ,153-H ) :   0.8744 B(145-C ,146-C ) :   1.3038 
B(145-C ,154-H ) :   0.8648 B(146-C ,147-C ) :   1.2458 B(146-C ,150-C ) :  -0.1023 
B(146-C ,151-C ) :   1.0796 B(147-C ,148-N ) :   1.4909 B(147-C ,151-C ) :  -0.1143 
B(147-C ,155-H ) :   0.9232 B(148-N ,149-C ) :   1.2576 B(149-C ,150-C ) :   1.4683 
B(149-C ,151-C ) :   0.1242 B(149-C ,156-H ) :   0.9286 B(150-C ,151-C ) :   1.3863 
B(150-C ,157-H ) :   0.8860 B(158-C ,159-C ) :   1.2424 B(158-C ,167-C ) :   1.3578 
B(159-C ,160-C ) :   1.6542 B(159-C ,168-H ) :   0.8863 B(160-C ,161-C ) :   1.3112 
B(160-C ,169-H ) :   0.8791 B(161-C ,162-C ) :   1.3023 B(161-C ,165-C ) :  -0.1097 
B(161-C ,166-C ) :   1.0264 B(162-C ,163-C ) :   1.6650 B(162-C ,170-H ) :   0.8807 
B(163-C ,164-C ) :   1.2212 B(163-C ,171-H ) :   0.8917 B(164-C ,165-C ) :   1.3811 
B(164-C ,174-C ) :   1.5025 B(164-C ,175-C ) :  -0.4169 B(165-C ,166-C ) :   1.2590 
B(165-C ,172-H ) :   0.9326 B(165-C ,174-C ) :  -0.1062 B(165-C ,175-C ) :   0.1083 
B(166-C ,167-C ) :   1.3018 B(167-C ,173-H ) :   0.9353 B(174-C ,175-C ) :   1.8540 
B(174-C ,176-C ) :  -0.2900 B(175-C ,176-C ) :   1.4101 B(176-C ,177-C ) :   1.3366 
B(176-C ,181-C ) :   1.2930 B(177-C ,178-C ) :   1.4785 B(177-C ,182-H ) :   0.9225 
B(178-C ,179-C ) :   1.4087 B(178-C ,183-H ) :   0.8722 B(179-C ,180-N ) :   1.3329 
B(179-C ,184-H ) :   0.9294 B(180-N ,181-C ) :   1.3871 B(181-C ,185-H ) :   0.9496 


-------
TIMINGS
-------

Total SCF time: 0 days 0 hours 15 min 21 sec 

Total time                  ....     921.145 sec
Sum of individual times     ....     900.847 sec  ( 97.8%)

Fock matrix formation       ....     299.561 sec  ( 32.5%)
  Split-RI-J                ....     148.511 sec  ( 49.6% of F)
  XC integration            ....     128.289 sec  ( 42.8% of F)
    Basis function eval.    ....      24.262 sec  ( 18.9% of XC)
    Density eval.           ....      51.181 sec  ( 39.9% of XC)
    XC-Functional eval.     ....       9.089 sec  (  7.1% of XC)
    XC-Potential eval.      ....      19.770 sec  ( 15.4% of XC)
Diagonalization             ....      91.776 sec  ( 10.0%)
Density matrix formation    ....       4.202 sec  (  0.5%)
Population analysis         ....      13.306 sec  (  1.4%)
Initial guess               ....      13.174 sec  (  1.4%)
Orbital Transformation      ....       0.000 sec  (  0.0%)
Orbital Orthonormalization  ....       0.000 sec  (  0.0%)
DIIS solution               ....     435.321 sec  ( 47.3%)
Grid generation             ....      43.507 sec  (  4.7%)


-------------------------------------------------------------------------------
                          DFT DISPERSION CORRECTION                            
                                                                               
                              DFTD3 V3.1  Rev 1                                
                          USING Becke-Johnson damping                          
-------------------------------------------------------------------------------
The B97-3c composite method is recognized
Using three-body term ABC
Active option DFTDOPT                   ...         4   

molecular C6(AA) [au] = 550451.763634 


            DFT-D V3
 parameters
 s6 scaling factor         :     1.0000 
 a1 scaling factor         :     0.3700 
 s8 scaling factor         :     1.5000 
 a2 scaling factor         :     4.1000 
 Damping factor alpha9(ATM):    16.0000 
 ad hoc parameters k1-k3   :    16.0000     1.3333    -4.0000 

 Edisp/kcal,au: -431.756209620239  -0.688047242967 
 E6   /kcal   : -210.862814754 
 E8   /kcal   : -221.058660702 
 E6(ABC)      :   0.165265836 
 % E8         :  51.199879880 
 % E6(ABC)    :  -0.038277582 

-------------------------   ----------------
Dispersion correction           -0.688047243
-------------------------   ----------------

------------------   -----------------
SRB correction            -0.754671069
------------------   -----------------

-------------------------   --------------------
FINAL SINGLE POINT ENERGY     -4997.336231334009
-------------------------   --------------------


                            ***************************************
                            *     ORCA property calculations      *
                            ***************************************

                                    ---------------------
                                    Active property flags
                                    ---------------------
   (+) Dipole Moment


------------------------------------------------------------------------------
                       ORCA ELECTRIC PROPERTIES CALCULATION
------------------------------------------------------------------------------

Dipole Moment Calculation                       ... on
Quadrupole Moment Calculation                   ... off
Polarizability Calculation                      ... off
GBWName                                         ... _s_5a3_b_B97-3c.gbw
Electron density file                           ... _s_5a3_b_B97-3c.scfp
The origin for moment calculation is the CENTER OF MASS  = (-0.088661, -0.898114  0.078675)

-------------
DIPOLE MOMENT
-------------
                                X             Y             Z
Electronic contribution:     13.64224     -52.48901       1.95396
Nuclear contribution   :    -13.58857      51.21210      -1.95777
                        -----------------------------------------
Total Dipole Moment    :      0.05366      -1.27691      -0.00381
                        -----------------------------------------
Magnitude (a.u.)       :      1.27804
Magnitude (Debye)      :      3.24852



--------------------
Rotational spectrum 
--------------------
 
Rotational constants in cm-1:     0.000315     0.000209     0.000209 
Rotational constants in MHz :     9.448199     6.276691     6.256274 

 Dipole components along the rotational axes: 
x,y,z [a.u.] :    -1.274161    -0.017884    -0.097881 
x,y,z [Debye]:    -3.238661    -0.045458    -0.248795 

 

Timings for individual modules:

Sum of individual times         ...      952.878 sec (=  15.881 min)
GTO integral calculation        ...       22.148 sec (=   0.369 min)   2.3 %
SCF iterations                  ...      930.731 sec (=  15.512 min)  97.7 %
                             ****ORCA TERMINATED NORMALLY****
TOTAL RUN TIME: 0 days 0 hours 16 minutes 3 seconds 299 msec
