Job execution start: Tue Jun 22 10:57:01 BST 2021
Shared library path: /work/e05/e05/atarzia/orca_4_2_1_linux_x86-64_openmpi314:/work/e05/e05/atarzia/openmpi-3.1.4/lib:/opt/cray/pe/papi/6.0.0.4/lib64:/opt/cray/libfabric/1.11.0.0.233/lib64
Slurm Job ID is: 344578
Slurm Job name is: s_5a1_a_PBE0
nid001886

                                 *****************
                                 * O   R   C   A *
                                 *****************

           --- An Ab Initio, DFT and Semiempirical electronic structure package ---

                  #######################################################
                  #                        -***-                        #
                  #          Department of theory and spectroscopy      #
                  #               Directorship: Frank Neese             #
                  #        Max Planck Institute fuer Kohlenforschung    #
                  #                Kaiser Wilhelm Platz 1               #
                  #                 D-45470 Muelheim/Ruhr               #
                  #                      Germany                        #
                  #                                                     #
                  #                  All rights reserved                #
                  #                        -***-                        #
                  #######################################################


                         Program Version 4.2.1 -  RELEASE  -


 With contributions from (in alphabetic order):
   Daniel Aravena         : Magnetic Suceptibility
   Michael Atanasov       : Ab Initio Ligand Field Theory (pilot matlab implementation)
   Alexander A. Auer      : GIAO ZORA, VPT2
   Ute Becker             : Parallelization
   Giovanni Bistoni       : ED, misc. LED, open-shell LED, HFLD
   Martin Brehm           : Molecular dynamics
   Dmytro Bykov           : SCF Hessian
   Vijay G. Chilkuri      : MRCI spin determinant printing, contributions to CSF-ICE
   Dipayan Datta          : RHF DLPNO-CCSD density
   Achintya Kumar Dutta   : EOM-CC, STEOM-CC
   Dmitry Ganyushin       : Spin-Orbit,Spin-Spin,Magnetic field MRCI
   Miquel Garcia          : C-PCM Hessian, Gaussian charge scheme
   Yang Guo               : DLPNO-NEVPT2, CIM, IAO-localization
   Andreas Hansen         : Spin unrestricted coupled pair/coupled cluster methods
   Benjamin Helmich-Paris : CASSCF linear response (MC-RPA)
   Lee Huntington         : MR-EOM, pCC
   Robert Izsak           : Overlap fitted RIJCOSX, COSX-SCS-MP3, EOM
   Christian Kollmar      : KDIIS, OOCD, Brueckner-CCSD(T), CCSD density
   Simone Kossmann        : Meta GGA functionals, TD-DFT gradient, OOMP2, MP2 Hessian
   Martin Krupicka        : AUTO-CI
   Lucas Lang             : DCDCAS
   Dagmar Lenk            : GEPOL surface, SMD
   Dimitrios Liakos       : Extrapolation schemes; Compound Job, initial MDCI parallelization
   Dimitrios Manganas     : Further ROCIS development; embedding schemes
   Dimitrios Pantazis     : SARC Basis sets
   Taras Petrenko         : DFT Hessian,TD-DFT gradient, ASA, ECA, R-Raman, ABS, FL, XAS/XES, NRVS
   Peter Pinski           : DLPNO-MP2, DLPNO-MP2 Gradient
   Christoph Reimann      : Effective Core Potentials
   Marius Retegan         : Local ZFS, SOC
   Christoph Riplinger    : Optimizer, TS searches, QM/MM, DLPNO-CCSD(T), (RO)-DLPNO pert. Triples
   Tobias Risthaus        : Range-separated hybrids, TD-DFT gradient, RPA, STAB
   Michael Roemelt        : Original ROCIS implementation
   Masaaki Saitow         : Open-shell DLPNO-CCSD energy and density
   Barbara Sandhoefer     : DKH picture change effects
   Avijit Sen             : IP-ROCIS
   Kantharuban Sivalingam : CASSCF convergence, NEVPT2, FIC-MRCI
   Bernardo de Souza      : ESD, SOC TD-DFT
   Georgi Stoychev        : AutoAux, RI-MP2 NMR
   Willem Van den Heuvel  : Paramagnetic NMR
   Boris Wezisla          : Elementary symmetry handling
   Frank Wennmohs         : Technical directorship


 We gratefully acknowledge several colleagues who have allowed us to
 interface, adapt or use parts of their codes:
   Stefan Grimme, W. Hujo, H. Kruse,             : VdW corrections, initial TS optimization,
                  C. Bannwarth                     DFT functionals, gCP, sTDA/sTD-DF
   Ed Valeev, F. Pavosevic, A. Kumar             : LibInt (2-el integral package), F12 methods
   Garnet Chan, S. Sharma, J. Yang, R. Olivares  : DMRG
   Ulf Ekstrom                                   : XCFun DFT Library
   Mihaly Kallay                                 : mrcc  (arbitrary order and MRCC methods)
   Andreas Klamt, Michael Diedenhofen            : otool_cosmo (COSMO solvation model)
   Jiri Pittner, Ondrej Demel                    : Mk-CCSD
   Frank Weinhold                                : gennbo (NPA and NBO analysis)
   Christopher J. Cramer and Donald G. Truhlar   : smd solvation model
   Lars Goerigk                                  : TD-DFT with DH, B97 family of functionals
   V. Asgeirsson, H. Jonsson                     : NEB implementation
   FAccTs GmbH                                   : IRC, NEB, NEB-TS, Multilevel, MM, QM/MM, CI optimization
   S Lehtola, MJT Oliveira, MAL Marques          : LibXC Library


 Your calculation uses the libint2 library for the computation of 2-el integrals
 For citations please refer to: http://libint.valeyev.net

 Your ORCA version has been built with support for libXC version: 4.2.3
 For citations please refer to: https://tddft.org/programs/libxc/

 This ORCA versions uses:
   CBLAS   interface :  Fast vector & matrix operations
   LAPACKE interface :  Fast linear algebra routines
   SCALAPACK package :  Parallel linear algebra routines




***************************************
The coordinates will be read from file: s_5a1_a.xyz
***************************************


Your calculation utilizes the atom-pairwise dispersion correction
with the Becke-Johnson damping scheme (D3BJ)
Cite in your paper:
S.Grimme, S.Ehrlich, L.Goerigk, J Comput Chem, (2011), 32, 1456–1465 
S.Grimme, J.Antony, S.Ehrlich and H.Krieg, J.Chem.Phys., 132, (2010), 154104 
   

----- Orbital basis set information -----
Your calculation utilizes the basis: def2-SVP
   F. Weigend and R. Ahlrichs, Phys. Chem. Chem. Phys. 7, 3297 (2005).

cite the ECPs for Pd [Def2-ECP] as follows:
Ce-Yb(ecp-28): M. Dolg, H. Stoll, H.Preuss, J. Chem. Phys., 1989, 90, 1730-1734.
Y-Cd(ecp-28), Hf-Hg(ecp-46): D. Andrae,U. Haeussermann, M. Dolg, H. Stoll, H. Preuss, Theor. Chim. Acta, 1990, 77, 123-141.
In-Sb(ecp-28), Tl-Bi(ecp-46): B. Metz, H. Stoll, M. Dolg, J. Chem. Phys., 2000, 113, 2563-2569.
Te-Xe(ecp-28), Po-Rn(ecp-46): K. A. Peterson, D. Figgen, E. Goll, H. Stoll, M. Dolg, J. Chem. Phys., 2003, 119, 11113-11123.
Rb(ecp-28), Cs(ecp-46): T. Leininger, A. Nicklass, W. Kuechle, H. Stoll, M. Dolg, A. Bergner, Chem. Phys. Lett., 1996, 255, 274-280.
Sr(ecp-28), Ba(ecp-46): M. Kaupp, P. V. Schleyer, H. Stoll and H. Preuss, J. Chem. Phys., 1991, 94, 1360-1366.
La(ecp-46): M. Dolg, H. Stoll, A. Savin, H. Preuss, Theor. Chim. Acta, 1989, 75, 173-194.
Lu(ecp-28): X. Cao, M. Dolg, J. Chem. Phys., 2001, 115, 7348-7355.

ECP parameters for Pd [Def2-ECP] have been obtained from:
TURBOMOLE (7.0.2)

================================================================================
                                        WARNINGS
                       Please study these warnings very carefully!
================================================================================


INFO   : the flag for use of LIBINT has been found!

================================================================================
                                       INPUT FILE
================================================================================
NAME = s_5a1_a_PBE0.in
|  1> ! DFT SP RKS PBE0 def2-SVP D3BJ Grid6 NOFINALGRID SlowConv TightSCF printbasis 
|  2> 
|  3> %base "_s_5a1_a_PBE0"
|  4> %maxcore 3000
|  5> %scf
|  6>    MaxIter 2000
|  7> end
|  8> %pal
|  9>    nprocs 32
| 10> end
| 11> 
| 12> * xyzfile 4 1 s_5a1_a.xyz
| 13> 
| 14>                          ****END OF INPUT****
================================================================================

                       ****************************
                       * Single Point Calculation *
                       ****************************

---------------------------------
CARTESIAN COORDINATES (ANGSTROEM)
---------------------------------
  Pd     0.193500    6.885600    0.168900
  Pd    -0.179500   -3.929300   -0.164400
  C      6.849100    3.334800   -0.463200
  C      6.674000    4.525600   -0.340400
  C      6.277700    5.868500   -0.185300
  C      7.173200    6.910700   -0.038400
  C      6.719800    8.224300    0.139400
  C      5.380200    8.516500    0.181100
  C      4.432200    7.481800    0.029200
  C      3.040500    7.705900    0.075300
  N      2.162000    6.737700   -0.070300
  C      2.585100    5.466600   -0.292500
  C      3.908200    5.142300   -0.344900
  C      4.880600    6.146200   -0.168100
  H      8.233800    6.710100   -0.055400
  H      7.447000    9.014000    0.251200
  H      5.043500    9.530300    0.328600
  H      2.652300    8.706500    0.240700
  H      1.812200    4.712500   -0.435600
  H      4.227900    4.128500   -0.522900
  C      6.992400    1.941600   -0.629000
  C      8.168300    1.401400   -1.201300
  C      8.273100    0.056200   -1.404500
  C      7.223500   -0.818100   -1.046100
  C      7.302600   -2.209800   -1.257600
  C      6.282700   -3.034600   -0.881400
  C      5.115000   -2.513600   -0.274400
  C      5.003800   -1.156700   -0.078100
  C      6.047700   -0.283500   -0.452500
  C      5.957000    1.107000   -0.256900
  H      8.972300    2.066900   -1.478200
  H      9.167200   -0.359900   -1.845900
  H      8.189800   -2.614900   -1.721700
  H      6.356700   -4.094700   -1.069000
  H      4.133800   -0.739300    0.405000
  H      5.068800    1.519500    0.197000
  C      4.068900   -3.457200    0.148200
  C      4.425600   -4.677600    0.731200
  C      3.442300   -5.589400    1.072800
  C      2.119900   -5.270700    0.823400
  N      1.769800   -4.093200    0.291600
  C      2.709000   -3.202800   -0.034000
  H      5.463500   -4.901000    0.921900
  H      3.697900   -6.536800    1.519000
  H      1.320200   -5.971700    1.054900
  H      2.358200   -2.274000   -0.473200
  C      0.686000    3.315500    6.829100
  C      0.639100    4.511300    6.651200
  C      0.565800    5.860400    6.252700
  C      0.507000    6.912400    7.146900
  C      0.408100    8.233800    6.692100
  C      0.359300    8.524800    5.352400
  C      0.422500    7.479900    4.405700
  C      0.365800    7.703300    3.014300
  N      0.429600    6.725500    2.136800
  C      0.572000    5.443000    2.560200
  C      0.627500    5.119200    3.883300
  C      0.538500    6.135100    4.855100
  H      0.532000    6.713800    8.207700
  H      0.364000    9.031100    7.418300
  H      0.273200    9.545400    5.014900
  H      0.261300    8.711800    2.625400
  H      0.648100    4.679000    1.787400
  H      0.742100    4.096300    4.203300
  C      0.759400    1.914700    6.975100
  C      1.307800    1.339500    8.145800
  C      1.418600   -0.016300    8.253100
  C      0.987100   -0.866700    7.211500
  C      1.101100   -2.269600    7.293800
  C      0.655000   -3.069300    6.282000
  C      0.072200   -2.510600    5.119500
  C     -0.029300   -1.143600    5.004900
  C      0.418000   -0.295600    6.040800
  C      0.318200    1.104800    5.947100
  H      1.639900    1.986500    8.943900
  H      1.841100   -0.459400    9.143400
  H      1.546400   -2.703500    8.177000
  H      0.768000   -4.139700    6.358300
  H     -0.492500   -0.696200    4.139100
  H     -0.117000    1.545200    5.062900
  C     -0.428200   -3.425100    4.081900
  C     -1.092900   -4.599700    4.449000
  C     -1.510000   -5.487000    3.472500
  C     -1.252300   -5.190900    2.146400
  N     -0.640500   -4.056100    1.786600
  C     -0.242600   -3.188300    2.719300
  H     -1.287300   -4.806100    5.489800
  H     -2.020700   -6.399000    3.736100
  H     -1.542400   -5.875200    1.351700
  H      0.257800   -2.294100    2.360800
  C     -6.689600    3.763700    0.637000
  C     -6.432900    4.944900    0.587000
  C     -5.945600    6.264600    0.512200
  C     -6.767900    7.373100    0.442300
  C     -6.226100    8.661200    0.342600
  C     -4.869700    8.862800    0.303800
  C     -3.994600    7.757900    0.378400
  C     -2.591100    7.888600    0.331300
  N     -1.780600    6.855200    0.405100
  C     -2.289000    5.604200    0.549700
  C     -3.631000    5.368800    0.596300
  C     -4.532800    6.446300    0.495500
  H     -7.839700    7.245000    0.459400
  H     -6.897600    9.504500    0.289900
  H     -4.464800    9.858500    0.217000
  H     -2.135700    8.868900    0.226100
  H     -1.569000    4.791300    0.635100
  H     -4.018700    4.369800    0.712600
  C     -6.927900    2.375900    0.715800
  C     -8.136300    1.881900    1.261500
  C     -8.332800    0.536700    1.379200
  C     -7.347200   -0.382600    0.957700
  C     -7.521400   -1.776400    1.079800
  C     -6.561900   -2.643200    0.643900
  C     -5.362700   -2.165300    0.063400
  C     -5.158800   -0.809400   -0.046100
  C     -6.139000    0.107200    0.391000
  C     -5.953400    1.497900    0.283800
  H     -8.891700    2.581800    1.586300
  H     -9.252100    0.155400    1.799800
  H     -8.433100   -2.148800    1.523400
  H     -6.708300   -3.705600    0.763300
  H     -4.263500   -0.422400   -0.507700
  H     -5.040300    1.876900   -0.149500
  C     -4.384800   -3.148900   -0.426000
  C     -4.825000   -4.301500   -1.084700
  C     -3.906800   -5.253800   -1.491200
  C     -2.565300   -5.042800   -1.229700
  N     -2.134800   -3.929300   -0.624200
  C     -3.010400   -3.000100   -0.235900
  H     -5.876100   -4.440900   -1.282800
  H     -4.227300   -6.150300   -1.996700
  H     -1.815500   -5.779700   -1.511400
  H     -2.596200   -2.128000    0.260500
  C     -0.592400    3.782100   -6.693300
  C     -0.461000    4.958700   -6.443800
  C     -0.291200    6.272100   -5.963600
  C     -0.172100    7.372400   -6.791300
  C      0.020800    8.652800   -6.256400
  C      0.104100    8.854500   -4.902100
  C     -0.018400    7.758300   -4.021500
  C      0.067200    7.889200   -2.619700
  N     -0.052300    6.864200   -1.804100
  C     -0.282600    5.623000   -2.304800
  C     -0.373600    5.387800   -3.644500
  C     -0.228800    6.455300   -4.552200
  H     -0.222900    7.243500   -7.861800
  H      0.110100    9.489800   -6.932000
  H      0.262000    9.843800   -4.502900
  H      0.242100    8.862200   -2.170400
  H     -0.399900    4.817900   -1.580400
  H     -0.558700    4.396900   -4.026100
  C     -0.763700    2.401100   -6.921900
  C     -1.362100    1.936300   -8.116900
  C     -1.566700    0.600100   -8.303300
  C     -1.183900   -0.339100   -7.320600
  C     -1.393800   -1.723600   -7.485300
  C     -0.992700   -2.611400   -6.529700
  C     -0.362000   -2.164700   -5.344000
  C     -0.167000   -0.817200   -5.148900
  C     -0.565500    0.120300   -6.125900
  C     -0.369000    1.502400   -5.950300
  H     -1.657200    2.651500   -8.870100
  H     -2.027500    0.241400   -9.212400
  H     -1.876300   -2.072000   -8.386500
  H     -1.178300   -3.665300   -6.668500
  H      0.333900   -0.455500   -4.264200
  H      0.104300    1.857900   -5.047700
  C      0.085900   -3.172300   -4.370500
  C      0.669500   -4.362300   -4.817200
  C      1.035900   -5.333500   -3.902200
  C      0.807700   -5.104800   -2.557400
  N      0.273400   -3.957700   -2.121200
  C     -0.073600   -3.009300   -2.993900
  H      0.841500   -4.515800   -5.871000
  H      1.484300   -6.258300   -4.227300
  H      1.058800   -5.854600   -1.809900
  H     -0.511500   -2.108400   -2.575300

----------------------------
CARTESIAN COORDINATES (A.U.)
----------------------------
  NO LB      ZA    FRAG     MASS         X           Y           Z
   0 Pd   18.0000*   0   106.400    0.365662   13.011898    0.319175
   1 Pd   18.0000*   0   106.400   -0.339206   -7.425301   -0.310671
   2 C     6.0000    0    12.011   12.942923    6.301859   -0.875321
   3 C     6.0000    0    12.011   12.612032    8.552145   -0.643263
   4 C     6.0000    0    12.011   11.863134   11.089858   -0.350166
   5 C     6.0000    0    12.011   13.555384   13.059330   -0.072565
   6 C     6.0000    0    12.011   12.698582   15.541675    0.263428
   7 C     6.0000    0    12.011   10.167105   16.093853    0.342229
   8 C     6.0000    0    12.011    8.375644   14.138553    0.055180
   9 C     6.0000    0    12.011    5.745712   14.562041    0.142296
  10 N     7.0000    0    14.007    4.085588   12.732408   -0.132848
  11 C     6.0000    0    12.011    4.885131   10.330377   -0.552745
  12 C     6.0000    0    12.011    7.385428    9.717539   -0.651767
  13 C     6.0000    0    12.011    9.222997   11.614635   -0.317663
  14 H     1.0000    0     1.008   15.559627   12.680251   -0.104691
  15 H     1.0000    0     1.008   14.072791   17.033991    0.474699
  16 H     1.0000    0     1.008    9.530834   18.009657    0.620964
  17 H     1.0000    0     1.008    5.012121   16.452901    0.454857
  18 H     1.0000    0     1.008    3.424562    8.905334   -0.823165
  19 H     1.0000    0     1.008    7.989573    7.801734   -0.988138
  20 C     6.0000    0    12.011   13.213721    3.669092   -1.188638
  21 C     6.0000    0    12.011   15.435850    2.648262   -2.270128
  22 C     6.0000    0    12.011   15.633893    0.106203   -2.654120
  23 C     6.0000    0    12.011   13.650437   -1.545985   -1.976843
  24 C     6.0000    0    12.011   13.799914   -4.175917   -2.376520
  25 C     6.0000    0    12.011   11.872582   -5.734563   -1.665605
  26 C     6.0000    0    12.011    9.665949   -4.750016   -0.518541
  27 C     6.0000    0    12.011    9.455812   -2.185846   -0.147588
  28 C     6.0000    0    12.011   11.428497   -0.535737   -0.855101
  29 C     6.0000    0    12.011   11.257099    2.091927   -0.485471
  30 H     1.0000    0     1.008   16.955190    3.905875   -2.793393
  31 H     1.0000    0     1.008   17.323497   -0.680112   -3.488245
  32 H     1.0000    0     1.008   15.476479   -4.941445   -3.253541
  33 H     1.0000    0     1.008   12.012422   -7.737862   -2.020117
  34 H     1.0000    0     1.008    7.811750   -1.397075    0.765339
  35 H     1.0000    0     1.008    9.578644    2.871439    0.372276
  36 C     6.0000    0    12.011    7.689107   -6.533161    0.280057
  37 C     6.0000    0    12.011    8.363172   -8.839383    1.381768
  38 C     6.0000    0    12.011    6.505004  -10.562435    2.027298
  39 C     6.0000    0    12.011    4.006030   -9.960180    1.556000
  40 N     7.0000    0    14.007    3.344437   -7.735027    0.551044
  41 C     6.0000    0    12.011    5.119268   -6.052415   -0.064251
  42 H     1.0000    0     1.008   10.324519   -9.261548    1.742139
  43 H     1.0000    0     1.008    6.988018  -12.352762    2.870494
  44 H     1.0000    0     1.008    2.494816  -11.284878    1.993472
  45 H     1.0000    0     1.008    4.456352   -4.297237   -0.894218
  46 C     6.0000    0    12.011    1.296352    6.265387   12.905129
  47 C     6.0000    0    12.011    1.207724    8.525122   12.568946
  48 C     6.0000    0    12.011    1.069207   11.074551   11.815891
  49 C     6.0000    0    12.011    0.958091   13.062543   13.505684
  50 C     6.0000    0    12.011    0.771197   15.559627   12.646236
  51 C     6.0000    0    12.011    0.678979   16.109537   10.114570
  52 C     6.0000    0    12.011    0.798409   14.134963    8.325566
  53 C     6.0000    0    12.011    0.691262   14.557127    5.696201
  54 N     7.0000    0    14.007    0.811826   12.709353    4.037967
  55 C     6.0000    0    12.011    1.080923   10.285779    4.838077
  56 C     6.0000    0    12.011    1.185803    9.673886    7.338373
  57 C     6.0000    0    12.011    1.017618   11.593659    9.174809
  58 H     1.0000    0     1.008    1.005334   12.687243   15.510305
  59 H     1.0000    0     1.008    0.687860   17.066306   14.018555
  60 H     1.0000    0     1.008    0.516273   18.038192    9.476788
  61 H     1.0000    0     1.008    0.493785   16.462916    4.961287
  62 H     1.0000    0     1.008    1.224732    8.842029    3.377696
  63 H     1.0000    0     1.008    1.402366    7.740885    7.943086
  64 C     6.0000    0    12.011    1.435058    3.618259   13.181029
  65 C     6.0000    0    12.011    2.471384    2.531288   15.393331
  66 C     6.0000    0    12.011    2.680765   -0.030803   15.596099
  67 C     6.0000    0    12.011    1.865349   -1.637826   13.627760
  68 C     6.0000    0    12.011    2.080777   -4.288922   13.783284
  69 C     6.0000    0    12.011    1.237771   -5.800136   11.871260
  70 C     6.0000    0    12.011    0.136438   -4.744346    9.674453
  71 C     6.0000    0    12.011   -0.055369   -2.161091    9.457890
  72 C     6.0000    0    12.011    0.789906   -0.558603   11.415458
  73 C     6.0000    0    12.011    0.601311    2.087769   11.238390
  74 H     1.0000    0     1.008    3.098962    3.753941   16.901522
  75 H     1.0000    0     1.008    3.479175   -0.868140   17.278522
  76 H     1.0000    0     1.008    2.922272   -5.108875   15.452291
  77 H     1.0000    0     1.008    1.451310   -7.822899   12.015446
  78 H     1.0000    0     1.008   -0.930690   -1.315627    7.821765
  79 H     1.0000    0     1.008   -0.221098    2.920005    9.567494
  80 C     6.0000    0    12.011   -0.809181   -6.472501    7.713673
  81 C     6.0000    0    12.011   -2.065282   -8.692173    8.407392
  82 C     6.0000    0    12.011   -2.853486  -10.368927    6.562074
  83 C     6.0000    0    12.011   -2.366504   -9.809379    4.056108
  84 N     7.0000    0    14.007   -1.210370   -7.664918    3.376185
  85 C     6.0000    0    12.011   -0.458448   -6.025014    5.138732
  86 H     1.0000    0     1.008   -2.432644   -9.082213   10.374219
  87 H     1.0000    0     1.008   -3.818570  -12.092358    7.060206
  88 H     1.0000    0     1.008   -2.914714  -11.102519    2.554343
  89 H     1.0000    0     1.008    0.487171   -4.335221    4.461265
  90 C     6.0000    0    12.011  -12.641512    7.112362    1.203756
  91 C     6.0000    0    12.011  -12.156419    9.344507    1.109269
  92 C     6.0000    0    12.011  -11.235556   11.838378    0.967918
  93 C     6.0000    0    12.011  -12.789478   13.933140    0.835826
  94 C     6.0000    0    12.011  -11.765624   16.367296    0.647420
  95 C     6.0000    0    12.011   -9.202399   16.748265    0.574099
  96 C     6.0000    0    12.011   -7.548700   14.660306    0.715072
  97 C     6.0000    0    12.011   -4.896469   14.907294    0.626066
  98 N     7.0000    0    14.007   -3.364846   12.954451    0.765528
  99 C     6.0000    0    12.011   -4.325583   10.590403    1.038782
 100 C     6.0000    0    12.011   -6.861596   10.145562    1.126844
 101 C     6.0000    0    12.011   -8.565751   12.181742    0.936359
 102 H     1.0000    0     1.008  -14.814886   13.691066    0.868140
 103 H     1.0000    0     1.008  -13.034575   17.960902    0.547832
 104 H     1.0000    0     1.008   -8.437249   18.629865    0.410071
 105 H     1.0000    0     1.008   -4.035888   16.759792    0.427267
 106 H     1.0000    0     1.008   -2.964980    9.054245    1.200165
 107 H     1.0000    0     1.008   -7.594242    8.257725    1.346619
 108 C     6.0000    0    12.011  -13.091834    4.489800    1.352666
 109 C     6.0000    0    12.011  -15.375379    3.556276    2.383890
 110 C     6.0000    0    12.011  -15.746710    1.014216    2.606310
 111 C     6.0000    0    12.011  -13.884196   -0.723009    1.809791
 112 C     6.0000    0    12.011  -14.213386   -3.356910    2.040526
 113 C     6.0000    0    12.011  -12.400194   -4.994924    1.216795
 114 C     6.0000    0    12.011  -10.134034   -4.091824    0.119809
 115 C     6.0000    0    12.011   -9.748719   -1.529544   -0.087116
 116 C     6.0000    0    12.011  -11.601029    0.202579    0.738883
 117 C     6.0000    0    12.011  -11.250296    2.830621    0.536304
 118 H     1.0000    0     1.008  -16.802878    4.878895    2.997673
 119 H     1.0000    0     1.008  -17.483935    0.293663    3.401129
 120 H     1.0000    0     1.008  -15.936249   -4.060644    2.878809
 121 H     1.0000    0     1.008  -12.676850   -7.002569    1.442428
 122 H     1.0000    0     1.008   -8.056847   -0.798220   -0.959414
 123 H     1.0000    0     1.008   -9.524787    3.546827   -0.282514
 124 C     6.0000    0    12.011   -8.286071   -5.950559   -0.805023
 125 C     6.0000    0    12.011   -9.117929   -8.128657   -2.049786
 126 C     6.0000    0    12.011   -7.382782   -9.928243   -2.817960
 127 C     6.0000    0    12.011   -4.847714   -9.529511   -2.323796
 128 N     7.0000    0    14.007   -4.034187   -7.425301   -1.179567
 129 C     6.0000    0    12.011   -5.688832   -5.669367   -0.445786
 130 H     1.0000    0     1.008  -11.104220   -8.392085   -2.424141
 131 H     1.0000    0     1.008   -7.988439  -11.622383   -3.773216
 132 H     1.0000    0     1.008   -3.430798  -10.922050   -2.856132
 133 H     1.0000    0     1.008   -4.906107   -4.021337    0.492274
 134 C     6.0000    0    12.011   -1.119474    7.147133  -12.648504
 135 C     6.0000    0    12.011   -0.871164    9.370585  -12.177017
 136 C     6.0000    0    12.011   -0.550288   11.852551  -11.269571
 137 C     6.0000    0    12.011   -0.325222   13.931817  -12.833697
 138 C     6.0000    0    12.011    0.039306   16.351422  -11.822883
 139 C     6.0000    0    12.011    0.196720   16.732580   -9.263626
 140 C     6.0000    0    12.011   -0.034771   14.661062   -7.599534
 141 C     6.0000    0    12.011    0.126990   14.908427   -4.950516
 142 N     7.0000    0    14.007   -0.098833   12.971458   -3.409255
 143 C     6.0000    0    12.011   -0.534037   10.625930   -4.355441
 144 C     6.0000    0    12.011   -0.706002   10.181466   -6.887107
 145 C     6.0000    0    12.011   -0.432369   12.198749   -8.602411
 146 H     1.0000    0     1.008   -0.421220   13.688231  -14.856649
 147 H     1.0000    0     1.008    0.208059   17.933123  -13.099582
 148 H     1.0000    0     1.008    0.495108   18.602086   -8.509248
 149 H     1.0000    0     1.008    0.457503   16.747131   -4.101462
 150 H     1.0000    0     1.008   -0.755701    9.104512   -2.986523
 151 H     1.0000    0     1.008   -1.055790    8.308937   -7.608226
 152 C     6.0000    0    12.011   -1.443184    4.537421  -13.080495
 153 C     6.0000    0    12.011   -2.573996    3.659077  -15.338718
 154 C     6.0000    0    12.011   -2.960634    1.134025  -15.690963
 155 C     6.0000    0    12.011   -2.237247   -0.640806  -13.833929
 156 C     6.0000    0    12.011   -2.633900   -3.257132  -14.145167
 157 C     6.0000    0    12.011   -1.875931   -4.934831  -12.339345
 158 C     6.0000    0    12.011   -0.684081   -4.090690  -10.098696
 159 C     6.0000    0    12.011   -0.315584   -1.544284   -9.730011
 160 C     6.0000    0    12.011   -1.068640    0.227334  -11.576273
 161 C     6.0000    0    12.011   -0.697309    2.839125  -11.244437
 162 H     1.0000    0     1.008   -3.131654    5.010609  -16.762060
 163 H     1.0000    0     1.008   -3.831420    0.456180  -17.408913
 164 H     1.0000    0     1.008   -3.545693   -3.915513  -15.848188
 165 H     1.0000    0     1.008   -2.226664   -6.926413  -12.601639
 166 H     1.0000    0     1.008    0.630980   -0.860770   -8.058170
 167 H     1.0000    0     1.008    0.197098    3.510922   -9.538771
 168 C     6.0000    0    12.011    0.162327   -5.994778   -8.259048
 169 C     6.0000    0    12.011    1.265172   -8.243552   -9.103189
 170 C     6.0000    0    12.011    1.957567  -10.078854   -7.374089
 171 C     6.0000    0    12.011    1.526332   -9.646674   -4.832786
 172 N     7.0000    0    14.007    0.516651   -7.478969   -4.008487
 173 C     6.0000    0    12.011   -0.139084   -5.686753   -5.657651
 174 H     1.0000    0     1.008    1.590205   -8.533625  -11.094582
 175 H     1.0000    0     1.008    2.804921  -11.826473   -7.988439
 176 H     1.0000    0     1.008    2.000842  -11.063591   -3.420215
 177 H     1.0000    0     1.008   -0.966595   -3.984299   -4.866612
* core charge reduced due to ECP

--------------------------------
INTERNAL COORDINATES (ANGSTROEM)
--------------------------------
 Pd     0   0   0     0.000000000000     0.00000000     0.00000000
 Pd     1   0   0    10.826462021362     0.00000000     0.00000000
 C      1   2   0     7.569989591142    63.84242270     0.00000000
 C      3   1   2     1.209853086122    53.31626532   184.08925462
 C      4   3   1     1.408719315549   171.95348382     2.31045598
 C      5   4   3     1.381911972594   123.25320922   173.73543342
 C      6   5   4     1.400974432315   120.72444120   181.30008233
 C      7   6   5     1.371731712107   121.30806828     0.38302940
 C      8   7   6     1.411517516717   119.76640431   359.34585983
 C      9   8   7     1.410381122250   122.86960668   179.31129656
 N     10   9   8     1.315436372464   122.57651299   179.82674464
 C     11  10   9     1.357969683019   119.93249149   359.09608860
 C     12  11  10     1.363271748405   122.09620604     1.38068405
 C     13  12  11     1.408770815285   119.70708980   359.84761611
 H      6   5   4     1.079537734403   119.65873371     0.96463735
 H      7   6   5     1.079326257440   118.75900199   179.98415263
 H      8   7   6     1.078384708719   120.61910969   179.36965704
 H     10   9   8     1.085935891294   120.27362376   359.53392736
 H     12  11  10     1.089274451183   116.64303922   181.82470202
 H     13  12  11     1.077813773339   121.19694728   180.04380584
 C      3   1   2     1.410330021662   124.22997599     5.30099590
 C     21   3   1     1.414950225273   120.60615427   157.43467213
 C     22  21   3     1.364491231192   120.02944453   182.57188940
 C     23  22  21     1.412271648798   121.02735137   359.70898614
 C     24  23  22     1.409899978722   122.09449107   179.38226451
 C     25  24  23     1.364557616959   120.88740260   178.89911170
 C     26  25  24     1.415419828178   120.82069012     0.30731353
 C     27  26  25     1.375527804154   119.40616503     0.80885110
 C     28  27  26     1.411517201454   120.83765747   358.87690027
 C     21   3   1     1.380966592644   119.28540545   339.03442659
 H     22  21   3     1.079805473222   119.15721023     2.18221321
 H     23  22  21     1.080457301331   120.26938101   179.68508148
 H     25  24  23     1.080101226738   118.73480734   359.10346733
 H     26  25  24     1.079111565131   119.64424412   178.89955547
 H     28  27  26     1.079123890014   120.70514441   181.54277848
 H     30  21   3     1.079389040152   119.95411121   357.22656491
 C     27  26  25     1.470815056355   118.28333698   181.93262901
 C     37  27  26     1.398749459339   119.87628298    39.54453746
 C     38  37  27     1.383816711129   119.77343783   182.90636049
 C     39  38  37     1.382935938502   118.88831483     0.20278211
 N     40  39  38     1.338614022039   121.63127667   358.37075683
 C     41  40  39     1.334512705073   119.98472234     1.22258334
 H     38  37  27     1.078661420465   119.98447186     3.51013470
 H     39  38  37     1.077957587292   120.84998874   179.73120130
 H     40  39  38     1.088353499558   121.05254052   178.45583864
 H     42  41  40     1.085645761747   116.23872390   179.19263303
 C     19  12  11     7.483034246213    96.22848062   275.14290379
 C     47  19  12     1.209870100465    71.25032116    50.20108802
 C     48  47  19     1.408632652610   171.97779155    15.53483361
 C     49  48  47     1.381938884322   123.24622313   173.78390699
 C     50  49  48     1.400971880517   120.72772756   181.29192245
 C     51  50  49     1.371808488821   121.30710471     0.35834376
 C     52  51  50     1.411400418025   119.76308560   359.37161909
 C     53  52  51     1.410360383023   122.86539366   179.41305620
 N     54  53  52     1.315359087854   122.57820727   179.77187168
 C     55  54  53     1.358069059363   119.94097749   359.17295809
 C     56  55  54     1.363275577424   122.08297837     1.27347585
 C     57  56  55     1.408676346788   119.71425056   359.87013904
 H     50  49  48     1.079520078553   119.65710630     0.94990217
 H     51  50  49     1.079350980914   118.76363247   179.98153577
 H     52  51  50     1.078398729599   120.61310771   179.38335025
 H     54  53  52     1.085926199150   120.28403854   359.50070636
 H     56  55  54     1.089360844716   116.64488613   181.72667625
 H     57  56  55     1.077894971693   121.18829768   180.08085180
 C     47  19  12     1.410299329930   106.14696907   230.53486327
 C     65  47  19     1.414968582690   120.63696328   145.25021839
 C     66  65  47     1.364545187966   120.02881136   182.44551493
 C     67  66  65     1.412197921681   121.03177950   359.70370736
 C     68  67  66     1.409928260586   122.10152723   179.46143850
 C     69  68  67     1.364648137800   120.88925873   178.86677252
 C     70  69  68     1.415347229481   120.81473076     0.33766247
 C     71  70  69     1.375545131939   119.41323756     0.79018370
 C     72  71  70     1.411477984242   120.83241096   358.85868614
 C     65  47  19     1.381079088974   119.26116678   326.77587182
 H     66  65  47     1.079751369529   119.15472730     2.08428726
 H     67  66  65     1.080498935677   120.26520857   179.70940102
 H     69  68  67     1.080094227371   118.73684929   359.08593496
 H     70  69  68     1.079049048932   119.64694654   178.92828842
 H     72  71  70     1.079041537662   120.70213573   181.56043840
 H     74  65  47     1.079426162366   119.95125817   357.32142494
 C     71  70  69     1.470824316497   118.29967763   181.89087593
 C     81  71  70     1.398668531140   119.91278097    39.62800836
 C     82  81  71     1.383772362060   119.77042987   182.86247316
 C     83  82  81     1.382977118394   118.89489168     0.26935405
 N     84  83  82     1.338479107047   121.63136590   358.37023946
 C     85  84  83     1.334664954211   119.97847121     1.15083492
 H     82  81  71     1.078729326569   119.97108190     3.47514679
 H     83  82  81     1.077981191858   120.84565685   179.78601640
 H     84  83  82     1.088105045480   121.06353262   178.46232525
 H     86  85  84     1.085594790887   116.24508539   179.27177981
 C     63  56  55     7.483517591347    97.25789028   275.94879110
 C     91  63  56     1.209805079341    71.26980526    50.30441448
 C     92  91  63     1.408781182441   171.97480773    15.17086989
 C     93  92  91     1.381967998906   123.24796931   173.89967256
 C     94  93  92     1.400960006567   120.72935677   181.28584484
 C     95  94  93     1.371848738017   121.29931437     0.36592528
 C     96  95  94     1.411442234029   119.76795039   359.36933565
 C     97  96  95     1.410359227289   122.86619418   179.36190069
 N     98  97  96     1.315398133646   122.58081087   179.80309118
 C     99  98  97     1.358079791470   119.93294782   359.13209999
 C    100  99  98     1.363286000808   122.08677809     1.32424334
 C    101 100  99     1.408690927777   119.71277444   359.86489906
 H     94  93  92     1.079563458070   119.65408463     0.95848399
 H     95  94  93     1.079279588429   118.76823909   179.99458072
 H     96  95  94     1.078376900717   120.61110228   179.38511627
 H     98  97  96     1.086022232737   120.27653828   359.52991529
 H    100  99  98     1.089265610400   116.63744946   181.77934140
 H    101 100  99     1.077885884498   121.18423479   180.06871219
 C     91  63  56     1.410313855140   106.10772296   230.69993865
 C    109  91  63     1.414939945722   120.62465930   145.27204340
 C    110 109  91     1.364561680541   120.02816620   182.52012557
 C    111 110 109     1.412155126040   121.03112256   359.71035985
 C    112 111 110     1.409940598040   122.10407493   179.41680401
 C    113 112 111     1.364548020408   120.89164580   178.90076498
 C    114 113 112     1.415432548728   120.81574591     0.32018809
 C    115 114 113     1.375510912352   119.41029139     0.79254669
 C    116 115 114     1.411383721743   120.83526408   358.87867137
 C    109  91  63     1.380999004344   119.26902439   326.85180293
 H    110 109  91     1.079807487472   119.15428031     2.14417629
 H    111 110 109     1.080465890253   120.26468688   179.70084942
 H    113 112 111     1.080120183128   118.72993923   359.10304660
 H    114 113 112     1.079065836731   119.64801783   178.90921379
 H    116 115 114     1.079076294800   120.70183641   181.55594824
 H    118 109  91     1.079417203865   119.95130278   357.25979202
 C    115 114 113     1.470805809752   118.29257910   181.89541329
 C    125 115 114     1.398623784297   119.90489797    39.60925265
 C    126 125 115     1.383910683534   119.77485565   182.87485969
 C    127 126 125     1.382940888108   118.88605606     0.22637396
 N    128 127 126     1.338597306885   121.62904979   358.37943888
 C    129 128 127     1.334490498280   119.98745872     1.18515007
 H    126 125 115     1.078650629259   119.97991323     3.48007086
 H    127 126 125     1.077943760129   120.84854407   179.75556322
 H    128 127 126     1.088382533855   121.06606171   178.46230370
 H    130 129 128     1.085602602244   116.23582983   179.22234747
 C     19  12  11     6.768053975110   117.95192077    87.02878150
 C    135  19  12     1.209918910506    68.71968326   317.54149954
 C    136 135  19     1.408702821748   171.91330350   345.40197521
 C    137 136 135     1.382002963094   123.26622991   174.20598907
 C    138 137 136     1.400982719380   120.71954480   181.23277806
 C    139 138 137     1.371769029392   121.31101431     0.33278966
 C    140 139 138     1.411423766981   119.76842441   359.39241875
 C    141 140 139     1.410498284295   122.86877651   179.49356834
 N    142 141 140     1.315335930476   122.57567040   179.76564636
 C    143 142 141     1.358055970864   119.93446671   359.22712041
 C    144 143 142     1.363230035614   122.09541352     1.18475406
 C    145 144 143     1.408702445515   119.71103499   359.89142578
 H    138 137 136     1.079428598843   119.65852365     0.90170624
 H    139 138 137     1.079341859653   118.75952195   179.97800738
 H    140 139 138     1.078428272997   120.61254257   179.42264888
 H    142 141 140     1.085904922173   120.27390186   359.50534848
 H    144 143 142     1.089357911799   116.65105179   181.63886014
 H    145 144 143     1.077851279166   121.19842855   180.11827558
 C    135  19  12     1.410234962692   109.12639252   139.20790181
 C    153 135  19     1.414972296549   120.66034432   174.64975694
 C    154 153 135     1.364564604553   120.02864427   182.42980882
 C    155 154 153     1.412208118515   121.03327611   359.69836563
 C    156 155 154     1.409973173504   122.10047978   179.50927154
 C    157 156 155     1.364639663061   120.88172814   178.83768917
 C    158 157 156     1.415347261275   120.81619400     0.36638146
 C    159 158 157     1.375443659333   119.41985091     0.77775355
 C    160 159 158     1.411466436016   120.83040680   358.83318730
 C    153 135  19     1.381106925622   119.24003507   356.17605616
 H    154 153 135     1.079770943302   119.15114277     2.06239014
 H    155 154 153     1.080493007844   120.26193284   179.71625366
 H    157 156 155     1.079976967347   118.73472462   359.07030973
 H    158 157 156     1.079082021906   119.65428932   178.96473049
 H    160 159 158     1.079083773393   120.69612807   181.55554257
 H    162 153 135     1.079388669572   119.95182555   357.32188951
 C    159 158 157     1.470909385380   118.29047230   181.90021742
 C    169 159 158     1.398652869729   119.90132791    39.80577599
 C    170 169 159     1.383728080224   119.76614123   182.84576212
 C    171 170 169     1.383063978997   118.89547796     0.33947084
 N    172 171 170     1.338501154277   121.63092623   358.34301848
 C    173 172 171     1.334719764595   119.97696946     1.11407969
 H    170 169 159     1.078721785263   119.97360561     3.46615689
 H    171 170 169     1.077964568063   120.85478969   179.81779816
 H    172 171 170     1.088121087012   121.06023635   178.44122617
 H    174 173 172     1.085634920219   116.25741563   179.33094705

---------------------------
INTERNAL COORDINATES (A.U.)
---------------------------
 Pd     0   0   0     0.000000000000     0.00000000     0.00000000
 Pd     1   0   0    20.459048219674     0.00000000     0.00000000
 C      1   2   0    14.305207163893    63.84242270     0.00000000
 C      3   1   2     2.286290995051    53.31626532   184.08925462
 C      4   3   1     2.662093705952   171.95348382     2.31045598
 C      5   4   3     2.611435169390   123.25320922   173.73543342
 C      6   5   4     2.647457997701   120.72444120   181.30008233
 C      7   6   5     2.592197265097   121.30806828     0.38302940
 C      8   7   6     2.667381539828   119.76640431   359.34585983
 C      9   8   7     2.665234065506   122.86960668   179.31129656
 N     10   9   8     2.485814490555   122.57651299   179.82674464
 C     11  10   9     2.566190799075   119.93249149   359.09608860
 C     12  11  10     2.576210250598   122.09620604     1.38068405
 C     13  12  11     2.662191026350   119.70708980   359.84761611
 H      6   5   4     2.040030669256   119.65873371     0.96463735
 H      7   6   5     2.039631035712   118.75900199   179.98415263
 H      8   7   6     2.037851766488   120.61910969   179.36965704
 H     10   9   8     2.052121433541   120.27362376   359.53392736
 H     12  11  10     2.058430397413   116.64303922   181.82470202
 H     13  12  11     2.036772854980   121.19694728   180.04380584
 C      3   1   2     2.665137499388   124.22997599     5.30099590
 C     21   3   1     2.673868418896   120.60615427   157.43467213
 C     22  21   3     2.578514739090   120.02944453   182.57188940
 C     23  22  21     2.668806642931   121.02735137   359.70898614
 C     24  23  22     2.664324836006   122.09449107   179.38226451
 C     25  24  23     2.578640190008   120.88740260   178.89911170
 C     26  25  24     2.674755839779   120.82069012     0.30731353
 C     27  26  25     2.599370839445   119.40616503     0.80885110
 C     28  27  26     2.667380944067   120.83765747   358.87690027
 C     21   3   1     2.609648660192   119.28540545   339.03442659
 H     22  21   3     2.040536622299   119.15721023     2.18221321
 H     23  22  21     2.041768398912   120.26938101   179.68508148
 H     25  24  23     2.041095515446   118.73480734   359.10346733
 H     26  25  24     2.039225326045   119.64424412   178.89955547
 H     28  27  26     2.039248616699   120.70514441   181.54277848
 H     30  21   3     2.039749677843   119.95411121   357.22656491
 C     27  26  25     2.779437650159   118.28333698   181.93262901
 C     37  27  26     2.643253408120   119.87628298    39.54453746
 C     38  37  27     2.615034603578   119.77343783   182.90636049
 C     39  38  37     2.613370184526   118.88831483     0.20278211
 N     40  39  38     2.529613900681   121.63127667   358.37075683
 C     41  40  39     2.521863534826   119.98472234     1.22258334
 H     38  37  27     2.038374675906   119.98447186     3.51013470
 H     39  38  37     2.037044623964   120.84998874   179.73120130
 H     40  39  38     2.056690051059   121.05254052   178.45583864
 H     42  41  40     2.051573168155   116.23872390   179.19263303
 C     19  12  11    14.140885376097    96.22848062   275.14290379
 C     47  19  12     2.286323147499    71.25032116    50.20108802
 C     48  47  19     2.661929936733   171.97779155    15.53483361
 C     49  48  47     2.611486025184   123.24622313   173.78390699
 C     50  49  48     2.647453175502   120.72772756   181.29192245
 C     51  50  49     2.592342352059   121.30710471     0.35834376
 C     52  51  50     2.667160255368   119.76308560   359.37161909
 C     53  52  51     2.665194874045   122.86539366   179.41305620
 N     54  53  52     2.485668443808   122.57820727   179.77187168
 C     55  54  53     2.566378593149   119.94097749   359.17295809
 C     56  55  54     2.576217486394   122.08297837     1.27347585
 C     57  56  55     2.662012506762   119.71425056   359.87013904
 H     50  49  48     2.039997304535   119.65710630     0.94990217
 H     51  50  49     2.039677756307   118.76363247   179.98153577
 H     52  51  50     2.037878262110   120.61310771   179.38335025
 H     54  53  52     2.052103118043   120.28403854   359.50070636
 H     56  55  54     2.058593657530   116.64488613   181.72667625
 H     57  56  55     2.036926297630   121.18829768   180.08085180
 C     47  19  12     2.665079500420   106.14696907   230.53486327
 C     65  47  19     2.673903109387   120.63696328   145.25021839
 C     66  65  47     2.578616702615   120.02881136   182.44551493
 C     67  66  65     2.668667318870   121.03177950   359.70370736
 C     68  67  66     2.664378280984   122.10152723   179.46143850
 C     69  68  67     2.578811249607   120.88925873   178.86677252
 C     70  69  68     2.674618648124   120.81473076     0.33766247
 C     71  70  69     2.599403584213   119.41323756     0.79018370
 C     72  71  70     2.667306834277   120.83241096   358.85868614
 C     65  47  19     2.609861247445   119.26116678   326.77587182
 H     66  65  47     2.040434381136   119.15472730     2.08428726
 H     67  66  65     2.041847076424   120.26520857   179.70940102
 H     69  68  67     2.041082288560   118.73684929   359.08593496
 H     70  69  68     2.039107187549   119.64694654   178.92828842
 H     72  71  70     2.039092993306   120.70213573   181.56043840
 H     74  65  47     2.039819828661   119.95125817   357.32142494
 C     71  70  69     2.779455149292   118.29967763   181.89087593
 C     81  71  70     2.643100475988   119.91278097    39.62800836
 C     82  81  71     2.614950795982   119.77042987   182.86247316
 C     83  82  81     2.613448003243   118.89489168     0.26935405
 N     84  83  82     2.529358948293   121.63136590   358.37023946
 C     85  84  83     2.522151244002   119.97847121     1.15083492
 H     82  81  71     2.038502999845   119.97108190     3.47514679
 H     83  82  81     2.037089230130   120.84565685   179.78601640
 H     84  83  82     2.056220540896   121.06353262   178.46232525
 H     86  85  84     2.051476847187   116.24508539   179.27177981
 C     63  56  55    14.141798766028    97.25789028   275.94879110
 C     91  63  56     2.286200275382    71.26980526    50.30441448
 C     92  91  63     2.662210617435   171.97480773    15.17086989
 C     93  92  91     2.611541043775   123.24796931   173.89967256
 C     94  93  92     2.647430736988   120.72935677   181.28584484
 C     95  94  93     2.592418412018   121.29931437     0.36592528
 C     96  95  94     2.667239276164   119.76795039   359.36933565
 C     97  96  95     2.665192690026   122.86619418   179.36190069
 N     98  97  96     2.485742229663   122.58081087   179.80309118
 C     99  98  97     2.566398873892   119.93294782   359.13209999
 C    100  99  98     2.576237183737   122.08677809     1.32424334
 C    101 100  99     2.662040060837   119.71277444   359.86489906
 H     94  93  92     2.040079279941   119.65408463     0.95848399
 H     95  94  93     2.039542844063   118.76823909   179.99458072
 H     96  95  94     2.037837011502   120.61110228   179.38511627
 H     98  97  96     2.052284595223   120.27653828   359.52991529
 H    100  99  98     2.058413690754   116.63744946   181.77934140
 H    101 100  99     2.036909125321   121.18423479   180.06871219
 C     91  63  56     2.665106949089   106.10772296   230.69993865
 C    109  91  63     2.673848993360   120.62465930   145.27204340
 C    110 109  91     2.578647869065   120.02816620   182.52012557
 C    111 110 109     2.668586446828   121.03112256   359.71035985
 C    112 111 110     2.664401595392   122.10407493   179.41680401
 C    113 112 111     2.578622055156   120.89164580   178.90076498
 C    114 113 112     2.674779878135   120.81574591     0.32018809
 C    115 114 113     2.599338918566   119.41029139     0.79254669
 C    116 115 114     2.667128703968   120.83526408   358.87867137
 C    109  91  63     2.609709909429   119.26902439   326.85180293
 H    110 109  91     2.040540428679   119.15428031     2.14417629
 H    111 110 109     2.041784629621   120.26468688   179.70084942
 H    113 112 111     2.041131337832   118.72993923   359.10304660
 H    114 113 112     2.039138911892   119.64801783   178.90921379
 H    116 115 114     2.039158674779   120.70183641   181.55594824
 H    118 109  91     2.039802899548   119.95130278   357.25979202
 C    115 114 113     2.779420176611   118.29257910   181.89541329
 C    125 115 114     2.643015916709   119.90489797    39.60925265
 C    126 125 115     2.615212185687   119.77485565   182.87485969
 C    127 126 125     2.613379537925   118.88605606     0.22637396
 N    128 127 126     2.529582313617   121.62904979   358.37943888
 C    129 128 127     2.521821570070   119.98745872     1.18515007
 H    126 125 115     2.038354283481   119.97991323     3.48007086
 H    127 126 125     2.037018494412   120.84854407   179.75556322
 H    128 127 126     2.056744917929   121.06606171   178.46230370
 H    130 129 128     2.051491608514   116.23582983   179.22234747
 C     19  12  11    12.789768472555   117.95192077    87.02878150
 C    135  19  12     2.286415385109    68.71968326   317.54149954
 C    136 135  19     2.662062537185   171.91330350   345.40197521
 C    137 136 135     2.611607116515   123.26622991   174.20598907
 C    138 137 136     2.647473657984   120.71954480   181.23277806
 C    139 138 137     2.592267784546   121.31101431     0.33278966
 C    140 139 138     2.667204378502   119.76842441   359.39241875
 C    141 140 139     2.665455469684   122.86877651   179.49356834
 N    142 141 140     2.485624682705   122.57567040   179.76564636
 C    143 142 141     2.566353859470   119.93446671   359.22712041
 C    144 143 142     2.576131424846   122.09541352     1.18475406
 C    145 144 143     2.662061826209   119.71103499   359.89142578
 H    138 137 136     2.039824432935   119.65852365     0.90170624
 H    139 138 137     2.039660519622   118.75952195   179.97800738
 H    140 139 138     2.037934091043   120.61254257   179.42264888
 H    142 141 140     2.052062910384   120.27390186   359.50534848
 H    144 143 142     2.058588115121   116.65105179   181.63886014
 H    145 144 143     2.036843730721   121.19842855   180.11827558
 C    135  19  12     2.664957863969   109.12639252   139.20790181
 C    153 135  19     2.673910127562   120.66034432   174.64975694
 C    154 153 135     2.578653394648   120.02864427   182.42980882
 C    155 154 153     2.668686588094   121.03327611   359.69836563
 C    156 155 154     2.664463154098   122.10047978   179.50927154
 C    157 156 155     2.578795234672   120.88172814   178.83768917
 C    158 157 156     2.674618708206   120.81619400     0.36638146
 C    159 158 157     2.599211828778   119.41985091     0.77775355
 C    160 159 158     2.667285011292   120.83040680   358.83318730
 C    153 135  19     2.609913851087   119.24003507   356.17605616
 H    154 153 135     2.040471370207   119.15114277     2.06239014
 H    155 154 153     2.041835874442   120.26193284   179.71625366
 H    157 156 155     2.040860699229   118.73472462   359.07030973
 H    158 157 156     2.039169497440   119.65428932   178.96473049
 H    160 159 158     2.039172807271   120.69612807   181.55554257
 H    162 153 135     2.039748977548   119.95182555   357.32188951
 C    159 158 157     2.779615906183   118.29047230   181.90021742
 C    169 159 158     2.643070880210   119.90132791    39.80577599
 C    170 169 159     2.614867115440   119.76614123   182.84576212
 C    171 170 169     2.613612145996   118.89547796     0.33947084
 N    172 171 170     2.529400611520   121.63092623   358.34301848
 C    173 172 171     2.522254820616   119.97696946     1.11407969
 H    170 169 159     2.038488748841   119.97360561     3.46615689
 H    171 170 169     2.037057815710   120.85478969   179.81779816
 H    172 171 170     2.056250854997   121.06023635   178.44122617
 H    174 173 172     2.051552680636   116.25741563   179.33094705

---------------------
BASIS SET INFORMATION
---------------------
There are 4 groups of distinct atoms

 Group   1 Type Pd  : 7s6p5d1f contracted to 5s3p2d1f pattern {31111/411/41/1}
 Group   2 Type C   : 7s4p1d contracted to 3s2p1d pattern {511/31/1}
 Group   3 Type N   : 7s4p1d contracted to 3s2p1d pattern {511/31/1}
 Group   4 Type H   : 4s1p contracted to 2s1p pattern {31/1}

Atom   0Pd   basis set group =>   1
Atom   1Pd   basis set group =>   1
Atom   2C    basis set group =>   2
Atom   3C    basis set group =>   2
Atom   4C    basis set group =>   2
Atom   5C    basis set group =>   2
Atom   6C    basis set group =>   2
Atom   7C    basis set group =>   2
Atom   8C    basis set group =>   2
Atom   9C    basis set group =>   2
Atom  10N    basis set group =>   3
Atom  11C    basis set group =>   2
Atom  12C    basis set group =>   2
Atom  13C    basis set group =>   2
Atom  14H    basis set group =>   4
Atom  15H    basis set group =>   4
Atom  16H    basis set group =>   4
Atom  17H    basis set group =>   4
Atom  18H    basis set group =>   4
Atom  19H    basis set group =>   4
Atom  20C    basis set group =>   2
Atom  21C    basis set group =>   2
Atom  22C    basis set group =>   2
Atom  23C    basis set group =>   2
Atom  24C    basis set group =>   2
Atom  25C    basis set group =>   2
Atom  26C    basis set group =>   2
Atom  27C    basis set group =>   2
Atom  28C    basis set group =>   2
Atom  29C    basis set group =>   2
Atom  30H    basis set group =>   4
Atom  31H    basis set group =>   4
Atom  32H    basis set group =>   4
Atom  33H    basis set group =>   4
Atom  34H    basis set group =>   4
Atom  35H    basis set group =>   4
Atom  36C    basis set group =>   2
Atom  37C    basis set group =>   2
Atom  38C    basis set group =>   2
Atom  39C    basis set group =>   2
Atom  40N    basis set group =>   3
Atom  41C    basis set group =>   2
Atom  42H    basis set group =>   4
Atom  43H    basis set group =>   4
Atom  44H    basis set group =>   4
Atom  45H    basis set group =>   4
Atom  46C    basis set group =>   2
Atom  47C    basis set group =>   2
Atom  48C    basis set group =>   2
Atom  49C    basis set group =>   2
Atom  50C    basis set group =>   2
Atom  51C    basis set group =>   2
Atom  52C    basis set group =>   2
Atom  53C    basis set group =>   2
Atom  54N    basis set group =>   3
Atom  55C    basis set group =>   2
Atom  56C    basis set group =>   2
Atom  57C    basis set group =>   2
Atom  58H    basis set group =>   4
Atom  59H    basis set group =>   4
Atom  60H    basis set group =>   4
Atom  61H    basis set group =>   4
Atom  62H    basis set group =>   4
Atom  63H    basis set group =>   4
Atom  64C    basis set group =>   2
Atom  65C    basis set group =>   2
Atom  66C    basis set group =>   2
Atom  67C    basis set group =>   2
Atom  68C    basis set group =>   2
Atom  69C    basis set group =>   2
Atom  70C    basis set group =>   2
Atom  71C    basis set group =>   2
Atom  72C    basis set group =>   2
Atom  73C    basis set group =>   2
Atom  74H    basis set group =>   4
Atom  75H    basis set group =>   4
Atom  76H    basis set group =>   4
Atom  77H    basis set group =>   4
Atom  78H    basis set group =>   4
Atom  79H    basis set group =>   4
Atom  80C    basis set group =>   2
Atom  81C    basis set group =>   2
Atom  82C    basis set group =>   2
Atom  83C    basis set group =>   2
Atom  84N    basis set group =>   3
Atom  85C    basis set group =>   2
Atom  86H    basis set group =>   4
Atom  87H    basis set group =>   4
Atom  88H    basis set group =>   4
Atom  89H    basis set group =>   4
Atom  90C    basis set group =>   2
Atom  91C    basis set group =>   2
Atom  92C    basis set group =>   2
Atom  93C    basis set group =>   2
Atom  94C    basis set group =>   2
Atom  95C    basis set group =>   2
Atom  96C    basis set group =>   2
Atom  97C    basis set group =>   2
Atom  98N    basis set group =>   3
Atom  99C    basis set group =>   2
Atom 100C    basis set group =>   2
Atom 101C    basis set group =>   2
Atom 102H    basis set group =>   4
Atom 103H    basis set group =>   4
Atom 104H    basis set group =>   4
Atom 105H    basis set group =>   4
Atom 106H    basis set group =>   4
Atom 107H    basis set group =>   4
Atom 108C    basis set group =>   2
Atom 109C    basis set group =>   2
Atom 110C    basis set group =>   2
Atom 111C    basis set group =>   2
Atom 112C    basis set group =>   2
Atom 113C    basis set group =>   2
Atom 114C    basis set group =>   2
Atom 115C    basis set group =>   2
Atom 116C    basis set group =>   2
Atom 117C    basis set group =>   2
Atom 118H    basis set group =>   4
Atom 119H    basis set group =>   4
Atom 120H    basis set group =>   4
Atom 121H    basis set group =>   4
Atom 122H    basis set group =>   4
Atom 123H    basis set group =>   4
Atom 124C    basis set group =>   2
Atom 125C    basis set group =>   2
Atom 126C    basis set group =>   2
Atom 127C    basis set group =>   2
Atom 128N    basis set group =>   3
Atom 129C    basis set group =>   2
Atom 130H    basis set group =>   4
Atom 131H    basis set group =>   4
Atom 132H    basis set group =>   4
Atom 133H    basis set group =>   4
Atom 134C    basis set group =>   2
Atom 135C    basis set group =>   2
Atom 136C    basis set group =>   2
Atom 137C    basis set group =>   2
Atom 138C    basis set group =>   2
Atom 139C    basis set group =>   2
Atom 140C    basis set group =>   2
Atom 141C    basis set group =>   2
Atom 142N    basis set group =>   3
Atom 143C    basis set group =>   2
Atom 144C    basis set group =>   2
Atom 145C    basis set group =>   2
Atom 146H    basis set group =>   4
Atom 147H    basis set group =>   4
Atom 148H    basis set group =>   4
Atom 149H    basis set group =>   4
Atom 150H    basis set group =>   4
Atom 151H    basis set group =>   4
Atom 152C    basis set group =>   2
Atom 153C    basis set group =>   2
Atom 154C    basis set group =>   2
Atom 155C    basis set group =>   2
Atom 156C    basis set group =>   2
Atom 157C    basis set group =>   2
Atom 158C    basis set group =>   2
Atom 159C    basis set group =>   2
Atom 160C    basis set group =>   2
Atom 161C    basis set group =>   2
Atom 162H    basis set group =>   4
Atom 163H    basis set group =>   4
Atom 164H    basis set group =>   4
Atom 165H    basis set group =>   4
Atom 166H    basis set group =>   4
Atom 167H    basis set group =>   4
Atom 168C    basis set group =>   2
Atom 169C    basis set group =>   2
Atom 170C    basis set group =>   2
Atom 171C    basis set group =>   2
Atom 172N    basis set group =>   3
Atom 173C    basis set group =>   2
Atom 174H    basis set group =>   4
Atom 175H    basis set group =>   4
Atom 176H    basis set group =>   4
Atom 177H    basis set group =>   4

-------------------------
BASIS SET IN INPUT FORMAT
-------------------------

 # Basis set for element : H 
 NewGTO H 
 S 3 
   1      13.0107010000      0.0334854848
   2       1.9622572000      0.2347218709
   3       0.4445379600      0.8137702853
 S 1 
   1       0.1219496200      1.0000000000
 P 1 
   1       0.8000000000      1.0000000000
  end;

 # Basis set for element : C 
 NewGTO C 
 S 5 
   1    1238.4016938000      0.0055173650
   2     186.2900499200      0.0410888285
   3      42.2511763460      0.1822538213
   4      11.6765579320      0.4682845944
   5       3.5930506482      0.4457581734
 S 1 
   1       0.4024514736      1.0000000000
 S 1 
   1       0.1309018267      1.0000000000
 P 3 
   1       9.4680970621      0.0568883320
   2       2.0103545142      0.3129405934
   3       0.5477100471      0.7606501651
 P 1 
   1       0.1526861379      1.0000000000
 D 1 
   1       0.8000000000      1.0000000000
  end;

 # Basis set for element : N 
 NewGTO N 
 S 5 
   1    1712.8415853000     -0.0054477995
   2     257.6481267700     -0.0406271746
   3      58.4582458530     -0.1811196225
   4      16.1983679050     -0.4684397556
   5       5.0052600809     -0.4461684629
 S 1 
   1       0.5873185657      1.0000000000
 S 1 
   1       0.1876459225      1.0000000000
 P 3 
   1      13.5714702330     -0.0588481170
   2       2.9257372874     -0.3202462476
   3       0.7992775075     -0.7532822652
 P 1 
   1       0.2195434803      1.0000000000
 D 1 
   1       1.0000000000      1.0000000000
  end;

 # Basis set for element : Pd
 NewGTO Pd
 S 3 
   1       8.4756400000      2.1727229431
   2       7.1657170000     -2.9039633126
   3       3.1821100000     -0.2310570076
 S 1 
   1       1.3973644196      1.0000000000
 S 1 
   1       0.6053295587      1.0000000000
 S 1 
   1       0.1022951421      1.0000000000
 S 1 
   1       0.0373389729      1.0000000000
 P 4 
   1       4.2460970000     -0.8346018694
   2       3.3925940000      0.8828643810
   3       1.1975891264      0.6438870170
   4       0.5267375059      0.2760105151
 P 1 
   1       0.2060709410      1.0000000000
 P 1 
   1       0.0370000000      1.0000000000
 D 4 
   1       7.3613290985     -0.0186922795
   2       2.6291037258      0.2533662423
   3       1.1292744634      0.4840070353
   4       0.4447165990      0.4270306822
 D 1 
   1       0.1554489384      1.0000000000
 F 1 
   1       1.2462900000      1.0000000000
  end;

-------------------------
ECP PARAMETER INFORMATION
-------------------------

 Group 1, Type Pd ECP Def2-ECP (replacing 28 core electrons, lmax=3)

Atom   0Pd   ECP group =>   1
Atom   1Pd   ECP group =>   1


-------------------------
ECP BASIS IN INPUT FORMAT
-------------------------

 #ECP Def2-ECP
 NewECP Pd
   N_core 28
   lmax f
   s 4
     1      12.4300000000    240.2290403000  2
     2       6.1707594000     35.1719435000  2
     3      13.2700000000     31.9295543000  2
     4       6.6300000000      5.3982169000  2
   p 4
     1      11.0800000000    170.4172760000  2
     2       5.8295541000     28.4721329000  2
     3      13.2700000000     31.9295543000  2
     4       6.6300000000      5.3982169000  2
   d 4
     1       9.5100000000     69.0138449000  2
     2       4.1397811000     11.7508616000  2
     3      13.2700000000     31.9295543000  2
     4       6.6300000000      5.3982169000  2
   f 2
     1      13.2700000000    -31.9295543000  2
     2       6.6300000000     -5.3982169000  2
 End




           ************************************************************
           *        Program running with 32 parallel MPI-processes    *
           *              working on a common directory               *
           ************************************************************
------------------------------------------------------------------------------
                           ORCA GTO INTEGRAL CALCULATION
------------------------------------------------------------------------------

                         BASIS SET STATISTICS AND STARTUP INFO

 # of primitive gaussian shells          ... 1702
 # of primitive gaussian functions       ... 3250
 # of contracted shells                  ...  886
 # of contracted basis functions         ... 1950
 Highest angular momentum                ...    3
 Maximum contraction depth               ...    5
 Integral package used                   ... LIBINT
 Integral threshhold            Thresh   ...  2.500e-11
 Primitive cut-off              TCut     ...  2.500e-12


------------------------------ INTEGRAL EVALUATION ----------------------------


 * One electron integrals 

   ECP integrals                         ... done
 Pre-screening matrix                    ... done
 Shell pair data                         ... done (   0.034 sec)



           ************************************************************
           *        Program running with 32 parallel MPI-processes    *
           *              working on a common directory               *
           ************************************************************
-------------------------------------------------------------------------------
                                 ORCA SCF
-------------------------------------------------------------------------------

------------
SCF SETTINGS
------------
Hamiltonian:
 Density Functional     Method          .... DFT(GTOs)
 Exchange Functional    Exchange        .... PBE
   PBE kappa parameter   XKappa         ....  0.804000
   PBE mue parameter    XMuePBE         ....  0.219520
 Correlation Functional Correlation     .... PBE
   PBE beta parameter  CBetaPBE         ....  0.066725
 LDA part of GGA corr.  LDAOpt          .... PW91-LDA
 Gradients option       PostSCFGGA      .... off
 Hybrid DFT is turned on
   Fraction HF Exchange ScalHFX         ....  0.250000
   Scaling of DF-GGA-X  ScalDFX         ....  0.750000
   Scaling of DF-GGA-C  ScalDFC         ....  1.000000
   Scaling of DF-LDA-C  ScalLDAC        ....  1.000000
   Perturbative correction              ....  0.000000
   Density functional embedding theory  .... OFF
   NL short-range parameter             ....  6.900000


General Settings:
 Integral files         IntName         .... _s_5a1_a_PBE0
 Hartree-Fock type      HFTyp           .... RHF
 Total Charge           Charge          ....    4
 Multiplicity           Mult            ....    1
 Number of Electrons    NEL             ....  776
 Basis Dimension        Dim             .... 1950
 Nuclear Repulsion      ENuc            ....  21868.9883601956 Eh

Convergence Acceleration:
 DIIS                   CNVDIIS         .... on
   Start iteration      DIISMaxIt       ....     0
   Startup error        DIISStart       ....  0.200000
   # of expansion vecs  DIISMaxEq       ....     5
   Bias factor          DIISBfac        ....   1.050
   Max. coefficient     DIISMaxC        ....  10.000
 Newton-Raphson         CNVNR           .... off
 SOSCF                  CNVSOSCF        .... off
 Level Shifting         CNVShift        .... on
   Level shift para.    LevelShift      ....    0.2500
   Turn off err/grad.   ShiftErr        ....    0.0000
 Zerner damping         CNVZerner       .... off
 Static damping         CNVDamp         .... on
   Fraction old density DampFac         ....    0.8500
   Max. Damping (<1)    DampMax         ....    0.9800
   Min. Damping (>=0)   DampMin         ....    0.0000
   Turn off err/grad.   DampErr         ....    0.0300
 Fernandez-Rico         CNVRico         .... off

SCF Procedure:
 Maximum # iterations   MaxIter         ....  2000
 SCF integral mode      SCFMode         .... Direct
   Integral package                     .... LIBINT
 Reset frequency        DirectResetFreq ....    20
 Integral Threshold     Thresh          ....  2.500e-11 Eh
 Primitive CutOff       TCut            ....  2.500e-12 Eh

Convergence Tolerance:
 Convergence Check Mode ConvCheckMode   .... Total+1el-Energy
 Convergence forced     ConvForced      .... 0
 Energy Change          TolE            ....  1.000e-08 Eh
 1-El. energy change                    ....  1.000e-05 Eh
 DIIS Error             TolErr          ....  5.000e-07


Diagonalization of the overlap matrix:
Smallest eigenvalue                        ... 2.369e-04
Time for diagonalization                   ...    0.594 sec
Threshold for overlap eigenvalues          ... 1.000e-08
Number of eigenvalues below threshold      ... 0
Time for construction of square roots      ...    0.440 sec
Total time needed                          ...    1.040 sec

-------------------
DFT GRID GENERATION
-------------------

General Integration Accuracy     IntAcc      ...  5.340
Radial Grid Type                 RadialGrid  ... Gauss-Chebyshev
Angular Grid (max. acc.)         AngularGrid ... Lebedev-590
Angular grid pruning method      GridPruning ... 3 (G Style)
Weight generation scheme         WeightScheme... Becke
Basis function cutoff            BFCut       ...    1.0000e-11
Integration weight cutoff        WCut        ...    1.0000e-14
Grids for H and He will be reduced by one unit

# of grid points (after initial pruning)     ... 2602788 (   0.0 sec)
# of grid points (after weights+screening)   ... 2135074 (  15.4 sec)
nearest neighbour list constructed           ...    0.0 sec
Grid point re-assignment to atoms done       ...    0.3 sec
Grid point division into batches done        ...   21.9 sec
Reduced shell lists constructed in   23.0 sec

Total number of grid points                  ...  2135074
Total number of batches                      ...    33455
Average number of points per batch           ...       63
Average number of grid points per atom       ...    11995
Average number of shells per batch           ...   137.85 (15.56%)
Average number of basis functions per batch  ...   282.21 (14.47%)
Average number of large shells per batch     ...    78.22 (56.75%)
Average number of large basis fcns per batch ...   161.72 (57.31%)
Maximum spatial batch extension              ...  14.29,  5.60, 17.37 au
Average spatial batch extension              ...   0.03,  0.03,  0.03 au

Time for grid setup =   39.268 sec

------------------------------
INITIAL GUESS: MODEL POTENTIAL
------------------------------
Loading Hartree-Fock densities                     ... done
  calling /work/e05/e05/atarzia/orca_4_2_1_linux_x86-64_openmpi314/orca _s_5a1_a_PBE0_atom46.inp > _s_5a1_a_PBE0_atom46.out in order to generate an atomic fitting density for atom 0 (Pd with ECP) on-the-fly... 
    atom 0 (Pd), assumed electronic state with S=3: 1s2 2s2 2p6 3s2 3p6 4s2 3d10 4p6 5s2 4d8           ... done
Calculating cut-offs                               ... done
Setting up the integral package                    ... done
Initializing the effective Hamiltonian             ... done
Starting the Coulomb interaction                   ... done (   0.9 sec)
Reading the grid                                   ... done
Mapping shells                                     ... done
Starting the XC term evaluation                    ... done (   1.1 sec)
  promolecular density results
     # of electrons  =    835.955852386
     EX              =   -880.921097288
     EC              =    -30.009259252
     EX+EC           =   -910.930356539
Transforming the Hamiltonian                       ... done (   0.3 sec)
Diagonalizing the Hamiltonian                      ... done (   0.5 sec)
Back transforming the eigenvectors                 ... done (   0.2 sec)
Now organizing SCF variables                       ... done
                      ------------------
                      INITIAL GUESS DONE (  71.8 sec)
                      ------------------
--------------
SCF ITERATIONS
--------------
ITER       Energy         Delta-E        Max-DP      RMS-DP      [F,P]     Damp
               ***  Starting incremental Fock matrix formation  ***
  0  -4684.5451300403   0.000000000000 0.03261073  0.00037071  0.4585015 0.8500
  1  -4684.8746254990  -0.329495458660 0.02763180  0.00034217  0.3878629 0.8500
                               ***Turning on DIIS***
  2  -4685.1163363087  -0.241710809663 0.02248520  0.00027388  0.3272379 0.8500
  3  -4685.2844454111  -0.168109102473 0.01731706  0.00018779  0.2761206 0.8500
  4  -4685.4101497192  -0.125704308117 0.01380955  0.00014193  0.2337075 0.8500
  5  -4685.5072285779  -0.097078858682 0.01135832  0.00011541  0.1982794 0.8500
  6  -4685.5854733352  -0.078244757246 0.00959547  0.00009689  0.1684854 0.8500
  7  -4685.6501459919  -0.064672656703 0.00822635  0.00008323  0.1432682 0.8500
  8  -4685.7043872400  -0.054241248086 0.00715064  0.00007149  0.1218294 0.8500
  9  -4685.7498228977  -0.045435657747 0.00613864  0.00006088  0.1035310 0.8500
 10  -4685.7878480317  -0.038025133945 0.00518049  0.00005162  0.0879384 0.8500
 11  -4685.8197330487  -0.031885017008 0.00435566  0.00004372  0.0747005 0.8500
 12  -4685.8465471383  -0.026814089608 0.00368744  0.00003709  0.0634771 0.8500
 13  -4685.8691464943  -0.022599356074 0.00314793  0.00003150  0.0539504 0.8500
 14  -4685.8882164406  -0.019069946266 0.00268692  0.00002674  0.0458478 0.8500
 15  -4685.9043230794  -0.016106638752 0.00227964  0.00002269  0.0389538 0.8500
 16  -4685.9179401480  -0.013617068624 0.00192775  0.00001925  0.0330955 0.8500
 17  -4685.9294635403  -0.011523392346 0.01089243  0.00010892  0.0281221 0.0000
 18  -4685.9939377679  -0.064474227562 0.00025797  0.00000234  0.0002131 0.0000
 19  -4685.9939417492  -0.000003981255 0.00014566  0.00000090  0.0000712 0.0000
               *** Restarting incremental Fock matrix formation ***
                                   *** Resetting DIIS ***
 20  -4685.9939417226   0.000000026539 0.00012039  0.00000064  0.0000572 0.0000
 21  -4685.9939415868   0.000000135853 0.00005166  0.00000023  0.0000735 0.0000
 22  -4685.9939417215  -0.000000134707 0.00001945  0.00000012  0.0000220 0.0000
 23  -4685.9939418189  -0.000000097436 0.00001767  0.00000013  0.0000060 0.0000
 24  -4685.9939417997   0.000000019198 0.00000572  0.00000005  0.0000019 0.0000
 25  -4685.9939417858   0.000000013937 0.00000682  0.00000004  0.0000011 0.0000
                            ***DIIS convergence achieved***

               *****************************************************
               *                     SUCCESS                       *
               *           SCF CONVERGED AFTER  26 CYCLES          *
               *****************************************************


----------------
TOTAL SCF ENERGY
----------------

Total Energy       :        -4685.99394173 Eh         -127512.37776 eV

Components:
Nuclear Repulsion  :        21868.98836020 Eh          595085.42684 eV
Electronic Energy  :       -26554.98230192 Eh         -722597.80460 eV
One Electron Energy:       -49855.07555127 Eh        -1356625.57526 eV
Two Electron Energy:        23300.09324935 Eh          634027.77066 eV

Virial components:
Potential Energy   :        -9169.64240297 Eh         -249518.65507 eV
Kinetic Energy     :         4483.64846124 Eh          122006.27731 eV
Virial Ratio       :            2.04512965


DFT components:
N(Alpha)           :      388.000042181604 electrons
N(Beta)            :      388.000042181604 electrons
N(Total)           :      776.000084363208 electrons
E(X)               :     -476.729025196465 Eh       
E(C)               :      -26.592548188780 Eh       
E(XC)              :     -503.321573385245 Eh       
DFET-embed. en.    :        0.000000000000 Eh       

---------------
SCF CONVERGENCE
---------------

  Last Energy change         ...    5.9747e-08  Tolerance :   1.0000e-08
  Last MAX-Density change    ...    1.8540e-06  Tolerance :   1.0000e-07
  Last RMS-Density change    ...    1.3346e-08  Tolerance :   5.0000e-09
  Last DIIS Error            ...    5.5525e-07  Tolerance :   5.0000e-07

             **** THE GBW FILE WAS UPDATED (_s_5a1_a_PBE0.gbw) ****
             **** DENSITY FILE WAS UPDATED (_s_5a1_a_PBE0.scfp) ****
             **** ENERGY FILE WAS UPDATED (_s_5a1_a_PBE0.en.tmp) ****
             **** THE GBW FILE WAS UPDATED (_s_5a1_a_PBE0.gbw) ****
             **** DENSITY FILE WAS UPDATED (_s_5a1_a_PBE0.scfp) ****
----------------
ORBITAL ENERGIES
----------------

  NO   OCC          E(Eh)            E(eV) 
   0   2.0000     -14.752830      -401.4449 
   1   2.0000     -14.752771      -401.4433 
   2   2.0000     -14.752748      -401.4427 
   3   2.0000     -14.752701      -401.4414 
   4   2.0000     -14.737252      -401.0210 
   5   2.0000     -14.737190      -401.0193 
   6   2.0000     -14.737165      -401.0186 
   7   2.0000     -14.737042      -401.0153 
   8   2.0000     -10.581292      -287.9316 
   9   2.0000     -10.581212      -287.9294 
  10   2.0000     -10.581201      -287.9291 
  11   2.0000     -10.581189      -287.9288 
  12   2.0000     -10.578954      -287.8680 
  13   2.0000     -10.578859      -287.8654 
  14   2.0000     -10.578856      -287.8653 
  15   2.0000     -10.578826      -287.8645 
  16   2.0000     -10.575199      -287.7658 
  17   2.0000     -10.575182      -287.7653 
  18   2.0000     -10.575120      -287.7636 
  19   2.0000     -10.575049      -287.7617 
  20   2.0000     -10.563198      -287.4392 
  21   2.0000     -10.563177      -287.4387 
  22   2.0000     -10.563153      -287.4380 
  23   2.0000     -10.563041      -287.4350 
  24   2.0000     -10.548455      -287.0380 
  25   2.0000     -10.548381      -287.0360 
  26   2.0000     -10.548361      -287.0355 
  27   2.0000     -10.548356      -287.0354 
  28   2.0000     -10.542376      -286.8726 
  29   2.0000     -10.542301      -286.8706 
  30   2.0000     -10.542295      -286.8704 
  31   2.0000     -10.542258      -286.8694 
  32   2.0000     -10.538023      -286.7542 
  33   2.0000     -10.537912      -286.7512 
  34   2.0000     -10.537902      -286.7509 
  35   2.0000     -10.537886      -286.7505 
  36   2.0000     -10.533297      -286.6256 
  37   2.0000     -10.533289      -286.6254 
  38   2.0000     -10.533202      -286.6230 
  39   2.0000     -10.533160      -286.6219 
  40   2.0000     -10.530595      -286.5521 
  41   2.0000     -10.530591      -286.5520 
  42   2.0000     -10.530510      -286.5498 
  43   2.0000     -10.530463      -286.5485 
  44   2.0000     -10.526746      -286.4473 
  45   2.0000     -10.526724      -286.4467 
  46   2.0000     -10.526678      -286.4455 
  47   2.0000     -10.526585      -286.4429 
  48   2.0000     -10.525397      -286.4106 
  49   2.0000     -10.525382      -286.4102 
  50   2.0000     -10.525299      -286.4080 
  51   2.0000     -10.525247      -286.4065 
  52   2.0000     -10.511174      -286.0236 
  53   2.0000     -10.511155      -286.0231 
  54   2.0000     -10.511127      -286.0223 
  55   2.0000     -10.511050      -286.0202 
  56   2.0000     -10.507121      -285.9133 
  57   2.0000     -10.507094      -285.9126 
  58   2.0000     -10.506989      -285.9097 
  59   2.0000     -10.506975      -285.9093 
  60   2.0000     -10.506611      -285.8994 
  61   2.0000     -10.506602      -285.8992 
  62   2.0000     -10.506566      -285.8982 
  63   2.0000     -10.506467      -285.8955 
  64   2.0000     -10.505452      -285.8679 
  65   2.0000     -10.505430      -285.8673 
  66   2.0000     -10.505333      -285.8646 
  67   2.0000     -10.505316      -285.8642 
  68   2.0000     -10.500971      -285.7459 
  69   2.0000     -10.500953      -285.7455 
  70   2.0000     -10.500905      -285.7442 
  71   2.0000     -10.500864      -285.7430 
  72   2.0000     -10.499678      -285.7108 
  73   2.0000     -10.499661      -285.7103 
  74   2.0000     -10.499554      -285.7074 
  75   2.0000     -10.499527      -285.7067 
  76   2.0000     -10.496896      -285.6350 
  77   2.0000     -10.496889      -285.6349 
  78   2.0000     -10.496853      -285.6339 
  79   2.0000     -10.496770      -285.6316 
  80   2.0000     -10.492387      -285.5124 
  81   2.0000     -10.492382      -285.5122 
  82   2.0000     -10.492333      -285.5109 
  83   2.0000     -10.492240      -285.5084 
  84   2.0000     -10.491997      -285.5017 
  85   2.0000     -10.491990      -285.5016 
  86   2.0000     -10.491972      -285.5011 
  87   2.0000     -10.491858      -285.4980 
  88   2.0000     -10.489192      -285.4254 
  89   2.0000     -10.489190      -285.4254 
  90   2.0000     -10.489189      -285.4253 
  91   2.0000     -10.489051      -285.4216 
  92   2.0000     -10.488014      -285.3934 
  93   2.0000     -10.488001      -285.3930 
  94   2.0000     -10.487936      -285.3913 
  95   2.0000     -10.487875      -285.3896 
  96   2.0000     -10.483980      -285.2836 
  97   2.0000     -10.483977      -285.2835 
  98   2.0000     -10.483971      -285.2833 
[...]
 46 C      5.9858     6.0000     0.0142     3.6918     3.6918    -0.0000
 47 C      6.0445     6.0000    -0.0445     3.7152     3.7152    -0.0000
 48 C      6.0080     6.0000    -0.0080     3.7604     3.7604    -0.0000
 49 C      5.9577     6.0000     0.0423     3.8260     3.8260    -0.0000
 50 C      5.9819     6.0000     0.0181     3.8445     3.8445    -0.0000
 51 C      5.9821     6.0000     0.0179     3.8378     3.8378    -0.0000
 52 C      6.0539     6.0000    -0.0539     3.8879     3.8879    -0.0000
 53 C      5.8411     6.0000     0.1589     3.8616     3.8616    -0.0000
 54 N      7.3098     7.0000    -0.3098     3.3622     3.3622    -0.0000
 55 C      5.8657     6.0000     0.1343     3.8437     3.8437    -0.0000
 56 C      5.9914     6.0000     0.0086     3.9069     3.9069    -0.0000
 57 C      5.9456     6.0000     0.0544     3.9580     3.9580    -0.0000
 58 H      0.9385     1.0000     0.0615     0.9907     0.9907    -0.0000
 59 H      0.9257     1.0000     0.0743     0.9816     0.9816    -0.0000
 60 H      0.9578     1.0000     0.0422     0.9913     0.9913    -0.0000
 61 H      0.9366     1.0000     0.0634     0.9971     0.9971    -0.0000
 62 H      0.9583     1.0000     0.0417     0.9943     0.9943    -0.0000
 63 H      0.9700     1.0000     0.0300     1.0155     1.0155    -0.0000
 64 C      6.0421     6.0000    -0.0421     3.7311     3.7311    -0.0000
 65 C      5.9495     6.0000     0.0505     3.8380     3.8380    -0.0000
 66 C      5.9891     6.0000     0.0109     3.8363     3.8363    -0.0000
 67 C      5.9917     6.0000     0.0083     3.8456     3.8456    -0.0000
 68 C      5.9859     6.0000     0.0141     3.8701     3.8701    -0.0000
 69 C      6.0166     6.0000    -0.0166     3.8655     3.8655    -0.0000
 70 C      5.9642     6.0000     0.0358     3.7804     3.7804    -0.0000
 71 C      6.0359     6.0000    -0.0359     3.8402     3.8402    -0.0000
 72 C      5.9437     6.0000     0.0563     3.8688     3.8688    -0.0000
 73 C      6.0305     6.0000    -0.0305     3.8408     3.8408    -0.0000
 74 H      0.9518     1.0000     0.0482     0.9904     0.9904    -0.0000
 75 H      0.9557     1.0000     0.0443     0.9905     0.9905    -0.0000
 76 H      0.9572     1.0000     0.0428     0.9907     0.9907    -0.0000
 77 H      0.9689     1.0000     0.0311     0.9888     0.9888    -0.0000
 78 H      1.0173     1.0000    -0.0173     0.9960     0.9960    -0.0000
 79 H      1.0127     1.0000    -0.0127     0.9971     0.9971    -0.0000
 80 C      6.0414     6.0000    -0.0414     3.8952     3.8952    -0.0000
 81 C      5.9310     6.0000     0.0690     3.8844     3.8844    -0.0000
 82 C      6.0166     6.0000    -0.0166     3.9279     3.9279    -0.0000
 83 C      5.8899     6.0000     0.1101     3.8586     3.8586    -0.0000
 84 N      7.3115     7.0000    -0.3115     3.3717     3.3717    -0.0000
 85 C      5.8563     6.0000     0.1437     3.8710     3.8710    -0.0000
 86 H      0.9204     1.0000     0.0796     0.9911     0.9911    -0.0000
 87 H      0.9194     1.0000     0.0806     0.9856     0.9856    -0.0000
 88 H      0.9043     1.0000     0.0957     0.9820     0.9820    -0.0000
 89 H      0.9392     1.0000     0.0608     1.0030     1.0030    -0.0000
 90 C      5.9859     6.0000     0.0141     3.6919     3.6919    -0.0000
 91 C      6.0444     6.0000    -0.0444     3.7155     3.7155    -0.0000
 92 C      6.0081     6.0000    -0.0081     3.7605     3.7605    -0.0000
 93 C      5.9577     6.0000     0.0423     3.8260     3.8260    -0.0000
 94 C      5.9818     6.0000     0.0182     3.8445     3.8445    -0.0000
 95 C      5.9821     6.0000     0.0179     3.8378     3.8378    -0.0000
 96 C      6.0538     6.0000    -0.0538     3.8880     3.8880    -0.0000
 97 C      5.8411     6.0000     0.1589     3.8613     3.8613    -0.0000
 98 N      7.3096     7.0000    -0.3096     3.3623     3.3623    -0.0000
 99 C      5.8657     6.0000     0.1343     3.8443     3.8443    -0.0000
100 C      5.9915     6.0000     0.0085     3.9069     3.9069    -0.0000
101 C      5.9456     6.0000     0.0544     3.9579     3.9579    -0.0000
102 H      0.9385     1.0000     0.0615     0.9907     0.9907    -0.0000
103 H      0.9257     1.0000     0.0743     0.9816     0.9816    -0.0000
104 H      0.9578     1.0000     0.0422     0.9913     0.9913    -0.0000
105 H      0.9366     1.0000     0.0634     0.9971     0.9971    -0.0000
106 H      0.9585     1.0000     0.0415     0.9943     0.9943    -0.0000
107 H      0.9699     1.0000     0.0301     1.0154     1.0154    -0.0000
108 C      6.0421     6.0000    -0.0421     3.7312     3.7312    -0.0000
109 C      5.9495     6.0000     0.0505     3.8380     3.8380    -0.0000
110 C      5.9891     6.0000     0.0109     3.8363     3.8363    -0.0000
111 C      5.9917     6.0000     0.0083     3.8456     3.8456    -0.0000
112 C      5.9858     6.0000     0.0142     3.8701     3.8701    -0.0000
113 C      6.0165     6.0000    -0.0165     3.8655     3.8655    -0.0000
114 C      5.9642     6.0000     0.0358     3.7804     3.7804    -0.0000
115 C      6.0358     6.0000    -0.0358     3.8402     3.8402    -0.0000
116 C      5.9438     6.0000     0.0562     3.8688     3.8688    -0.0000
117 C      6.0304     6.0000    -0.0304     3.8407     3.8407    -0.0000
118 H      0.9517     1.0000     0.0483     0.9904     0.9904    -0.0000
119 H      0.9557     1.0000     0.0443     0.9905     0.9905    -0.0000
120 H      0.9572     1.0000     0.0428     0.9907     0.9907    -0.0000
121 H      0.9688     1.0000     0.0312     0.9888     0.9888    -0.0000
122 H      1.0173     1.0000    -0.0173     0.9960     0.9960    -0.0000
123 H      1.0127     1.0000    -0.0127     0.9971     0.9971    -0.0000
124 C      6.0413     6.0000    -0.0413     3.8947     3.8947    -0.0000
125 C      5.9311     6.0000     0.0689     3.8843     3.8843    -0.0000
126 C      6.0164     6.0000    -0.0164     3.9278     3.9278    -0.0000
127 C      5.8904     6.0000     0.1096     3.8581     3.8581    -0.0000
128 N      7.3119     7.0000    -0.3119     3.3712     3.3712    -0.0000
129 C      5.8566     6.0000     0.1434     3.8714     3.8714    -0.0000
130 H      0.9205     1.0000     0.0795     0.9912     0.9912    -0.0000
131 H      0.9195     1.0000     0.0805     0.9856     0.9856    -0.0000
132 H      0.9035     1.0000     0.0965     0.9817     0.9817    -0.0000
133 H      0.9390     1.0000     0.0610     1.0029     1.0029    -0.0000
134 C      5.9857     6.0000     0.0143     3.6918     3.6918    -0.0000
135 C      6.0445     6.0000    -0.0445     3.7156     3.7156    -0.0000
136 C      6.0080     6.0000    -0.0080     3.7607     3.7607    -0.0000
137 C      5.9576     6.0000     0.0424     3.8259     3.8259    -0.0000
138 C      5.9818     6.0000     0.0182     3.8445     3.8445    -0.0000
139 C      5.9820     6.0000     0.0180     3.8379     3.8379    -0.0000
140 C      6.0541     6.0000    -0.0541     3.8882     3.8882    -0.0000
141 C      5.8409     6.0000     0.1591     3.8616     3.8616    -0.0000
142 N      7.3097     7.0000    -0.3097     3.3626     3.3626    -0.0000
143 C      5.8655     6.0000     0.1345     3.8436     3.8436    -0.0000
144 C      5.9913     6.0000     0.0087     3.9074     3.9074    -0.0000
145 C      5.9457     6.0000     0.0543     3.9583     3.9583    -0.0000
146 H      0.9386     1.0000     0.0614     0.9907     0.9907    -0.0000
147 H      0.9257     1.0000     0.0743     0.9816     0.9816    -0.0000
148 H      0.9577     1.0000     0.0423     0.9913     0.9913    -0.0000
149 H      0.9366     1.0000     0.0634     0.9971     0.9971    -0.0000
150 H      0.9586     1.0000     0.0414     0.9942     0.9942    -0.0000
151 H      0.9703     1.0000     0.0297     1.0156     1.0156    -0.0000
152 C      6.0419     6.0000    -0.0419     3.7313     3.7313    -0.0000
153 C      5.9494     6.0000     0.0506     3.8379     3.8379    -0.0000
154 C      5.9891     6.0000     0.0109     3.8363     3.8363    -0.0000
155 C      5.9918     6.0000     0.0082     3.8456     3.8456    -0.0000
156 C      5.9858     6.0000     0.0142     3.8700     3.8700    -0.0000
157 C      6.0165     6.0000    -0.0165     3.8654     3.8654    -0.0000
158 C      5.9647     6.0000     0.0353     3.7805     3.7805    -0.0000
159 C      6.0358     6.0000    -0.0358     3.8403     3.8403    -0.0000
160 C      5.9437     6.0000     0.0563     3.8687     3.8687    -0.0000
161 C      6.0308     6.0000    -0.0308     3.8410     3.8410    -0.0000
162 H      0.9518     1.0000     0.0482     0.9904     0.9904    -0.0000
163 H      0.9557     1.0000     0.0443     0.9905     0.9905    -0.0000
164 H      0.9574     1.0000     0.0426     0.9907     0.9907    -0.0000
165 H      0.9690     1.0000     0.0310     0.9888     0.9888    -0.0000
166 H      1.0171     1.0000    -0.0171     0.9960     0.9960    -0.0000
167 H      1.0125     1.0000    -0.0125     0.9970     0.9970    -0.0000
168 C      6.0419     6.0000    -0.0419     3.8953     3.8953    -0.0000
169 C      5.9307     6.0000     0.0693     3.8842     3.8842    -0.0000
170 C      6.0166     6.0000    -0.0166     3.9278     3.9278    -0.0000
171 C      5.8900     6.0000     0.1100     3.8585     3.8585    -0.0000
172 N      7.3115     7.0000    -0.3115     3.3717     3.3717    -0.0000
173 C      5.8560     6.0000     0.1440     3.8708     3.8708    -0.0000
174 H      0.9204     1.0000     0.0796     0.9911     0.9911    -0.0000
175 H      0.9194     1.0000     0.0806     0.9856     0.9856    -0.0000
176 H      0.9042     1.0000     0.0958     0.9820     0.9820    -0.0000
177 H      0.9392     1.0000     0.0608     1.0029     1.0029    -0.0000

  Mayer bond orders larger than 0.100000
B(  0-Pd, 10-N ) :   0.5429 B(  0-Pd, 54-N ) :   0.5423 B(  0-Pd, 98-N ) :   0.5425 
B(  0-Pd,142-N ) :   0.5423 B(  1-Pd, 40-N ) :   0.5451 B(  1-Pd, 84-N ) :   0.5454 
B(  1-Pd,128-N ) :   0.5450 B(  1-Pd,172-N ) :   0.5456 B(  2-C ,  3-C ) :   2.5790 
B(  2-C , 20-C ) :   1.0113 B(  3-C ,  4-C ) :   1.0188 B(  4-C ,  5-C ) :   1.4260 
B(  4-C , 13-C ) :   1.2393 B(  5-C ,  6-C ) :   1.2674 B(  5-C , 14-H ) :   0.9925 
B(  6-C ,  7-C ) :   1.4742 B(  6-C , 15-H ) :   0.9804 B(  7-C ,  8-C ) :   1.2382 
B(  7-C , 16-H ) :   0.9954 B(  8-C ,  9-C ) :   1.2837 B(  8-C , 13-C ) :   1.2294 
B(  9-C , 10-N ) :   1.4388 B(  9-C , 17-H ) :   0.9606 B( 10-N , 11-C ) :   1.1878 
B( 11-C , 12-C ) :   1.5420 B( 11-C , 18-H ) :   0.9398 B( 12-C , 13-C ) :   1.2914 
B( 12-C , 19-H ) :   0.9551 B( 20-C , 21-C ) :   1.2151 B( 20-C , 29-C ) :   1.4262 
B( 21-C , 22-C ) :   1.4936 B( 21-C , 30-H ) :   0.9919 B( 22-C , 23-C ) :   1.2424 
B( 22-C , 31-H ) :   0.9920 B( 23-C , 24-C ) :   1.2494 B( 23-C , 28-C ) :   1.2432 
B( 24-C , 25-C ) :   1.5071 B( 24-C , 32-H ) :   0.9908 B( 25-C , 26-C ) :   1.2370 
B( 25-C , 33-H ) :   0.9847 B( 26-C , 27-C ) :   1.4538 B( 26-C , 36-C ) :   1.0044 
B( 27-C , 28-C ) :   1.2514 B( 27-C , 34-H ) :   0.9867 B( 28-C , 29-C ) :   1.2418 
B( 29-C , 35-H ) :   0.9940 B( 36-C , 37-C ) :   1.3734 B( 36-C , 41-C ) :   1.3981 
B( 37-C , 38-C ) :   1.4004 B( 37-C , 42-H ) :   0.9805 B( 38-C , 39-C ) :   1.4320 
B( 38-C , 43-H ) :   0.9723 B( 39-C , 40-N ) :   1.3031 B( 39-C , 44-H ) :   0.9419 
B( 40-N , 41-C ) :   1.3358 B( 41-C , 45-H ) :   0.9574 B( 46-C , 47-C ) :   2.5787 
B( 46-C , 64-C ) :   1.0115 B( 47-C , 48-C ) :   1.0189 B( 48-C , 49-C ) :   1.4259 
B( 48-C , 57-C ) :   1.2392 B( 49-C , 50-C ) :   1.2675 B( 49-C , 58-H ) :   0.9925 
B( 50-C , 51-C ) :   1.4740 B( 50-C , 59-H ) :   0.9804 B( 51-C , 52-C ) :   1.2383 
B( 51-C , 60-H ) :   0.9955 B( 52-C , 53-C ) :   1.2834 B( 52-C , 57-C ) :   1.2294 
B( 53-C , 54-N ) :   1.4391 B( 53-C , 61-H ) :   0.9607 B( 54-N , 55-C ) :   1.1876 
B( 55-C , 56-C ) :   1.5421 B( 55-C , 62-H ) :   0.9394 B( 56-C , 57-C ) :   1.2916 
B( 56-C , 63-H ) :   0.9550 B( 64-C , 65-C ) :   1.2151 B( 64-C , 73-C ) :   1.4260 
B( 65-C , 66-C ) :   1.4935 B( 65-C , 74-H ) :   0.9919 B( 66-C , 67-C ) :   1.2425 
B( 66-C , 75-H ) :   0.9920 B( 67-C , 68-C ) :   1.2494 B( 67-C , 72-C ) :   1.2431 
B( 68-C , 69-C ) :   1.5070 B( 68-C , 76-H ) :   0.9908 B( 69-C , 70-C ) :   1.2372 
B( 69-C , 77-H ) :   0.9847 B( 70-C , 71-C ) :   1.4537 B( 70-C , 80-C ) :   1.0042 
B( 71-C , 72-C ) :   1.2512 B( 71-C , 78-H ) :   0.9868 B( 72-C , 73-C ) :   1.2419 
B( 73-C , 79-H ) :   0.9940 B( 80-C , 81-C ) :   1.3734 B( 80-C , 85-C ) :   1.3988 
B( 81-C , 82-C ) :   1.4005 B( 81-C , 86-H ) :   0.9805 B( 82-C , 83-C ) :   1.4317 
B( 82-C , 87-H ) :   0.9723 B( 83-C , 84-N ) :   1.3039 B( 83-C , 88-H ) :   0.9424 
B( 84-N , 85-C ) :   1.3351 B( 85-C , 89-H ) :   0.9573 B( 90-C , 91-C ) :   2.5791 
B( 90-C ,108-C ) :   1.0114 B( 91-C , 92-C ) :   1.0188 B( 92-C , 93-C ) :   1.4259 
B( 92-C ,101-C ) :   1.2393 B( 93-C , 94-C ) :   1.2675 B( 93-C ,102-H ) :   0.9925 
B( 94-C , 95-C ) :   1.4741 B( 94-C ,103-H ) :   0.9804 B( 95-C , 96-C ) :   1.2383 
B( 95-C ,104-H ) :   0.9955 B( 96-C , 97-C ) :   1.2836 B( 96-C ,101-C ) :   1.2294 
B( 97-C , 98-N ) :   1.4389 B( 97-C ,105-H ) :   0.9606 B( 98-N , 99-C ) :   1.1878 
B( 99-C ,100-C ) :   1.5421 B( 99-C ,106-H ) :   0.9397 B(100-C ,101-C ) :   1.2914 
B(100-C ,107-H ) :   0.9551 B(108-C ,109-C ) :   1.2152 B(108-C ,117-C ) :   1.4261 
B(109-C ,110-C ) :   1.4935 B(109-C ,118-H ) :   0.9919 B(110-C ,111-C ) :   1.2425 
B(110-C ,119-H ) :   0.9920 B(111-C ,112-C ) :   1.2494 B(111-C ,116-C ) :   1.2430 
B(112-C ,113-C ) :   1.5071 B(112-C ,120-H ) :   0.9908 B(113-C ,114-C ) :   1.2371 
B(113-C ,121-H ) :   0.9847 B(114-C ,115-C ) :   1.4537 B(114-C ,124-C ) :   1.0043 
B(115-C ,116-C ) :   1.2514 B(115-C ,122-H ) :   0.9868 B(116-C ,117-C ) :   1.2418 
B(117-C ,123-H ) :   0.9940 B(124-C ,125-C ) :   1.3736 B(124-C ,129-C ) :   1.3981 
B(125-C ,126-C ) :   1.4002 B(125-C ,130-H ) :   0.9805 B(126-C ,127-C ) :   1.4319 
B(126-C ,131-H ) :   0.9724 B(127-C ,128-N ) :   1.3032 B(127-C ,132-H ) :   0.9420 
B(128-N ,129-C ) :   1.3357 B(129-C ,133-H ) :   0.9574 B(134-C ,135-C ) :   2.5785 
B(134-C ,152-C ) :   1.0117 B(135-C ,136-C ) :   1.0193 B(136-C ,137-C ) :   1.4257 
B(136-C ,145-C ) :   1.2392 B(137-C ,138-C ) :   1.2675 B(137-C ,146-H ) :   0.9925 
B(138-C ,139-C ) :   1.4740 B(138-C ,147-H ) :   0.9804 B(139-C ,140-C ) :   1.2384 
B(139-C ,148-H ) :   0.9954 B(140-C ,141-C ) :   1.2833 B(140-C ,145-C ) :   1.2295 
B(141-C ,142-N ) :   1.4394 B(141-C ,149-H ) :   0.9607 B(142-N ,143-C ) :   1.1875 
B(143-C ,144-C ) :   1.5424 B(143-C ,150-H ) :   0.9394 B(144-C ,145-C ) :   1.2916 
B(144-C ,151-H ) :   0.9549 B(152-C ,153-C ) :   1.2151 B(152-C ,161-C ) :   1.4259 
B(153-C ,154-C ) :   1.4935 B(153-C ,162-H ) :   0.9919 B(154-C ,155-C ) :   1.2425 
B(154-C ,163-H ) :   0.9920 B(155-C ,156-C ) :   1.2494 B(155-C ,160-C ) :   1.2430 
B(156-C ,157-C ) :   1.5069 B(156-C ,164-H ) :   0.9909 B(157-C ,158-C ) :   1.2373 
B(157-C ,165-H ) :   0.9848 B(158-C ,159-C ) :   1.4540 B(158-C ,168-C ) :   1.0039 
B(159-C ,160-C ) :   1.2511 B(159-C ,166-H ) :   0.9869 B(160-C ,161-C ) :   1.2421 
B(161-C ,167-H ) :   0.9939 B(168-C ,169-C ) :   1.3734 B(168-C ,173-C ) :   1.3991 
B(169-C ,170-C ) :   1.4005 B(169-C ,174-H ) :   0.9806 B(170-C ,171-C ) :   1.4315 
B(170-C ,175-H ) :   0.9723 B(171-C ,172-N ) :   1.3039 B(171-C ,176-H ) :   0.9423 
B(172-N ,173-C ) :   1.3348 B(173-C ,177-H ) :   0.9573 

-------
TIMINGS
-------

Total SCF time: 0 days 0 hours 18 min 42 sec 

Total time                  ....    1122.727 sec
Sum of individual times     ....    1114.440 sec  ( 99.3%)

Fock matrix formation       ....     922.429 sec  ( 82.2%)
  XC integration            ....      34.220 sec  (  3.7% of F)
    Basis function eval.    ....       8.107 sec  ( 23.7% of XC)
    Density eval.           ....      12.070 sec  ( 35.3% of XC)
    XC-Functional eval.     ....       1.004 sec  (  2.9% of XC)
    XC-Potential eval.      ....       4.737 sec  ( 13.8% of XC)
Diagonalization             ....      23.061 sec  (  2.1%)
Density matrix formation    ....       1.242 sec  (  0.1%)
Population analysis         ....       6.154 sec  (  0.5%)
Initial guess               ....      32.567 sec  (  2.9%)
Orbital Transformation      ....       0.000 sec  (  0.0%)
Orbital Orthonormalization  ....       0.000 sec  (  0.0%)
DIIS solution               ....      89.719 sec  (  8.0%)
Grid generation             ....      39.268 sec  (  3.5%)


-------------------------------------------------------------------------------
                          DFT DISPERSION CORRECTION                            
                                                                               
                              DFTD3 V3.1  Rev 1                                
                          USING Becke-Johnson damping                          
-------------------------------------------------------------------------------
The PBE0 functional is recognized
Active option DFTDOPT                   ...         4   

molecular C6(AA) [au] = 487841.197055 


            DFT-D V3
 parameters
 s6 scaling factor         :     1.0000 
 a1 scaling factor         :     0.4145 
 s8 scaling factor         :     1.2177 
 a2 scaling factor         :     4.8593 
 ad hoc parameters k1-k3   :    16.0000     1.3333    -4.0000 

 Edisp/kcal,au: -179.786337487209  -0.286507735326 
 E6   /kcal   : -111.377211131 
 E8   /kcal   : -68.409126356 
 % E8         :  38.050236360 

-------------------------   ----------------
Dispersion correction           -0.286507735
-------------------------   ----------------


-------------------------   --------------------
FINAL SINGLE POINT ENERGY     -4686.280449461347
-------------------------   --------------------


                            ***************************************
                            *     ORCA property calculations      *
                            ***************************************

                                    ---------------------
                                    Active property flags
                                    ---------------------
   (+) Dipole Moment


------------------------------------------------------------------------------
                       ORCA ELECTRIC PROPERTIES CALCULATION
------------------------------------------------------------------------------

Dipole Moment Calculation                       ... on
Quadrupole Moment Calculation                   ... off
Polarizability Calculation                      ... off
GBWName                                         ... _s_5a1_a_PBE0.gbw
Electron density file                           ... _s_5a1_a_PBE0.scfp
The origin for moment calculation is the CENTER OF MASS  = ( 0.011207,  3.204924  0.028607)

-------------
DIPOLE MOMENT
-------------
                                X             Y             Z
Electronic contribution:      0.87343     -10.20935      -1.18791
Nuclear contribution   :     -0.93528       8.51123       1.13586
                        -----------------------------------------
Total Dipole Moment    :     -0.06184      -1.69812      -0.05205
                        -----------------------------------------
Magnitude (a.u.)       :      1.70004
Magnitude (Debye)      :      4.32116



--------------------
Rotational spectrum 
--------------------
 
Rotational constants in cm-1:     0.000388     0.000289     0.000287 
Rotational constants in MHz :    11.623692     8.670718     8.592836 

 Dipole components along the rotational axes: 
x,y,z [a.u.] :    -1.700036     0.002563    -0.002419 
x,y,z [Debye]:    -4.321148     0.006515    -0.006149 

 

Timings for individual modules:

Sum of individual times         ...     1152.960 sec (=  19.216 min)
GTO integral calculation        ...       18.749 sec (=   0.312 min)   1.6 %
SCF iterations                  ...     1134.211 sec (=  18.904 min)  98.4 %
                             ****ORCA TERMINATED NORMALLY****
TOTAL RUN TIME: 0 days 0 hours 19 minutes 17 seconds 794 msec
