Job execution start: Tue Jun 22 16:51:09 BST 2021
Shared library path: /work/e05/e05/atarzia/orca_4_2_1_linux_x86-64_openmpi314:/work/e05/e05/atarzia/openmpi-3.1.4/lib:/opt/cray/pe/papi/6.0.0.4/lib64:/opt/cray/libfabric/1.11.0.0.233/lib64
Slurm Job ID is: 344726
Slurm Job name is: s_5a3_a_B97-3c
nid001582

                                 *****************
                                 * O   R   C   A *
                                 *****************

           --- An Ab Initio, DFT and Semiempirical electronic structure package ---

                  #######################################################
                  #                        -***-                        #
                  #          Department of theory and spectroscopy      #
                  #               Directorship: Frank Neese             #
                  #        Max Planck Institute fuer Kohlenforschung    #
                  #                Kaiser Wilhelm Platz 1               #
                  #                 D-45470 Muelheim/Ruhr               #
                  #                      Germany                        #
                  #                                                     #
                  #                  All rights reserved                #
                  #                        -***-                        #
                  #######################################################


                         Program Version 4.2.1 -  RELEASE  -


 With contributions from (in alphabetic order):
   Daniel Aravena         : Magnetic Suceptibility
   Michael Atanasov       : Ab Initio Ligand Field Theory (pilot matlab implementation)
   Alexander A. Auer      : GIAO ZORA, VPT2
   Ute Becker             : Parallelization
   Giovanni Bistoni       : ED, misc. LED, open-shell LED, HFLD
   Martin Brehm           : Molecular dynamics
   Dmytro Bykov           : SCF Hessian
   Vijay G. Chilkuri      : MRCI spin determinant printing, contributions to CSF-ICE
   Dipayan Datta          : RHF DLPNO-CCSD density
   Achintya Kumar Dutta   : EOM-CC, STEOM-CC
   Dmitry Ganyushin       : Spin-Orbit,Spin-Spin,Magnetic field MRCI
   Miquel Garcia          : C-PCM Hessian, Gaussian charge scheme
   Yang Guo               : DLPNO-NEVPT2, CIM, IAO-localization
   Andreas Hansen         : Spin unrestricted coupled pair/coupled cluster methods
   Benjamin Helmich-Paris : CASSCF linear response (MC-RPA)
   Lee Huntington         : MR-EOM, pCC
   Robert Izsak           : Overlap fitted RIJCOSX, COSX-SCS-MP3, EOM
   Christian Kollmar      : KDIIS, OOCD, Brueckner-CCSD(T), CCSD density
   Simone Kossmann        : Meta GGA functionals, TD-DFT gradient, OOMP2, MP2 Hessian
   Martin Krupicka        : AUTO-CI
   Lucas Lang             : DCDCAS
   Dagmar Lenk            : GEPOL surface, SMD
   Dimitrios Liakos       : Extrapolation schemes; Compound Job, initial MDCI parallelization
   Dimitrios Manganas     : Further ROCIS development; embedding schemes
   Dimitrios Pantazis     : SARC Basis sets
   Taras Petrenko         : DFT Hessian,TD-DFT gradient, ASA, ECA, R-Raman, ABS, FL, XAS/XES, NRVS
   Peter Pinski           : DLPNO-MP2, DLPNO-MP2 Gradient
   Christoph Reimann      : Effective Core Potentials
   Marius Retegan         : Local ZFS, SOC
   Christoph Riplinger    : Optimizer, TS searches, QM/MM, DLPNO-CCSD(T), (RO)-DLPNO pert. Triples
   Tobias Risthaus        : Range-separated hybrids, TD-DFT gradient, RPA, STAB
   Michael Roemelt        : Original ROCIS implementation
   Masaaki Saitow         : Open-shell DLPNO-CCSD energy and density
   Barbara Sandhoefer     : DKH picture change effects
   Avijit Sen             : IP-ROCIS
   Kantharuban Sivalingam : CASSCF convergence, NEVPT2, FIC-MRCI
   Bernardo de Souza      : ESD, SOC TD-DFT
   Georgi Stoychev        : AutoAux, RI-MP2 NMR
   Willem Van den Heuvel  : Paramagnetic NMR
   Boris Wezisla          : Elementary symmetry handling
   Frank Wennmohs         : Technical directorship


 We gratefully acknowledge several colleagues who have allowed us to
 interface, adapt or use parts of their codes:
   Stefan Grimme, W. Hujo, H. Kruse,             : VdW corrections, initial TS optimization,
                  C. Bannwarth                     DFT functionals, gCP, sTDA/sTD-DF
   Ed Valeev, F. Pavosevic, A. Kumar             : LibInt (2-el integral package), F12 methods
   Garnet Chan, S. Sharma, J. Yang, R. Olivares  : DMRG
   Ulf Ekstrom                                   : XCFun DFT Library
   Mihaly Kallay                                 : mrcc  (arbitrary order and MRCC methods)
   Andreas Klamt, Michael Diedenhofen            : otool_cosmo (COSMO solvation model)
   Jiri Pittner, Ondrej Demel                    : Mk-CCSD
   Frank Weinhold                                : gennbo (NPA and NBO analysis)
   Christopher J. Cramer and Donald G. Truhlar   : smd solvation model
   Lars Goerigk                                  : TD-DFT with DH, B97 family of functionals
   V. Asgeirsson, H. Jonsson                     : NEB implementation
   FAccTs GmbH                                   : IRC, NEB, NEB-TS, Multilevel, MM, QM/MM, CI optimization
   S Lehtola, MJT Oliveira, MAL Marques          : LibXC Library


 Your calculation uses the libint2 library for the computation of 2-el integrals
 For citations please refer to: http://libint.valeyev.net

 Your ORCA version has been built with support for libXC version: 4.2.3
 For citations please refer to: https://tddft.org/programs/libxc/

 This ORCA versions uses:
   CBLAS   interface :  Fast vector & matrix operations
   LAPACKE interface :  Fast linear algebra routines
   SCALAPACK package :  Parallel linear algebra routines




***************************************
The coordinates will be read from file: s_5a3_a.xyz
***************************************


Your calculation utilizes the atom-pairwise dispersion correction
with the Becke-Johnson damping scheme (D3BJ)
Cite in your paper:
S.Grimme, S.Ehrlich, L.Goerigk, J Comput Chem, (2011), 32, 1456–1465 
S.Grimme, J.Antony, S.Ehrlich and H.Krieg, J.Chem.Phys., 132, (2010), 154104 
   

Your calculation employs the composite approach B97-3c by Grimme and coworkers.
For the correct reference, please check the publication list of the Grimme group:
http://www.thch.uni-bonn.de/tc/index.php?section=publikationen&subsection=grimme#2017
   

XCFun DFT library Copyright 2009-2010 Ulf Ekstrom and contributors.
See http://admol.org/xcfun for more information. This is free soft-
ware; see the source code for copying conditions. There is ABSOLUTELY
NO WARRANTY; not even for MERCHANTABILITY or FITNESS FOR A PARTICULAR
PURPOSE. For details see the documentation. Scientific users of this 
library should cite U. Ekstrom, L. Visscher, R. Bast, A. J. Thorvald-
sen and K. Ruud; J.Chem.Theor.Comp. 2010, DOI: 10.1021/ct100117s
XCFun Version 0.99 
----- Orbital basis set information -----
Your calculation utilizes the basis: def2-mTZVP
----- AuxJ basis set information -----
Your calculation utilizes the basis: def2-mTZVP/J
cite the ECPs for Pd [Def2-ECP] as follows:
Ce-Yb(ecp-28): M. Dolg, H. Stoll, H.Preuss, J. Chem. Phys., 1989, 90, 1730-1734.
Y-Cd(ecp-28), Hf-Hg(ecp-46): D. Andrae,U. Haeussermann, M. Dolg, H. Stoll, H. Preuss, Theor. Chim. Acta, 1990, 77, 123-141.
In-Sb(ecp-28), Tl-Bi(ecp-46): B. Metz, H. Stoll, M. Dolg, J. Chem. Phys., 2000, 113, 2563-2569.
Te-Xe(ecp-28), Po-Rn(ecp-46): K. A. Peterson, D. Figgen, E. Goll, H. Stoll, M. Dolg, J. Chem. Phys., 2003, 119, 11113-11123.
Rb(ecp-28), Cs(ecp-46): T. Leininger, A. Nicklass, W. Kuechle, H. Stoll, M. Dolg, A. Bergner, Chem. Phys. Lett., 1996, 255, 274-280.
Sr(ecp-28), Ba(ecp-46): M. Kaupp, P. V. Schleyer, H. Stoll and H. Preuss, J. Chem. Phys., 1991, 94, 1360-1366.
La(ecp-46): M. Dolg, H. Stoll, A. Savin, H. Preuss, Theor. Chim. Acta, 1989, 75, 173-194.
Lu(ecp-28): X. Cao, M. Dolg, J. Chem. Phys., 2001, 115, 7348-7355.

ECP parameters for Pd [Def2-ECP] have been obtained from:
TURBOMOLE (7.0.2)

================================================================================
                                        WARNINGS
                       Please study these warnings very carefully!
================================================================================


INFO   : the flag for use of LIBINT has been found!

================================================================================
                                       INPUT FILE
================================================================================
NAME = s_5a3_a_B97-3c.in
|  1> ! DFT SP B97-3c TightSCF printbasis  Grid6 NOFINALGRID SlowConv 
|  2> 
|  3> %base "_s_5a3_a_B97-3c"
|  4> %maxcore 3000
|  5> %scf
|  6>    MaxIter 2000
|  7> end
|  8> %pal
|  9>    nprocs 32
| 10> end
| 11> 
| 12> * xyzfile 4 1 s_5a3_a.xyz
| 13> 
| 14>                          ****END OF INPUT****
================================================================================

                       ****************************
                       * Single Point Calculation *
                       ****************************

---------------------------------
CARTESIAN COORDINATES (ANGSTROEM)
---------------------------------
  Pd     0.014600    4.654500    0.171400
  Pd    -0.014300   -8.464300   -0.258300
  C      7.008400    1.802200   -1.397700
  C      6.606900    2.936800   -1.276700
  C      6.047800    4.219000   -1.117700
  C      6.804400    5.370300   -1.242200
  C      6.223300    6.633600   -1.079100
  C      4.889200    6.769000   -0.791500
  C      4.081700    5.619400   -0.656100
  C      2.705300    5.686800   -0.361900
  N      1.953700    4.614200   -0.236200
  C      2.497500    3.381200   -0.390000
  C      3.820400    3.206200   -0.676300
  C      4.659500    4.328900   -0.819300
  H      7.857100    5.292000   -1.468200
  H      6.844900    7.509700   -1.183500
  H      4.449900    7.746100   -0.667600
  H      2.220600    6.650800   -0.228800
  H      1.820000    2.537000   -0.272500
  H      4.240800    2.220900   -0.796300
  C      7.442200    0.467900   -1.531300
  C      8.796500    0.182100   -1.828500
  C      9.211900   -1.111500   -1.956300
  C      8.310000   -2.186100   -1.796800
  C      8.716900   -3.532200   -1.923900
  C      7.826600   -4.553200   -1.764700
  C      6.468400   -4.276000   -1.467300
  C      6.042400   -2.970800   -1.337700
  C      6.947900   -1.904300   -1.498300
  C      6.539600   -0.563900   -1.370600
  H      9.491300    0.999600   -1.951600
  H     10.245400   -1.331500   -2.183100
  H      9.752600   -3.741000   -2.150700
  H      8.144900   -5.580000   -1.863200
  H      5.009200   -2.756700   -1.111300
  H      5.506200   -0.350000   -1.144000
  C      5.577700   -5.355800   -1.309500
  C      4.828100   -6.295900   -1.177600
  C      4.042600   -7.455700   -1.044400
  C      4.632800   -8.720000   -1.192200
  C      3.848500   -9.850400   -1.059600
  C      2.498300   -9.704300   -0.784300
  N      1.936800   -8.499100   -0.643500
  C      2.673000   -7.396800   -0.766400
  H      5.687200   -8.797000   -1.406800
  H      4.275700  -10.834100   -1.168100
  H      1.847800  -10.569900   -0.673000
  H      2.161200   -6.445900   -0.641300
  C      1.442900    1.535900    7.081400
  C      1.366100    2.685700    6.713900
  C      1.257100    3.989200    6.193400
  C      1.416300    5.111700    6.985900
  C      1.302000    6.397200    6.442900
  C      1.029000    6.583400    5.111900
  C      0.859400    5.464500    4.268500
  C      0.576900    5.584300    2.893300
  N      0.419000    4.540300    2.108200
  C      0.527000    3.286500    2.614400
  C      0.797900    3.061100    3.932900
  C      0.973400    4.152000    4.807200
  H      1.631500    4.993400    8.037100
  H      1.432600    7.249700    7.091900
  H      0.942500    7.577200    4.702200
  H      0.480500    6.566700    2.437800
  H      0.385600    2.468100    1.910300
  H      0.881200    2.059900    4.323300
  C      1.525100    0.185000    7.475100
  C      1.800900   -0.152100    8.822200
  C      1.879500   -1.461500    9.198600
  C      1.689500   -2.501800    8.263100
  C      1.766100   -3.863300    8.629400
  C      1.578900   -4.850500    7.706900
  C      1.302500   -4.521700    6.355800
  C      1.221800   -3.200400    5.969200
  C      1.412200   -2.168400    6.908200
  C      1.335200   -0.812400    6.540300
  H      1.947300    0.639000    9.542500
  H      2.089900   -1.720700   10.226500
  H      1.977000   -4.111400    9.659700
  H      1.638900   -5.889400    7.994200
  H      1.011400   -2.947100    4.941500
  H      1.124600   -0.559300    5.512400
  C      1.115100   -5.567700    5.431000
  C      0.957800   -6.479300    4.651900
  C      0.791600   -7.609200    3.829800
  C      0.895100   -8.895400    4.380800
  C      0.730000   -9.995900    3.560800
  C      0.466400   -9.798900    2.214900
  N      0.367900   -8.572800    1.690700
  C      0.523100   -7.498600    2.461500
  H      1.101400   -9.012200    5.433200
  H      0.804300  -10.995400    3.957600
  H      0.330100  -10.639700    1.537200
  H      0.432000   -6.528600    1.979100
  C     -6.993800    1.736300    1.544100
  C     -6.586600    2.874400    1.498500
  C     -6.021600    4.161700    1.424900
  C     -6.773400    5.305700    1.624100
  C     -6.186500    6.574500    1.544900
  C     -4.851500    6.722500    1.268100
  C     -4.048800    5.580700    1.058400
  C     -2.671800    5.661200    0.770600
  N     -1.924700    4.595800    0.575500
  C     -2.474000    3.357700    0.647700
  C     -3.798000    3.170200    0.920500
  C     -4.632500    4.284800    1.135900
  H     -7.826700    5.217400    1.843300
  H     -6.804400    7.444500    1.706100
  H     -4.407800    7.703600    1.209000
  H     -2.182700    6.629600    0.701500
  H     -1.799900    2.520100    0.475800
  H     -4.222800    2.181000    0.975200
  C     -7.433700    0.398000    1.589300
  C     -8.789400    0.099400    1.866800
  C     -9.210600   -1.198000    1.909200
  C     -8.313400   -2.263800    1.679700
  C     -8.726300   -3.613500    1.718100
  C     -7.840200   -4.625800    1.492800
  C     -6.480700   -4.335700    1.214800
  C     -6.048900   -3.026700    1.170800
  C     -6.949900   -1.969100    1.400600
  C     -6.535600   -0.624900    1.361400
  H     -9.480700    0.910100    2.043100
  H    -10.245200   -1.427800    2.120900
  H     -9.763000   -3.832100    1.930400
  H     -8.163100   -5.655500    1.523800
  H     -5.014700   -2.802700    0.959200
  H     -5.501200   -0.401200    1.149500
  C     -5.594400   -5.406800    0.987700
  C     -4.848500   -6.339400    0.795900
  C     -4.067700   -7.491600    0.588600
  C     -4.663500   -8.760200    0.653400
  C     -3.883700   -9.883000    0.448900
  C     -2.532500   -9.725100    0.185400
  N     -1.965700   -8.515800    0.123700
  C     -2.697400   -7.420700    0.316900
  H     -5.718500   -8.846400    0.861100
  H     -4.315200  -10.869800    0.492800
  H     -1.885400  -10.584500    0.019100
  H     -2.181400   -6.465800    0.254300
  C     -1.433600    2.003100   -6.926500
  C     -1.351400    3.126100   -6.484500
  C     -1.236600    4.392100   -5.879700
  C     -1.393100    5.564900   -6.596200
  C     -1.273500    6.811400   -5.969900
  C     -0.997900    6.908600   -4.630000
  C     -0.830700    5.735900   -3.862500
  C     -0.545700    5.763900   -2.482800
  N     -0.390300    4.669900   -1.768500
  C     -0.503400    3.452600   -2.356100
  C     -0.776900    3.315500   -3.686200
  C     -0.950000    4.462200   -4.486400
  H     -1.610500    5.516800   -7.652500
  H     -1.402300    7.705200   -6.561000
  H     -0.907300    7.872900   -4.155900
  H     -0.445200    6.713800   -1.963700
  H     -0.363700    2.589100   -1.707700
  H     -0.864100    2.342500   -4.141500
  C     -1.522500    0.681200   -7.407400
  C     -1.800800    0.434000   -8.773300
  C     -1.885900   -0.847700   -9.234300
  C     -1.700400   -1.947700   -8.368700
  C     -1.783700   -3.282100   -8.822900
  C     -1.600300   -4.328200   -7.967000
  C     -1.321400   -4.089500   -6.597700
  C     -1.234300   -2.796700   -6.125800
  C     -1.420500   -1.704700   -6.995300
  C     -1.336800   -0.376000   -6.539800
  H     -1.943700    1.271100   -9.440400
  H     -2.098300   -1.038400  -10.276600
  H     -1.996500   -3.461400   -9.867100
  H     -1.665400   -5.345800   -8.321400
  H     -1.022000   -2.611900   -5.084000
  H     -1.124400   -0.191500   -5.497800
  C     -1.137800   -5.194500   -5.743500
  C     -0.983000   -6.155900   -5.026000
  C     -0.820300   -7.338000   -4.280200
  C     -0.929700   -8.584700   -4.914500
  C     -0.767600   -9.737500   -4.169200
  C     -0.501300   -9.630500   -2.813600
  N     -0.397200   -8.442100   -2.210000
  C     -0.549400   -7.318800   -2.908100
  H     -1.138000   -8.631100   -5.972000
  H     -0.846300  -10.708400   -4.630800
  H     -0.367100  -10.514700   -2.193000
  H     -0.453800   -6.383100   -2.362900

----------------------------
CARTESIAN COORDINATES (A.U.)
----------------------------
  NO LB      ZA    FRAG     MASS         X           Y           Z
   0 Pd   18.0000*   0   106.400    0.027590    8.795730    0.323899
   1 Pd   18.0000*   0   106.400   -0.027023  -15.995209   -0.488116
   2 C     6.0000    0    12.011   13.243957    3.405664   -2.641270
   3 C     6.0000    0    12.011   12.485232    5.549748   -2.412613
   4 C     6.0000    0    12.011   11.428686    7.972755   -2.112147
   5 C     6.0000    0    12.011   12.858453   10.148396   -2.347418
   6 C     6.0000    0    12.011   11.760333   12.535687   -2.039203
   7 C     6.0000    0    12.011    9.239249   12.791556   -1.495718
   8 C     6.0000    0    12.011    7.713295   10.619127   -1.239849
   9 C     6.0000    0    12.011    5.112276   10.746495   -0.683892
  10 N     7.0000    0    14.007    3.691958    8.719574   -0.446353
  11 C     6.0000    0    12.011    4.719591    6.389542   -0.736993
  12 C     6.0000    0    12.011    7.219510    6.058840   -1.278022
  13 C     6.0000    0    12.011    8.805179    8.180435   -1.548253
  14 H     1.0000    0     1.008   14.847767   10.000431   -2.774496
  15 H     1.0000    0     1.008   12.934986   14.191276   -2.236491
  16 H     1.0000    0     1.008    8.409092   14.638008   -1.261581
  17 H     1.0000    0     1.008    4.196326   12.568191   -0.432369
  18 H     1.0000    0     1.008    3.439302    4.794235   -0.514950
  19 H     1.0000    0     1.008    8.013951    4.196893   -1.504789
  20 C     6.0000    0    12.011   14.063720    0.884203   -2.893738
  21 C     6.0000    0    12.011   16.622976    0.344119   -3.455364
  22 C     6.0000    0    12.011   17.407968   -2.100431   -3.696871
  23 C     6.0000    0    12.011   15.703624   -4.131130   -3.395460
  24 C     6.0000    0    12.011   16.472554   -6.674891   -3.635644
  25 C     6.0000    0    12.011   14.790131   -8.604301   -3.334800
  26 C     6.0000    0    12.011   12.223505   -8.080469   -2.772795
  27 C     6.0000    0    12.011   11.418481   -5.613998   -2.527887
  28 C     6.0000    0    12.011   13.129628   -3.598605   -2.831377
  29 C     6.0000    0    12.011   12.358053   -1.065617   -2.590059
  30 H     1.0000    0     1.008   17.935958    1.888970   -3.687990
  31 H     1.0000    0     1.008   19.361000   -2.516170   -4.125461
  32 H     1.0000    0     1.008   18.429743   -7.069465   -4.064234
  33 H     1.0000    0     1.008   15.391630  -10.544672   -3.520938
  34 H     1.0000    0     1.008    9.466016   -5.209408   -2.100053
  35 H     1.0000    0     1.008   10.405210   -0.661404   -2.161847
  36 C     6.0000    0    12.011   10.540325  -10.120995   -2.474596
  37 C     6.0000    0    12.011    9.123787  -11.897527   -2.225341
  38 C     6.0000    0    12.011    7.639407  -14.089231   -1.973630
  39 C     6.0000    0    12.011    8.754723  -16.478412   -2.252931
  40 C     6.0000    0    12.011    7.272611  -18.614558   -2.002354
  41 C     6.0000    0    12.011    4.721103  -18.338469   -1.482112
  42 N     7.0000    0    14.007    3.660022  -16.060971   -1.216039
  43 C     6.0000    0    12.011    5.051238  -13.977926   -1.448286
  44 H     1.0000    0     1.008   10.747250  -16.623921   -2.658467
  45 H     1.0000    0     1.008    8.079902  -20.473482   -2.207389
  46 H     1.0000    0     1.008    3.491836  -19.974216   -1.271786
  47 H     1.0000    0     1.008    4.084076  -12.180986   -1.211881
  48 C     6.0000    0    12.011    2.726686    2.902430   13.381907
  49 C     6.0000    0    12.011    2.581555    5.075237   12.687432
  50 C     6.0000    0    12.011    2.375575    7.538495   11.703830
  51 C     6.0000    0    12.011    2.676419    9.659713   13.201438
  52 C     6.0000    0    12.011    2.460423   12.088956   12.175317
  53 C     6.0000    0    12.011    1.944528   12.440823    9.660091
  54 C     6.0000    0    12.011    1.624031   10.326408    8.066296
  55 C     6.0000    0    12.011    1.090183   10.552798    5.467545
  56 N     7.0000    0    14.007    0.791795    8.579924    3.983921
  57 C     6.0000    0    12.011    0.995886    6.210585    4.940500
  58 C     6.0000    0    12.011    1.507812    5.784641    7.432104
  59 C     6.0000    0    12.011    1.839459    7.846143    9.084291
  60 H     1.0000    0     1.008    3.083088    9.436158   15.187918
  61 H     1.0000    0     1.008    2.707222   13.699948   13.401749
  62 H     1.0000    0     1.008    1.781067   14.318833    8.885870
  63 H     1.0000    0     1.008    0.908013   12.409265    4.606774
  64 H     1.0000    0     1.008    0.728678    4.664033    3.609944
  65 H     1.0000    0     1.008    1.665227    3.892647    8.169853
  66 C     6.0000    0    12.011    2.882021    0.349599   14.125892
  67 C     6.0000    0    12.011    3.403208   -0.287427   16.671542
  68 C     6.0000    0    12.011    3.551740   -2.761835   17.382835
  69 C     6.0000    0    12.011    3.192692   -4.727717   15.614996
  70 C     6.0000    0    12.011    3.337445   -7.300579   16.307203
  71 C     6.0000    0    12.011    2.983689   -9.166117   14.563930
  72 C     6.0000    0    12.011    2.461368   -8.544775   12.010721
  73 C     6.0000    0    12.011    2.308867   -6.047880   11.280153
  74 C     6.0000    0    12.011    2.668671   -4.097682   13.054606
  75 C     6.0000    0    12.011    2.523162   -1.535214   12.359376
  76 H     1.0000    0     1.008    3.679864    1.207535   18.032712
  77 H     1.0000    0     1.008    3.949339   -3.251652   19.325284
  78 H     1.0000    0     1.008    3.735989   -7.769420   18.254188
  79 H     1.0000    0     1.008    3.097072  -11.129353   15.106849
  80 H     1.0000    0     1.008    1.911269   -5.569212    9.338082
  81 H     1.0000    0     1.008    2.125186   -1.056924   10.416926
  82 C     6.0000    0    12.011    2.107234  -10.521428   10.263103
  83 C     6.0000    0    12.011    1.809980  -12.244103    8.790817
  84 C     6.0000    0    12.011    1.495907  -14.379304    7.237273
  85 C     6.0000    0    12.011    1.691494  -16.809870    8.278512
  86 C     6.0000    0    12.011    1.379500  -18.889513    6.728937
  87 C     6.0000    0    12.011    0.881368  -18.517237    4.185554
  88 N     7.0000    0    14.007    0.695230  -16.200244    3.194960
  89 C     6.0000    0    12.011    0.988516  -14.170300    4.651561
  90 H     1.0000    0     1.008    2.081344  -17.030590   10.267260
  91 H     1.0000    0     1.008    1.519907  -20.778295    7.478780
  92 H     1.0000    0     1.008    0.623799  -20.106119    2.904887
  93 H     1.0000    0     1.008    0.816362  -12.337266    3.739957
  94 C     6.0000    0    12.011  -13.216367    3.281131    2.917926
  95 C     6.0000    0    12.011  -12.446870    5.431829    2.831755
  96 C     6.0000    0    12.011  -11.379175    7.864473    2.692671
  97 C     6.0000    0    12.011  -12.799871   10.026320    3.069104
  98 C     6.0000    0    12.011  -11.690791   12.424004    2.919438
  99 C     6.0000    0    12.011   -9.168006   12.703684    2.396362
 100 C     6.0000    0    12.011   -7.651123   10.545995    2.000086
 101 C     6.0000    0    12.011   -5.048970   10.698118    1.456223
 102 N     7.0000    0    14.007   -3.637156    8.684803    1.087537
 103 C     6.0000    0    12.011   -4.675182    6.345133    1.223976
 104 C     6.0000    0    12.011   -7.177180    5.990810    1.739493
 105 C     6.0000    0    12.011   -8.754156    8.097099    2.146540
 106 H     1.0000    0     1.008  -14.790320    9.859457    3.483332
 107 H     1.0000    0     1.008  -12.858453   14.068066    3.224062
 108 H     1.0000    0     1.008   -8.329535   14.557694    2.284679
 109 H     1.0000    0     1.008   -4.124705   12.528128    1.325643
 110 H     1.0000    0     1.008   -3.401318    4.762299    0.899132
 111 H     1.0000    0     1.008   -7.979936    4.121493    1.842861
 112 C     6.0000    0    12.011  -14.047657    0.752111    3.003342
 113 C     6.0000    0    12.011  -16.609559    0.187839    3.527741
 114 C     6.0000    0    12.011  -17.405512   -2.263892    3.607865
 115 C     6.0000    0    12.011  -15.710049   -4.277962    3.174173
 116 C     6.0000    0    12.011  -16.490317   -6.828525    3.246738
 117 C     6.0000    0    12.011  -14.815831   -8.741495    2.820983
 118 C     6.0000    0    12.011  -12.246748   -8.193286    2.295639
 119 C     6.0000    0    12.011  -11.430764   -5.719634    2.212491
 120 C     6.0000    0    12.011  -13.133408   -3.721060    2.646750
 121 C     6.0000    0    12.011  -12.350494   -1.180890    2.572673
 122 H     1.0000    0     1.008  -17.915927    1.719840    3.860899
 123 H     1.0000    0     1.008  -19.360622   -2.698151    4.007920
 124 H     1.0000    0     1.008  -18.449396   -7.241620    3.647927
 125 H     1.0000    0     1.008  -15.426023  -10.687346    2.879565
 126 H     1.0000    0     1.008   -9.476410   -5.296335    1.812625
 127 H     1.0000    0     1.008  -10.395761   -0.758158    2.172240
 128 C     6.0000    0    12.011  -10.571884  -10.217371    1.866483
 129 C     6.0000    0    12.011   -9.162337  -11.979730    1.504033
 130 C     6.0000    0    12.011   -7.686839  -14.157072    1.112293
 131 C     6.0000    0    12.011   -8.812738  -16.554379    1.234747
 132 C     6.0000    0    12.011   -7.339129  -18.676163    0.848298
 133 C     6.0000    0    12.011   -4.785731  -18.377776    0.350355
 134 N     7.0000    0    14.007   -3.714635  -16.092530    0.233759
 135 C     6.0000    0    12.011   -5.097347  -14.023091    0.598854
 136 H     1.0000    0     1.008  -10.806399  -16.717273    1.627243
 137 H     1.0000    0     1.008   -8.154546  -20.540945    0.931257
 138 H     1.0000    0     1.008   -3.562890  -20.001806    0.036094
 139 H     1.0000    0     1.008   -4.122249  -12.218591    0.480557
 140 C     6.0000    0    12.011   -2.709111    3.785310  -13.089188
 141 C     6.0000    0    12.011   -2.553776    5.907473  -12.253929
 142 C     6.0000    0    12.011   -2.336835    8.299866  -11.111023
 143 C     6.0000    0    12.011   -2.632577   10.516137  -12.465012
 144 C     6.0000    0    12.011   -2.406566   12.871681  -11.281476
 145 C     6.0000    0    12.011   -1.885758   13.055362   -8.749432
 146 C     6.0000    0    12.011   -1.569795   10.839280   -7.299067
 147 C     6.0000    0    12.011   -1.031224   10.892192   -4.691812
 148 N     7.0000    0    14.007   -0.737560    8.824832   -3.341981
 149 C     6.0000    0    12.011   -0.951288    6.524468   -4.452384
 150 C     6.0000    0    12.011   -1.468128    6.265387   -6.965908
 151 C     6.0000    0    12.011   -1.795240    8.432336   -8.478067
 152 H     1.0000    0     1.008   -3.043404   10.425241  -14.461129
 153 H     1.0000    0     1.008   -2.649963   14.560718  -12.398493
 154 H     1.0000    0     1.008   -1.714549   14.877625   -7.853513
 155 H     1.0000    0     1.008   -0.841306   12.687243   -3.710855
 156 H     1.0000    0     1.008   -0.687293    4.892690   -3.227085
 157 H     1.0000    0     1.008   -1.632912    4.426683   -7.826301
 158 C     6.0000    0    12.011   -2.877108    1.287281  -13.997957
 159 C     6.0000    0    12.011   -3.403019    0.820141  -16.579134
 160 C     6.0000    0    12.011   -3.563835   -1.601921  -17.450298
 161 C     6.0000    0    12.011   -3.213290   -3.680620  -15.814551
 162 C     6.0000    0    12.011   -3.370705   -6.202270  -16.672865
 163 C     6.0000    0    12.011   -3.024129   -8.179113  -15.055448
 164 C     6.0000    0    12.011   -2.497084   -7.728035  -12.467846
 165 C     6.0000    0    12.011   -2.332489   -5.284997  -11.576084
 166 C     6.0000    0    12.011   -2.684356   -3.221416  -13.219201
 167 C     6.0000    0    12.011   -2.526186   -0.710537  -12.358431
 168 H     1.0000    0     1.008   -3.673061    2.402031  -17.839771
 169 H     1.0000    0     1.008   -3.965212   -1.962292  -19.419960
 170 H     1.0000    0     1.008   -3.772838   -6.541098  -18.646117
 171 H     1.0000    0     1.008   -3.147150  -10.102098  -15.725167
 172 H     1.0000    0     1.008   -1.931300   -4.935776   -9.607368
 173 H     1.0000    0     1.008   -2.124808   -0.361883  -10.389336
 174 C     6.0000    0    12.011   -2.150130   -9.816182  -10.853642
 175 C     6.0000    0    12.011   -1.857601  -11.632965   -9.497764
 176 C     6.0000    0    12.011   -1.550142  -13.866810   -8.088406
 177 C     6.0000    0    12.011   -1.756878  -16.222732   -9.287059
 178 C     6.0000    0    12.011   -1.450554  -18.401208   -7.878646
 179 C     6.0000    0    12.011   -0.947320  -18.199008   -5.316933
 180 N     7.0000    0    14.007   -0.750599  -15.953257   -4.176295
 181 C     6.0000    0    12.011   -1.038216  -13.830528   -5.495513
 182 H     1.0000    0     1.008   -2.150508  -16.310415  -11.285444
 183 H     1.0000    0     1.008   -1.599275  -20.235943   -8.750944
 184 H     1.0000    0     1.008   -0.693718  -19.869903   -4.144169
 185 H     1.0000    0     1.008   -0.857558  -12.062311   -4.465234
* core charge reduced due to ECP

--------------------------------
INTERNAL COORDINATES (ANGSTROEM)
--------------------------------
 Pd     0   0   0     0.000000000000     0.00000000     0.00000000
 Pd     1   0   0    13.125867237634     0.00000000     0.00000000
 C      1   2   0     7.714332669778    68.02488507     0.00000000
 C      3   1   2     1.209611677358    48.08090677   179.91722219
 C      4   3   1     1.407803484155   175.88324135     0.00000000
 C      5   4   3     1.383269857981   122.04984427   180.06617054
 C      6   5   4     1.400073465930   120.89676957   180.00102495
 C      7   6   5     1.371448041305   121.14858333     0.00000000
 C      8   7   6     1.411371520897   119.75283047     0.00000000
 C      9   8   7     1.409103743519   122.67882761   180.01173521
 N     10   9   8     1.315740783741   122.61103053   179.98756456
 C     11  10   9     1.356341358213   120.08034059     0.00000000
 C     12  11  10     1.364791962169   121.93632637   359.97502682
 C     13  12  11     1.408897831640   119.76244814     0.00000000
 H      6   5   4     1.079529610525   119.46193576     0.00000000
 H      7   6   5     1.079276206538   118.82493246   179.99538623
 H      8   7   6     1.078452646156   120.64995112   180.00565111
 H     10   9   8     1.087173261261   120.22927360     0.00000000
 H     12  11  10     1.088800321455   116.30353810   179.97959278
 H     13  12  11     1.077938889734   121.23774562   180.00622074
 C      3   1   2     1.409392738026   130.41845533   359.88654641
 C     21   3   1     1.415675799751   120.36284399   179.92164195
 C     22  21   3     1.364657817916   120.14780234   179.97036004
 C     23  22  21     1.411959284116   121.09275836     0.00000000
 C     24  23  22     1.411986979402   122.09426987   180.02266770
 C     25  24  23     1.363972041502   120.99838051   179.97348252
 C     26  25  24     1.417742515410   120.22776930     0.00000000
 C     27  26  25     1.379064610524   120.04597727     0.00000000
 C     28  27  26     1.408241761914   120.49215669     0.00000000
 C     21   3   1     1.380261746916   119.69600889   359.90317182
 H     22  21   3     1.079910598152   119.11717206   359.97508733
 H     23  22  21     1.080722207600   120.24635784   180.00350413
 H     25  24  23     1.080606389950   118.63975029     0.00000000
 H     26  25  24     1.079507007851   120.58994997   180.00840917
 H     28  27  26     1.079165422908   120.21399417   180.00406835
 H     30  21   3     1.079359221946   120.15823414     0.00000000
 C     27  26  25     1.408621798071   118.64510738   180.01189182
 C     37  27  26     1.209580828221   179.03951366     0.06426641
 C     38  37  27     1.407085118250   175.48771260     0.00000000
 C     39  38  37     1.403080671237   119.86333889     0.62734997
 C     40  39  38     1.382213228847   119.21823366   180.04718058
 C     41  40  39     1.385703914983   119.05955602     0.00000000
 N     42  41  40     1.337016802437   121.67939229   359.97092912
 C     43  42  41     1.331225052348   120.29320056     0.00000000
 H     40  39  38     1.078768520119   119.76320870     0.04210090
 H     41  40  39     1.077932177829   120.78322678   180.00228857
 H     42  41  40     1.088485783095   121.25027825   179.98213478
 H     44  43  42     1.087106278153   116.95591808   180.00918762
 C     19  12  11     7.431302095192   104.05297287   277.77813162
 C     49  19  12     1.209543107954    64.81723746    44.41911523
 C     50  49  19     1.407804496370   175.88912405    16.30108308
 C     51  50  49     1.383259606871   122.04811958   179.57337562
 C     52  51  50     1.400151327536   120.89437960   180.03504147
 C     53  52  51     1.371408195980   121.15091003     0.00000000
 C     54  53  52     1.411391132890   119.75182910     0.00000000
 C     55  54  53     1.409018569785   122.67769140   179.97003875
 N     56  55  54     1.315769896296   122.61299045   180.00157428
 C     57  56  55     1.356435357841   120.07854270     0.00000000
 C     58  57  56     1.364783579913   121.93726046     0.03086110
 C     59  58  57     1.408993807651   119.75715191     0.00000000
 H     52  51  50     1.079503297818   119.46653690     0.03192594
 H     53  52  51     1.079357961938   118.82150235   180.00339310
 H     54  53  52     1.078413084119   120.65072638   179.98780705
 H     56  55  54     1.087144410831   120.23457713     0.00000000
 H     58  57  56     1.088820155030   116.30195538   180.03381311
 H     59  58  57     1.077846227437   121.24314202   179.99325655
 C     49  19  12     1.409498967719   113.73854884   223.95835058
 C     67  49  19     1.415761441769   120.35389924   164.27601408
 C     68  67  49     1.364691642826   120.14001974   179.99949040
 C     69  68  67     1.411908049414   121.09466352     0.00000000
 C     70  69  68     1.411993448993   122.09124671   179.99998195
 C     71  70  69     1.364043228787   120.99471952   180.00997895
 C     72  71  70     1.417736791510   120.22650918     0.00000000
 C     73  72  71     1.379059730396   120.05118815     0.00000000
 C     74  73  72     1.408189319658   120.48531130     0.00000000
 C     67  49  19     1.380115868324   119.69814519   344.27220863
 H     68  67  49     1.079863074653   119.12102078     0.00000000
 H     69  68  67     1.080754925966   120.24193457   180.00305051
 H     71  70  69     1.080532512236   118.64275999     0.00000000
 H     72  71  70     1.079562179775   120.58811109   180.00254901
 H     74  73  72     1.079164649162   120.21616016   180.00933322
 H     76  67  49     1.079347200858   120.16089964     0.00000000
 C     73  72  71     1.408719205520   118.64345996   179.99109682
 C     83  73  72     1.209443946613   179.03107479   358.53745498
 C     84  83  73     1.407176200765   175.50165836     1.72209726
 C     85  84  83     1.403076508962   119.86306391     0.24180876
 C     86  85  84     1.382301797727   119.21230417   180.02670085
 C     87  86  85     1.385547101329   119.06264764     0.00000000
 N     88  87  86     1.337089787561   121.68320178     0.00000000
 C     89  88  87     1.331211974105   120.28889598     0.00000000
 H     86  85  84     1.078771379858   119.76656588     0.02525436
 H     87  86  85     1.077947577575   120.77036608   179.99793772
 H     88  87  86     1.088485011380   121.25093526   180.00629844
 H     90  89  88     1.087156368698   116.95425065   179.99328054
 C     65  58  57     7.424633192286   103.59477636   277.29138788
 C     95  65  58     1.209612669411    64.82001991    44.57937238
 C     96  95  65     1.407758235636   175.90755336    16.02362548
 C     97  96  95     1.383336502808   122.04429771   180.00738683
 C     98  97  96     1.400206302657   120.89283255   180.01505043
 C     99  98  97     1.371403383400   121.14686387     0.00000000
 C    100  99  98     1.411385354891   119.75671660     0.00000000
 C    101 100  99     1.409055744107   122.67835090   180.01156936
 N    102 101 100     1.315788577242   122.60918087   179.99142203
 C    103 102 101     1.356405153337   120.08278425     0.00000000
 C    104 103 102     1.364753490562   121.93244940     0.00000000
 C    105 104 103     1.408943068403   119.76705087     0.00000000
 H     98  97  96     1.079484330595   119.46426132     0.00000000
 H     99  98  97     1.079206120257   118.81990844   179.99752244
 H    100  99  98     1.078387550930   120.64851603   180.00020572
 H    102 101 100     1.087102653846   120.23522815     0.00000000
 H    104 103 102     1.088822382209   116.29884755   179.98718595
 H    105 104 103     1.077944233251   121.23407541   179.99905629
 C     95  65  58     1.409468672940   113.71623824   224.11096737
 C    113  95  65     1.415659104446   120.36101918   164.06675085
 C    114 113  95     1.364717538540   120.14403681   179.98571861
 C    115 114 113     1.411937580065   121.09414835     0.00000000
 C    116 115 114     1.411967088852   122.09465268   180.01565532
 C    117 116 115     1.364069129480   120.99323608   179.99463918
 C    118 117 116     1.417632625189   120.23099103     0.00000000
 C    119 118 117     1.379082390577   120.05039825     0.00000000
 C    120 119 118     1.408235349649   120.48490348     0.00000000
 C    113  95  65     1.380161740522   119.69181699   344.06811803
 H    114 113  95     1.079912899265   119.12315101     0.00000000
 H    115 114 113     1.080750706685   120.24397806   180.00021851
 H    117 116 115     1.080557328419   118.63869705     0.00000000
 H    118 117 116     1.079586726484   120.58324010   179.99838995
 H    120 119 118     1.079129371299   120.22207466   180.01443307
 H    122 113  95     1.079317682612   120.16212712     0.00000000
 C    119 118 117     1.408672179749   118.64558491   179.98182851
 C    129 119 118     1.209502711861   179.04632398   358.72194316
 C    130 129 119     1.407191092212   175.47682173     1.36565725
 C    131 130 129     1.403040498346   119.86184211     0.63219760
 C    132 131 130     1.382240257698   119.21361831   180.06141903
 C    133 132 131     1.385678931066   119.05766600     0.00000000
 N    134 133 132     1.336965078078   121.68457130   359.97353038
 C    135 134 133     1.331148053373   120.29065592     0.00000000
 H    132 131 130     1.078700482062   119.76644993     0.05771240
 H    133 132 131     1.077911731080   120.78246240   180.00635131
 H    134 133 132     1.088559810024   121.24856203   179.98336100
 H    136 135 134     1.087202267290   116.95700062   180.01088919
 C     19  12  11     7.426080942866   103.39552172    82.66355421
 C    141  19  12     1.209648643202    64.91745264   315.13332988
 C    142 141  19     1.407735088715   175.88558762   344.15591366
 C    143 142 141     1.383229677241   122.05516704   179.88280174
 C    144 143 142     1.400113602534   120.89549906   180.01047475
 C    145 144 143     1.371398997375   121.15221252     0.00000000
 C    146 145 144     1.411466393507   119.74826069     0.00000000
 C    147 146 145     1.409106486395   122.67428396   179.96850122
 N    148 147 146     1.315754403375   122.61009436   179.98839582
 C    149 148 147     1.356423481071   120.07667901     0.00000000
 C    150 149 148     1.364831370536   121.94007971     0.03577135
 C    151 150 149     1.408972867021   119.75847066     0.00000000
 H    144 143 142     1.079511954542   119.46284741     0.00000000
 H    145 144 143     1.079290086121   118.82247885   180.01474704
 H    146 145 144     1.078356926069   120.65160320   179.98647472
 H    148 147 146     1.087140777452   120.23753394     0.00000000
 H    150 149 148     1.088839244333   116.29804333   180.02651429
 H    151 150 149     1.077789835729   121.23751052   179.98561045
 C    141  19  12     1.409463596550   113.62716212   135.59856135
 C    159 141  19     1.415712378981   120.35468759   195.81582196
 C    160 159 141     1.364740964432   120.14252196   179.99930599
 C    161 160 159     1.411975074143   121.08933462     0.00000000
 C    162 161 160     1.412041036939   122.09143510   180.00092402
 C    163 162 161     1.364010843065   120.99671260   179.98636750
 C    164 163 162     1.417654891008   120.22544415     0.00000000
 C    165 164 163     1.378987983994   120.05388122     0.00000000
 C    166 165 164     1.408248802591   120.48576502     0.00000000
 C    159 141  19     1.380176108328   119.69848799    15.81595774
 H    160 159 141     1.079897786830   119.12180448     0.00000000
 H    161 160 159     1.080680128438   120.25024579   179.99710149
 H    163 162 161     1.080641462281   118.63503463     0.00000000
 H    164 163 162     1.079512450137   120.58619178   180.00434120
 H    166 165 164     1.079152245978   120.22063243   180.00777664
 H    168 159 141     1.079313675444   120.16032756     0.00000000
 C    165 164 163     1.408684350733   118.63717531   180.00461170
 C    175 165 164     1.209569861562   179.02766020     0.89456412
 C    176 175 165     1.407142260043   175.49071755   359.28477932
 C    177 176 175     1.403055857762   119.85648342     0.31692286
 C    178 177 176     1.382279400121   119.21881155   180.00578323
 C    179 178 177     1.385646437588   119.05357291     0.00000000
 N    180 179 178     1.336960855822   121.68748262     0.00000000
 C    181 180 179     1.331281840934   120.28949001     0.00000000
 H    178 177 176     1.078817917908   119.76365227     0.00000000
 H    179 178 177     1.077921639081   120.77885383   180.00595084
 H    180 179 178     1.088560352025   121.24629913   180.01221856
 H    182 181 180     1.087160011222   116.94889390   179.98947340

---------------------------
INTERNAL COORDINATES (A.U.)
---------------------------
 Pd     0   0   0     0.000000000000     0.00000000     0.00000000
 Pd     1   0   0    24.804294349338     0.00000000     0.00000000
 C      1   2   0    14.577976051841    68.02488507     0.00000000
 C      3   1   2     2.285834798599    48.08090677   179.91722219
 C      4   3   1     2.660363035434   175.88324135     0.00000000
 C      5   4   3     2.614001200893   122.04984427   180.06617054
 C      6   5   4     2.645755417977   120.89676957   180.00102495
 C      7   6   5     2.591661204970   121.14858333     0.00000000
 C      8   7   6     2.667105647712   119.75283047     0.00000000
 C      9   8   7     2.662820169535   122.67882761   180.01173521
 N     10   9   8     2.486389744502   122.61103053   179.98756456
 C     11  10   9     2.563113711134   120.08034059     0.00000000
 C     12  11  10     2.579083038276   121.93632637   359.97502682
 C     13  12  11     2.662431052475   119.76244814     0.00000000
 H      6   5   4     2.040015317351   119.46193576     0.00000000
 H      7   6   5     2.039536453215   118.82493246   179.99538623
 H      8   7   6     2.037980149637   120.64995112   180.00565111
 H     10   9   8     2.054459723905   120.22927360     0.00000000
 H     12  11  10     2.057534422075   116.30353810   179.97959278
 H     13  12  11     2.037009290700   121.23774562   180.00622074
 C      3   1   2     2.663366290006   130.41845533   359.88654641
 C     21   3   1     2.675239555949   120.36284399   179.92164195
 C     22  21   3     2.578829542376   120.14780234   179.97036004
 C     23  22  21     2.668216359226   121.09275836     0.00000000
 C     24  23  22     2.668268695732   122.09426987   180.02266770
 C     25  24  23     2.577533612765   120.99838051   179.97348252
 C     26  25  24     2.679145082541   120.22776930     0.00000000
 C     27  26  25     2.606054434873   120.04597727     0.00000000
 C     28  27  26     2.661191260369   120.49215669     0.00000000
 C     21   3   1     2.608316694799   119.69600889   359.90317182
 H     22  21   3     2.040735279625   119.11717206   359.97508733
 H     23  22  21     2.042268999211   120.24635784   180.00350413
 H     25  24  23     2.042050135570   118.63975029     0.00000000
 H     26  25  24     2.039972604488   120.58994997   180.00840917
 H     28  27  26     2.039327102493   120.21399417   180.00406835
 H     30  21   3     2.039693329600   120.15823414     0.00000000
 C     27  26  25     2.661909424625   118.64510738   180.01189182
 C     37  27  26     2.285776502179   179.03951366     0.06426641
 C     38  37  27     2.659005520608   175.48771260     0.00000000
 C     39  38  37     2.651438212437   119.86333889     0.62734997
 C     40  39  38     2.612004461204   119.21823366   180.04718058
 C     41  40  39     2.618600902021   119.05955602     0.00000000
 N     42  41  40     2.526595593058   121.67939229   359.97092912
 C     43  42  41     2.515650771553   120.29320056     0.00000000
 H     40  39  38     2.038577064921   119.76320870     0.04210090
 H     41  40  39     2.036996607039   120.78322678   180.00228857
 H     42  41  40     2.056940030716   121.25027825   179.98213478
 H     44  43  42     2.054333144176   116.95591808   180.00918762
 C     19  12  11    14.043125778347   104.05297287   277.77813162
 C     49  19  12     2.285705221206    64.81723746    44.41911523
 C     50  49  19     2.660364948243   175.88912405    16.30108308
 C     51  50  49     2.613981829101   122.04811958   179.57337562
 C     52  51  50     2.645902555089   120.89437960   180.03504147
 C     53  52  51     2.591585908216   121.15091003     0.00000000
 C     54  53  52     2.667142709007   119.75182910     0.00000000
 C     55  54  53     2.662659214504   122.67769140   179.97003875
 N     56  55  54     2.486444759258   122.61299045   180.00157428
 C     57  56  55     2.563291344686   120.07854270     0.00000000
 C     58  57  56     2.579067198108   121.93726046     0.03086110
 C     59  58  57     2.662612420852   119.75715191     0.00000000
 H     52  51  50     2.039965593541   119.46653690     0.03192594
 H     53  52  51     2.039690948531   118.82150235   180.00339310
 H     54  53  52     2.037905388223   120.65072638   179.98780705
 H     56  55  54     2.054405204493   120.23457713     0.00000000
 H     58  57  56     2.057571902101   116.30195538   180.03381311
 H     59  58  57     2.036834184336   121.24314202   179.99325655
 C     49  19  12     2.663567035033   113.73854884   223.95835058
 C     67  49  19     2.675401395909   120.35389924   164.27601408
 C     68  67  49     2.578893462193   120.14001974   179.99949040
 C     69  68  67     2.668119539671   121.09466352     0.00000000
 C     70  69  68     2.668280921488   122.09124671   179.99998195
 C     71  70  69     2.577668137237   120.99471952   180.00997895
 C     72  71  70     2.679134265937   120.22650918     0.00000000
 C     73  72  71     2.606045212768   120.05118815     0.00000000
 C     74  73  72     2.661092158867   120.48531130     0.00000000
 C     67  49  19     2.608041024211   119.69814519   344.27220863
 H     68  67  49     2.040645473229   119.12102078     0.00000000
 H     69  68  67     2.042330827962   120.24193457   180.00305051
 H     71  70  69     2.041910526925   118.64275999     0.00000000
 H     72  71  70     2.040076864313   120.58811109   180.00254901
 H     74  73  72     2.039325640325   120.21616016   180.00933322
 H     76  67  49     2.039670613036   120.16089964     0.00000000
 C     73  72  71     2.662093498027   118.64345996   179.99109682
 C     83  73  72     2.285517833428   179.03107479   358.53745498
 C     84  83  73     2.659177641618   175.50165836     1.72209726
 C     85  84  83     2.651430346876   119.86306391     0.24180876
 C     86  85  84     2.612171832132   119.21230417   180.02670085
 C     87  86  85     2.618304567159   119.06264764     0.00000000
 N     88  87  86     2.526733514953   121.68320178     0.00000000
 C     89  88  87     2.515626057255   120.28889598     0.00000000
 H     86  85  84     2.038582469043   119.76656588     0.02525436
 H     87  86  85     2.037025708341   120.77036608   179.99793772
 H     88  87  86     2.056938572387   121.25093526   180.00629844
 H     90  89  88     2.054427801587   116.95425065   179.99328054
 C     65  58  57    14.030523378243   103.59477636   277.29138788
 C     95  65  58     2.285836673309    64.82001991    44.57937238
 C     96  95  65     2.660277528124   175.90755336    16.02362548
 C     97  96  95     2.614127141363   122.04429771   180.00738683
 C     98  97  96     2.646006443012   120.89283255   180.01505043
 C     99  98  97     2.591576813758   121.14686387     0.00000000
 C    100  99  98     2.667131790171   119.75671660     0.00000000
 C    101 100  99     2.662729463790   122.67835090   180.01156936
 N    102 101 100     2.486480061129   122.60918087   179.99142203
 C    103 102 101     2.563234266447   120.08278425     0.00000000
 C    104 103 102     2.579010337474   121.93244940     0.00000000
 C    105 104 103     2.662516537568   119.76705087     0.00000000
 H     98  97  96     2.039929750684   119.46426132     0.00000000
 H     99  98  97     2.039404009337   118.81990844   179.99752244
 H    100  99  98     2.037857137487   120.64851603   180.00020572
 H    102 101 100     2.054326295229   120.23522815     0.00000000
 H    104 103 102     2.057576110859   116.29884755   179.98718595
 H    105 104 103     2.037019388485   121.23407541   179.99905629
 C     95  65  58     2.663509786199   113.71623824   224.11096737
 C    113  95  65     2.675208006395   120.36101918   164.06675085
 C    114 113  95     2.578942398001   120.14403681   179.98571861
 C    115 114 113     2.668175344514   121.09414835     0.00000000
 C    116 115 114     2.668231108040   122.09465268   180.01565532
 C    117 116 115     2.577717082453   120.99323608   179.99463918
 C    118 117 116     2.678937420119   120.23099103     0.00000000
 C    119 118 117     2.606088034304   120.05039825     0.00000000
 C    120 119 118     2.661179142943   120.48490348     0.00000000
 C    113  95  65     2.608127710102   119.69181699   344.06811803
 H    114 113  95     2.040739628101   119.12315101     0.00000000
 H    115 114 113     2.042322854676   120.24397806   180.00021851
 H    117 116 115     2.041957422714   118.63869705     0.00000000
 H    118 117 116     2.040123250871   120.58324010   179.99838995
 H    120 119 118     2.039258974826   120.22207466   180.01443307
 H    122 113  95     2.039614831636   120.16212712     0.00000000
 C    119 118 117     2.662004632200   118.64558491   179.98182851
 C    129 119 118     2.285628883653   179.04632398   358.72194316
 C    130 129 119     2.659205782374   175.47682173     1.36565725
 C    131 130 129     2.651362296675   119.86184211     0.63219760
 C    132 131 130     2.612055538329   119.21361831   180.06141903
 C    133 132 131     2.618553689259   119.05766600     0.00000000
 N    134 133 132     2.526497848184   121.68457130   359.97353038
 C    135 134 133     2.515505264578   120.29065592     0.00000000
 H    132 131 130     2.038448491625   119.76644993     0.05771240
 H    133 132 131     2.036957968282   120.78246240   180.00635131
 H    134 133 132     2.057079921339   121.24856203   179.98336100
 H    136 135 134     2.054514537356   116.95700062   180.01088919
 C     19  12  11    14.033259230349   103.39552172    82.66355421
 C    141  19  12     2.285904653921    64.91745264   315.13332988
 C    142 141  19     2.660233786783   175.88558762   344.15591366
 C    143 142 141     2.613925270298   122.05516704   179.88280174
 C    144 143 142     2.645831265167   120.89549906   180.01047475
 C    145 144 143     2.591568525372   121.15221252     0.00000000
 C    146 145 144     2.667284930962   119.74826069     0.00000000
 C    147 146 145     2.662825352818   122.67428396   179.96850122
 N    148 147 146     2.486415481879   122.61009436   179.98839582
 C    149 148 147     2.563268900844   120.07667901     0.00000000
 C    150 149 148     2.579157509298   121.94007971     0.03577135
 C    151 150 149     2.662572848795   119.75847066     0.00000000
 H    144 143 142     2.039981952379   119.46284741     0.00000000
 H    145 144 143     2.039562681826   118.82247885   180.01474704
 H    146 145 144     2.037799264887   120.65160320   179.98647472
 H    148 147 146     2.054398338403   120.23753394     0.00000000
 H    150 149 148     2.057607975655   116.29804333   180.02651429
 H    151 150 149     2.036727619451   121.23751052   179.98561045
 C    141  19  12     2.663500193211   113.62716212   135.59856135
 C    159 141  19     2.675308680676   120.35468759   195.81582196
 C    160 159 141     2.578986666521   120.14252196   179.99930599
 C    161 160 159     2.668246198053   121.08933462     0.00000000
 C    162 161 160     2.668370849673   122.09143510   180.00092402
 C    163 162 161     2.577606937093   120.99671260   179.98636750
 C    164 163 162     2.678979496420   120.22544415     0.00000000
 C    165 164 163     2.605909631717   120.05388122     0.00000000
 C    166 165 164     2.661204565320   120.48576502     0.00000000
 C    159 141  19     2.608154861322   119.69848799    15.81595774
 H    160 159 141     2.040711069736   119.12180448     0.00000000
 H    161 160 159     2.042189481118   120.25024579   179.99710149
 H    163 162 161     2.042116412671   118.63503463     0.00000000
 H    164 163 162     2.039982888917   120.58619178   180.00434120
 H    166 165 164     2.039302201705   120.22063243   180.00777664
 H    168 159 141     2.039607259185   120.16032756     0.00000000
 C    165 164 163     2.662027632026   118.63717531   180.00461170
 C    175 165 164     2.285755778198   179.02766020     0.89456412
 C    176 175 165     2.659113502949   175.49071755   359.28477932
 C    177 176 175     2.651391321764   119.85648342     0.31692286
 C    178 177 176     2.612129506790   119.21881155   180.00578323
 C    179 178 177     2.618492285485   119.05357291     0.00000000
 N    180 179 178     2.526489869276   121.68748262     0.00000000
 C    181 180 179     2.515758086427   120.28949001     0.00000000
 H    178 177 176     2.038670413214   119.76365227     0.00000000
 H    179 178 177     2.036976691691   120.77885383   180.00595084
 H    180 179 178     2.057080945571   121.24629913   180.01221856
 H    182 181 180     2.054434684960   116.94889390   179.98947340

---------------------
BASIS SET INFORMATION
---------------------
There are 4 groups of distinct atoms

 Group   1 Type Pd  : 7s7p6d contracted to 6s4p3d pattern {211111/4111/411}
 Group   2 Type C   : 11s6p1d contracted to 5s3p1d pattern {62111/411/1}
 Group   3 Type N   : 11s6p1d contracted to 5s3p1d pattern {62111/411/1}
 Group   4 Type H   : 5s contracted to 3s pattern {311}

Atom   0Pd   basis set group =>   1
Atom   1Pd   basis set group =>   1
Atom   2C    basis set group =>   2
Atom   3C    basis set group =>   2
Atom   4C    basis set group =>   2
Atom   5C    basis set group =>   2
Atom   6C    basis set group =>   2
Atom   7C    basis set group =>   2
Atom   8C    basis set group =>   2
Atom   9C    basis set group =>   2
Atom  10N    basis set group =>   3
Atom  11C    basis set group =>   2
Atom  12C    basis set group =>   2
Atom  13C    basis set group =>   2
Atom  14H    basis set group =>   4
Atom  15H    basis set group =>   4
Atom  16H    basis set group =>   4
Atom  17H    basis set group =>   4
Atom  18H    basis set group =>   4
Atom  19H    basis set group =>   4
Atom  20C    basis set group =>   2
Atom  21C    basis set group =>   2
Atom  22C    basis set group =>   2
Atom  23C    basis set group =>   2
Atom  24C    basis set group =>   2
Atom  25C    basis set group =>   2
Atom  26C    basis set group =>   2
Atom  27C    basis set group =>   2
Atom  28C    basis set group =>   2
Atom  29C    basis set group =>   2
Atom  30H    basis set group =>   4
Atom  31H    basis set group =>   4
Atom  32H    basis set group =>   4
Atom  33H    basis set group =>   4
Atom  34H    basis set group =>   4
Atom  35H    basis set group =>   4
Atom  36C    basis set group =>   2
Atom  37C    basis set group =>   2
Atom  38C    basis set group =>   2
Atom  39C    basis set group =>   2
Atom  40C    basis set group =>   2
Atom  41C    basis set group =>   2
Atom  42N    basis set group =>   3
Atom  43C    basis set group =>   2
Atom  44H    basis set group =>   4
Atom  45H    basis set group =>   4
Atom  46H    basis set group =>   4
Atom  47H    basis set group =>   4
Atom  48C    basis set group =>   2
Atom  49C    basis set group =>   2
Atom  50C    basis set group =>   2
Atom  51C    basis set group =>   2
Atom  52C    basis set group =>   2
Atom  53C    basis set group =>   2
Atom  54C    basis set group =>   2
Atom  55C    basis set group =>   2
Atom  56N    basis set group =>   3
Atom  57C    basis set group =>   2
Atom  58C    basis set group =>   2
Atom  59C    basis set group =>   2
Atom  60H    basis set group =>   4
Atom  61H    basis set group =>   4
Atom  62H    basis set group =>   4
Atom  63H    basis set group =>   4
Atom  64H    basis set group =>   4
Atom  65H    basis set group =>   4
Atom  66C    basis set group =>   2
Atom  67C    basis set group =>   2
Atom  68C    basis set group =>   2
Atom  69C    basis set group =>   2
Atom  70C    basis set group =>   2
Atom  71C    basis set group =>   2
Atom  72C    basis set group =>   2
Atom  73C    basis set group =>   2
Atom  74C    basis set group =>   2
Atom  75C    basis set group =>   2
Atom  76H    basis set group =>   4
Atom  77H    basis set group =>   4
Atom  78H    basis set group =>   4
Atom  79H    basis set group =>   4
Atom  80H    basis set group =>   4
Atom  81H    basis set group =>   4
Atom  82C    basis set group =>   2
Atom  83C    basis set group =>   2
Atom  84C    basis set group =>   2
Atom  85C    basis set group =>   2
Atom  86C    basis set group =>   2
Atom  87C    basis set group =>   2
Atom  88N    basis set group =>   3
Atom  89C    basis set group =>   2
Atom  90H    basis set group =>   4
Atom  91H    basis set group =>   4
Atom  92H    basis set group =>   4
Atom  93H    basis set group =>   4
Atom  94C    basis set group =>   2
Atom  95C    basis set group =>   2
Atom  96C    basis set group =>   2
Atom  97C    basis set group =>   2
Atom  98C    basis set group =>   2
Atom  99C    basis set group =>   2
Atom 100C    basis set group =>   2
Atom 101C    basis set group =>   2
Atom 102N    basis set group =>   3
Atom 103C    basis set group =>   2
Atom 104C    basis set group =>   2
Atom 105C    basis set group =>   2
Atom 106H    basis set group =>   4
Atom 107H    basis set group =>   4
Atom 108H    basis set group =>   4
Atom 109H    basis set group =>   4
Atom 110H    basis set group =>   4
Atom 111H    basis set group =>   4
Atom 112C    basis set group =>   2
Atom 113C    basis set group =>   2
Atom 114C    basis set group =>   2
Atom 115C    basis set group =>   2
Atom 116C    basis set group =>   2
Atom 117C    basis set group =>   2
Atom 118C    basis set group =>   2
Atom 119C    basis set group =>   2
Atom 120C    basis set group =>   2
Atom 121C    basis set group =>   2
Atom 122H    basis set group =>   4
Atom 123H    basis set group =>   4
Atom 124H    basis set group =>   4
Atom 125H    basis set group =>   4
Atom 126H    basis set group =>   4
Atom 127H    basis set group =>   4
Atom 128C    basis set group =>   2
Atom 129C    basis set group =>   2
Atom 130C    basis set group =>   2
Atom 131C    basis set group =>   2
Atom 132C    basis set group =>   2
Atom 133C    basis set group =>   2
Atom 134N    basis set group =>   3
Atom 135C    basis set group =>   2
Atom 136H    basis set group =>   4
Atom 137H    basis set group =>   4
Atom 138H    basis set group =>   4
Atom 139H    basis set group =>   4
Atom 140C    basis set group =>   2
Atom 141C    basis set group =>   2
Atom 142C    basis set group =>   2
Atom 143C    basis set group =>   2
Atom 144C    basis set group =>   2
Atom 145C    basis set group =>   2
Atom 146C    basis set group =>   2
Atom 147C    basis set group =>   2
Atom 148N    basis set group =>   3
Atom 149C    basis set group =>   2
Atom 150C    basis set group =>   2
Atom 151C    basis set group =>   2
Atom 152H    basis set group =>   4
Atom 153H    basis set group =>   4
Atom 154H    basis set group =>   4
Atom 155H    basis set group =>   4
Atom 156H    basis set group =>   4
Atom 157H    basis set group =>   4
Atom 158C    basis set group =>   2
Atom 159C    basis set group =>   2
Atom 160C    basis set group =>   2
Atom 161C    basis set group =>   2
Atom 162C    basis set group =>   2
Atom 163C    basis set group =>   2
Atom 164C    basis set group =>   2
Atom 165C    basis set group =>   2
Atom 166C    basis set group =>   2
Atom 167C    basis set group =>   2
Atom 168H    basis set group =>   4
Atom 169H    basis set group =>   4
Atom 170H    basis set group =>   4
Atom 171H    basis set group =>   4
Atom 172H    basis set group =>   4
Atom 173H    basis set group =>   4
Atom 174C    basis set group =>   2
Atom 175C    basis set group =>   2
Atom 176C    basis set group =>   2
Atom 177C    basis set group =>   2
Atom 178C    basis set group =>   2
Atom 179C    basis set group =>   2
Atom 180N    basis set group =>   3
Atom 181C    basis set group =>   2
Atom 182H    basis set group =>   4
Atom 183H    basis set group =>   4
Atom 184H    basis set group =>   4
Atom 185H    basis set group =>   4

-------------------------
BASIS SET IN INPUT FORMAT
-------------------------

 # Basis set for element : H 
 NewGTO H 
 S 3 
   1      34.0613410000      0.0254393072
   2       5.1235746000      0.1900859489
   3       1.1646626000      0.8524411301
 S 1 
   1       0.3272304100      1.0000000000
 S 1 
   1       0.1030724100      1.0000000000
  end;

 # Basis set for element : C 
 NewGTO C 
 S 6 
   1   13575.3496820000      0.0006064549
   2    2035.2333680000      0.0046979088
   3     463.2256235900      0.0243324776
   4     131.2001959800      0.0973999683
   5      42.8530158910      0.3019558425
   6      15.5841857660      0.6623360915
 S 2 
   1       6.2067138508      0.6559530854
   2       2.5764896527      0.3758563329
 S 1 
   1       0.5769633942      1.0000000000
 S 1 
   1       0.2297283136      1.0000000000
 S 1 
   1       0.0951644400      1.0000000000
 P 4 
   1      34.6972322440      0.0113272200
   2       7.9582622826      0.0761696592
   3       2.3780826883      0.3019225220
   4       0.8143320818      0.7278502735
 P 1 
   1       0.2888754725      1.0000000000
 P 1 
   1       0.1005682367      1.0000000000
 D 1 
   1       0.8000000000      1.0000000000
  end;

 # Basis set for element : N 
 NewGTO N 
 S 6 
   1   19730.8006470000      0.0005862639
   2    2957.8958745000      0.0045428821
   3     673.2213359500      0.0235584136
   4     190.6824949400      0.0947091933
   5      62.2954418980      0.2971978492
   6      22.6541611820      0.6691624689
 S 2 
   1       8.9791477428      0.6459668363
   2       3.6863002370      0.3870057440
 S 1 
   1       0.8466007680      1.0000000000
 S 1 
   1       0.3364713377      1.0000000000
 S 1 
   1       0.1364765367      1.0000000000
 P 4 
   1      49.2003805100      0.0114488252
   2      11.3467905370      0.0784223379
   3       3.4273972411      0.3081809474
   4       1.1785525134      0.7202719637
 P 1 
   1       0.4164220497      1.0000000000
 P 1 
   1       0.1426082601      1.0000000000
 D 1 
   1       0.8000000000      1.0000000000
  end;

 # Basis set for element : Pd
 NewGTO Pd
 S 2 
   1      18.0000000000     -0.8955869481
   2      14.6621343080      1.8822771923
 S 1 
   1       5.6388709265      1.0000000000
 S 1 
   1       1.3198953252      1.0000000000
 S 1 
   1       0.5781790851      1.0000000000
 S 1 
   1       0.1035216624      1.0000000000
 S 1 
   1       0.0375484427      1.0000000000
 P 4 
   1      12.5528993000      0.0701895210
   2       7.2444496380     -0.2749252830
   3       1.8905941078      0.5623121361
   4       0.9073716876      0.5736959368
 P 1 
   1       0.4087721081      1.0000000000
 P 1 
   1       0.1150000000      1.0000000000
 P 1 
   1       0.0370000000      1.0000000000
 D 4 
   1      22.3574575750      0.0063445039
   2      10.6825263820     -0.0225156052
   3       2.4858232550      0.3884291800
   4       1.0735333903      0.6828976806
 D 1 
   1       0.4261384285      1.0000000000
 D 1 
   1       0.1504635538      1.0000000000
  end;

---------------------------------
AUXILIARY/J BASIS SET INFORMATION
---------------------------------
There are 4 groups of distinct atoms

 Group   1 Type Pd  : 11s5p5d3f3g contracted to 8s5p5d2f3g pattern {41111111/11111/11111/21/111}
 Group   2 Type C   : 8s3p3d contracted to 6s3p3d pattern {311111/111/111}
 Group   3 Type N   : 8s3p3d contracted to 6s3p3d pattern {311111/111/111}
 Group   4 Type H   : 5s2p contracted to 3s1p pattern {311/2}

Atom   0Pd   basis set group =>   1
Atom   1Pd   basis set group =>   1
Atom   2C    basis set group =>   2
Atom   3C    basis set group =>   2
Atom   4C    basis set group =>   2
Atom   5C    basis set group =>   2
Atom   6C    basis set group =>   2
Atom   7C    basis set group =>   2
Atom   8C    basis set group =>   2
Atom   9C    basis set group =>   2
Atom  10N    basis set group =>   3
Atom  11C    basis set group =>   2
Atom  12C    basis set group =>   2
Atom  13C    basis set group =>   2
Atom  14H    basis set group =>   4
Atom  15H    basis set group =>   4
Atom  16H    basis set group =>   4
Atom  17H    basis set group =>   4
Atom  18H    basis set group =>   4
Atom  19H    basis set group =>   4
Atom  20C    basis set group =>   2
Atom  21C    basis set group =>   2
Atom  22C    basis set group =>   2
Atom  23C    basis set group =>   2
Atom  24C    basis set group =>   2
Atom  25C    basis set group =>   2
Atom  26C    basis set group =>   2
Atom  27C    basis set group =>   2
Atom  28C    basis set group =>   2
Atom  29C    basis set group =>   2
Atom  30H    basis set group =>   4
Atom  31H    basis set group =>   4
Atom  32H    basis set group =>   4
Atom  33H    basis set group =>   4
Atom  34H    basis set group =>   4
Atom  35H    basis set group =>   4
Atom  36C    basis set group =>   2
Atom  37C    basis set group =>   2
Atom  38C    basis set group =>   2
Atom  39C    basis set group =>   2
Atom  40C    basis set group =>   2
Atom  41C    basis set group =>   2
Atom  42N    basis set group =>   3
Atom  43C    basis set group =>   2
Atom  44H    basis set group =>   4
Atom  45H    basis set group =>   4
Atom  46H    basis set group =>   4
Atom  47H    basis set group =>   4
Atom  48C    basis set group =>   2
Atom  49C    basis set group =>   2
Atom  50C    basis set group =>   2
Atom  51C    basis set group =>   2
Atom  52C    basis set group =>   2
Atom  53C    basis set group =>   2
Atom  54C    basis set group =>   2
Atom  55C    basis set group =>   2
Atom  56N    basis set group =>   3
Atom  57C    basis set group =>   2
Atom  58C    basis set group =>   2
Atom  59C    basis set group =>   2
Atom  60H    basis set group =>   4
Atom  61H    basis set group =>   4
Atom  62H    basis set group =>   4
Atom  63H    basis set group =>   4
Atom  64H    basis set group =>   4
Atom  65H    basis set group =>   4
Atom  66C    basis set group =>   2
Atom  67C    basis set group =>   2
Atom  68C    basis set group =>   2
Atom  69C    basis set group =>   2
Atom  70C    basis set group =>   2
Atom  71C    basis set group =>   2
Atom  72C    basis set group =>   2
Atom  73C    basis set group =>   2
Atom  74C    basis set group =>   2
Atom  75C    basis set group =>   2
Atom  76H    basis set group =>   4
Atom  77H    basis set group =>   4
Atom  78H    basis set group =>   4
Atom  79H    basis set group =>   4
Atom  80H    basis set group =>   4
Atom  81H    basis set group =>   4
Atom  82C    basis set group =>   2
Atom  83C    basis set group =>   2
Atom  84C    basis set group =>   2
Atom  85C    basis set group =>   2
Atom  86C    basis set group =>   2
Atom  87C    basis set group =>   2
Atom  88N    basis set group =>   3
Atom  89C    basis set group =>   2
Atom  90H    basis set group =>   4
Atom  91H    basis set group =>   4
Atom  92H    basis set group =>   4
Atom  93H    basis set group =>   4
Atom  94C    basis set group =>   2
Atom  95C    basis set group =>   2
Atom  96C    basis set group =>   2
Atom  97C    basis set group =>   2
Atom  98C    basis set group =>   2
Atom  99C    basis set group =>   2
Atom 100C    basis set group =>   2
Atom 101C    basis set group =>   2
Atom 102N    basis set group =>   3
Atom 103C    basis set group =>   2
Atom 104C    basis set group =>   2
Atom 105C    basis set group =>   2
Atom 106H    basis set group =>   4
Atom 107H    basis set group =>   4
Atom 108H    basis set group =>   4
Atom 109H    basis set group =>   4
Atom 110H    basis set group =>   4
Atom 111H    basis set group =>   4
Atom 112C    basis set group =>   2
Atom 113C    basis set group =>   2
Atom 114C    basis set group =>   2
Atom 115C    basis set group =>   2
Atom 116C    basis set group =>   2
Atom 117C    basis set group =>   2
Atom 118C    basis set group =>   2
Atom 119C    basis set group =>   2
Atom 120C    basis set group =>   2
Atom 121C    basis set group =>   2
Atom 122H    basis set group =>   4
Atom 123H    basis set group =>   4
Atom 124H    basis set group =>   4
Atom 125H    basis set group =>   4
Atom 126H    basis set group =>   4
Atom 127H    basis set group =>   4
Atom 128C    basis set group =>   2
Atom 129C    basis set group =>   2
Atom 130C    basis set group =>   2
Atom 131C    basis set group =>   2
Atom 132C    basis set group =>   2
Atom 133C    basis set group =>   2
Atom 134N    basis set group =>   3
Atom 135C    basis set group =>   2
Atom 136H    basis set group =>   4
Atom 137H    basis set group =>   4
Atom 138H    basis set group =>   4
Atom 139H    basis set group =>   4
Atom 140C    basis set group =>   2
Atom 141C    basis set group =>   2
Atom 142C    basis set group =>   2
Atom 143C    basis set group =>   2
Atom 144C    basis set group =>   2
Atom 145C    basis set group =>   2
Atom 146C    basis set group =>   2
Atom 147C    basis set group =>   2
Atom 148N    basis set group =>   3
Atom 149C    basis set group =>   2
Atom 150C    basis set group =>   2
Atom 151C    basis set group =>   2
Atom 152H    basis set group =>   4
Atom 153H    basis set group =>   4
Atom 154H    basis set group =>   4
Atom 155H    basis set group =>   4
Atom 156H    basis set group =>   4
Atom 157H    basis set group =>   4
Atom 158C    basis set group =>   2
Atom 159C    basis set group =>   2
Atom 160C    basis set group =>   2
Atom 161C    basis set group =>   2
Atom 162C    basis set group =>   2
Atom 163C    basis set group =>   2
Atom 164C    basis set group =>   2
Atom 165C    basis set group =>   2
Atom 166C    basis set group =>   2
Atom 167C    basis set group =>   2
Atom 168H    basis set group =>   4
Atom 169H    basis set group =>   4
Atom 170H    basis set group =>   4
Atom 171H    basis set group =>   4
Atom 172H    basis set group =>   4
Atom 173H    basis set group =>   4
Atom 174C    basis set group =>   2
Atom 175C    basis set group =>   2
Atom 176C    basis set group =>   2
Atom 177C    basis set group =>   2
Atom 178C    basis set group =>   2
Atom 179C    basis set group =>   2
Atom 180N    basis set group =>   3
Atom 181C    basis set group =>   2
Atom 182H    basis set group =>   4
Atom 183H    basis set group =>   4
Atom 184H    basis set group =>   4
Atom 185H    basis set group =>   4

-------------------------------------
AUXILIARY/J BASIS SET IN INPUT FORMAT
-------------------------------------

 # Auxiliary/J basis set for element : H 
 NewAuxJGTO H 
 S 3 
   1      15.6752927000      0.1007184237
   2       3.6063578000      0.3404257499
   3       1.2080016000      0.6491996172
 S 1 
   1       0.4726794000      1.0000000000
 S 1 
   1       0.2018100000      1.0000000000
 P 2 
   1       2.0281365000      0.5596620919
   2       0.5358730000      0.5596620919
  end;

 # Auxiliary/J basis set for element : C 
 NewAuxJGTO C 
 S 3 
   1     459.7023860000      0.1098751775
   2     132.9577920000      0.2844848472
   3      41.5658170000      0.6964707648
 S 1 
   1      13.9155610000      1.0000000000
 S 1 
   1       4.9305290000     -1.0000000000
 S 1 
   1       1.8229480000      1.0000000000
 S 1 
   1       0.6920510000      1.0000000000
 S 1 
   1       0.2650930000      1.0000000000
 P 1 
   1       0.3278473579      1.0000000000
 P 1 
   1       0.7868336591      1.0000000000
 P 1 
   1       1.9710183160      1.0000000000
 D 1 
   1       4.0133010000      1.0000000000
 D 1 
   1       1.2475050000      1.0000000000
 D 1 
   1       0.4081480000      1.0000000000
  end;

 # Auxiliary/J basis set for element : N 
 NewAuxJGTO N 
 S 3 
   1     680.5425300000      0.1043830093
   2     196.7562140000      0.2751518961
   3      61.2707930000      0.7090825511
 S 1 
   1      20.3644630000      1.0000000000
 S 1 
   1       7.1424770000     -1.0000000000
 S 1 
   1       2.6080260000      1.0000000000
 S 1 
   1       0.9763730000      1.0000000000
 S 1 
   1       0.3686330000      1.0000000000
 P 1 
   1       0.4707391941      1.0000000000
 P 1 
   1       1.1297740658     -1.0000000000
 P 1 
   1       2.8300840347      1.0000000000
 D 1 
   1       5.8329865000      1.0000000000
 D 1 
   1       1.7326865000      1.0000000000
 D 1 
   1       0.5452425000      1.0000000000
  end;

 # Auxiliary/J basis set for element : Pd
 NewAuxJGTO Pd
 S 4 
   1      51.0211803000      0.0154414011
   2      17.6543867000     -0.3899991562
   3      10.3849330000      1.7000917225
   4       6.2315704000     -2.2542519748
 S 1 
   1       3.6656295000     -1.0000000000
 S 1 
   1       2.1995933000      1.0000000000
 S 1 
   1       1.2683839000      1.0000000000
 S 1 
   1       0.7461081000      1.0000000000
 S 1 
   1       0.4477087000      1.0000000000
 S 1 
   1       0.2581689000      1.0000000000
 S 1 
   1       0.1518640000      1.0000000000
 P 1 
   1       5.6999676000      1.0000000000
 P 1 
   1       2.5155374000     -1.0000000000
 P 1 
   1       1.1229524000      1.0000000000
 P 1 
   1       0.5047808000     -1.0000000000
 P 1 
   1       0.2274325000     -1.0000000000
 D 1 
   1       3.8006002000      1.0000000000
 D 1 
   1       1.5882692000     -1.0000000000
 D 1 
   1       0.6550157000     -1.0000000000
 D 1 
   1       0.2680210000      1.0000000000
 D 1 
   1       0.1093843000     -1.0000000000
 F 2 
   1       2.0106185000     -1.3134732431
   2       0.8268460000      0.9210621264
 F 1 
   1       0.3451253000      1.0000000000
 G 1 
   1       7.5375072000      1.0000000000
 G 1 
   1       2.7664349000      1.0000000000
 G 1 
   1       1.0133462000      1.0000000000
  end;

-------------------------
ECP PARAMETER INFORMATION
-------------------------

 Group 1, Type Pd ECP Def2-ECP (replacing 28 core electrons, lmax=3)

Atom   0Pd   ECP group =>   1
Atom   1Pd   ECP group =>   1


-------------------------
ECP BASIS IN INPUT FORMAT
-------------------------

 #ECP Def2-ECP
 NewECP Pd
   N_core 28
   lmax f
   s 4
     1      12.4300000000    240.2290403000  2
     2       6.1707594000     35.1719435000  2
     3      13.2700000000     31.9295543000  2
     4       6.6300000000      5.3982169000  2
   p 4
     1      11.0800000000    170.4172760000  2
     2       5.8295541000     28.4721329000  2
     3      13.2700000000     31.9295543000  2
     4       6.6300000000      5.3982169000  2
   d 4
     1       9.5100000000     69.0138449000  2
     2       4.1397811000     11.7508616000  2
     3      13.2700000000     31.9295543000  2
     4       6.6300000000      5.3982169000  2
   f 2
     1      13.2700000000    -31.9295543000  2
     2       6.6300000000     -5.3982169000  2
 End




           ************************************************************
           *        Program running with 32 parallel MPI-processes    *
           *              working on a common directory               *
           ************************************************************
------------------------------------------------------------------------------
                           ORCA GTO INTEGRAL CALCULATION
                           -- RI-GTO INTEGRALS CHOSEN --
------------------------------------------------------------------------------

                         BASIS SET STATISTICS AND STARTUP INFO

Gaussian basis set:
 # of primitive gaussian shells          ... 2520
 # of primitive gaussian functions       ... 4516
 # of contracted shells                  ... 1298
 # of contracted basis functions         ... 2538
 Highest angular momentum                ...    2
 Maximum contraction depth               ...    6
Auxiliary gaussian basis set:
 # of primitive gaussian shells          ... 2182
 # of primitive gaussian functions       ... 4742
 # of contracted shells                  ... 1742
 # of contracted aux-basis functions     ... 4162
 Highest angular momentum                ...    4
 Maximum contraction depth               ...    4
Ratio of auxiliary to basis functions    ...  1.64
Integral package used                  ... LIBINT
 One Electron integrals                  
   ECP integrals                         ... done
 Ordering auxiliary basis shells         ... done
 Integral threshhold             Thresh  ...  2.500e-11
 Primitive cut-off               TCut    ...  2.500e-12
 Pre-screening matrix                    ... done
 Shell pair data                         ... 
 Ordering of the shell pairs             ... done (   0.045 sec) 206405 of 843051 pairs
 Determination of significant pairs      ... done (   0.001 sec)
 Creation of shell pair data             ... done (   0.021 sec)
 Storage of shell pair data              ... done (   0.533 sec)
 Shell pair data done in (   0.600 sec)
 Computing two index integrals           ... done
 Cholesky decomposition of the V-matrix  ... done


Timings:
 Total evaluation time                   ...  10.647 sec (  0.177 min)
 One electron matrix time                ...   5.572 sec (  0.093 min) = 52.3%
 Schwartz matrix evaluation time         ...   3.302 sec (  0.055 min) = 31.0%
 Two index repulsion integral time       ...   0.321 sec (  0.005 min) =  3.0%
 Cholesky decomposition of V             ...   0.820 sec (  0.014 min) =  7.7%
 Three index repulsion integral time     ...   0.001 sec (  0.000 min) =  0.0%



           ************************************************************
           *        Program running with 32 parallel MPI-processes    *
           *              working on a common directory               *
           ************************************************************
-------------------------------------------------------------------------------
                                 ORCA SCF
-------------------------------------------------------------------------------

------------
SCF SETTINGS
------------
Hamiltonian:
[...]
 83 C      6.0108     6.0000    -0.0108     3.1485     3.1485    -0.0000
 84 C      5.8977     6.0000     0.1023     3.7523     3.7523    -0.0000
 85 C      6.2281     6.0000    -0.2281     3.9477     3.9477    -0.0000
 86 C      6.0150     6.0000    -0.0150     3.8558     3.8558    -0.0000
 87 C      6.1327     6.0000    -0.1327     3.9529     3.9529    -0.0000
 88 N      7.0350     7.0000    -0.0350     3.2886     3.2886    -0.0000
 89 C      6.1660     6.0000    -0.1660     3.7339     3.7339    -0.0000
 90 H      0.7552     1.0000     0.2448     0.9062     0.9062    -0.0000
 91 H      0.7562     1.0000     0.2438     0.9096     0.9096    -0.0000
 92 H      0.8179     1.0000     0.1821     0.9505     0.9505    -0.0000
 93 H      0.8097     1.0000     0.1903     0.9467     0.9467    -0.0000
 94 C      5.9913     6.0000     0.0087     3.2741     3.2741    -0.0000
 95 C      5.9256     6.0000     0.0744     2.9655     2.9655    -0.0000
 96 C      6.1924     6.0000    -0.1924     3.6661     3.6661    -0.0000
 97 C      6.0945     6.0000    -0.0945     3.8149     3.8149    -0.0000
 98 C      6.1823     6.0000    -0.1823     4.1492     4.1492    -0.0000
 99 C      6.2274     6.0000    -0.2274     3.9399     3.9399    -0.0000
100 C      5.8043     6.0000     0.1957     3.4140     3.4140    -0.0000
101 C      6.2541     6.0000    -0.2541     3.8057     3.8057    -0.0000
102 N      7.0491     7.0000    -0.0491     3.3154     3.3154    -0.0000
103 C      6.1972     6.0000    -0.1972     3.9940     3.9940    -0.0000
104 C      5.9188     6.0000     0.0812     3.5586     3.5586    -0.0000
105 C      5.8489     6.0000     0.1511     3.4461     3.4461    -0.0000
106 H      0.7469     1.0000     0.2531     0.8964     0.8964    -0.0000
107 H      0.7787     1.0000     0.2213     0.9267     0.9267    -0.0000
108 H      0.7732     1.0000     0.2268     0.9044     0.9044    -0.0000
109 H      0.8011     1.0000     0.1989     0.9336     0.9336    -0.0000
110 H      0.8562     1.0000     0.1438     0.9583     0.9583    -0.0000
111 H      0.8460     1.0000     0.1540     0.9318     0.9318    -0.0000
112 C      6.1335     6.0000    -0.1335     3.8379     3.8379    -0.0000
113 C      6.1737     6.0000    -0.1737     3.8541     3.8541    -0.0000
114 C      6.2326     6.0000    -0.2326     3.9315     3.9315    -0.0000
115 C      5.8546     6.0000     0.1454     3.5552     3.5552    -0.0000
116 C      6.2209     6.0000    -0.2209     3.9374     3.9374    -0.0000
117 C      6.1873     6.0000    -0.1873     3.8776     3.8776    -0.0000
118 C      6.1371     6.0000    -0.1371     3.8596     3.8596    -0.0000
119 C      6.2890     6.0000    -0.2890     3.5300     3.5300    -0.0000
120 C      5.6500     6.0000     0.3500     3.5369     3.5369    -0.0000
121 C      6.2980     6.0000    -0.2980     3.6014     3.6014    -0.0000
122 H      0.7706     1.0000     0.2294     0.9090     0.9090    -0.0000
123 H      0.7733     1.0000     0.2267     0.9046     0.9046    -0.0000
124 H      0.7730     1.0000     0.2270     0.9036     0.9036    -0.0000
125 H      0.7824     1.0000     0.2176     0.9142     0.9142    -0.0000
126 H      0.8112     1.0000     0.1888     0.9058     0.9058    -0.0000
127 H      0.8238     1.0000     0.1762     0.8868     0.8868    -0.0000
128 C      5.9532     6.0000     0.0468     3.1896     3.1896    -0.0000
129 C      6.0104     6.0000    -0.0104     3.1476     3.1476    -0.0000
130 C      5.8975     6.0000     0.1025     3.7521     3.7521    -0.0000
131 C      6.2285     6.0000    -0.2285     3.9480     3.9480    -0.0000
132 C      6.0148     6.0000    -0.0148     3.8559     3.8559    -0.0000
133 C      6.1326     6.0000    -0.1326     3.9527     3.9527    -0.0000
134 N      7.0348     7.0000    -0.0348     3.2879     3.2879    -0.0000
135 C      6.1663     6.0000    -0.1663     3.7341     3.7341    -0.0000
136 H      0.7552     1.0000     0.2448     0.9062     0.9062    -0.0000
137 H      0.7562     1.0000     0.2438     0.9096     0.9096    -0.0000
138 H      0.8181     1.0000     0.1819     0.9506     0.9506    -0.0000
139 H      0.8095     1.0000     0.1905     0.9466     0.9466    -0.0000
140 C      5.9920     6.0000     0.0080     3.2748     3.2748    -0.0000
141 C      5.9252     6.0000     0.0748     2.9653     2.9653    -0.0000
142 C      6.1918     6.0000    -0.1918     3.6671     3.6671    -0.0000
143 C      6.0944     6.0000    -0.0944     3.8153     3.8153    -0.0000
144 C      6.1823     6.0000    -0.1823     4.1493     4.1493    -0.0000
145 C      6.2275     6.0000    -0.2275     3.9397     3.9397    -0.0000
146 C      5.8042     6.0000     0.1958     3.4141     3.4141    -0.0000
147 C      6.2541     6.0000    -0.2541     3.8056     3.8056    -0.0000
148 N      7.0490     7.0000    -0.0490     3.3150     3.3150    -0.0000
149 C      6.1973     6.0000    -0.1973     3.9942     3.9942    -0.0000
150 C      5.9185     6.0000     0.0815     3.5585     3.5585    -0.0000
151 C      5.8490     6.0000     0.1510     3.4469     3.4469    -0.0000
152 H      0.7469     1.0000     0.2531     0.8964     0.8964    -0.0000
153 H      0.7787     1.0000     0.2213     0.9267     0.9267    -0.0000
154 H      0.7732     1.0000     0.2268     0.9044     0.9044    -0.0000
155 H      0.8010     1.0000     0.1990     0.9336     0.9336    -0.0000
156 H      0.8564     1.0000     0.1436     0.9583     0.9583    -0.0000
157 H      0.8460     1.0000     0.1540     0.9317     0.9317    -0.0000
158 C      6.1338     6.0000    -0.1338     3.8377     3.8377    -0.0000
159 C      6.1738     6.0000    -0.1738     3.8540     3.8540    -0.0000
160 C      6.2325     6.0000    -0.2325     3.9313     3.9313    -0.0000
161 C      5.8546     6.0000     0.1454     3.5554     3.5554    -0.0000
162 C      6.2210     6.0000    -0.2210     3.9378     3.9378    -0.0000
163 C      6.1872     6.0000    -0.1872     3.8775     3.8775    -0.0000
164 C      6.1372     6.0000    -0.1372     3.8598     3.8598    -0.0000
165 C      6.2885     6.0000    -0.2885     3.5296     3.5296    -0.0000
166 C      5.6499     6.0000     0.3501     3.5368     3.5368    -0.0000
167 C      6.2981     6.0000    -0.2981     3.6013     3.6013    -0.0000
168 H      0.7706     1.0000     0.2294     0.9090     0.9090    -0.0000
169 H      0.7733     1.0000     0.2267     0.9045     0.9045    -0.0000
170 H      0.7730     1.0000     0.2270     0.9036     0.9036    -0.0000
171 H      0.7823     1.0000     0.2177     0.9142     0.9142    -0.0000
172 H      0.8112     1.0000     0.1888     0.9058     0.9058    -0.0000
173 H      0.8238     1.0000     0.1762     0.8868     0.8868    -0.0000
174 C      5.9538     6.0000     0.0462     3.1900     3.1900    -0.0000
175 C      6.0102     6.0000    -0.0102     3.1477     3.1477    -0.0000
176 C      5.8974     6.0000     0.1026     3.7520     3.7520    -0.0000
177 C      6.2284     6.0000    -0.2284     3.9478     3.9478    -0.0000
178 C      6.0148     6.0000    -0.0148     3.8556     3.8556    -0.0000
179 C      6.1325     6.0000    -0.1325     3.9527     3.9527    -0.0000
180 N      7.0347     7.0000    -0.0347     3.2878     3.2878    -0.0000
181 C      6.1664     6.0000    -0.1664     3.7339     3.7339    -0.0000
182 H      0.7552     1.0000     0.2448     0.9062     0.9062    -0.0000
183 H      0.7562     1.0000     0.2438     0.9096     0.9096    -0.0000
184 H      0.8182     1.0000     0.1818     0.9506     0.9506    -0.0000
185 H      0.8094     1.0000     0.1906     0.9465     0.9465    -0.0000

  Mayer bond orders larger than 0.100000
B(  0-Pd, 10-N ) :   0.5316 B(  0-Pd, 56-N ) :   0.5317 B(  0-Pd,102-N ) :   0.5317 
B(  0-Pd,148-N ) :   0.5316 B(  1-Pd, 42-N ) :   0.5325 B(  1-Pd, 88-N ) :   0.5325 
B(  1-Pd,134-N ) :   0.5324 B(  1-Pd,180-N ) :   0.5324 B(  2-C ,  3-C ) :   1.8368 
B(  2-C ,  4-C ) :  -0.2886 B(  2-C , 20-C ) :   1.5390 B(  3-C ,  4-C ) :   1.4590 
B(  3-C , 13-C ) :  -0.1815 B(  3-C , 20-C ) :  -0.4228 B(  4-C ,  5-C ) :   1.5163 
B(  4-C , 12-C ) :  -0.1296 B(  4-C , 13-C ) :   1.0638 B(  5-C ,  6-C ) :   1.4025 
B(  5-C , 14-H ) :   0.8595 B(  6-C ,  7-C ) :   1.6441 B(  6-C , 15-H ) :   0.8742 
B(  7-C ,  8-C ) :   1.3055 B(  7-C , 16-H ) :   0.8658 B(  8-C ,  9-C ) :   1.2236 
B(  8-C , 12-C ) :  -0.1070 B(  8-C , 13-C ) :   1.0865 B(  9-C , 10-N ) :   1.4914 
B(  9-C , 13-C ) :  -0.1133 B(  9-C , 17-H ) :   0.9295 B( 10-N , 11-C ) :   1.2657 
B( 10-N ,102-N ) :   0.1027 B( 11-C , 12-C ) :   1.4705 B( 11-C , 13-C ) :   0.1457 
B( 11-C , 18-H ) :   0.9230 B( 12-C , 13-C ) :   1.3682 B( 12-C , 19-H ) :   0.9013 
B( 20-C , 21-C ) :   1.2460 B( 20-C , 29-C ) :   1.3389 B( 21-C , 22-C ) :   1.6509 
B( 21-C , 30-H ) :   0.8854 B( 22-C , 23-C ) :   1.3191 B( 22-C , 28-C ) :  -0.1011 
B( 22-C , 31-H ) :   0.8786 B( 23-C , 24-C ) :   1.3022 B( 23-C , 27-C ) :  -0.1156 
B( 23-C , 28-C ) :   1.0123 B( 24-C , 25-C ) :   1.6659 B( 24-C , 32-H ) :   0.8806 
B( 25-C , 26-C ) :   1.2187 B( 25-C , 33-H ) :   0.8929 B( 26-C , 27-C ) :   1.3799 
B( 26-C , 36-C ) :   1.4998 B( 26-C , 37-C ) :  -0.4085 B( 27-C , 28-C ) :   1.2288 
B( 27-C , 34-H ) :   0.9399 B( 27-C , 36-C ) :  -0.1088 B( 27-C , 37-C ) :   0.1080 
B( 28-C , 29-C ) :   1.3075 B( 29-C , 35-H ) :   0.9393 B( 36-C , 37-C ) :   1.8644 
B( 36-C , 38-C ) :  -0.2886 B( 37-C , 38-C ) :   1.4084 B( 38-C , 39-C ) :   1.3358 
B( 38-C , 43-C ) :   1.2793 B( 39-C , 40-C ) :   1.4852 B( 39-C , 44-H ) :   0.9235 
B( 40-C , 41-C ) :   1.4204 B( 40-C , 45-H ) :   0.8703 B( 41-C , 42-N ) :   1.3342 
B( 41-C , 46-H ) :   0.9256 B( 42-N , 43-C ) :   1.3859 B( 43-C , 47-H ) :   0.9530 
B( 48-C , 49-C ) :   1.8365 B( 48-C , 50-C ) :  -0.2887 B( 48-C , 66-C ) :   1.5402 
B( 49-C , 50-C ) :   1.4594 B( 49-C , 59-C ) :  -0.1817 B( 49-C , 66-C ) :  -0.4233 
B( 50-C , 51-C ) :   1.5166 B( 50-C , 58-C ) :  -0.1296 B( 50-C , 59-C ) :   1.0637 
B( 51-C , 52-C ) :   1.4024 B( 51-C , 60-H ) :   0.8595 B( 52-C , 53-C ) :   1.6442 
B( 52-C , 61-H ) :   0.8742 B( 53-C , 54-C ) :   1.3056 B( 53-C , 62-H ) :   0.8657 
B( 54-C , 55-C ) :   1.2235 B( 54-C , 58-C ) :  -0.1070 B( 54-C , 59-C ) :   1.0862 
B( 55-C , 56-N ) :   1.4914 B( 55-C , 59-C ) :  -0.1134 B( 55-C , 63-H ) :   0.9296 
B( 56-N , 57-C ) :   1.2658 B( 56-N ,148-N ) :   0.1027 B( 57-C , 58-C ) :   1.4707 
B( 57-C , 59-C ) :   0.1456 B( 57-C , 64-H ) :   0.9229 B( 58-C , 59-C ) :   1.3686 
B( 58-C , 65-H ) :   0.9012 B( 66-C , 67-C ) :   1.2461 B( 66-C , 75-C ) :   1.3393 
B( 67-C , 68-C ) :   1.6509 B( 67-C , 76-H ) :   0.8854 B( 68-C , 69-C ) :   1.3190 
B( 68-C , 74-C ) :  -0.1011 B( 68-C , 77-H ) :   0.8786 B( 69-C , 70-C ) :   1.3024 
B( 69-C , 73-C ) :  -0.1155 B( 69-C , 74-C ) :   1.0124 B( 70-C , 71-C ) :   1.6657 
B( 70-C , 78-H ) :   0.8806 B( 71-C , 72-C ) :   1.2190 B( 71-C , 79-H ) :   0.8930 
B( 72-C , 73-C ) :   1.3800 B( 72-C , 82-C ) :   1.5002 B( 72-C , 83-C ) :  -0.4085 
B( 73-C , 74-C ) :   1.2285 B( 73-C , 80-H ) :   0.9400 B( 73-C , 82-C ) :  -0.1088 
B( 73-C , 83-C ) :   0.1079 B( 74-C , 75-C ) :   1.3074 B( 75-C , 81-H ) :   0.9394 
B( 82-C , 83-C ) :   1.8645 B( 82-C , 84-C ) :  -0.2884 B( 83-C , 84-C ) :   1.4084 
B( 84-C , 85-C ) :   1.3360 B( 84-C , 89-C ) :   1.2792 B( 85-C , 86-C ) :   1.4849 
B( 85-C , 90-H ) :   0.9235 B( 86-C , 87-C ) :   1.4208 B( 86-C , 91-H ) :   0.8703 
B( 87-C , 88-N ) :   1.3343 B( 87-C , 92-H ) :   0.9255 B( 88-N , 89-C ) :   1.3860 
B( 89-C , 93-H ) :   0.9531 B( 94-C , 95-C ) :   1.8364 B( 94-C , 96-C ) :  -0.2886 
B( 94-C ,112-C ) :   1.5400 B( 95-C , 96-C ) :   1.4584 B( 95-C ,105-C ) :  -0.1813 
B( 95-C ,112-C ) :  -0.4233 B( 96-C , 97-C ) :   1.5166 B( 96-C ,104-C ) :  -0.1297 
B( 96-C ,105-C ) :   1.0637 B( 97-C , 98-C ) :   1.4024 B( 97-C ,106-H ) :   0.8595 
B( 98-C , 99-C ) :   1.6442 B( 98-C ,107-H ) :   0.8742 B( 99-C ,100-C ) :   1.3056 
B( 99-C ,108-H ) :   0.8658 B(100-C ,101-C ) :   1.2237 B(100-C ,104-C ) :  -0.1070 
B(100-C ,105-C ) :   1.0862 B(101-C ,102-N ) :   1.4914 B(101-C ,105-C ) :  -0.1134 
B(101-C ,109-H ) :   0.9295 B(102-N ,103-C ) :   1.2657 B(103-C ,104-C ) :   1.4704 
B(103-C ,105-C ) :   0.1457 B(103-C ,110-H ) :   0.9230 B(104-C ,105-C ) :   1.3684 
B(104-C ,111-H ) :   0.9013 B(112-C ,113-C ) :   1.2459 B(112-C ,121-C ) :   1.3391 
B(113-C ,114-C ) :   1.6509 B(113-C ,122-H ) :   0.8854 B(114-C ,115-C ) :   1.3190 
B(114-C ,120-C ) :  -0.1011 B(114-C ,123-H ) :   0.8786 B(115-C ,116-C ) :   1.3024 
B(115-C ,119-C ) :  -0.1156 B(115-C ,120-C ) :   1.0122 B(116-C ,117-C ) :   1.6656 
B(116-C ,124-H ) :   0.8806 B(117-C ,118-C ) :   1.2187 B(117-C ,125-H ) :   0.8930 
B(118-C ,119-C ) :   1.3799 B(118-C ,128-C ) :   1.5007 B(118-C ,129-C ) :  -0.4091 
B(119-C ,120-C ) :   1.2288 B(119-C ,126-H ) :   0.9399 B(119-C ,128-C ) :  -0.1091 
B(119-C ,129-C ) :   0.1080 B(120-C ,121-C ) :   1.3074 B(121-C ,127-H ) :   0.9394 
B(128-C ,129-C ) :   1.8641 B(128-C ,130-C ) :  -0.2884 B(129-C ,130-C ) :   1.4081 
B(130-C ,131-C ) :   1.3360 B(130-C ,135-C ) :   1.2793 B(131-C ,132-C ) :   1.4851 
B(131-C ,136-H ) :   0.9235 B(132-C ,133-C ) :   1.4207 B(132-C ,137-H ) :   0.8703 
B(133-C ,134-N ) :   1.3342 B(133-C ,138-H ) :   0.9255 B(134-N ,135-C ) :   1.3860 
B(135-C ,139-H ) :   0.9529 B(140-C ,141-C ) :   1.8365 B(140-C ,142-C ) :  -0.2877 
B(140-C ,158-C ) :   1.5403 B(141-C ,142-C ) :   1.4578 B(141-C ,151-C ) :  -0.1809 
B(141-C ,158-C ) :  -0.4237 B(142-C ,143-C ) :   1.5169 B(142-C ,150-C ) :  -0.1296 
B(142-C ,151-C ) :   1.0641 B(143-C ,144-C ) :   1.4025 B(143-C ,152-H ) :   0.8595 
B(144-C ,145-C ) :   1.6441 B(144-C ,153-H ) :   0.8742 B(145-C ,146-C ) :   1.3055 
B(145-C ,154-H ) :   0.8658 B(146-C ,147-C ) :   1.2237 B(146-C ,150-C ) :  -0.1070 
B(146-C ,151-C ) :   1.0865 B(147-C ,148-N ) :   1.4914 B(147-C ,151-C ) :  -0.1133 
B(147-C ,155-H ) :   0.9294 B(148-N ,149-C ) :   1.2655 B(149-C ,150-C ) :   1.4703 
B(149-C ,151-C ) :   0.1459 B(149-C ,156-H ) :   0.9232 B(150-C ,151-C ) :   1.3683 
B(150-C ,157-H ) :   0.9013 B(158-C ,159-C ) :   1.2460 B(158-C ,167-C ) :   1.3389 
B(159-C ,160-C ) :   1.6508 B(159-C ,168-H ) :   0.8854 B(160-C ,161-C ) :   1.3191 
B(160-C ,166-C ) :  -0.1011 B(160-C ,169-H ) :   0.8785 B(161-C ,162-C ) :   1.3024 
B(161-C ,165-C ) :  -0.1156 B(161-C ,166-C ) :   1.0123 B(162-C ,163-C ) :   1.6658 
B(162-C ,170-H ) :   0.8806 B(163-C ,164-C ) :   1.2187 B(163-C ,171-H ) :   0.8930 
B(164-C ,165-C ) :   1.3800 B(164-C ,174-C ) :   1.5005 B(164-C ,175-C ) :  -0.4089 
B(165-C ,166-C ) :   1.2284 B(165-C ,172-H ) :   0.9399 B(165-C ,174-C ) :  -0.1092 
B(165-C ,175-C ) :   0.1081 B(166-C ,167-C ) :   1.3075 B(167-C ,173-H ) :   0.9393 
B(174-C ,175-C ) :   1.8644 B(174-C ,176-C ) :  -0.2880 B(175-C ,176-C ) :   1.4075 
B(176-C ,177-C ) :   1.3359 B(176-C ,181-C ) :   1.2794 B(177-C ,178-C ) :   1.4850 
B(177-C ,182-H ) :   0.9235 B(178-C ,179-C ) :   1.4206 B(178-C ,183-H ) :   0.8703 
B(179-C ,180-N ) :   1.3341 B(179-C ,184-H ) :   0.9257 B(180-N ,181-C ) :   1.3859 
B(181-C ,185-H ) :   0.9528 

-------
TIMINGS
-------

Total SCF time: 0 days 0 hours 11 min 47 sec 

Total time                  ....     707.020 sec
Sum of individual times     ....     691.146 sec  ( 97.8%)

Fock matrix formation       ....     230.793 sec  ( 32.6%)
  Split-RI-J                ....     109.855 sec  ( 47.6% of F)
  XC integration            ....     103.542 sec  ( 44.9% of F)
    Basis function eval.    ....      18.059 sec  ( 17.4% of XC)
    Density eval.           ....      40.572 sec  ( 39.2% of XC)
    XC-Functional eval.     ....       7.257 sec  (  7.0% of XC)
    XC-Potential eval.      ....      18.033 sec  ( 17.4% of XC)
Diagonalization             ....      67.433 sec  (  9.5%)
Density matrix formation    ....       3.224 sec  (  0.5%)
Population analysis         ....      13.367 sec  (  1.9%)
Initial guess               ....      13.072 sec  (  1.8%)
Orbital Transformation      ....       0.000 sec  (  0.0%)
Orbital Orthonormalization  ....       0.000 sec  (  0.0%)
DIIS solution               ....     319.557 sec  ( 45.2%)
Grid generation             ....      43.701 sec  (  6.2%)


-------------------------------------------------------------------------------
                          DFT DISPERSION CORRECTION                            
                                                                               
                              DFTD3 V3.1  Rev 1                                
                          USING Becke-Johnson damping                          
-------------------------------------------------------------------------------
The B97-3c composite method is recognized
Using three-body term ABC
Active option DFTDOPT                   ...         4   

molecular C6(AA) [au] = 550464.140772 


            DFT-D V3
 parameters
 s6 scaling factor         :     1.0000 
 a1 scaling factor         :     0.3700 
 s8 scaling factor         :     1.5000 
 a2 scaling factor         :     4.1000 
 Damping factor alpha9(ATM):    16.0000 
 ad hoc parameters k1-k3   :    16.0000     1.3333    -4.0000 

 Edisp/kcal,au: -432.375632709304  -0.689034356386 
 E6   /kcal   : -211.164657640 
 E8   /kcal   : -221.344062507 
 E6(ABC)      :   0.133087438 
 % E8         :  51.192538562 
 % E6(ABC)    :  -0.030780513 

-------------------------   ----------------
Dispersion correction           -0.689034356
-------------------------   ----------------

------------------   -----------------
SRB correction            -0.754529136
------------------   -----------------

-------------------------   --------------------
FINAL SINGLE POINT ENERGY     -4997.333088583235
-------------------------   --------------------


                            ***************************************
                            *     ORCA property calculations      *
                            ***************************************

                                    ---------------------
                                    Active property flags
                                    ---------------------
   (+) Dipole Moment


------------------------------------------------------------------------------
                       ORCA ELECTRIC PROPERTIES CALCULATION
------------------------------------------------------------------------------

Dipole Moment Calculation                       ... on
Quadrupole Moment Calculation                   ... off
Polarizability Calculation                      ... off
GBWName                                         ... _s_5a3_a_B97-3c.gbw
Electron density file                           ... _s_5a3_a_B97-3c.scfp
The origin for moment calculation is the CENTER OF MASS  = ( 0.000597, -2.119819 -0.035227)

-------------
DIPOLE MOMENT
-------------
                                X             Y             Z
Electronic contribution:     -0.01264    -106.83396      -3.38169
Nuclear contribution   :      0.00710     104.32317       3.30068
                        -----------------------------------------
Total Dipole Moment    :     -0.00555      -2.51079      -0.08101
                        -----------------------------------------
Magnitude (a.u.)       :      2.51210
Magnitude (Debye)      :      6.38526



--------------------
Rotational spectrum 
--------------------
 
Rotational constants in cm-1:     0.000312     0.000212     0.000212 
Rotational constants in MHz :     9.340887     6.364141     6.345005 

 Dipole components along the rotational axes: 
x,y,z [a.u.] :    -2.512105     0.000784     0.000396 
x,y,z [Debye]:    -6.385263     0.001993     0.001007 

 

Timings for individual modules:

Sum of individual times         ...      731.304 sec (=  12.188 min)
GTO integral calculation        ...       21.656 sec (=   0.361 min)   3.0 %
SCF iterations                  ...      709.647 sec (=  11.827 min)  97.0 %
                             ****ORCA TERMINATED NORMALLY****
TOTAL RUN TIME: 0 days 0 hours 12 minutes 20 seconds 992 msec
