Job execution start: Tue Jun 22 10:57:00 BST 2021
Shared library path: /work/e05/e05/atarzia/orca_4_2_1_linux_x86-64_openmpi314:/work/e05/e05/atarzia/openmpi-3.1.4/lib:/opt/cray/pe/papi/6.0.0.4/lib64:/opt/cray/libfabric/1.11.0.0.233/lib64
Slurm Job ID is: 344585
Slurm Job name is: s_5a3_d_PBE0
nid001521

                                 *****************
                                 * O   R   C   A *
                                 *****************

           --- An Ab Initio, DFT and Semiempirical electronic structure package ---

                  #######################################################
                  #                        -***-                        #
                  #          Department of theory and spectroscopy      #
                  #               Directorship: Frank Neese             #
                  #        Max Planck Institute fuer Kohlenforschung    #
                  #                Kaiser Wilhelm Platz 1               #
                  #                 D-45470 Muelheim/Ruhr               #
                  #                      Germany                        #
                  #                                                     #
                  #                  All rights reserved                #
                  #                        -***-                        #
                  #######################################################


                         Program Version 4.2.1 -  RELEASE  -


 With contributions from (in alphabetic order):
   Daniel Aravena         : Magnetic Suceptibility
   Michael Atanasov       : Ab Initio Ligand Field Theory (pilot matlab implementation)
   Alexander A. Auer      : GIAO ZORA, VPT2
   Ute Becker             : Parallelization
   Giovanni Bistoni       : ED, misc. LED, open-shell LED, HFLD
   Martin Brehm           : Molecular dynamics
   Dmytro Bykov           : SCF Hessian
   Vijay G. Chilkuri      : MRCI spin determinant printing, contributions to CSF-ICE
   Dipayan Datta          : RHF DLPNO-CCSD density
   Achintya Kumar Dutta   : EOM-CC, STEOM-CC
   Dmitry Ganyushin       : Spin-Orbit,Spin-Spin,Magnetic field MRCI
   Miquel Garcia          : C-PCM Hessian, Gaussian charge scheme
   Yang Guo               : DLPNO-NEVPT2, CIM, IAO-localization
   Andreas Hansen         : Spin unrestricted coupled pair/coupled cluster methods
   Benjamin Helmich-Paris : CASSCF linear response (MC-RPA)
   Lee Huntington         : MR-EOM, pCC
   Robert Izsak           : Overlap fitted RIJCOSX, COSX-SCS-MP3, EOM
   Christian Kollmar      : KDIIS, OOCD, Brueckner-CCSD(T), CCSD density
   Simone Kossmann        : Meta GGA functionals, TD-DFT gradient, OOMP2, MP2 Hessian
   Martin Krupicka        : AUTO-CI
   Lucas Lang             : DCDCAS
   Dagmar Lenk            : GEPOL surface, SMD
   Dimitrios Liakos       : Extrapolation schemes; Compound Job, initial MDCI parallelization
   Dimitrios Manganas     : Further ROCIS development; embedding schemes
   Dimitrios Pantazis     : SARC Basis sets
   Taras Petrenko         : DFT Hessian,TD-DFT gradient, ASA, ECA, R-Raman, ABS, FL, XAS/XES, NRVS
   Peter Pinski           : DLPNO-MP2, DLPNO-MP2 Gradient
   Christoph Reimann      : Effective Core Potentials
   Marius Retegan         : Local ZFS, SOC
   Christoph Riplinger    : Optimizer, TS searches, QM/MM, DLPNO-CCSD(T), (RO)-DLPNO pert. Triples
   Tobias Risthaus        : Range-separated hybrids, TD-DFT gradient, RPA, STAB
   Michael Roemelt        : Original ROCIS implementation
   Masaaki Saitow         : Open-shell DLPNO-CCSD energy and density
   Barbara Sandhoefer     : DKH picture change effects
   Avijit Sen             : IP-ROCIS
   Kantharuban Sivalingam : CASSCF convergence, NEVPT2, FIC-MRCI
   Bernardo de Souza      : ESD, SOC TD-DFT
   Georgi Stoychev        : AutoAux, RI-MP2 NMR
   Willem Van den Heuvel  : Paramagnetic NMR
   Boris Wezisla          : Elementary symmetry handling
   Frank Wennmohs         : Technical directorship


 We gratefully acknowledge several colleagues who have allowed us to
 interface, adapt or use parts of their codes:
   Stefan Grimme, W. Hujo, H. Kruse,             : VdW corrections, initial TS optimization,
                  C. Bannwarth                     DFT functionals, gCP, sTDA/sTD-DF
   Ed Valeev, F. Pavosevic, A. Kumar             : LibInt (2-el integral package), F12 methods
   Garnet Chan, S. Sharma, J. Yang, R. Olivares  : DMRG
   Ulf Ekstrom                                   : XCFun DFT Library
   Mihaly Kallay                                 : mrcc  (arbitrary order and MRCC methods)
   Andreas Klamt, Michael Diedenhofen            : otool_cosmo (COSMO solvation model)
   Jiri Pittner, Ondrej Demel                    : Mk-CCSD
   Frank Weinhold                                : gennbo (NPA and NBO analysis)
   Christopher J. Cramer and Donald G. Truhlar   : smd solvation model
   Lars Goerigk                                  : TD-DFT with DH, B97 family of functionals
   V. Asgeirsson, H. Jonsson                     : NEB implementation
   FAccTs GmbH                                   : IRC, NEB, NEB-TS, Multilevel, MM, QM/MM, CI optimization
   S Lehtola, MJT Oliveira, MAL Marques          : LibXC Library


 Your calculation uses the libint2 library for the computation of 2-el integrals
 For citations please refer to: http://libint.valeyev.net

 Your ORCA version has been built with support for libXC version: 4.2.3
 For citations please refer to: https://tddft.org/programs/libxc/

 This ORCA versions uses:
   CBLAS   interface :  Fast vector & matrix operations
   LAPACKE interface :  Fast linear algebra routines
   SCALAPACK package :  Parallel linear algebra routines




***************************************
The coordinates will be read from file: s_5a3_d.xyz
***************************************


Your calculation utilizes the atom-pairwise dispersion correction
with the Becke-Johnson damping scheme (D3BJ)
Cite in your paper:
S.Grimme, S.Ehrlich, L.Goerigk, J Comput Chem, (2011), 32, 1456–1465 
S.Grimme, J.Antony, S.Ehrlich and H.Krieg, J.Chem.Phys., 132, (2010), 154104 
   

----- Orbital basis set information -----
Your calculation utilizes the basis: def2-SVP
   F. Weigend and R. Ahlrichs, Phys. Chem. Chem. Phys. 7, 3297 (2005).

cite the ECPs for Pd [Def2-ECP] as follows:
Ce-Yb(ecp-28): M. Dolg, H. Stoll, H.Preuss, J. Chem. Phys., 1989, 90, 1730-1734.
Y-Cd(ecp-28), Hf-Hg(ecp-46): D. Andrae,U. Haeussermann, M. Dolg, H. Stoll, H. Preuss, Theor. Chim. Acta, 1990, 77, 123-141.
In-Sb(ecp-28), Tl-Bi(ecp-46): B. Metz, H. Stoll, M. Dolg, J. Chem. Phys., 2000, 113, 2563-2569.
Te-Xe(ecp-28), Po-Rn(ecp-46): K. A. Peterson, D. Figgen, E. Goll, H. Stoll, M. Dolg, J. Chem. Phys., 2003, 119, 11113-11123.
Rb(ecp-28), Cs(ecp-46): T. Leininger, A. Nicklass, W. Kuechle, H. Stoll, M. Dolg, A. Bergner, Chem. Phys. Lett., 1996, 255, 274-280.
Sr(ecp-28), Ba(ecp-46): M. Kaupp, P. V. Schleyer, H. Stoll and H. Preuss, J. Chem. Phys., 1991, 94, 1360-1366.
La(ecp-46): M. Dolg, H. Stoll, A. Savin, H. Preuss, Theor. Chim. Acta, 1989, 75, 173-194.
Lu(ecp-28): X. Cao, M. Dolg, J. Chem. Phys., 2001, 115, 7348-7355.

ECP parameters for Pd [Def2-ECP] have been obtained from:
TURBOMOLE (7.0.2)

================================================================================
                                        WARNINGS
                       Please study these warnings very carefully!
================================================================================


INFO   : the flag for use of LIBINT has been found!

================================================================================
                                       INPUT FILE
================================================================================
NAME = s_5a3_d_PBE0.in
|  1> ! DFT SP RKS PBE0 def2-SVP D3BJ Grid6 NOFINALGRID SlowConv TightSCF printbasis 
|  2> 
|  3> %base "_s_5a3_d_PBE0"
|  4> %maxcore 3000
|  5> %scf
|  6>    MaxIter 2000
|  7> end
|  8> %pal
|  9>    nprocs 32
| 10> end
| 11> 
| 12> * xyzfile 4 1 s_5a3_d.xyz
| 13> 
| 14>                          ****END OF INPUT****
================================================================================

                       ****************************
                       * Single Point Calculation *
                       ****************************

---------------------------------
CARTESIAN COORDINATES (ANGSTROEM)
---------------------------------
  Pd    -0.151800    5.308800   -0.074700
  Pd     0.318900   -7.979100    0.059000
  C      7.263500   -4.523900   -0.119800
  C      6.893600   -5.675100   -0.094300
  C      6.421400   -7.000900   -0.064000
  C      7.295000   -8.074400   -0.060400
  C      6.820000   -9.390500   -0.030300
  C      5.474900   -9.656400   -0.003600
  C      4.550900   -8.590100   -0.006400
  C      3.157700   -8.796000    0.020300
  N      2.294000   -7.804700    0.018100
  C      2.731300   -6.519300   -0.010800
  C      4.061300   -6.211800   -0.038200
  C      5.019300   -7.246100   -0.036700
  H      8.358700   -7.891300   -0.081100
  H      7.531800  -10.201700   -0.028300
  H      5.115300  -10.672800    0.019500
  H      2.757800   -9.805800    0.044000
  H      1.957400   -5.750000   -0.011000
  H      4.398100   -5.187900   -0.061100
  C      7.683000   -3.178700   -0.150000
  C      9.065400   -2.873000   -0.186200
  C      9.480300   -1.573400   -0.216100
  C      8.549800   -0.511500   -0.211800
  C      8.955000    0.840800   -0.242600
  C      8.037100    1.850000   -0.237800
  C      6.652000    1.552600   -0.201200
  C      6.227000    0.240600   -0.170500
  C      7.160100   -0.813600   -0.175200
  C      6.752200   -2.160300   -0.144800
  H      9.781900   -3.680900   -0.189700
  H     10.534900   -1.338800   -0.243800
  H     10.011900    1.064000   -0.270300
  H      8.353700    2.881800   -0.261600
  H      5.172600    0.012400   -0.142800
  H      5.697800   -2.388900   -0.117100
  C      5.723900    2.612000   -0.196600
  C      4.931700    3.525800   -0.192100
  C      4.052900    4.624400   -0.188200
  C      4.545300    5.936600   -0.226000
  C      3.651200    6.992000   -0.219700
  C      2.291900    6.725600   -0.175900
  N      1.825300    5.472200   -0.140200
  C      2.666500    4.443000   -0.145700
  H      5.609600    6.109800   -0.259400
  H      4.002800    8.010700   -0.248200
  H      1.552300    7.526600   -0.169100
  H      2.232200    3.447900   -0.115400
  C      0.177600    2.181400    7.018100
  C      0.132100    3.313900    6.596000
  C      0.077300    4.615900    6.063700
  C      0.074100    5.728600    6.886800
  C      0.019300    7.020900    6.352100
  C     -0.033200    7.223800    4.996800
  C     -0.032100    6.115800    4.123100
  C     -0.084500    6.256600    2.722500
  N     -0.083400    5.226500    1.905600
  C     -0.030200    3.963200    2.401100
  C      0.023100    3.718000    3.743300
  C      0.023700    4.795400    4.652400
  H      0.114700    5.595300    7.957200
  H      0.018800    7.864100    7.025600
  H     -0.075400    8.222000    4.591100
  H     -0.128100    7.246400    2.276900
  H     -0.032800    3.158900    1.663700
  H      0.064900    2.711200    4.126600
  C      0.229900    0.857400    7.498500
  C      0.272200    0.615800    8.893400
  C      0.322200   -0.662800    9.367200
  C      0.332900   -1.766100    8.486200
  C      0.384000   -3.097900    8.952700
  C      0.393300   -4.147900    8.081900
  C      0.351600   -3.914700    6.684700
  C      0.301300   -2.624200    6.200200
  C      0.290800   -1.528400    7.084200
  C      0.239500   -0.202400    6.615300
  H      0.264200    1.455600    9.572200
  H      0.354300   -0.848600   10.431300
  H      0.415800   -3.272100   10.018700
  H      0.432500   -5.163800    8.445200
  H      0.269500   -2.444800    5.136600
  H      0.207600   -0.022600    5.551600
  C      0.362400   -5.015500    5.805900
  C      0.371800   -5.964400    5.056400
  C      0.385500   -7.102000    4.228800
  C      0.436200   -8.389900    4.781000
  C      0.448800   -9.485000    3.936200
  C      0.411100   -9.281600    2.565900
  N      0.362600   -8.051500    2.042100
  C      0.349500   -6.984900    2.835400
  H      0.464800   -8.513700    5.852300
  H      0.487600  -10.486100    4.334300
  H      0.419500  -10.115600    1.863700
  H      0.309800   -6.011100    2.355700
  C     -6.853300   -5.022700    0.142100
  C     -6.403000   -6.145200    0.144300
  C     -5.838000   -7.434600    0.145700
  C     -6.633400   -8.567100    0.162400
  C     -6.066100   -9.846600    0.163400
  C     -4.705400  -10.016900    0.147600
  C     -3.859300   -8.887900    0.130300
  C     -2.454900   -8.994900    0.112900
  N     -1.663800   -7.945000    0.096600
  C     -2.191100   -6.693600    0.096500
  C     -3.539800   -6.480700    0.112300
  C     -4.421900   -7.580200    0.129500
  H     -7.707500   -8.459600    0.174800
  H     -6.718600  -10.706100    0.176700
  H     -4.274600  -11.005500    0.148300
  H     -1.984200   -9.974000    0.112200
  H     -1.473800   -5.871400    0.083300
  H     -3.948400   -5.483100    0.111900
  C     -7.366900   -3.710200    0.140200
  C     -8.767700   -3.502400    0.158800
  C     -9.273500   -2.235100    0.157700
  C     -8.420300   -1.110300    0.138100
  C     -8.920200    0.210200    0.136900
  C     -8.075900    1.281600    0.118200
  C     -6.673000    1.082200    0.099100
  C     -6.156100   -0.196700    0.099400
  C     -7.012400   -1.314000    0.119000
  C     -6.510300   -2.628800    0.120500
  H     -9.425400   -4.358800    0.174000
  H    -10.342300   -2.075200    0.171900
  H     -9.990500    0.358600    0.151400
  H     -8.464700    2.288700    0.117600
  H     -5.088000   -0.350200    0.085000
  H     -5.442200   -2.782700    0.106100
  C     -5.822000    2.204500    0.080000
  C     -5.096700    3.172000    0.063300
  C     -4.297900    4.329900    0.043300
  C     -4.882200    5.604500    0.055800
  C     -4.065100    6.720300    0.033700
  C     -2.690200    6.550300   -0.000800
  N     -2.135800    5.332700   -0.012300
  C     -2.902000    4.246700    0.009100
  H     -5.956300    5.702200    0.082200
  H     -4.488100    7.711800    0.042800
  H     -2.009200    7.401400   -0.019600
  H     -2.398100    3.284500   -0.001300
  C     -0.304100    2.023200   -7.101000
  C     -0.331800    3.164800   -6.702400
  C     -0.361700    4.478200   -6.196600
  C     -0.440900    5.571400   -7.041600
  C     -0.470800    6.875100   -6.533200
  C     -0.422700    7.108700   -5.182700
  C     -0.341600    6.021300   -4.287100
  C     -0.290100    6.193700   -2.890100
  N     -0.214800    5.182800   -2.053000
  C     -0.182900    3.909000   -2.523000
  C     -0.228100    3.633500   -3.859600
  C     -0.310000    4.689700   -4.789700
  H     -0.480200    5.413900   -8.108900
  H     -0.532800    7.702500   -7.223300
  H     -0.446300    8.115500   -4.797200
  H     -0.312600    7.193000   -2.464500
  H     -0.118900    3.122000   -1.769900
  H     -0.202500    2.618700   -4.222400
  C     -0.271100    0.689100   -7.554200
  C     -0.317300    0.416200   -8.943200
  C     -0.285200   -0.872400   -9.390800
  C     -0.205800   -1.955300   -8.488200
  C     -0.170700   -3.296700   -8.927600
  C     -0.093500   -4.326600   -8.036300
  C     -0.047500   -4.062100   -6.644800
  C     -0.080400   -2.761400   -6.186700
  C     -0.159400   -1.686200   -7.092000
  C     -0.193700   -0.350300   -6.650200
  H     -0.377900    1.240300   -9.638500
  H     -0.320300   -1.082000  -10.450400
  H     -0.206100   -3.494800   -9.989300
  H     -0.066800   -5.350000   -8.378900
  H     -0.045200   -2.558200   -5.127400
  H     -0.158400   -0.146700   -5.590900
  C      0.031600   -5.142500   -5.744600
  C      0.099100   -6.074400   -4.976800
  C      0.175800   -7.193000   -4.127000
  C      0.218800   -8.491800   -4.653500
  C      0.292300   -9.567700   -3.787200
  C      0.321100   -9.334600   -2.421400
  N      0.280400   -8.093900   -1.922300
  C      0.210300   -7.045500   -2.736500
  H      0.194100   -8.639000   -5.721900
  H      0.326600  -10.576700   -4.165200
  H      0.378100  -10.152600   -1.702900
  H      0.180200   -6.062000   -2.276300

----------------------------
CARTESIAN COORDINATES (A.U.)
----------------------------
  NO LB      ZA    FRAG     MASS         X           Y           Z
   0 Pd   18.0000*   0   106.400   -0.286860   10.032178   -0.141163
   1 Pd   18.0000*   0   106.400    0.602634  -15.078314    0.111494
   2 C     6.0000    0    12.011   13.726026   -8.548932   -0.226389
   3 C     6.0000    0    12.011   13.027016  -10.724385   -0.178201
   4 C     6.0000    0    12.011   12.134687  -13.229784   -0.120942
   5 C     6.0000    0    12.011   13.785552  -15.258405   -0.114139
   6 C     6.0000    0    12.011   12.887932  -17.745473   -0.057259
   7 C     6.0000    0    12.011   10.346062  -18.247951   -0.006803
   8 C     6.0000    0    12.011    8.599955  -16.232936   -0.012094
   9 C     6.0000    0    12.011    5.967188  -16.622031    0.038361
  10 N     7.0000    0    14.007    4.335032  -14.748746    0.034204
  11 C     6.0000    0    12.011    5.161409  -12.319692   -0.020409
  12 C     6.0000    0    12.011    7.674745  -11.738601   -0.072188
  13 C     6.0000    0    12.011    9.485102  -13.693145   -0.069353
  14 H     1.0000    0     1.008   15.795654  -14.912396   -0.153257
  15 H     1.0000    0     1.008   14.233039  -19.278419   -0.053479
  16 H     1.0000    0     1.008    9.666516  -20.168669    0.036850
  17 H     1.0000    0     1.008    5.211487  -18.530277    0.083148
  18 H     1.0000    0     1.008    3.698950  -10.865925   -0.020787
  19 H     1.0000    0     1.008    8.311205   -9.803710   -0.115462
  20 C     6.0000    0    12.011   14.518766   -6.006872   -0.283459
  21 C     6.0000    0    12.011   17.131123   -5.429183   -0.351867
  22 C     6.0000    0    12.011   17.915171   -2.973295   -0.408370
  23 C     6.0000    0    12.011   16.156780   -0.966595   -0.400244
  24 C     6.0000    0    12.011   16.922498    1.588882   -0.458448
  25 C     6.0000    0    12.011   15.187918    3.495993   -0.449377
  26 C     6.0000    0    12.011   12.570458    2.933989   -0.380213
  27 C     6.0000    0    12.011   11.767325    0.454668   -0.322198
  28 C     6.0000    0    12.011   13.530628   -1.537481   -0.331080
  29 C     6.0000    0    12.011   12.759809   -4.082375   -0.273632
  30 H     1.0000    0     1.008   18.485112   -6.955893   -0.358481
  31 H     1.0000    0     1.008   19.908076   -2.529965   -0.460715
  32 H     1.0000    0     1.008   18.919749    2.010669   -0.510793
  33 H     1.0000    0     1.008   15.786205    5.445813   -0.494352
  34 H     1.0000    0     1.008    9.774797    0.023433   -0.269853
  35 H     1.0000    0     1.008   10.767282   -4.514367   -0.221287
  36 C     6.0000    0    12.011   10.816603    4.935965   -0.371520
  37 C     6.0000    0    12.011    9.319562    6.662796   -0.363016
  38 C     6.0000    0    12.011    7.658871    8.738850   -0.355646
  39 C     6.0000    0    12.011    8.589372   11.218548   -0.427078
  40 C     6.0000    0    12.011    6.899768   13.212965   -0.415173
  41 C     6.0000    0    12.011    4.331063   12.709542   -0.332403
  42 N     7.0000    0    14.007    3.449317   10.340959   -0.264940
  43 C     6.0000    0    12.011    5.038955    8.396053   -0.275333
  44 H     1.0000    0     1.008   10.600608   11.545849   -0.490195
  45 H     1.0000    0     1.008    7.564196   15.138029   -0.469030
  46 H     1.0000    0     1.008    2.933422   14.223213   -0.319553
  47 H     1.0000    0     1.008    4.218247    6.515587   -0.218074
  48 C     6.0000    0    12.011    0.335615    4.122249   13.262287
  49 C     6.0000    0    12.011    0.249633    6.262363   12.464634
  50 C     6.0000    0    12.011    0.146076    8.722787   11.458732
  51 C     6.0000    0    12.011    0.140029   10.825485   13.014166
  52 C     6.0000    0    12.011    0.036472   13.267578   12.003729
  53 C     6.0000    0    12.011   -0.062739   13.651004    9.442584
  54 C     6.0000    0    12.011   -0.060660   11.557187    7.791530
  55 C     6.0000    0    12.011   -0.159682   11.823261    5.144779
  56 N     7.0000    0    14.007   -0.157603    9.876654    3.601062
  57 C     6.0000    0    12.011   -0.057070    7.489363    4.537421
  58 C     6.0000    0    12.011    0.043653    7.026002    7.073812
  59 C     6.0000    0    12.011    0.044787    9.061993    8.791762
  60 H     1.0000    0     1.008    0.216752   10.573585   15.036929
  61 H     1.0000    0     1.008    0.035527   14.860995   13.276460
  62 H     1.0000    0     1.008   -0.142485   15.537328    8.675922
  63 H     1.0000    0     1.008   -0.242074   13.693711    4.302717
  64 H     1.0000    0     1.008   -0.061983    5.969456    3.143937
  65 H     1.0000    0     1.008    0.122643    5.123425    7.798144
  66 C     6.0000    0    12.011    0.434448    1.620251   14.170111
  67 C     6.0000    0    12.011    0.514383    1.163693   16.806090
  68 C     6.0000    0    12.011    0.608870   -1.252510   17.701443
  69 C     6.0000    0    12.011    0.629090   -3.337445   16.036594
  70 C     6.0000    0    12.011    0.725655   -5.854183   16.918151
  71 C     6.0000    0    12.011    0.743229   -7.838395   15.272578
  72 C     6.0000    0    12.011    0.664428   -7.397711   12.632252
  73 C     6.0000    0    12.011    0.569374   -4.959019   11.716680
  74 C     6.0000    0    12.011    0.549532   -2.888257   13.387198
  75 C     6.0000    0    12.011    0.452589   -0.382481   12.501105
  76 H     1.0000    0     1.008    0.499266    2.750685   18.088836
  77 H     1.0000    0     1.008    0.669530   -1.603622   19.712300
  78 H     1.0000    0     1.008    0.785748   -6.183373   18.932599
  79 H     1.0000    0     1.008    0.817307   -9.758168   15.959115
  80 H     1.0000    0     1.008    0.509281   -4.620002    9.706767
  81 H     1.0000    0     1.008    0.392307   -0.042708   10.491004
  82 C     6.0000    0    12.011    0.684837   -9.477921   10.971561
  83 C     6.0000    0    12.011    0.702600  -11.271083    9.555211
  84 C     6.0000    0    12.011    0.728489  -13.420835    7.991274
  85 C     6.0000    0    12.011    0.824299  -15.854613    9.034781
  86 C     6.0000    0    12.011    0.848109  -17.924052    7.438340
  87 C     6.0000    0    12.011    0.776866  -17.539682    4.848848
  88 N     7.0000    0    14.007    0.685215  -15.215130    3.859010
  89 C     6.0000    0    12.011    0.660459  -13.199548    5.358129
  90 H     1.0000    0     1.008    0.878345  -16.088561   11.059244
  91 H     1.0000    0     1.008    0.921430  -19.815857    8.190640
  92 H     1.0000    0     1.008    0.792740  -19.115714    3.521883
  93 H     1.0000    0     1.008    0.585437  -11.359333    4.451628
  94 C     6.0000    0    12.011  -12.950860   -9.491527    0.268530
  95 C     6.0000    0    12.011  -12.099916  -11.612745    0.272687
  96 C     6.0000    0    12.011  -11.032221  -14.049358    0.275333
  97 C     6.0000    0    12.011  -12.535309  -16.189473    0.306892
  98 C     6.0000    0    12.011  -11.463268  -18.607377    0.308781
  99 C     6.0000    0    12.011   -8.891917  -18.929198    0.278924
 100 C     6.0000    0    12.011   -7.293020  -16.795697    0.246231
 101 C     6.0000    0    12.011   -4.639089  -16.997898    0.213350
 102 N     7.0000    0    14.007   -3.144126  -15.013874    0.182548
 103 C     6.0000    0    12.011   -4.140579  -12.649071    0.182359
 104 C     6.0000    0    12.011   -6.689253  -12.246748    0.212216
 105 C     6.0000    0    12.011   -8.356180  -14.324502    0.244720
 106 H     1.0000    0     1.008  -14.565064  -15.986327    0.330324
 107 H     1.0000    0     1.008  -12.696314  -20.231597    0.333915
 108 H     1.0000    0     1.008   -8.077823  -20.797381    0.280246
 109 H     1.0000    0     1.008   -3.749595  -18.848128    0.212027
 110 H     1.0000    0     1.008   -2.785078  -11.095338    0.157414
 111 H     1.0000    0     1.008   -7.461395  -10.361557    0.211460
 112 C     6.0000    0    12.011  -13.921423   -7.011262    0.264940
 113 C     6.0000    0    12.011  -16.568552   -6.618577    0.300089
 114 C     6.0000    0    12.011  -17.524375   -4.223727    0.298010
 115 C     6.0000    0    12.011  -15.912061   -2.098163    0.260971
 116 C     6.0000    0    12.011  -16.856735    0.397220    0.258704
 117 C     6.0000    0    12.011  -15.261239    2.421873    0.223366
 118 C     6.0000    0    12.011  -12.610142    2.045062    0.187272
 119 C     6.0000    0    12.011  -11.633343   -0.371709    0.187839
 120 C     6.0000    0    12.011  -13.251516   -2.483100    0.224877
 121 C     6.0000    0    12.011  -12.302684   -4.967712    0.227712
 122 H     1.0000    0     1.008  -17.811425   -8.236938    0.328812
 123 H     1.0000    0     1.008  -19.544115   -3.921560    0.324844
 124 H     1.0000    0     1.008  -18.879309    0.677656    0.286105
 125 H     1.0000    0     1.008  -15.995965    4.325016    0.222232
 126 H     1.0000    0     1.008   -9.614927   -0.661782    0.160627
 127 H     1.0000    0     1.008  -10.284268   -5.258541    0.200500
 128 C     6.0000    0    12.011  -11.001986    4.165901    0.151178
 129 C     6.0000    0    12.011   -9.631367    5.994211    0.119620
 130 C     6.0000    0    12.011   -8.121854    8.182325    0.081825
 131 C     6.0000    0    12.011   -9.226021   10.590970    0.105447
 132 C     6.0000    0    12.011   -7.681926   12.699527    0.063684
 133 C     6.0000    0    12.011   -5.083741   12.378273   -0.001512
 134 N     7.0000    0    14.007   -4.036077   10.077343   -0.023244
 135 C     6.0000    0    12.011   -5.483985    8.025100    0.017197
 136 H     1.0000    0     1.008  -11.255776   10.775596    0.155335
 137 H     1.0000    0     1.008   -8.481280   14.573190    0.080880
 138 H     1.0000    0     1.008   -3.796838   13.986619   -0.037039
 139 H     1.0000    0     1.008   -4.531752    6.206805   -0.002457
 140 C     6.0000    0    12.011   -0.574666    3.823294  -13.418945
 141 C     6.0000    0    12.011   -0.627011    5.980605  -12.665700
 142 C     6.0000    0    12.011   -0.683514    8.462572  -11.709877
 143 C     6.0000    0    12.011   -0.833180   10.528420  -13.306696
 144 C     6.0000    0    12.011   -0.889683   12.992056  -12.345959
 145 C     6.0000    0    12.011   -0.798787   13.433496   -9.793884
 146 C     6.0000    0    12.011   -0.645530   11.378608   -8.101445
 147 C     6.0000    0    12.011   -0.548210   11.704397   -5.461497
 148 N     7.0000    0    14.007   -0.405913    9.794073   -3.879608
 149 C     6.0000    0    12.011   -0.345631    7.386939   -4.767779
 150 C     6.0000    0    12.011   -0.431047    6.866320   -7.293587
 151 C     6.0000    0    12.011   -0.585815    8.862249   -9.051221
 152 H     1.0000    0     1.008   -0.907446   10.230788  -15.323600
 153 H     1.0000    0     1.008   -1.006846   14.555616  -13.650059
 154 H     1.0000    0     1.008   -0.843385   15.336072   -9.065394
 155 H     1.0000    0     1.008   -0.590728   13.592800   -4.657230
 156 H     1.0000    0     1.008   -0.224688    5.899725   -3.344626
 157 H     1.0000    0     1.008   -0.382670    4.948626   -7.979180
 158 C     6.0000    0    12.011   -0.512305    1.302210  -14.275369
 159 C     6.0000    0    12.011   -0.599610    0.786504  -16.900199
 160 C     6.0000    0    12.011   -0.538950   -1.648597  -17.746040
 161 C     6.0000    0    12.011   -0.388906   -3.694982  -16.040373
 162 C     6.0000    0    12.011   -0.322576   -6.229860  -16.870719
 163 C     6.0000    0    12.011   -0.176689   -8.176089  -15.186406
 164 C     6.0000    0    12.011   -0.089762   -7.676257  -12.556852
 165 C     6.0000    0    12.011   -0.151934   -5.218290  -11.691169
 166 C     6.0000    0    12.011   -0.301222   -3.186456  -13.401938
 167 C     6.0000    0    12.011   -0.366040   -0.661971  -12.567057
 168 H     1.0000    0     1.008   -0.714128    2.343827  -18.214125
 169 H     1.0000    0     1.008   -0.605279   -2.044684  -19.748394
 170 H     1.0000    0     1.008   -0.389473   -6.604215  -18.877041
 171 H     1.0000    0     1.008   -0.126234  -10.110035  -15.833826
 172 H     1.0000    0     1.008   -0.085416   -4.834297   -9.689382
 173 H     1.0000    0     1.008   -0.299333   -0.277223  -10.565270
 174 C     6.0000    0    12.011    0.059715   -9.717917  -10.855721
 175 C     6.0000    0    12.011    0.187272  -11.478952   -9.404789
 176 C     6.0000    0    12.011    0.332214  -13.592800   -7.798900
 177 C     6.0000    0    12.011    0.413472  -16.047176   -8.793841
 178 C     6.0000    0    12.011    0.552367  -18.080333   -7.156771
 179 C     6.0000    0    12.011    0.606791  -17.639838   -4.575783
 180 N     7.0000    0    14.007    0.529879  -15.295254   -3.632621
 181 C     6.0000    0    12.011    0.397409  -13.314065   -5.171236
 182 H     1.0000    0     1.008    0.366796  -16.325344  -10.812824
 183 H     1.0000    0     1.008    0.617185  -19.987066   -7.871087
 184 H     1.0000    0     1.008    0.714505  -19.185634   -3.218015
 185 H     1.0000    0     1.008    0.340529  -11.455520   -4.301584
* core charge reduced due to ECP

--------------------------------
INTERNAL COORDINATES (ANGSTROEM)
--------------------------------
 Pd     0   0   0     0.000000000000     0.00000000     0.00000000
 Pd     1   0   0    13.296906429317     0.00000000     0.00000000
 C      2   1   0     7.758727063121    65.57032078     0.00000000
 C      3   2   1     1.209436935107    45.72320182   179.63308687
 C      4   3   2     1.407706137658   178.20933461   359.84020540
 C      5   4   3     1.384049193490   121.25335735   180.21378436
 C      6   5   4     1.399517852691   121.01215324   180.00394302
 C      7   6   5     1.371389700268   121.04084822     0.00000000
 C      8   7   6     1.410949867997   119.71959343     0.00000000
 C      9   8   7     1.408585794334   122.49446333   180.01069363
 N     10   9   8     1.314784476635   122.64933574   179.98318531
 C     11  10   9     1.358057311015   120.14120655     0.00000000
 C     12  11  10     1.365359663239   121.82038420     0.00000000
 C     13  12  11     1.409802376222   119.78054549     0.00000000
 H      6   5   4     1.079542398426   119.36202693     0.00000000
 H      7   6   5     1.079216697425   118.88414244   180.00835716
 H      8   7   6     1.078385241924   120.67929868   179.99837719
 H     10   9   8     1.086359857506   120.02489602     0.00000000
 H     12  11  10     1.091212050887   116.03454013   179.98679944
 H     13  12  11     1.078114029220   121.23996219   179.99551083
 C      3   2   1     1.409416663021   133.78414501   359.59784950
 C     21   3   2     1.416260106760   119.80753084   180.33233758
 C     22  21   3     1.364549808545   120.19358240   179.97550350
 C     23  22  21     1.411906636432   121.05452582     0.00000000
 C     24  23  22     1.412037878387   122.07982461   180.01377825
 C     25  24  23     1.364202364021   121.01872638   179.99742205
 C     26  25  24     1.417140899840   120.16403692     0.00000000
 C     27  26  25     1.379460579357   120.08582649     0.00000000
 C     28  27  26     1.407847768759   120.52477012     0.00000000
 C     21   3   2     1.379693531187   120.23989665     0.31349975
 H     22  21   3     1.079855041198   119.09406288   359.97348429
 H     23  22  21     1.080733829396   120.26550989   180.00380404
 H     25  24  23     1.080566120143   118.62370679     0.00000000
 H     26  25  24     1.079543070007   120.64060398   180.00804367
 H     28  27  26     1.079167220592   120.17946264   180.01168662
 H     30  21   3     1.079251875143   120.18923063     0.02872840
 C     27  26  25     1.408445643254   119.09688764   179.98252956
 C     37  27  26     1.209393041984   179.70147046   353.40159653
 C     38  37  27     1.406849888936   177.73364856     6.37832302
 C     39  38  37     1.402054007519   120.75673435     0.51456073
 C     40  39  38     1.383229431439   119.14133840   180.05596031
 C     41  40  39     1.385851323195   119.17482872     0.00000000
 N     42  41  40     1.337909417711   121.53376429   359.97042565
 C     43  42  41     1.329248031783   120.30150352     0.00000000
 H     40  39  38     1.078818005968   119.83900635     0.05485230
 H     41  40  39     1.078046613092   120.66767626   180.00167360
 H     42  41  40     1.090254740875   121.62418695   179.98327545
 H     44  43  42     1.086166925477   117.14227263   179.99163088
 C     48  44  43     7.530751998307   106.83345581   282.09523702
 C     49  48  44     1.209460586377    61.45815424    31.85491003
 C     50  49  48     1.407675505932   178.20459356    21.77647800
 C     51  50  49     1.384053879009   121.25169735   178.83764986
 C     52  51  50     1.399623670849   121.01027084   180.00911066
 C     53  52  51     1.371409038179   121.04076578     0.00000000
 C     54  53  52     1.411033982582   119.71671175     0.00000000
 C     55  54  53     1.408634359939   122.48929747   179.99574839
 N     56  55  54     1.314698760173   122.64733987   179.98772962
 C     57  56  55     1.358041744572   120.14469623     0.00000000
 C     58  57  56     1.365454052687   121.81816896     0.00000000
 C     59  58  57     1.409699943250   119.78051963     0.00000000
 H     52  51  50     1.079431984888   119.36422320     0.00000000
 H     53  52  51     1.079161127914   118.88332778   180.01331404
 H     54  53  52     1.078321181281   120.68173973   179.99235674
 H     56  55  54     1.086353699308   120.02673354     0.00000000
 H     58  57  56     1.091175517504   116.04073125   179.99935680
 H     59  58  57     1.078105917802   121.24418749   179.98767787
 C     49  48  44     1.409430895787   118.08145126   211.63654473
 C     67  49  48     1.416300060016   119.80504856   160.02163595
 C     68  67  49     1.364479534475   120.19437674   179.96339607
 C     69  68  67     1.411930019512   121.05379973     0.00000000
 C     70  69  68     1.412063985802   122.08191956   180.01439837
 C     71  70  69     1.364140436319   121.01884782   179.99630529
 C     72  71  70     1.417141125647   120.16592243     0.00000000
 C     73  72  71     1.379369635014   120.08819915     0.00000000
 C     74  73  72     1.407957346655   120.52304746     0.00000000
 C     67  49  48     1.379605175403   120.24388003   339.99775926
 H     68  67  49     1.079859935362   119.09228032   359.96791966
 H     69  68  67     1.080676112441   120.27223587   180.01307229
 H     71  70  69     1.080607643875   118.62069260     0.00000000
 H     72  71  70     1.079618608584   120.64550088   179.99788268
 H     74  73  72     1.079092470551   120.18666862   180.00004526
 H     76  67  49     1.079260552415   120.18345102     0.03762006
 C     73  72  71     1.408604529313   119.09618735   179.99071537
 C     83  73  72     1.209235221121   179.70244742     0.99995489
 C     84  83  73     1.406855788629   177.72918854   358.32139818
 C     85  84  83     1.402206026232   120.75608978     0.75172975
 C     86  85  84     1.383144898411   119.14377284   180.02601595
 C     87  86  85     1.385826446565   119.17542615     0.00000000
 N     88  87  86     1.337858251086   121.53846414     0.00000000
 C     89  88  87     1.329335194750   120.29426257     0.00000000
 H     86  85  84     1.078808643829   119.82992231     0.00000000
 H     87  86  85     1.078049284588   120.66465359   179.99302556
 H     88  87  86     1.090280422644   121.62499833   179.98975734
 H     90  89  88     1.086266366965   117.13641092   179.98790677
 C     94  90  89     7.562206102058   106.32315794    77.23730071
 C     95  94  90     1.209454910280    61.67287288   327.57437788
 C     96  95  94     1.407756839799   178.19550282   339.13778138
 C     97  96  95     1.384014559172   121.25388394   180.72714232
 C     98  97  96     1.399625142672   121.00479532   179.98520783
 C     99  98  97     1.371406657414   121.04234251     0.00000000
 C    100  99  98     1.410966158347   119.71964468     0.00000000
 C    101 100  99     1.408577693988   122.49664412   180.03261227
 N    102 101 100     1.314684338539   122.64593944   179.99186498
 C    103 102 101     1.357957016993   120.15046121     0.00000000
 C    104 103 102     1.365491757573   121.81701153   359.96374525
 C    105 104 103     1.409715042127   119.77339775     0.00000000
 H     98  97  96     1.079537317558   119.37119269     0.00000000
 H     99  98  97     1.079200347480   118.88240539   179.99815555
 H    100  99  98     1.078387263463   120.67708443   180.01024749
 H    102 101 100     1.086368165034   120.03070054     0.00000000
 H    104 103 102     1.091194927591   116.04705572   179.95031375
 H    105 104 103     1.078035194231   121.24100015   180.01072683
 C     95  94  90     1.409412934523   117.85819650   147.72840067
 C    113  95  94     1.416251192409   119.80502436   200.20317451
 C    114 113  95     1.364508754094   120.19209434   179.97119867
 C    115 114 113     1.411916938067   121.05808317     0.00000000
 C    116 115 114     1.411956691970   122.08064084   180.01600579
 C    117 116 115     1.364217775870   121.02310636   179.97899894
 C    118 117 116     1.417128639186   120.15591398     0.00000000
 C    119 118 117     1.379409623716   120.09364143     0.00000000
 C    120 119 118     1.407832781263   120.52297906     0.00000000
 C    113  95  94     1.379702000433   120.24322912    20.19368955
 H    114 113  95     1.079917260720   119.09189890     0.00000000
 H    115 114 113     1.080788179987   120.26288944   180.00105489
 H    117 116 115     1.080636340311   118.62541365     0.00000000
 H    118 117 116     1.079544445588   120.64845878   180.01284364
 H    120 119 118     1.079169690086   120.18235060   180.00807854
 H    122 113  95     1.079226658307   120.19057768     0.00000000
 C    119 118 117     1.408589045819   119.08839839   180.00022343
 C    129 119 118     1.209295344405   179.68553792   356.93505044
 C    130 129 119     1.406845353975   177.74313698     2.00202244
 C    131 130 129     1.402201091142   120.75854434     1.65478745
 C    132 131 130     1.383166822910   119.14240983   180.08111113
 C    133 132 131     1.385799502093   119.17883313     0.02731070
 N    134 133 132     1.337924276632   121.53158900   359.95461402
 C    135 134 133     1.329254076541   120.30050215     0.00000000
 H    132 131 130     1.078857293621   119.82817008     0.07148030
 H    133 132 131     1.078000027829   120.66578708   180.00990294
 H    134 133 132     1.090176889317   121.62886249   179.97010124
 H    136 135 134     1.086210021129   117.14014203   180.02013736
 C    140 136 135     7.508758471279   106.69184780   281.48724279
 C    141 140 136     1.209503952040    61.54055919    32.14644896
 C    142 141 140     1.407745435084   178.18299246    20.73570758
 C    143 142 141     1.383973944841   121.25202403   180.07385679
 C    144 143 142     1.399642189990   121.01073171   179.97651054
 C    145 144 143     1.371398126001   121.03838038     0.00000000
 C    146 145 144     1.411068860829   119.72084824     0.00000000
 C    147 146 145     1.408539317875   122.49844202   180.04807884
 N    148 147 146     1.314657868040   122.64996916   179.98537766
 C    149 148 147     1.358117833621   120.14533613     0.03573577
 C    150 149 148     1.365446026030   121.81766612   359.94630952
 C    151 150 149     1.409734748100   119.77451608     0.00000000
 H    144 143 142     1.079574003948   119.37102512     0.00000000
 H    145 144 143     1.079200060230   118.88670927   179.99420635
 H    146 145 144     1.078338281802   120.68487608   180.01277711
 H    148 147 146     1.086389478962   120.02476052     0.00000000
 H    150 149 148     1.091157463430   116.04018668   179.93061358
 H    151 150 149     1.078006604804   121.23749628   180.01890776
 C    141 140 136     1.409362284865   118.00720477   211.94751989
 C    159 141 140     1.416308529241   119.80133733   159.40807345
 C    160 159 141     1.364502154634   120.19238779   179.96953491
 C    161 160 159     1.411971504670   121.05823156     0.00000000
 C    162 161 160     1.411969663272   122.07822158   180.02852825
 C    163 162 161     1.364210225735   121.01741978   179.98283314
 C    164 163 162     1.417162129045   120.16210229     0.00000000
 C    165 164 163     1.379405129032   120.08625643     0.00000000
 C    166 165 164     1.407786961866   120.52742305     0.00000000
 C    159 141 140     1.379695299695   120.24799493   339.39172138
 H    160 159 141     1.079932988662   119.09209754   359.97704376
 H    161 160 159     1.080701776625   120.26644923   180.00540683
 H    163 162 161     1.080603377748   118.62659407     0.00000000
 H    164 163 162     1.079553245560   120.64598228   180.01369128
 H    166 165 164     1.079187550892   120.18198648   180.01562873
 H    168 159 141     1.079266204419   120.18626411     0.02309999
 C    165 164 163     1.408503109688   119.09139683   179.97808385
 C    175 165 164     1.209343086142   179.68387057   356.77257197
 C    176 175 165     1.406879131269   177.74075253     1.75756769
 C    177 176 175     1.402117216926   120.75454604     2.13709843
 C    178 177 176     1.383271032734   119.13993776   180.08341853
 C    179 178 177     1.385848003931   119.17563909     0.00000000
 N    180 179 178     1.337943866536   121.53247162   359.95339834
 C    181 180 179     1.329277326219   120.29754243     0.00000000
 H    178 177 176     1.078775458564   119.84043580     0.06898951
 H    179 178 177     1.078026664791   120.66960063   179.99952502
 H    180 179 178     1.090236327591   121.62679929   179.96272148
 H    182 181 180     1.086260696150   117.13282339   180.01760337

---------------------------
INTERNAL COORDINATES (A.U.)
---------------------------
 Pd     0   0   0     0.000000000000     0.00000000     0.00000000
 Pd     1   0   0    25.127511579785     0.00000000     0.00000000
 C      2   1   0    14.661869297141    65.57032078     0.00000000
 C      3   2   1     2.285504583601    45.72320182   179.63308687
 C      4   3   2     2.660179077214   178.20933461   359.84020540
 C      5   4   3     2.615473931570   121.25335735   180.21378436
 C      6   5   4     2.644705461119   121.01215324   180.00394302
 C      7   6   5     2.591550956386   121.04084822     0.00000000
 C      8   7   6     2.666308839206   119.71959343     0.00000000
 C      9   8   7     2.661841387423   122.49446333   180.01069363
 N     10   9   8     2.484582585971   122.64933574   179.98318531
 C     11  10   9     2.566356391987   120.14120655     0.00000000
 C     12  11  10     2.580155837825   121.82038420     0.00000000
 C     13  12  11     2.664140394010   119.78054549     0.00000000
 H      6   5   4     2.040039482982   119.36202693     0.00000000
 H      7   6   5     2.039423997287   118.88414244   180.00835716
 H      8   7   6     2.037852774099   120.67929868   179.99837719
 H     10   9   8     2.052922613572   120.02489602     0.00000000
 H     12  11  10     2.062091930210   116.03454013   179.98679944
 H     13  12  11     2.037340256363   121.23996219   179.99551083
 C      3   2   1     2.663411501694   133.78414501   359.59784950
 C     21   3   2     2.676343736175   119.80753084   180.33233758
 C     22  21   3     2.578625434245   120.19358240   179.97550350
 C     23  22  21     2.668116869522   121.05452582     0.00000000
 C     24  23  22     2.668364880875   122.07982461   180.01377825
 C     25  24  23     2.577968859247   121.01872638   179.99742205
 C     26  25  24     2.678008193877   120.16403692     0.00000000
 C     27  26  25     2.606802707525   120.08582649     0.00000000
 C     28  27  26     2.660446721207   120.52477012     0.00000000
 C     21   3   2     2.607242922687   120.23989665     0.31349975
 H     22  21   3     2.040630292198   119.09406288   359.97348429
 H     23  22  21     2.042290961222   120.26550989   180.00380404
 H     25  24  23     2.041974036663   118.62370679     0.00000000
 H     26  25  24     2.040040752086   120.64060398   180.00804367
 H     28  27  26     2.039330499624   120.17946264   180.01168662
 H     30  21   3     2.039490473542   120.18923063     0.02872840
 C     27  26  25     2.661576540264   119.09688764   179.98252956
 C     37  27  26     2.285421637620   179.70147046   353.40159653
 C     38  37  27     2.658561001627   177.73364856     6.37832302
 C     39  38  37     2.649498099178   120.75673435     0.51456073
 C     40  39  38     2.613924805800   119.14133840   180.05596031
 C     41  40  39     2.618879463170   119.17482872     0.00000000
 N     42  41  40     2.528282391468   121.53376429   359.97042565
 C     43  42  41     2.511914744124   120.30150352     0.00000000
 H     40  39  38     2.038670579622   119.83900635     0.05485230
 H     41  40  39     2.037212858346   120.66767626   180.00167360
 H     42  41  40     2.060282876463   121.62418695   179.98327545
 H     44  43  42     2.052558024875   117.14227263   179.99163088
 C     48  44  43    14.231058859280   106.83345581   282.09523702
 C     49  48  44     2.285549278025    61.45815424    31.85491003
 C     50  49  48     2.660121191640   178.20459356    21.77647800
 C     51  50  49     2.615482785918   121.25169735   178.83764986
 C     52  51  50     2.644905428458   121.01027084   180.00911066
 C     53  52  51     2.591587499743   121.04076578     0.00000000
 C     54  53  52     2.666467792735   119.71671175     0.00000000
 C     55  54  53     2.661933163116   122.48929747   179.99574839
 N     56  55  54     2.484420605332   122.64733987   179.98772962
 C     57  56  55     2.566326975674   120.14469623     0.00000000
 C     58  57  56     2.580334208032   121.81816896     0.00000000
 C     59  58  57     2.663946823747   119.78051963     0.00000000
 H     52  51  50     2.039830831634   119.36422320     0.00000000
 H     53  52  51     2.039318986130   118.88332778   180.01331404
 H     54  53  52     2.037731717028   120.68173973   179.99235674
 H     56  55  54     2.052910976264   120.02673354     0.00000000
 H     58  57  56     2.062022892122   116.04073125   179.99935680
 H     59  58  57     2.037324928006   121.24418749   179.98767787
 C     49  48  44     2.663438397725   118.08145126   211.63654473
 C     67  49  48     2.676419236886   119.80504856   160.02163595
 C     68  67  49     2.578492635497   120.19437674   179.96339607
 C     69  68  67     2.668161057140   121.05379973     0.00000000
 C     70  69  68     2.668414216740   122.08191956   180.01439837
 C     71  70  69     2.577851832850   121.01884782   179.99630529
 C     72  71  70     2.678008620590   120.16592243     0.00000000
 C     73  72  71     2.606630847624   120.08819915     0.00000000
 C     74  73  72     2.660653793421   120.52304746     0.00000000
 C     67  49  48     2.607075954453   120.24388003   339.99775926
 H     68  67  49     2.040639540828   119.09228032   359.96791966
 H     69  68  67     2.042181891984   120.27223587   180.01307229
 H     71  70  69     2.042052505145   118.62069260     0.00000000
 H     72  71  70     2.040183499308   120.64550088   179.99788268
 H     74  73  72     2.039189242518   120.18666862   180.00004526
 H     76  67  49     2.039506871210   120.18345102     0.03762006
 C     73  72  71     2.661876791402   119.09618735   179.99071537
 C     83  73  72     2.285123399411   179.70244742     0.99995489
 C     84  83  73     2.658572150431   177.72918854   358.32139818
 C     85  84  83     2.649785372912   120.75608978     0.75172975
 C     86  85  84     2.613765061527   119.14377284   180.02601595
 C     87  86  85     2.618832453154   119.17542615     0.00000000
 N     88  87  86     2.528185700560   121.53846414     0.00000000
 C     89  88  87     2.512079458260   120.29426257     0.00000000
 H     86  85  84     2.038652887744   119.82992231     0.00000000
 H     87  86  85     2.037217906740   120.66465359   179.99302556
 H     88  87  86     2.060331407972   121.62499833   179.98975734
 H     90  89  88     2.052745942054   117.13641092   179.98790677
 C     94  90  89    14.290498501157   106.32315794    77.23730071
 C     95  94  90     2.285538551755    61.67287288   327.57437788
 C     96  95  94     2.660274890374   178.19550282   339.13778138
 C     97  96  95     2.615408482195   121.25388394   180.72714232
 C     98  97  96     2.644908209801   121.00479532   179.98520783
 C     99  98  97     2.591583000749   121.04234251     0.00000000
 C    100  99  98     2.666339623506   119.71964468     0.00000000
 C    101 100  99     2.661826079987   122.49664412   180.03261227
 N    102 101 100     2.484393352394   122.64593944   179.99186498
 C    103 102 101     2.566166863753   120.15046121     0.00000000
 C    104 103 102     2.580405459940   121.81701153   359.96374525
 C    105 104 103     2.663975356490   119.77339775     0.00000000
 H     98  97  96     2.040029881532   119.37119269     0.00000000
 H     99  98  97     2.039393100369   118.88240539   179.99815555
 H    100  99  98     2.037856594255   120.67708443   180.01024749
 H    102 101 100     2.052938312525   120.03070054     0.00000000
 H    104 103 102     2.062059571871   116.04705572   179.95031375
 H    105 104 103     2.037191279825   121.24100015   180.01072683
 C     95  94  90     2.663404455854   117.85819650   147.72840067
 C    113  95  94     2.676326890492   119.80502436   200.20317451
 C    114 113  95     2.578547852576   120.19209434   179.97119867
 C    115 114 113     2.668136336791   121.05808317     0.00000000
 C    116 115 114     2.668211460781   122.08064084   180.01600579
 C    117 116 115     2.577997983422   121.02310636   179.97899894
 C    118 117 116     2.677985024597   120.15591398     0.00000000
 C    119 118 117     2.606706415318   120.09364143     0.00000000
 C    120 119 118     2.660418398945   120.52297906     0.00000000
 C    113  95  94     2.607258927242   120.24322912    20.19368955
 H    114 113  95     2.040747870054   119.09189890     0.00000000
 H    115 114 113     2.042393668955   120.26288944   180.00105489
 H    117 116 115     2.042106733550   118.62541365     0.00000000
 H    118 117 116     2.040043351557   120.64845878   180.01284364
 H    120 119 118     2.039335166291   120.18235060   180.00807854
 H    122 113  95     2.039442820627   120.19057768     0.00000000
 C    119 118 117     2.661847531839   119.08839839   180.00022343
 C    129 119 118     2.285237015952   179.68553792   356.93505044
 C    130 129 119     2.658552431792   177.74313698     2.00202244
 C    131 130 129     2.649776046944   120.75854434     1.65478745
 C    132 131 130     2.613806492827   119.14240983   180.08111113
 C    133 132 131     2.618781535479   119.17883313     0.02731070
 N    134 133 132     2.528310470758   121.53158900   359.95461402
 C    135 134 133     2.511926167060   120.30050215     0.00000000
 H    132 131 130     2.038744822528   119.82817008     0.07148030
 H    133 132 131     2.037124824957   120.66578708   180.00990294
 H    134 133 132     2.060135758339   121.62886249   179.97010124
 H    136 135 134     2.052639463854   117.14014203   180.02013736
 C    140 136 135    14.189497116478   106.69184780   281.48724279
 C    141 140 136     2.285631227251    61.54055919    32.14644896
 C    142 141 140     2.660253338587   178.18299246    20.73570758
 C    143 142 141     2.615331732233   121.25202403   180.07385679
 C    144 143 142     2.644940424563   121.01073171   179.97651054
 C    145 144 143     2.591566878715   121.03838038     0.00000000
 C    146 145 144     2.666533703070   119.72084824     0.00000000
 C    147 146 145     2.661753559644   122.49844202   180.04807884
 N    148 147 146     2.484343330401   122.64996916   179.98537766
 C    149 148 147     2.566470763139   120.14533613     0.03573577
 C    150 149 148     2.580319039847   121.81766612   359.94630952
 C    151 150 149     2.664012595381   119.77451608     0.00000000
 H    144 143 142     2.040099208762   119.37102512     0.00000000
 H    145 144 143     2.039392557546   118.88670927   179.99420635
 H    146 145 144     2.037764032329   120.68487608   180.01277711
 H    148 147 146     2.052978590012   120.02476052     0.00000000
 H    150 149 148     2.061988774868   116.04018668   179.93061358
 H    151 150 149     2.037137253637   121.23749628   180.01890776
 C    141 140 136     2.663308741872   118.00720477   211.94751989
 C    159 141 140     2.676435241402   119.80133733   159.40807345
 C    160 159 141     2.578535381403   120.19238779   179.96953491
 C    161 160 159     2.668239452727   121.05823156     0.00000000
 C    162 161 160     2.668235972989   122.07822158   180.02852825
 C    163 162 161     2.577983715734   121.01741978   179.98283314
 C    164 163 162     2.678048311260   120.16210229     0.00000000
 C    165 164 163     2.606697921597   120.08625643     0.00000000
 C    166 165 164     2.660331812832   120.52742305     0.00000000
 C    159 141 140     2.607246264682   120.24799493   339.39172138
 H    160 159 141     2.040777591558   119.09209754   359.97704376
 H    161 160 159     2.042230390263   120.26644923   180.00540683
 H    163 162 161     2.042044443334   118.62659407     0.00000000
 H    164 163 162     2.040059981095   120.64598228   180.01369128
 H    166 165 164     2.039368918323   120.18198648   180.01562873
 H    168 159 141     2.039517551948   120.18626411     0.02309999
 C    165 164 163     2.661685136086   119.09139683   179.97808385
 C    175 165 164     2.285327234760   179.68387057   356.77257197
 C    176 175 165     2.658616261627   177.74075253     1.75756769
 C    177 176 175     2.649617547646   120.75454604     2.13709843
 C    178 177 176     2.614003420853   119.13993776   180.08341853
 C    179 178 177     2.618873190671   119.17563909     0.00000000
 N    180 179 178     2.528347490312   121.53247162   359.95339834
 C    181 180 179     2.511970102585   120.29754243     0.00000000
 H    178 177 176     2.038590176681   119.84043580     0.06898951
 H    179 178 177     2.037175161519   120.66960063   179.99952502
 H    180 179 178     2.060248080400   121.62679929   179.96272148
 H    182 181 180     2.052735225766   117.13282339   180.01760337

---------------------
BASIS SET INFORMATION
---------------------
There are 4 groups of distinct atoms

 Group   1 Type Pd  : 7s6p5d1f contracted to 5s3p2d1f pattern {31111/411/41/1}
 Group   2 Type C   : 7s4p1d contracted to 3s2p1d pattern {511/31/1}
 Group   3 Type N   : 7s4p1d contracted to 3s2p1d pattern {511/31/1}
 Group   4 Type H   : 4s1p contracted to 2s1p pattern {31/1}

Atom   0Pd   basis set group =>   1
Atom   1Pd   basis set group =>   1
Atom   2C    basis set group =>   2
Atom   3C    basis set group =>   2
Atom   4C    basis set group =>   2
Atom   5C    basis set group =>   2
Atom   6C    basis set group =>   2
Atom   7C    basis set group =>   2
Atom   8C    basis set group =>   2
Atom   9C    basis set group =>   2
Atom  10N    basis set group =>   3
Atom  11C    basis set group =>   2
Atom  12C    basis set group =>   2
Atom  13C    basis set group =>   2
Atom  14H    basis set group =>   4
Atom  15H    basis set group =>   4
Atom  16H    basis set group =>   4
Atom  17H    basis set group =>   4
Atom  18H    basis set group =>   4
Atom  19H    basis set group =>   4
Atom  20C    basis set group =>   2
Atom  21C    basis set group =>   2
Atom  22C    basis set group =>   2
Atom  23C    basis set group =>   2
Atom  24C    basis set group =>   2
Atom  25C    basis set group =>   2
Atom  26C    basis set group =>   2
Atom  27C    basis set group =>   2
Atom  28C    basis set group =>   2
Atom  29C    basis set group =>   2
Atom  30H    basis set group =>   4
Atom  31H    basis set group =>   4
Atom  32H    basis set group =>   4
Atom  33H    basis set group =>   4
Atom  34H    basis set group =>   4
Atom  35H    basis set group =>   4
Atom  36C    basis set group =>   2
Atom  37C    basis set group =>   2
Atom  38C    basis set group =>   2
Atom  39C    basis set group =>   2
Atom  40C    basis set group =>   2
Atom  41C    basis set group =>   2
Atom  42N    basis set group =>   3
Atom  43C    basis set group =>   2
Atom  44H    basis set group =>   4
Atom  45H    basis set group =>   4
Atom  46H    basis set group =>   4
Atom  47H    basis set group =>   4
Atom  48C    basis set group =>   2
Atom  49C    basis set group =>   2
Atom  50C    basis set group =>   2
Atom  51C    basis set group =>   2
Atom  52C    basis set group =>   2
Atom  53C    basis set group =>   2
Atom  54C    basis set group =>   2
Atom  55C    basis set group =>   2
Atom  56N    basis set group =>   3
Atom  57C    basis set group =>   2
Atom  58C    basis set group =>   2
Atom  59C    basis set group =>   2
Atom  60H    basis set group =>   4
Atom  61H    basis set group =>   4
Atom  62H    basis set group =>   4
Atom  63H    basis set group =>   4
Atom  64H    basis set group =>   4
Atom  65H    basis set group =>   4
Atom  66C    basis set group =>   2
Atom  67C    basis set group =>   2
Atom  68C    basis set group =>   2
Atom  69C    basis set group =>   2
Atom  70C    basis set group =>   2
Atom  71C    basis set group =>   2
Atom  72C    basis set group =>   2
Atom  73C    basis set group =>   2
Atom  74C    basis set group =>   2
Atom  75C    basis set group =>   2
Atom  76H    basis set group =>   4
Atom  77H    basis set group =>   4
Atom  78H    basis set group =>   4
Atom  79H    basis set group =>   4
Atom  80H    basis set group =>   4
Atom  81H    basis set group =>   4
Atom  82C    basis set group =>   2
Atom  83C    basis set group =>   2
Atom  84C    basis set group =>   2
Atom  85C    basis set group =>   2
Atom  86C    basis set group =>   2
Atom  87C    basis set group =>   2
Atom  88N    basis set group =>   3
Atom  89C    basis set group =>   2
Atom  90H    basis set group =>   4
Atom  91H    basis set group =>   4
Atom  92H    basis set group =>   4
Atom  93H    basis set group =>   4
Atom  94C    basis set group =>   2
Atom  95C    basis set group =>   2
Atom  96C    basis set group =>   2
Atom  97C    basis set group =>   2
Atom  98C    basis set group =>   2
Atom  99C    basis set group =>   2
Atom 100C    basis set group =>   2
Atom 101C    basis set group =>   2
Atom 102N    basis set group =>   3
Atom 103C    basis set group =>   2
Atom 104C    basis set group =>   2
Atom 105C    basis set group =>   2
Atom 106H    basis set group =>   4
Atom 107H    basis set group =>   4
Atom 108H    basis set group =>   4
Atom 109H    basis set group =>   4
Atom 110H    basis set group =>   4
Atom 111H    basis set group =>   4
Atom 112C    basis set group =>   2
Atom 113C    basis set group =>   2
Atom 114C    basis set group =>   2
Atom 115C    basis set group =>   2
Atom 116C    basis set group =>   2
Atom 117C    basis set group =>   2
Atom 118C    basis set group =>   2
Atom 119C    basis set group =>   2
Atom 120C    basis set group =>   2
Atom 121C    basis set group =>   2
Atom 122H    basis set group =>   4
Atom 123H    basis set group =>   4
Atom 124H    basis set group =>   4
Atom 125H    basis set group =>   4
Atom 126H    basis set group =>   4
Atom 127H    basis set group =>   4
Atom 128C    basis set group =>   2
Atom 129C    basis set group =>   2
Atom 130C    basis set group =>   2
Atom 131C    basis set group =>   2
Atom 132C    basis set group =>   2
Atom 133C    basis set group =>   2
Atom 134N    basis set group =>   3
Atom 135C    basis set group =>   2
Atom 136H    basis set group =>   4
Atom 137H    basis set group =>   4
Atom 138H    basis set group =>   4
Atom 139H    basis set group =>   4
Atom 140C    basis set group =>   2
Atom 141C    basis set group =>   2
Atom 142C    basis set group =>   2
Atom 143C    basis set group =>   2
Atom 144C    basis set group =>   2
Atom 145C    basis set group =>   2
Atom 146C    basis set group =>   2
Atom 147C    basis set group =>   2
Atom 148N    basis set group =>   3
Atom 149C    basis set group =>   2
Atom 150C    basis set group =>   2
Atom 151C    basis set group =>   2
Atom 152H    basis set group =>   4
Atom 153H    basis set group =>   4
Atom 154H    basis set group =>   4
Atom 155H    basis set group =>   4
Atom 156H    basis set group =>   4
Atom 157H    basis set group =>   4
Atom 158C    basis set group =>   2
Atom 159C    basis set group =>   2
Atom 160C    basis set group =>   2
Atom 161C    basis set group =>   2
Atom 162C    basis set group =>   2
Atom 163C    basis set group =>   2
Atom 164C    basis set group =>   2
Atom 165C    basis set group =>   2
Atom 166C    basis set group =>   2
Atom 167C    basis set group =>   2
Atom 168H    basis set group =>   4
Atom 169H    basis set group =>   4
Atom 170H    basis set group =>   4
Atom 171H    basis set group =>   4
Atom 172H    basis set group =>   4
Atom 173H    basis set group =>   4
Atom 174C    basis set group =>   2
Atom 175C    basis set group =>   2
Atom 176C    basis set group =>   2
Atom 177C    basis set group =>   2
Atom 178C    basis set group =>   2
Atom 179C    basis set group =>   2
Atom 180N    basis set group =>   3
Atom 181C    basis set group =>   2
Atom 182H    basis set group =>   4
Atom 183H    basis set group =>   4
Atom 184H    basis set group =>   4
Atom 185H    basis set group =>   4

-------------------------
BASIS SET IN INPUT FORMAT
-------------------------

 # Basis set for element : H 
 NewGTO H 
 S 3 
   1      13.0107010000      0.0334854848
   2       1.9622572000      0.2347218709
   3       0.4445379600      0.8137702853
 S 1 
   1       0.1219496200      1.0000000000
 P 1 
   1       0.8000000000      1.0000000000
  end;

 # Basis set for element : C 
 NewGTO C 
 S 5 
   1    1238.4016938000      0.0055173650
   2     186.2900499200      0.0410888285
   3      42.2511763460      0.1822538213
   4      11.6765579320      0.4682845944
   5       3.5930506482      0.4457581734
 S 1 
   1       0.4024514736      1.0000000000
 S 1 
   1       0.1309018267      1.0000000000
 P 3 
   1       9.4680970621      0.0568883320
   2       2.0103545142      0.3129405934
   3       0.5477100471      0.7606501651
 P 1 
   1       0.1526861379      1.0000000000
 D 1 
   1       0.8000000000      1.0000000000
  end;

 # Basis set for element : N 
 NewGTO N 
 S 5 
   1    1712.8415853000     -0.0054477995
   2     257.6481267700     -0.0406271746
   3      58.4582458530     -0.1811196225
   4      16.1983679050     -0.4684397556
   5       5.0052600809     -0.4461684629
 S 1 
   1       0.5873185657      1.0000000000
 S 1 
   1       0.1876459225      1.0000000000
 P 3 
   1      13.5714702330     -0.0588481170
   2       2.9257372874     -0.3202462476
   3       0.7992775075     -0.7532822652
 P 1 
   1       0.2195434803      1.0000000000
 D 1 
   1       1.0000000000      1.0000000000
  end;

 # Basis set for element : Pd
 NewGTO Pd
 S 3 
   1       8.4756400000      2.1727229431
   2       7.1657170000     -2.9039633126
   3       3.1821100000     -0.2310570076
 S 1 
   1       1.3973644196      1.0000000000
 S 1 
   1       0.6053295587      1.0000000000
 S 1 
   1       0.1022951421      1.0000000000
 S 1 
   1       0.0373389729      1.0000000000
 P 4 
   1       4.2460970000     -0.8346018694
   2       3.3925940000      0.8828643810
   3       1.1975891264      0.6438870170
   4       0.5267375059      0.2760105151
 P 1 
   1       0.2060709410      1.0000000000
 P 1 
   1       0.0370000000      1.0000000000
 D 4 
   1       7.3613290985     -0.0186922795
   2       2.6291037258      0.2533662423
   3       1.1292744634      0.4840070353
   4       0.4447165990      0.4270306822
 D 1 
   1       0.1554489384      1.0000000000
 F 1 
   1       1.2462900000      1.0000000000
  end;

-------------------------
ECP PARAMETER INFORMATION
-------------------------

 Group 1, Type Pd ECP Def2-ECP (replacing 28 core electrons, lmax=3)

Atom   0Pd   ECP group =>   1
Atom   1Pd   ECP group =>   1


-------------------------
ECP BASIS IN INPUT FORMAT
-------------------------

 #ECP Def2-ECP
 NewECP Pd
   N_core 28
   lmax f
   s 4
     1      12.4300000000    240.2290403000  2
     2       6.1707594000     35.1719435000  2
     3      13.2700000000     31.9295543000  2
     4       6.6300000000      5.3982169000  2
   p 4
     1      11.0800000000    170.4172760000  2
     2       5.8295541000     28.4721329000  2
     3      13.2700000000     31.9295543000  2
     4       6.6300000000      5.3982169000  2
   d 4
     1       9.5100000000     69.0138449000  2
     2       4.1397811000     11.7508616000  2
     3      13.2700000000     31.9295543000  2
     4       6.6300000000      5.3982169000  2
   f 2
     1      13.2700000000    -31.9295543000  2
     2       6.6300000000     -5.3982169000  2
 End




           ************************************************************
           *        Program running with 32 parallel MPI-processes    *
           *              working on a common directory               *
           ************************************************************
------------------------------------------------------------------------------
                           ORCA GTO INTEGRAL CALCULATION
------------------------------------------------------------------------------

                         BASIS SET STATISTICS AND STARTUP INFO

 # of primitive gaussian shells          ... 1798
 # of primitive gaussian functions       ... 3442
 # of contracted shells                  ...  934
 # of contracted basis functions         ... 2062
 Highest angular momentum                ...    3
 Maximum contraction depth               ...    5
 Integral package used                   ... LIBINT
 Integral threshhold            Thresh   ...  2.500e-11
 Primitive cut-off              TCut     ...  2.500e-12


------------------------------ INTEGRAL EVALUATION ----------------------------


 * One electron integrals 

   ECP integrals                         ... done
 Pre-screening matrix                    ... done
 Shell pair data                         ... done (   0.033 sec)



           ************************************************************
           *        Program running with 32 parallel MPI-processes    *
           *              working on a common directory               *
           ************************************************************
-------------------------------------------------------------------------------
                                 ORCA SCF
-------------------------------------------------------------------------------

------------
SCF SETTINGS
------------
Hamiltonian:
 Density Functional     Method          .... DFT(GTOs)
 Exchange Functional    Exchange        .... PBE
   PBE kappa parameter   XKappa         ....  0.804000
   PBE mue parameter    XMuePBE         ....  0.219520
 Correlation Functional Correlation     .... PBE
   PBE beta parameter  CBetaPBE         ....  0.066725
 LDA part of GGA corr.  LDAOpt          .... PW91-LDA
 Gradients option       PostSCFGGA      .... off
 Hybrid DFT is turned on
   Fraction HF Exchange ScalHFX         ....  0.250000
   Scaling of DF-GGA-X  ScalDFX         ....  0.750000
   Scaling of DF-GGA-C  ScalDFC         ....  1.000000
   Scaling of DF-LDA-C  ScalLDAC        ....  1.000000
   Perturbative correction              ....  0.000000
   Density functional embedding theory  .... OFF
   NL short-range parameter             ....  6.900000


General Settings:
 Integral files         IntName         .... _s_5a3_d_PBE0
 Hartree-Fock type      HFTyp           .... RHF
 Total Charge           Charge          ....    4
 Multiplicity           Mult            ....    1
 Number of Electrons    NEL             ....  824
 Basis Dimension        Dim             .... 2062
 Nuclear Repulsion      ENuc            ....  22632.2898033945 Eh

Convergence Acceleration:
 DIIS                   CNVDIIS         .... on
   Start iteration      DIISMaxIt       ....     0
   Startup error        DIISStart       ....  0.200000
   # of expansion vecs  DIISMaxEq       ....     5
   Bias factor          DIISBfac        ....   1.050
   Max. coefficient     DIISMaxC        ....  10.000
 Newton-Raphson         CNVNR           .... off
 SOSCF                  CNVSOSCF        .... off
 Level Shifting         CNVShift        .... on
   Level shift para.    LevelShift      ....    0.2500
   Turn off err/grad.   ShiftErr        ....    0.0000
 Zerner damping         CNVZerner       .... off
 Static damping         CNVDamp         .... on
   Fraction old density DampFac         ....    0.8500
   Max. Damping (<1)    DampMax         ....    0.9800
   Min. Damping (>=0)   DampMin         ....    0.0000
   Turn off err/grad.   DampErr         ....    0.0300
 Fernandez-Rico         CNVRico         .... off

SCF Procedure:
 Maximum # iterations   MaxIter         ....  2000
 SCF integral mode      SCFMode         .... Direct
   Integral package                     .... LIBINT
 Reset frequency        DirectResetFreq ....    20
 Integral Threshold     Thresh          ....  2.500e-11 Eh
 Primitive CutOff       TCut            ....  2.500e-12 Eh

Convergence Tolerance:
 Convergence Check Mode ConvCheckMode   .... Total+1el-Energy
 Convergence forced     ConvForced      .... 0
 Energy Change          TolE            ....  1.000e-08 Eh
 1-El. energy change                    ....  1.000e-05 Eh
 DIIS Error             TolErr          ....  5.000e-07


Diagonalization of the overlap matrix:
Smallest eigenvalue                        ... 2.386e-04
Time for diagonalization                   ...    0.617 sec
Threshold for overlap eigenvalues          ... 1.000e-08
Number of eigenvalues below threshold      ... 0
Time for construction of square roots      ...    0.770 sec
Total time needed                          ...    1.396 sec

-------------------
DFT GRID GENERATION
-------------------

General Integration Accuracy     IntAcc      ...  5.340
Radial Grid Type                 RadialGrid  ... Gauss-Chebyshev
Angular Grid (max. acc.)         AngularGrid ... Lebedev-590
Angular grid pruning method      GridPruning ... 3 (G Style)
Weight generation scheme         WeightScheme... Becke
Basis function cutoff            BFCut       ...    1.0000e-11
Integration weight cutoff        WCut        ...    1.0000e-14
Grids for H and He will be reduced by one unit

# of grid points (after initial pruning)     ... 2734628 (   0.0 sec)
# of grid points (after weights+screening)   ... 2266108 (  17.7 sec)
nearest neighbour list constructed           ...    0.0 sec
Grid point re-assignment to atoms done       ...    0.3 sec
Grid point division into batches done        ...   23.5 sec
Reduced shell lists constructed in   24.7 sec

Total number of grid points                  ...  2266108
Total number of batches                      ...    35506
Average number of points per batch           ...       63
Average number of grid points per atom       ...    12183
Average number of shells per batch           ...   126.72 (13.57%)
Average number of basis functions per batch  ...   263.03 (12.76%)
Average number of large shells per batch     ...    75.85 (59.85%)
Average number of large basis fcns per batch ...   157.35 (59.82%)
Maximum spatial batch extension              ...   7.69,  4.09, 14.98 au
Average spatial batch extension              ...   0.03,  0.03,  0.03 au

Time for grid setup =   44.568 sec

------------------------------
INITIAL GUESS: MODEL POTENTIAL
------------------------------
Loading Hartree-Fock densities                     ... done
  calling /work/e05/e05/atarzia/orca_4_2_1_linux_x86-64_openmpi314/orca _s_5a3_d_PBE0_atom46.inp > _s_5a3_d_PBE0_atom46.out in order to generate an atomic fitting density for atom 0 (Pd with ECP) on-the-fly... 
    atom 0 (Pd), assumed electronic state with S=3: 1s2 2s2 2p6 3s2 3p6 4s2 3d10 4p6 5s2 4d8           ... done
Calculating cut-offs                               ... done
Setting up the integral package                    ... done
Initializing the effective Hamiltonian             ... done
Starting the Coulomb interaction                   ... done (   0.9 sec)
Reading the grid                                   ... done
Mapping shells                                     ... done
Starting the XC term evaluation                    ... done (   1.2 sec)
  promolecular density results
     # of electrons  =    883.955269956
     EX              =   -921.705983810
     EC              =    -31.540139008
     EX+EC           =   -953.246122818
Transforming the Hamiltonian                       ... done (   0.4 sec)
Diagonalizing the Hamiltonian                      ... done (   0.6 sec)
Back transforming the eigenvectors                 ... done (   0.2 sec)
Now organizing SCF variables                       ... done
                      ------------------
                      INITIAL GUESS DONE (  71.7 sec)
                      ------------------
--------------
SCF ITERATIONS
--------------
ITER       Energy         Delta-E        Max-DP      RMS-DP      [F,P]     Damp
               ***  Starting incremental Fock matrix formation  ***
  0  -4988.4840770493   0.000000000000 0.03269299  0.00037072  0.4574830 0.8500
  1  -4988.8377246353  -0.353647586056 0.02774166  0.00033746  0.3870569 0.8500
                               ***Turning on DIIS***
  2  -4989.0994488243  -0.261724189000 0.02253259  0.00027001  0.3266321 0.8500
  3  -4989.2825889658  -0.183140141449 0.01729084  0.00018582  0.2756772 0.8500
  4  -4989.4195164778  -0.136927511980 0.01382692  0.00014037  0.2333614 0.8500
  5  -4989.5252231418  -0.105706664090 0.01141363  0.00011417  0.1979891 0.8500
  6  -4989.6103577908  -0.085134648925 0.00964753  0.00009587  0.1682308 0.8500
  7  -4989.6806644854  -0.070306694633 0.00826766  0.00008237  0.1430454 0.8500
  8  -4989.7395867892  -0.058922303797 0.00716581  0.00007074  0.1216406 0.8500
  9  -4989.7889263463  -0.049339557088 0.00614658  0.00006021  0.1033766 0.8500
 10  -4989.8302124502  -0.041286103922 0.00519586  0.00005103  0.0878111 0.8500
 11  -4989.8648268057  -0.034614355471 0.00437540  0.00004322  0.0745913 0.8500
 12  -4989.8939306040  -0.029103798359 0.00370420  0.00003666  0.0633816 0.8500
 13  -4989.9184554913  -0.024524887278 0.00315846  0.00003113  0.0538682 0.8500
 14  -4989.9391476654  -0.020692174057 0.00269409  0.00002642  0.0457789 0.8500
 15  -4989.9566227780  -0.017475112611 0.00228692  0.00002242  0.0388967 0.8500
 16  -4989.9713955587  -0.014772780734 0.00193539  0.00001902  0.0330474 0.8500
 17  -4989.9838959618  -0.012500403041 0.01093590  0.00010757  0.0280808 0.0000
 18  -4990.0538214275  -0.069925465741 0.00022290  0.00000230  0.0002226 0.0000
 19  -4990.0538258915  -0.000004463993 0.00012540  0.00000085  0.0000881 0.0000
               *** Restarting incremental Fock matrix formation ***
                                   *** Resetting DIIS ***
 20  -4990.0538256494   0.000000242129 0.00010283  0.00000057  0.0000574 0.0000
 21  -4990.0538255025   0.000000146840 0.00004027  0.00000021  0.0000814 0.0000
 22  -4990.0538256259  -0.000000123346 0.00001826  0.00000013  0.0000265 0.0000
 23  -4990.0538256774  -0.000000051507 0.00002103  0.00000015  0.0000070 0.0000
 24  -4990.0538256594   0.000000018015 0.00000610  0.00000005  0.0000018 0.0000
                            ***DIIS convergence achieved***

               *****************************************************
               *                     SUCCESS                       *
               *           SCF CONVERGED AFTER  25 CYCLES          *
               *****************************************************


----------------
TOTAL SCF ENERGY
----------------

Total Energy       :        -4990.05382562 Eh         -135786.26784 eV

Components:
Nuclear Repulsion  :        22632.28980339 Eh          615855.91506 eV
Electronic Energy  :       -27622.34362902 Eh         -751642.18290 eV
One Electron Energy:       -51786.58406909 Eh        -1409184.59408 eV
Two Electron Energy:        24164.24044007 Eh          657542.41118 eV

Virial components:
Potential Energy   :        -9774.95283669 Eh         -265989.98936 eV
Kinetic Energy     :         4784.89901107 Eh          130203.72152 eV
Virial Ratio       :            2.04287547


DFT components:
N(Alpha)           :      411.999891817429 electrons
N(Beta)            :      411.999891817429 electrons
N(Total)           :      823.999783634858 electrons
E(X)               :     -507.650461636963 Eh       
E(C)               :      -28.160729380105 Eh       
E(XC)              :     -535.811191017068 Eh       
DFET-embed. en.    :        0.000000000000 Eh       

---------------
SCF CONVERGENCE
---------------

  Last Energy change         ...    3.8461e-08  Tolerance :   1.0000e-08
  Last MAX-Density change    ...    6.8375e-06  Tolerance :   1.0000e-07
  Last RMS-Density change    ...    5.0038e-08  Tolerance :   5.0000e-09
  Last DIIS Error            ...    9.7160e-07  Tolerance :   5.0000e-07

             **** THE GBW FILE WAS UPDATED (_s_5a3_d_PBE0.gbw) ****
             **** DENSITY FILE WAS UPDATED (_s_5a3_d_PBE0.scfp) ****
             **** ENERGY FILE WAS UPDATED (_s_5a3_d_PBE0.en.tmp) ****
             **** THE GBW FILE WAS UPDATED (_s_5a3_d_PBE0.gbw) ****
             **** DENSITY FILE WAS UPDATED (_s_5a3_d_PBE0.scfp) ****
----------------
ORBITAL ENERGIES
----------------

  NO   OCC          E(Eh)            E(eV) 
   0   2.0000     -14.734792      -400.9541 
   1   2.0000     -14.734789      -400.9540 
   2   2.0000     -14.734757      -400.9531 
   3   2.0000     -14.734752      -400.9530 
   4   2.0000     -14.727902      -400.7666 
   5   2.0000     -14.727899      -400.7665 
   6   2.0000     -14.727867      -400.7656 
   7   2.0000     -14.727866      -400.7656 
   8   2.0000     -10.565488      -287.5015 
   9   2.0000     -10.565487      -287.5015 
  10   2.0000     -10.565481      -287.5013 
  11   2.0000     -10.565479      -287.5013 
  12   2.0000     -10.565462      -287.5008 
  13   2.0000     -10.565453      -287.5006 
  14   2.0000     -10.565446      -287.5004 
  15   2.0000     -10.565437      -287.5002 
  16   2.0000     -10.561710      -287.3987 
  17   2.0000     -10.561708      -287.3987 
  18   2.0000     -10.561673      -287.3977 
  19   2.0000     -10.561654      -287.3972 
  20   2.0000     -10.553112      -287.1648 
  21   2.0000     -10.553104      -287.1646 
  22   2.0000     -10.553062      -287.1634 
  23   2.0000     -10.553050      -287.1631 
  24   2.0000     -10.544509      -286.9307 
  25   2.0000     -10.544497      -286.9304 
  26   2.0000     -10.544466      -286.9295 
  27   2.0000     -10.544447      -286.9290 
  28   2.0000     -10.527360      -286.4640 
  29   2.0000     -10.527352      -286.4638 
  30   2.0000     -10.527307      -286.4626 
  31   2.0000     -10.527282      -286.4619 
  32   2.0000     -10.522971      -286.3446 
  33   2.0000     -10.522970      -286.3446 
  34   2.0000     -10.522928      -286.3434 
  35   2.0000     -10.522925      -286.3433 
  36   2.0000     -10.521332      -286.3000 
  37   2.0000     -10.521322      -286.2997 
  38   2.0000     -10.521283      -286.2987 
  39   2.0000     -10.521279      -286.2986 
  40   2.0000     -10.520312      -286.2722 
  41   2.0000     -10.520312      -286.2722 
  42   2.0000     -10.520281      -286.2714 
  43   2.0000     -10.520265      -286.2710 
  44   2.0000     -10.517289      -286.1900 
  45   2.0000     -10.517277      -286.1897 
  46   2.0000     -10.517246      -286.1888 
  47   2.0000     -10.517236      -286.1885 
  48   2.0000     -10.514563      -286.1158 
  49   2.0000     -10.514550      -286.1155 
  50   2.0000     -10.514512      -286.1144 
[...]
 57 C      5.8726     6.0000     0.1274     3.8398     3.8398    -0.0000
 58 C      5.9887     6.0000     0.0113     3.8954     3.8954    -0.0000
 59 C      5.9397     6.0000     0.0603     3.9502     3.9502    -0.0000
 60 H      0.9415     1.0000     0.0585     0.9907     0.9907    -0.0000
 61 H      0.9283     1.0000     0.0717     0.9817     0.9817    -0.0000
 62 H      0.9607     1.0000     0.0393     0.9913     0.9913    -0.0000
 63 H      0.9470     1.0000     0.0530     1.0000     1.0000    -0.0000
 64 H      0.9429     1.0000     0.0571     0.9849     0.9849    -0.0000
 65 H      0.9626     1.0000     0.0374     1.0143     1.0143    -0.0000
 66 C      6.0439     6.0000    -0.0439     3.7152     3.7152    -0.0000
 67 C      5.9535     6.0000     0.0465     3.8430     3.8430    -0.0000
 68 C      5.9910     6.0000     0.0090     3.8399     3.8399    -0.0000
 69 C      5.9889     6.0000     0.0111     3.8501     3.8501    -0.0000
 70 C      5.9894     6.0000     0.0106     3.8457     3.8457    -0.0000
 71 C      5.9595     6.0000     0.0405     3.8452     3.8452    -0.0000
 72 C      6.0578     6.0000    -0.0578     3.7116     3.7116    -0.0000
 73 C      6.0014     6.0000    -0.0014     3.8278     3.8278    -0.0000
 74 C      5.9461     6.0000     0.0539     3.8397     3.8397    -0.0000
 75 C      6.0133     6.0000    -0.0133     3.8363     3.8363    -0.0000
 76 H      0.9583     1.0000     0.0417     0.9904     0.9904    -0.0000
 77 H      0.9588     1.0000     0.0412     0.9906     0.9906    -0.0000
 78 H      0.9590     1.0000     0.0410     0.9906     0.9906    -0.0000
 79 H      0.9649     1.0000     0.0351     0.9905     0.9905    -0.0000
 80 H      1.0091     1.0000    -0.0091     0.9969     0.9969    -0.0000
 81 H      1.0128     1.0000    -0.0128     0.9962     0.9962    -0.0000
 82 C      5.9550     6.0000     0.0450     3.6972     3.6972    -0.0000
 83 C      6.0368     6.0000    -0.0368     3.7023     3.7023    -0.0000
 84 C      6.1057     6.0000    -0.1057     3.8411     3.8411    -0.0000
 85 C      5.8928     6.0000     0.1072     3.8741     3.8741    -0.0000
 86 C      6.0200     6.0000    -0.0200     3.9201     3.9201    -0.0000
 87 C      5.8806     6.0000     0.1194     3.8674     3.8674    -0.0000
 88 N      7.2978     7.0000    -0.2978     3.3814     3.3814    -0.0000
 89 C      5.8266     6.0000     0.1734     3.8734     3.8734    -0.0000
 90 H      0.9253     1.0000     0.0747     0.9904     0.9904    -0.0000
 91 H      0.9203     1.0000     0.0797     0.9854     0.9854    -0.0000
 92 H      0.9136     1.0000     0.0864     0.9801     0.9801    -0.0000
 93 H      0.9508     1.0000     0.0492     1.0022     1.0022    -0.0000
 94 C      5.9754     6.0000     0.0246     3.6929     3.6929    -0.0000
 95 C      6.0664     6.0000    -0.0664     3.7000     3.7000    -0.0000
 96 C      6.0073     6.0000    -0.0073     3.7400     3.7400    -0.0000
 97 C      5.9624     6.0000     0.0376     3.8393     3.8393    -0.0000
 98 C      5.9801     6.0000     0.0199     3.8432     3.8432    -0.0000
 99 C      5.9860     6.0000     0.0140     3.8362     3.8362    -0.0000
100 C      6.0534     6.0000    -0.0534     3.8945     3.8945    -0.0000
101 C      5.8393     6.0000     0.1607     3.8657     3.8657    -0.0000
102 N      7.3111     7.0000    -0.3111     3.3652     3.3652    -0.0000
103 C      5.8729     6.0000     0.1271     3.8399     3.8399    -0.0000
104 C      5.9886     6.0000     0.0114     3.8953     3.8953    -0.0000
105 C      5.9397     6.0000     0.0603     3.9502     3.9502    -0.0000
106 H      0.9414     1.0000     0.0586     0.9907     0.9907    -0.0000
107 H      0.9283     1.0000     0.0717     0.9817     0.9817    -0.0000
108 H      0.9606     1.0000     0.0394     0.9913     0.9913    -0.0000
109 H      0.9468     1.0000     0.0532     0.9999     0.9999    -0.0000
110 H      0.9429     1.0000     0.0571     0.9849     0.9849    -0.0000
111 H      0.9626     1.0000     0.0374     1.0143     1.0143    -0.0000
112 C      6.0439     6.0000    -0.0439     3.7151     3.7151    -0.0000
113 C      5.9536     6.0000     0.0464     3.8430     3.8430    -0.0000
114 C      5.9911     6.0000     0.0089     3.8399     3.8399    -0.0000
115 C      5.9888     6.0000     0.0112     3.8500     3.8500    -0.0000
116 C      5.9895     6.0000     0.0105     3.8457     3.8457    -0.0000
117 C      5.9594     6.0000     0.0406     3.8452     3.8452    -0.0000
118 C      6.0578     6.0000    -0.0578     3.7116     3.7116    -0.0000
119 C      6.0015     6.0000    -0.0015     3.8278     3.8278    -0.0000
120 C      5.9460     6.0000     0.0540     3.8397     3.8397    -0.0000
121 C      6.0133     6.0000    -0.0133     3.8363     3.8363    -0.0000
122 H      0.9583     1.0000     0.0417     0.9904     0.9904    -0.0000
123 H      0.9587     1.0000     0.0413     0.9906     0.9906    -0.0000
124 H      0.9589     1.0000     0.0411     0.9906     0.9906    -0.0000
125 H      0.9649     1.0000     0.0351     0.9906     0.9906    -0.0000
126 H      1.0091     1.0000    -0.0091     0.9969     0.9969    -0.0000
127 H      1.0128     1.0000    -0.0128     0.9962     0.9962    -0.0000
128 C      5.9551     6.0000     0.0449     3.6972     3.6972    -0.0000
129 C      6.0367     6.0000    -0.0367     3.7021     3.7021    -0.0000
130 C      6.1057     6.0000    -0.1057     3.8411     3.8411    -0.0000
131 C      5.8929     6.0000     0.1071     3.8740     3.8740    -0.0000
132 C      6.0200     6.0000    -0.0200     3.9201     3.9201    -0.0000
133 C      5.8806     6.0000     0.1194     3.8674     3.8674    -0.0000
134 N      7.2979     7.0000    -0.2979     3.3811     3.3811    -0.0000
135 C      5.8266     6.0000     0.1734     3.8736     3.8736    -0.0000
136 H      0.9253     1.0000     0.0747     0.9904     0.9904    -0.0000
137 H      0.9204     1.0000     0.0796     0.9854     0.9854    -0.0000
138 H      0.9136     1.0000     0.0864     0.9802     0.9802    -0.0000
139 H      0.9509     1.0000     0.0491     1.0023     1.0023    -0.0000
140 C      5.9754     6.0000     0.0246     3.6929     3.6929    -0.0000
141 C      6.0664     6.0000    -0.0664     3.6999     3.6999    -0.0000
142 C      6.0073     6.0000    -0.0073     3.7401     3.7401    -0.0000
143 C      5.9624     6.0000     0.0376     3.8393     3.8393    -0.0000
144 C      5.9801     6.0000     0.0199     3.8432     3.8432    -0.0000
145 C      5.9859     6.0000     0.0141     3.8363     3.8363    -0.0000
146 C      6.0535     6.0000    -0.0535     3.8947     3.8947    -0.0000
147 C      5.8393     6.0000     0.1607     3.8657     3.8657    -0.0000
148 N      7.3112     7.0000    -0.3112     3.3652     3.3652    -0.0000
149 C      5.8727     6.0000     0.1273     3.8398     3.8398    -0.0000
150 C      5.9886     6.0000     0.0114     3.8953     3.8953    -0.0000
151 C      5.9397     6.0000     0.0603     3.9501     3.9501    -0.0000
152 H      0.9414     1.0000     0.0586     0.9906     0.9906    -0.0000
153 H      0.9283     1.0000     0.0717     0.9817     0.9817    -0.0000
154 H      0.9606     1.0000     0.0394     0.9913     0.9913    -0.0000
155 H      0.9468     1.0000     0.0532     1.0000     1.0000    -0.0000
156 H      0.9429     1.0000     0.0571     0.9849     0.9849    -0.0000
157 H      0.9627     1.0000     0.0373     1.0143     1.0143    -0.0000
158 C      6.0440     6.0000    -0.0440     3.7152     3.7152    -0.0000
159 C      5.9535     6.0000     0.0465     3.8430     3.8430    -0.0000
160 C      5.9910     6.0000     0.0090     3.8399     3.8399    -0.0000
161 C      5.9888     6.0000     0.0112     3.8501     3.8501    -0.0000
162 C      5.9894     6.0000     0.0106     3.8457     3.8457    -0.0000
163 C      5.9594     6.0000     0.0406     3.8452     3.8452    -0.0000
164 C      6.0579     6.0000    -0.0579     3.7116     3.7116    -0.0000
165 C      6.0015     6.0000    -0.0015     3.8278     3.8278    -0.0000
166 C      5.9460     6.0000     0.0540     3.8397     3.8397    -0.0000
167 C      6.0133     6.0000    -0.0133     3.8363     3.8363    -0.0000
168 H      0.9583     1.0000     0.0417     0.9904     0.9904    -0.0000
169 H      0.9588     1.0000     0.0412     0.9906     0.9906    -0.0000
170 H      0.9589     1.0000     0.0411     0.9906     0.9906    -0.0000
171 H      0.9649     1.0000     0.0351     0.9905     0.9905    -0.0000
172 H      1.0091     1.0000    -0.0091     0.9969     0.9969    -0.0000
173 H      1.0128     1.0000    -0.0128     0.9962     0.9962    -0.0000
174 C      5.9551     6.0000     0.0449     3.6971     3.6971    -0.0000
175 C      6.0367     6.0000    -0.0367     3.7020     3.7020    -0.0000
176 C      6.1057     6.0000    -0.1057     3.8412     3.8412    -0.0000
177 C      5.8929     6.0000     0.1071     3.8740     3.8740    -0.0000
178 C      6.0200     6.0000    -0.0200     3.9201     3.9201    -0.0000
179 C      5.8806     6.0000     0.1194     3.8674     3.8674    -0.0000
180 N      7.2979     7.0000    -0.2979     3.3812     3.3812    -0.0000
181 C      5.8266     6.0000     0.1734     3.8735     3.8735    -0.0000
182 H      0.9253     1.0000     0.0747     0.9904     0.9904    -0.0000
183 H      0.9203     1.0000     0.0797     0.9854     0.9854    -0.0000
184 H      0.9136     1.0000     0.0864     0.9801     0.9801    -0.0000
185 H      0.9509     1.0000     0.0491     1.0023     1.0023    -0.0000

  Mayer bond orders larger than 0.100000
B(  0-Pd, 42-N ) :   0.5393 B(  0-Pd, 56-N ) :   0.5450 B(  0-Pd,134-N ) :   0.5390 
B(  0-Pd,148-N ) :   0.5448 B(  1-Pd, 10-N ) :   0.5450 B(  1-Pd, 88-N ) :   0.5392 
B(  1-Pd,102-N ) :   0.5448 B(  1-Pd,180-N ) :   0.5391 B(  2-C ,  3-C ) :   2.5822 
B(  2-C , 20-C ) :   1.0106 B(  3-C ,  4-C ) :   1.0049 B(  4-C ,  5-C ) :   1.4301 
B(  4-C , 13-C ) :   1.2344 B(  5-C ,  6-C ) :   1.2721 B(  5-C , 14-H ) :   0.9918 
B(  6-C ,  7-C ) :   1.4681 B(  6-C , 15-H ) :   0.9813 B(  7-C ,  8-C ) :   1.2404 
B(  7-C , 16-H ) :   0.9958 B(  8-C ,  9-C ) :   1.2912 B(  8-C , 13-C ) :   1.2221 
B(  9-C , 10-N ) :   1.4334 B(  9-C , 17-H ) :   0.9578 B( 10-N , 11-C ) :   1.1883 
B( 11-C , 12-C ) :   1.5358 B( 11-C , 18-H ) :   0.9441 B( 12-C , 13-C ) :   1.2939 
B( 12-C , 19-H ) :   0.9560 B( 20-C , 21-C ) :   1.2123 B( 20-C , 29-C ) :   1.4197 
B( 21-C , 22-C ) :   1.4958 B( 21-C , 30-H ) :   0.9914 B( 22-C , 23-C ) :   1.2456 
B( 22-C , 31-H ) :   0.9918 B( 23-C , 24-C ) :   1.2447 B( 23-C , 28-C ) :   1.2354 
B( 24-C , 25-C ) :   1.5011 B( 24-C , 32-H ) :   0.9914 B( 25-C , 26-C ) :   1.2066 
B( 25-C , 33-H ) :   0.9912 B( 26-C , 27-C ) :   1.4080 B( 26-C , 36-C ) :   1.0227 
B( 27-C , 28-C ) :   1.2431 B( 27-C , 34-H ) :   0.9964 B( 28-C , 29-C ) :   1.2417 
B( 29-C , 35-H ) :   0.9962 B( 36-C , 37-C ) :   2.5782 B( 37-C , 38-C ) :   1.0282 
B( 38-C , 39-C ) :   1.3437 B( 38-C , 43-C ) :   1.3565 B( 39-C , 40-C ) :   1.4044 
B( 39-C , 44-H ) :   0.9863 B( 40-C , 41-C ) :   1.4214 B( 40-C , 45-H ) :   0.9725 
B( 41-C , 42-N ) :   1.3036 B( 41-C , 46-H ) :   0.9494 B( 42-N , 43-C ) :   1.3469 
B( 43-C , 47-H ) :   0.9642 B( 48-C , 49-C ) :   2.5821 B( 48-C , 66-C ) :   1.0106 
B( 49-C , 50-C ) :   1.0049 B( 50-C , 51-C ) :   1.4301 B( 50-C , 59-C ) :   1.2343 
B( 51-C , 52-C ) :   1.2720 B( 51-C , 60-H ) :   0.9918 B( 52-C , 53-C ) :   1.4682 
B( 52-C , 61-H ) :   0.9813 B( 53-C , 54-C ) :   1.2403 B( 53-C , 62-H ) :   0.9958 
B( 54-C , 55-C ) :   1.2912 B( 54-C , 59-C ) :   1.2221 B( 55-C , 56-N ) :   1.4335 
B( 55-C , 63-H ) :   0.9578 B( 56-N , 57-C ) :   1.1883 B( 57-C , 58-C ) :   1.5357 
B( 57-C , 64-H ) :   0.9442 B( 58-C , 59-C ) :   1.2941 B( 58-C , 65-H ) :   0.9560 
B( 66-C , 67-C ) :   1.2122 B( 66-C , 75-C ) :   1.4198 B( 67-C , 68-C ) :   1.4958 
B( 67-C , 76-H ) :   0.9914 B( 68-C , 69-C ) :   1.2455 B( 68-C , 77-H ) :   0.9918 
B( 69-C , 70-C ) :   1.2446 B( 69-C , 74-C ) :   1.2355 B( 70-C , 71-C ) :   1.5011 
B( 70-C , 78-H ) :   0.9913 B( 71-C , 72-C ) :   1.2066 B( 71-C , 79-H ) :   0.9912 
B( 72-C , 73-C ) :   1.4081 B( 72-C , 82-C ) :   1.0225 B( 73-C , 74-C ) :   1.2430 
B( 73-C , 80-H ) :   0.9964 B( 74-C , 75-C ) :   1.2417 B( 75-C , 81-H ) :   0.9962 
B( 82-C , 83-C ) :   2.5787 B( 83-C , 84-C ) :   1.0281 B( 84-C , 85-C ) :   1.3436 
B( 84-C , 89-C ) :   1.3568 B( 85-C , 86-C ) :   1.4045 B( 85-C , 90-H ) :   0.9863 
B( 86-C , 87-C ) :   1.4213 B( 86-C , 91-H ) :   0.9725 B( 87-C , 88-N ) :   1.3038 
B( 87-C , 92-H ) :   0.9494 B( 88-N , 89-C ) :   1.3467 B( 89-C , 93-H ) :   0.9642 
B( 94-C , 95-C ) :   2.5822 B( 94-C ,112-C ) :   1.0106 B( 95-C , 96-C ) :   1.0049 
B( 96-C , 97-C ) :   1.4302 B( 96-C ,105-C ) :   1.2343 B( 97-C , 98-C ) :   1.2720 
B( 97-C ,106-H ) :   0.9918 B( 98-C , 99-C ) :   1.4682 B( 98-C ,107-H ) :   0.9813 
B( 99-C ,100-C ) :   1.2403 B( 99-C ,108-H ) :   0.9958 B(100-C ,101-C ) :   1.2911 
B(100-C ,105-C ) :   1.2221 B(101-C ,102-N ) :   1.4336 B(101-C ,109-H ) :   0.9577 
B(102-N ,103-C ) :   1.1884 B(103-C ,104-C ) :   1.5356 B(103-C ,110-H ) :   0.9442 
B(104-C ,105-C ) :   1.2940 B(104-C ,111-H ) :   0.9560 B(112-C ,113-C ) :   1.2123 
B(112-C ,121-C ) :   1.4196 B(113-C ,114-C ) :   1.4958 B(113-C ,122-H ) :   0.9914 
B(114-C ,115-C ) :   1.2455 B(114-C ,123-H ) :   0.9918 B(115-C ,116-C ) :   1.2448 
B(115-C ,120-C ) :   1.2353 B(116-C ,117-C ) :   1.5010 B(116-C ,124-H ) :   0.9913 
B(117-C ,118-C ) :   1.2067 B(117-C ,125-H ) :   0.9912 B(118-C ,119-C ) :   1.4080 
B(118-C ,128-C ) :   1.0225 B(119-C ,120-C ) :   1.2431 B(119-C ,126-H ) :   0.9964 
B(120-C ,121-C ) :   1.2418 B(121-C ,127-H ) :   0.9962 B(128-C ,129-C ) :   2.5785 
B(129-C ,130-C ) :   1.0281 B(130-C ,131-C ) :   1.3437 B(130-C ,135-C ) :   1.3567 
B(131-C ,132-C ) :   1.4044 B(131-C ,136-H ) :   0.9863 B(132-C ,133-C ) :   1.4214 
B(132-C ,137-H ) :   0.9725 B(133-C ,134-N ) :   1.3036 B(133-C ,138-H ) :   0.9494 
B(134-N ,135-C ) :   1.3469 B(135-C ,139-H ) :   0.9642 B(140-C ,141-C ) :   2.5821 
B(140-C ,158-C ) :   1.0107 B(141-C ,142-C ) :   1.0049 B(142-C ,143-C ) :   1.4302 
B(142-C ,151-C ) :   1.2343 B(143-C ,144-C ) :   1.2720 B(143-C ,152-H ) :   0.9917 
B(144-C ,145-C ) :   1.4683 B(144-C ,153-H ) :   0.9813 B(145-C ,146-C ) :   1.2403 
B(145-C ,154-H ) :   0.9958 B(146-C ,147-C ) :   1.2912 B(146-C ,151-C ) :   1.2221 
B(147-C ,148-N ) :   1.4336 B(147-C ,155-H ) :   0.9577 B(148-N ,149-C ) :   1.1882 
B(149-C ,150-C ) :   1.5357 B(149-C ,156-H ) :   0.9442 B(150-C ,151-C ) :   1.2939 
B(150-C ,157-H ) :   0.9560 B(158-C ,159-C ) :   1.2122 B(158-C ,167-C ) :   1.4197 
B(159-C ,160-C ) :   1.4959 B(159-C ,168-H ) :   0.9914 B(160-C ,161-C ) :   1.2455 
B(160-C ,169-H ) :   0.9918 B(161-C ,162-C ) :   1.2448 B(161-C ,166-C ) :   1.2354 
B(162-C ,163-C ) :   1.5010 B(162-C ,170-H ) :   0.9913 B(163-C ,164-C ) :   1.2067 
B(163-C ,171-H ) :   0.9912 B(164-C ,165-C ) :   1.4080 B(164-C ,174-C ) :   1.0226 
B(165-C ,166-C ) :   1.2432 B(165-C ,172-H ) :   0.9964 B(166-C ,167-C ) :   1.2417 
B(167-C ,173-H ) :   0.9962 B(174-C ,175-C ) :   2.5784 B(175-C ,176-C ) :   1.0281 
B(176-C ,177-C ) :   1.3437 B(176-C ,181-C ) :   1.3567 B(177-C ,178-C ) :   1.4043 
B(177-C ,182-H ) :   0.9863 B(178-C ,179-C ) :   1.4214 B(178-C ,183-H ) :   0.9725 
B(179-C ,180-N ) :   1.3036 B(179-C ,184-H ) :   0.9494 B(180-N ,181-C ) :   1.3468 
B(181-C ,185-H ) :   0.9642 

-------
TIMINGS
-------

Total SCF time: 0 days 0 hours 19 min 27 sec 

Total time                  ....    1167.907 sec
Sum of individual times     ....    1137.204 sec  ( 97.4%)

Fock matrix formation       ....     920.578 sec  ( 78.8%)
  XC integration            ....      35.392 sec  (  3.8% of F)
    Basis function eval.    ....       7.523 sec  ( 21.3% of XC)
    Density eval.           ....      11.595 sec  ( 32.8% of XC)
    XC-Functional eval.     ....       1.596 sec  (  4.5% of XC)
    XC-Potential eval.      ....       4.569 sec  ( 12.9% of XC)
Diagonalization             ....      24.962 sec  (  2.1%)
Density matrix formation    ....       1.326 sec  (  0.1%)
Population analysis         ....       7.267 sec  (  0.6%)
Initial guess               ....      27.119 sec  (  2.3%)
Orbital Transformation      ....       0.000 sec  (  0.0%)
Orbital Orthonormalization  ....       0.000 sec  (  0.0%)
DIIS solution               ....     111.384 sec  (  9.5%)
Grid generation             ....      44.568 sec  (  3.8%)


-------------------------------------------------------------------------------
                          DFT DISPERSION CORRECTION                            
                                                                               
                              DFTD3 V3.1  Rev 1                                
                          USING Becke-Johnson damping                          
-------------------------------------------------------------------------------
The PBE0 functional is recognized
Active option DFTDOPT                   ...         4   

molecular C6(AA) [au] = 550421.847042 


            DFT-D V3
 parameters
 s6 scaling factor         :     1.0000 
 a1 scaling factor         :     0.4145 
 s8 scaling factor         :     1.2177 
 a2 scaling factor         :     4.8593 
 ad hoc parameters k1-k3   :    16.0000     1.3333    -4.0000 

 Edisp/kcal,au: -179.478703601516  -0.286017489576 
 E6   /kcal   : -110.634783845 
 E8   /kcal   : -68.843919757 
 % E8         :  38.357709508 

-------------------------   ----------------
Dispersion correction           -0.286017490
-------------------------   ----------------


-------------------------   --------------------
FINAL SINGLE POINT ENERGY     -4990.339843110483
-------------------------   --------------------


                            ***************************************
                            *     ORCA property calculations      *
                            ***************************************

                                    ---------------------
                                    Active property flags
                                    ---------------------
   (+) Dipole Moment


------------------------------------------------------------------------------
                       ORCA ELECTRIC PROPERTIES CALCULATION
------------------------------------------------------------------------------

Dipole Moment Calculation                       ... on
Quadrupole Moment Calculation                   ... off
Polarizability Calculation                      ... off
GBWName                                         ... _s_5a3_d_PBE0.gbw
Electron density file                           ... _s_5a3_d_PBE0.scfp
The origin for moment calculation is the CENTER OF MASS  = ( 0.143149, -2.523448 -0.023417)

-------------
DIPOLE MOMENT
-------------
                                X             Y             Z
Electronic contribution:      1.12586       0.02874       0.65253
Nuclear contribution   :     -1.12253      -0.02937      -0.65034
                        -----------------------------------------
Total Dipole Moment    :      0.00333      -0.00063       0.00219
                        -----------------------------------------
Magnitude (a.u.)       :      0.00404
Magnitude (Debye)      :      0.01026



--------------------
Rotational spectrum 
--------------------
 
Rotational constants in cm-1:     0.000312     0.000209     0.000207 
Rotational constants in MHz :     9.338928     6.266291     6.215844 

 Dipole components along the rotational axes: 
x,y,z [a.u.] :    -0.000775    -0.003902    -0.000687 
x,y,z [Debye]:    -0.001970    -0.009918    -0.001746 

 

Timings for individual modules:

Sum of individual times         ...     1198.149 sec (=  19.969 min)
GTO integral calculation        ...       18.939 sec (=   0.316 min)   1.6 %
SCF iterations                  ...     1179.210 sec (=  19.653 min)  98.4 %
                             ****ORCA TERMINATED NORMALLY****
TOTAL RUN TIME: 0 days 0 hours 20 minutes 7 seconds 172 msec
