Job execution start: Tue Jun 22 17:18:36 BST 2021
Shared library path: /work/e05/e05/atarzia/orca_4_2_1_linux_x86-64_openmpi314:/work/e05/e05/atarzia/openmpi-3.1.4/lib:/opt/cray/pe/papi/6.0.0.4/lib64:/opt/cray/libfabric/1.11.0.0.233/lib64
Slurm Job ID is: 344730
Slurm Job name is: s_5b4_a_B97-3c
nid001283

                                 *****************
                                 * O   R   C   A *
                                 *****************

           --- An Ab Initio, DFT and Semiempirical electronic structure package ---

                  #######################################################
                  #                        -***-                        #
                  #          Department of theory and spectroscopy      #
                  #               Directorship: Frank Neese             #
                  #        Max Planck Institute fuer Kohlenforschung    #
                  #                Kaiser Wilhelm Platz 1               #
                  #                 D-45470 Muelheim/Ruhr               #
                  #                      Germany                        #
                  #                                                     #
                  #                  All rights reserved                #
                  #                        -***-                        #
                  #######################################################


                         Program Version 4.2.1 -  RELEASE  -


 With contributions from (in alphabetic order):
   Daniel Aravena         : Magnetic Suceptibility
   Michael Atanasov       : Ab Initio Ligand Field Theory (pilot matlab implementation)
   Alexander A. Auer      : GIAO ZORA, VPT2
   Ute Becker             : Parallelization
   Giovanni Bistoni       : ED, misc. LED, open-shell LED, HFLD
   Martin Brehm           : Molecular dynamics
   Dmytro Bykov           : SCF Hessian
   Vijay G. Chilkuri      : MRCI spin determinant printing, contributions to CSF-ICE
   Dipayan Datta          : RHF DLPNO-CCSD density
   Achintya Kumar Dutta   : EOM-CC, STEOM-CC
   Dmitry Ganyushin       : Spin-Orbit,Spin-Spin,Magnetic field MRCI
   Miquel Garcia          : C-PCM Hessian, Gaussian charge scheme
   Yang Guo               : DLPNO-NEVPT2, CIM, IAO-localization
   Andreas Hansen         : Spin unrestricted coupled pair/coupled cluster methods
   Benjamin Helmich-Paris : CASSCF linear response (MC-RPA)
   Lee Huntington         : MR-EOM, pCC
   Robert Izsak           : Overlap fitted RIJCOSX, COSX-SCS-MP3, EOM
   Christian Kollmar      : KDIIS, OOCD, Brueckner-CCSD(T), CCSD density
   Simone Kossmann        : Meta GGA functionals, TD-DFT gradient, OOMP2, MP2 Hessian
   Martin Krupicka        : AUTO-CI
   Lucas Lang             : DCDCAS
   Dagmar Lenk            : GEPOL surface, SMD
   Dimitrios Liakos       : Extrapolation schemes; Compound Job, initial MDCI parallelization
   Dimitrios Manganas     : Further ROCIS development; embedding schemes
   Dimitrios Pantazis     : SARC Basis sets
   Taras Petrenko         : DFT Hessian,TD-DFT gradient, ASA, ECA, R-Raman, ABS, FL, XAS/XES, NRVS
   Peter Pinski           : DLPNO-MP2, DLPNO-MP2 Gradient
   Christoph Reimann      : Effective Core Potentials
   Marius Retegan         : Local ZFS, SOC
   Christoph Riplinger    : Optimizer, TS searches, QM/MM, DLPNO-CCSD(T), (RO)-DLPNO pert. Triples
   Tobias Risthaus        : Range-separated hybrids, TD-DFT gradient, RPA, STAB
   Michael Roemelt        : Original ROCIS implementation
   Masaaki Saitow         : Open-shell DLPNO-CCSD energy and density
   Barbara Sandhoefer     : DKH picture change effects
   Avijit Sen             : IP-ROCIS
   Kantharuban Sivalingam : CASSCF convergence, NEVPT2, FIC-MRCI
   Bernardo de Souza      : ESD, SOC TD-DFT
   Georgi Stoychev        : AutoAux, RI-MP2 NMR
   Willem Van den Heuvel  : Paramagnetic NMR
   Boris Wezisla          : Elementary symmetry handling
   Frank Wennmohs         : Technical directorship


 We gratefully acknowledge several colleagues who have allowed us to
 interface, adapt or use parts of their codes:
   Stefan Grimme, W. Hujo, H. Kruse,             : VdW corrections, initial TS optimization,
                  C. Bannwarth                     DFT functionals, gCP, sTDA/sTD-DF
   Ed Valeev, F. Pavosevic, A. Kumar             : LibInt (2-el integral package), F12 methods
   Garnet Chan, S. Sharma, J. Yang, R. Olivares  : DMRG
   Ulf Ekstrom                                   : XCFun DFT Library
   Mihaly Kallay                                 : mrcc  (arbitrary order and MRCC methods)
   Andreas Klamt, Michael Diedenhofen            : otool_cosmo (COSMO solvation model)
   Jiri Pittner, Ondrej Demel                    : Mk-CCSD
   Frank Weinhold                                : gennbo (NPA and NBO analysis)
   Christopher J. Cramer and Donald G. Truhlar   : smd solvation model
   Lars Goerigk                                  : TD-DFT with DH, B97 family of functionals
   V. Asgeirsson, H. Jonsson                     : NEB implementation
   FAccTs GmbH                                   : IRC, NEB, NEB-TS, Multilevel, MM, QM/MM, CI optimization
   S Lehtola, MJT Oliveira, MAL Marques          : LibXC Library


 Your calculation uses the libint2 library for the computation of 2-el integrals
 For citations please refer to: http://libint.valeyev.net

 Your ORCA version has been built with support for libXC version: 4.2.3
 For citations please refer to: https://tddft.org/programs/libxc/

 This ORCA versions uses:
   CBLAS   interface :  Fast vector & matrix operations
   LAPACKE interface :  Fast linear algebra routines
   SCALAPACK package :  Parallel linear algebra routines




***************************************
The coordinates will be read from file: s_5b4_a.xyz
***************************************


Your calculation utilizes the atom-pairwise dispersion correction
with the Becke-Johnson damping scheme (D3BJ)
Cite in your paper:
S.Grimme, S.Ehrlich, L.Goerigk, J Comput Chem, (2011), 32, 1456–1465 
S.Grimme, J.Antony, S.Ehrlich and H.Krieg, J.Chem.Phys., 132, (2010), 154104 
   

Your calculation employs the composite approach B97-3c by Grimme and coworkers.
For the correct reference, please check the publication list of the Grimme group:
http://www.thch.uni-bonn.de/tc/index.php?section=publikationen&subsection=grimme#2017
   

XCFun DFT library Copyright 2009-2010 Ulf Ekstrom and contributors.
See http://admol.org/xcfun for more information. This is free soft-
ware; see the source code for copying conditions. There is ABSOLUTELY
NO WARRANTY; not even for MERCHANTABILITY or FITNESS FOR A PARTICULAR
PURPOSE. For details see the documentation. Scientific users of this 
library should cite U. Ekstrom, L. Visscher, R. Bast, A. J. Thorvald-
sen and K. Ruud; J.Chem.Theor.Comp. 2010, DOI: 10.1021/ct100117s
XCFun Version 0.99 
----- Orbital basis set information -----
Your calculation utilizes the basis: def2-mTZVP
----- AuxJ basis set information -----
Your calculation utilizes the basis: def2-mTZVP/J
cite the ECPs for Pd [Def2-ECP] as follows:
Ce-Yb(ecp-28): M. Dolg, H. Stoll, H.Preuss, J. Chem. Phys., 1989, 90, 1730-1734.
Y-Cd(ecp-28), Hf-Hg(ecp-46): D. Andrae,U. Haeussermann, M. Dolg, H. Stoll, H. Preuss, Theor. Chim. Acta, 1990, 77, 123-141.
In-Sb(ecp-28), Tl-Bi(ecp-46): B. Metz, H. Stoll, M. Dolg, J. Chem. Phys., 2000, 113, 2563-2569.
Te-Xe(ecp-28), Po-Rn(ecp-46): K. A. Peterson, D. Figgen, E. Goll, H. Stoll, M. Dolg, J. Chem. Phys., 2003, 119, 11113-11123.
Rb(ecp-28), Cs(ecp-46): T. Leininger, A. Nicklass, W. Kuechle, H. Stoll, M. Dolg, A. Bergner, Chem. Phys. Lett., 1996, 255, 274-280.
Sr(ecp-28), Ba(ecp-46): M. Kaupp, P. V. Schleyer, H. Stoll and H. Preuss, J. Chem. Phys., 1991, 94, 1360-1366.
La(ecp-46): M. Dolg, H. Stoll, A. Savin, H. Preuss, Theor. Chim. Acta, 1989, 75, 173-194.
Lu(ecp-28): X. Cao, M. Dolg, J. Chem. Phys., 2001, 115, 7348-7355.

ECP parameters for Pd [Def2-ECP] have been obtained from:
TURBOMOLE (7.0.2)

================================================================================
                                        WARNINGS
                       Please study these warnings very carefully!
================================================================================


INFO   : the flag for use of LIBINT has been found!

================================================================================
                                       INPUT FILE
================================================================================
NAME = s_5b4_a_B97-3c.in
|  1> ! DFT SP B97-3c TightSCF printbasis  Grid6 NOFINALGRID SlowConv 
|  2> 
|  3> %base "_s_5b4_a_B97-3c"
|  4> %maxcore 3000
|  5> %scf
|  6>    MaxIter 2000
|  7> end
|  8> %pal
|  9>    nprocs 32
| 10> end
| 11> 
| 12> * xyzfile 4 1 s_5b4_a.xyz
| 13> 
| 14>                          ****END OF INPUT****
================================================================================

                       ****************************
                       * Single Point Calculation *
                       ****************************

---------------------------------
CARTESIAN COORDINATES (ANGSTROEM)
---------------------------------
  Pd    -2.015100    5.866100   -0.000300
  Pd    -0.089000   -7.483300   -0.279800
  C      4.368900    1.808500    1.161800
  C      4.166400    2.988200    1.339500
  C      3.784800    4.338200    1.462800
  C      4.674100    5.343700    1.793400
  C      4.252600    6.677300    1.873200
  C      2.952400    7.029400    1.614500
  C      2.012900    6.033200    1.270100
  C      0.670000    6.324600    0.967000
  N     -0.200500    5.388900    0.645700
  C      0.175900    4.088200    0.601600
  C      1.456900    3.704400    0.867500
  C      2.423700    4.671300    1.203800
  H      5.706200    5.097700    1.992100
  H      4.973200    7.435700    2.138100
  H      2.639200    8.059600    1.669600
  H      0.302600    7.348200    0.988200
  H     -0.595000    3.371000    0.341900
  H      1.743300    2.666600    0.816800
  C      4.516000    0.436200    0.880400
  C      3.431300   -0.422600    1.100900
  C      3.506000   -1.746500    0.731200
  C      4.667800   -2.239400    0.126500
  C      5.767300   -1.390300   -0.055900
  C      5.694100   -0.066800    0.319000
  H      2.536200   -0.033700    1.560700
  H      2.669200   -2.406200    0.896600
  H      6.669500   -1.777500   -0.505000
  H      6.536300    0.590800    0.164600
  C      4.746800   -3.568100   -0.330600
  C      4.821200   -4.692100   -0.773600
  C      5.049500   -5.968800   -1.316500
  C      6.319200   -6.278700   -1.776200
  C      6.606100   -7.530800   -2.325500
  C      5.633700   -8.495100   -2.423500
  C      4.331000   -8.225900   -1.969000
  C      3.291500   -9.180300   -2.034800
  C      2.050900   -8.865900   -1.565600
  N      1.762300   -7.648100   -1.038200
  C      2.704500   -6.727100   -0.967700
  C      4.018700   -6.951600   -1.410100
  H      7.100100   -5.537200   -1.704900
  H      7.607400   -7.735200   -2.672700
  H      5.854900   -9.463200   -2.844500
  H      3.491300  -10.154400   -2.451500
  H      1.235800   -9.585700   -1.601700
  H      2.424800   -5.767300   -0.542400
  C     -1.004800    1.709200    5.752000
  C     -1.254000    2.890700    5.842900
  C     -1.495600    4.272100    5.711800
  C     -1.252400    5.192100    6.715000
  C     -1.407300    6.564000    6.478700
  C     -1.762500    7.041300    5.241500
  C     -2.024600    6.136200    4.191300
  C     -2.307800    6.548200    2.869800
  N     -2.552000    5.695200    1.899900
  C     -2.590800    4.360400    2.165800
  C     -2.287400    3.860200    3.396600
  C     -1.939800    4.738700    4.441500
  H     -0.929800    4.851100    7.687000
  H     -1.217700    7.254700    7.286100
  H     -1.841300    8.101700    5.062500
  H     -2.322200    7.602500    2.613500
  H     -2.878000    3.694800    1.348500
  H     -2.297000    2.799100    3.584700
  C     -0.671700    0.352100    5.574100
  C     -1.014300   -0.282600    4.372200
  C     -0.638300   -1.586400    4.137400
  C      0.095300   -2.286700    5.100500
  C      0.418500   -1.660300    6.312400
  C      0.039000   -0.357500    6.548100
  H     -1.575500    0.259800    3.627300
  H     -0.903300   -2.071100    3.211000
  H      0.973900   -2.205500    7.060800
  H      0.295200    0.124400    7.479700
  C      0.528600   -3.610100    4.894400
  C      0.932000   -4.743400    4.753300
  C      1.453900   -6.047300    4.834100
  C      2.063900   -6.411600    6.025500
  C      2.583700   -7.692500    6.218300
  C      2.494300   -8.638300    5.227300
  C      1.887500   -8.313200    4.002400
  C      1.755100   -9.255100    2.958000
  C      1.161400   -8.890100    1.787800
  N      0.699800   -7.629000    1.567500
  C      0.795400   -6.724900    2.523500
  C      1.368100   -7.003300    3.778200
  H      2.130500   -5.686200    6.821800
  H      3.050600   -7.935600    7.160300
  H      2.882200   -9.633900    5.374800
  H      2.121900  -10.259000    3.100100
  H      1.036800   -9.607700    0.976300
  H      0.404900   -5.735900    2.306600
  C     -5.250200    1.449200   -3.659300
  C     -5.240900    2.611900   -3.995000
  C     -5.053200    3.997100   -4.197700
  C     -5.033000    4.593300   -5.442800
  C     -4.699200    5.947900   -5.581500
  C     -4.323900    6.703300   -4.500100
  C     -4.327700    6.129700   -3.210300
  C     -3.796100    6.779300   -2.074500
  N     -3.786700    6.230000   -0.876100
  C     -4.424900    5.040400   -0.687100
  C     -4.895600    4.295100   -1.730800
  C     -4.768500    4.786700   -3.048100
  H     -5.264900    4.008600   -6.320000
  H     -4.707000    6.386900   -6.567400
  H     -4.014500    7.729000   -4.622800
  H     -3.345800    7.760600   -2.172600
  H     -4.604600    4.750500    0.343800
  H     -5.348900    3.330400   -1.566500
  C     -5.214000    0.130200   -3.155400
  C     -6.346000   -0.423600   -2.548600
  C     -6.263600   -1.648000   -1.922900
  C     -5.048000   -2.344600   -1.885900
  C     -3.929200   -1.810500   -2.532800
  C     -4.012200   -0.586600   -3.161800
  H     -7.279600    0.118900   -2.561800
  H     -7.134100   -2.070100   -1.443900
  H     -2.999700   -2.356700   -2.526500
  H     -3.149100   -0.165700   -3.653600
  C     -4.995500   -3.556100   -1.169200
  C     -4.997500   -4.568600   -0.504800
  C     -5.229200   -5.720600    0.269200
  C     -6.522100   -5.935900    0.722000
  C     -6.855400   -7.068800    1.466900
  C     -5.907000   -8.016900    1.760300
  C     -4.583000   -7.840900    1.323300
  C     -3.573700   -8.796100    1.574900
  C     -2.306000   -8.580700    1.122500
  N     -1.955800   -7.450700    0.453800
  C     -2.873000   -6.535700    0.196000
  C     -4.216800   -6.675900    0.585100
  H     -7.287000   -5.212500    0.485400
  H     -7.872900   -7.198000    1.802400
  H     -6.162900   -8.902100    2.321000
  H     -3.818300   -9.695800    2.116500
  H     -1.521300   -9.314700    1.290500
  H     -2.549200   -5.648100   -0.340100
  C      1.555700    1.773000   -5.075700
  C      1.611800    2.974900   -4.948800
  C      1.571800    4.353000   -4.651800
  C      2.455300    5.267600   -5.192400
  C      2.411200    6.616400   -4.815500
  C      1.507600    7.066500   -3.886900
  C      0.582000    6.165500   -3.317600
  C     -0.342600    6.545900   -2.326200
  N     -1.204700    5.700000   -1.802800
  C     -1.252000    4.414000   -2.235800
  C     -0.383500    3.941100   -3.173900
  C      0.590800    4.800400   -3.721300
  H      3.194100    4.937100   -5.906600
  H      3.114700    7.303800   -5.259400
  H      1.495700    8.101700   -3.585700
  H     -0.372400    7.564400   -1.952200
  H     -2.029100    3.785000   -1.802200
  H     -0.425200    2.914100   -3.498200
  C      1.383300    0.375200   -5.152500
  C      1.426200   -0.381100   -3.974600
  C      1.123000   -1.724300   -4.001300
  C      0.759600   -2.336600   -5.205800
  C      0.769700   -1.590600   -6.391500
  C      1.081500   -0.248700   -6.366700
  H      1.689200    0.103200   -3.047100
  H      1.145500   -2.305300   -3.093100
  H      0.513300   -2.069800   -7.324300
  H      1.070200    0.330300   -7.277900
  C      0.328100   -3.676100   -5.248200
  C     -0.123600   -4.798000   -5.300400
  C     -0.678200   -6.071900   -5.517800
  C     -1.004500   -6.438600   -6.813700
  C     -1.574400   -7.682500   -7.094500
  C     -1.826800   -8.583100   -6.089100
  C     -1.506900   -8.257100   -4.759800
  C     -1.728600   -9.148600   -3.686200
  C     -1.373800   -8.788600   -2.420200
  N     -0.818200   -7.580000   -2.139900
  C     -0.609800   -6.714300   -3.113500
  C     -0.926900   -6.990500   -4.454100
  H     -0.813900   -5.746700   -7.619700
  H     -1.816100   -7.931200   -8.116500
  H     -2.266400   -9.544100   -6.304500
  H     -2.169300  -10.113400   -3.880900
  H     -1.528500   -9.460700   -1.576600
  H     -0.168700   -5.760500   -2.839600

----------------------------
CARTESIAN COORDINATES (A.U.)
----------------------------
  NO LB      ZA    FRAG     MASS         X           Y           Z
   0 Pd   18.0000*   0   106.400   -3.807987   11.085322   -0.000567
   1 Pd   18.0000*   0   106.400   -0.168186  -14.141388   -0.528745
   2 C     6.0000    0    12.011    8.256025    3.417570    2.195484
   3 C     6.0000    0    12.011    7.873355    5.646880    2.531288
   4 C     6.0000    0    12.011    7.152235    8.198010    2.764291
   5 C     6.0000    0    12.011    8.832769   10.098130    3.389035
   6 C     6.0000    0    12.011    8.036249   12.618268    3.539835
   7 C     6.0000    0    12.011    5.579227   13.283641    3.050963
   8 C     6.0000    0    12.011    3.803830   11.401096    2.400141
   9 C     6.0000    0    12.011    1.266117   11.951762    1.827365
  10 N     7.0000    0    14.007   -0.378890   10.183545    1.220196
  11 C     6.0000    0    12.011    0.332403    7.725578    1.136859
  12 C     6.0000    0    12.011    2.753142    7.000301    1.639337
  13 C     6.0000    0    12.011    4.580129    8.827478    2.274852
  14 H     1.0000    0     1.008   10.783155    9.633257    3.764523
  15 H     1.0000    0     1.008    9.397986   14.051437    4.040423
  16 H     1.0000    0     1.008    4.987365   15.230437    3.155087
  17 H     1.0000    0     1.008    0.571831   13.886086    1.867427
  18 H     1.0000    0     1.008   -1.124387    6.370267    0.646097
  19 H     1.0000    0     1.008    3.294360    5.039144    1.543528
  20 C     6.0000    0    12.011    8.534003    0.824299    1.663715
  21 C     6.0000    0    12.011    6.484217   -0.798598    2.080400
  22 C     6.0000    0    12.011    6.625380   -3.300407    1.381768
  23 C     6.0000    0    12.011    8.820864   -4.231853    0.239050
  24 C     6.0000    0    12.011   10.898618   -2.627286   -0.105636
  25 C     6.0000    0    12.011   10.760290   -0.126234    0.602823
  26 H     1.0000    0     1.008    4.792723   -0.063684    2.949296
  27 H     1.0000    0     1.008    5.044057   -4.547059    1.694328
  28 H     1.0000    0     1.008   12.603528   -3.358988   -0.954312
  29 H     1.0000    0     1.008   12.351817    1.116450    0.311049
  30 C     6.0000    0    12.011    8.970152   -6.742732   -0.624743
  31 C     6.0000    0    12.011    9.110748   -8.866784   -1.461892
  32 C     6.0000    0    12.011    9.542172  -11.279397   -2.487824
  33 C     6.0000    0    12.011   11.941557  -11.865023   -3.356532
  34 C     6.0000    0    12.011   12.483720  -14.231150   -4.394558
  35 C     6.0000    0    12.011   10.646150  -16.053412   -4.579751
  36 C     6.0000    0    12.011    8.184404  -15.544698   -3.720871
  37 C     6.0000    0    12.011    6.220034  -17.348253   -3.845215
  38 C     6.0000    0    12.011    3.875639  -16.754123   -2.958555
  39 N     7.0000    0    14.007    3.330264  -14.452814   -1.961914
  40 C     6.0000    0    12.011    5.110764  -12.712377   -1.828688
  41 C     6.0000    0    12.011    7.594242  -13.136620   -2.664703
  42 H     1.0000    0     1.008   13.417245  -10.463792   -3.221794
  43 H     1.0000    0     1.008   14.375903  -14.617410   -5.050671
  44 H     1.0000    0     1.008   11.064158  -17.882856   -5.375326
  45 H     1.0000    0     1.008    6.597601  -19.189035   -4.632664
  46 H     1.0000    0     1.008    2.335324  -18.114348   -3.026774
  47 H     1.0000    0     1.008    4.582208  -10.898618   -1.024987
  48 C     6.0000    0    12.011   -1.898797    3.229920   10.869705
  49 C     6.0000    0    12.011   -2.369717    5.462631   11.041481
  50 C     6.0000    0    12.011   -2.826274    8.073099   10.793738
  51 C     6.0000    0    12.011   -2.366693    9.811647   12.689511
  52 C     6.0000    0    12.011   -2.659412   12.404162   12.242969
  53 C     6.0000    0    12.011   -3.330642   13.306129    9.905000
  54 C     6.0000    0    12.011   -3.825940   11.595738    7.920409
  55 C     6.0000    0    12.011   -4.361110   12.374305    5.423136
  56 N     7.0000    0    14.007   -4.822581   10.762368    3.590291
  57 C     6.0000    0    12.011   -4.895902    8.239962    4.092769
  58 C     6.0000    0    12.011   -4.322560    7.294721    6.418644
  59 C     6.0000    0    12.011   -3.665691    8.954845    8.393219
  60 H     1.0000    0     1.008   -1.757067    9.167250   14.526325
  61 H     1.0000    0     1.008   -2.301120   13.709396   13.768734
  62 H     1.0000    0     1.008   -3.479553   15.309994    9.566739
  63 H     1.0000    0     1.008   -4.388322   14.366643    4.938799
  64 H     1.0000    0     1.008   -5.438632    6.982160    2.548296
  65 H     1.0000    0     1.008   -4.340701    5.289532    6.774101
  66 C     6.0000    0    12.011   -1.269329    0.665373   10.533522
  67 C     6.0000    0    12.011   -1.916749   -0.534037    8.262261
  68 C     6.0000    0    12.011   -1.206212   -2.997862    7.818553
  69 C     6.0000    0    12.011    0.180091   -4.321237    9.638548
  70 C     6.0000    0    12.011    0.790850   -3.137512   11.928707
  71 C     6.0000    0    12.011    0.073699   -0.675577   12.374116
  72 H     1.0000    0     1.008   -2.977264    0.490951    6.854604
  73 H     1.0000    0     1.008   -1.706990   -3.913812    6.067911
  74 H     1.0000    0     1.008    1.840404   -4.167791   13.342978
  75 H     1.0000    0     1.008    0.557847    0.235082   14.134585
  76 C     6.0000    0    12.011    0.998909   -6.822100    9.249076
  77 C     6.0000    0    12.011    1.761225   -8.963727    8.982435
  78 C     6.0000    0    12.011    2.747473  -11.427741    9.135125
  79 C     6.0000    0    12.011    3.900206  -12.116168   11.386545
  80 C     6.0000    0    12.011    4.882485  -14.536718   11.750884
  81 C     6.0000    0    12.011    4.713544  -16.324021    9.878165
  82 C     6.0000    0    12.011    3.566858  -15.709671    7.563440
  83 C     6.0000    0    12.011    3.316658  -17.489604    5.589810
  84 C     6.0000    0    12.011    2.194728  -16.799854    3.378452
  85 N     7.0000    0    14.007    1.322430  -14.416721    2.962146
  86 C     6.0000    0    12.011    1.503088  -12.708219    4.768724
  87 C     6.0000    0    12.011    2.585334  -13.234319    7.139763
  88 H     1.0000    0     1.008    4.026062  -10.745361   12.891334
  89 H     1.0000    0     1.008    5.764799  -14.996111   13.531006
  90 H     1.0000    0     1.008    5.446569  -18.205433   10.156900
  91 H     1.0000    0     1.008    4.009810  -19.386700    5.858340
  92 H     1.0000    0     1.008    1.959268  -18.155922    1.844940
  93 H     1.0000    0     1.008    0.765150  -10.839280    4.358842
  94 C     6.0000    0    12.011   -9.921440    2.738591   -6.915075
  95 C     6.0000    0    12.011   -9.903866    4.935776   -7.549456
  96 C     6.0000    0    12.011   -9.549164    7.553424   -7.932503
  97 C     6.0000    0    12.011   -9.510992    8.680079  -10.285401
  98 C     6.0000    0    12.011   -8.880201   11.239902  -10.547506
  99 C     6.0000    0    12.011   -8.170987   12.667401   -8.503957
 100 C     6.0000    0    12.011   -8.178168   11.583454   -6.066588
 101 C     6.0000    0    12.011   -7.173589   12.811020   -3.920237
 102 N     7.0000    0    14.007   -7.155826   11.772994   -1.655589
 103 C     6.0000    0    12.011   -8.361849    9.524976   -1.298431
 104 C     6.0000    0    12.011   -9.251343    8.116563   -3.270738
 105 C     6.0000    0    12.011   -9.011159    9.045552   -5.760074
 106 H     1.0000    0     1.008   -9.949219    7.575156  -11.943069
 107 H     1.0000    0     1.008   -8.894941   12.069492  -12.410587
 108 H     1.0000    0     1.008   -7.586306   14.605693   -8.735826
 109 H     1.0000    0     1.008   -6.322646   14.665409   -4.105619
 110 H     1.0000    0     1.008   -8.701433    8.977144    0.649688
 111 H     1.0000    0     1.008  -10.107956    6.293544   -2.960256
 112 C     6.0000    0    12.011   -9.853032    0.246042   -5.962842
 113 C     6.0000    0    12.011  -11.992202   -0.800488   -4.816156
 114 C     6.0000    0    12.011  -11.836489   -3.114269   -3.633754
 115 C     6.0000    0    12.011   -9.539338   -4.430652   -3.563835
 116 C     6.0000    0    12.011   -7.425112   -3.421349   -4.786298
 117 C     6.0000    0    12.011   -7.581959   -1.108513   -5.974936
 118 H     1.0000    0     1.008  -13.756450    0.224688   -4.841100
 119 H     1.0000    0     1.008  -13.481495   -3.911922   -2.728576
 120 H     1.0000    0     1.008   -5.668611   -4.453518   -4.774393
 121 H     1.0000    0     1.008   -5.950937   -0.313128   -6.904303
 122 C     6.0000    0    12.011   -9.440127   -6.720055   -2.209468
 123 C     6.0000    0    12.011   -9.443906   -8.633403   -0.953934
 124 C     6.0000    0    12.011   -9.881756  -10.810367    0.508714
 125 C     6.0000    0    12.011  -12.324983  -11.217225    1.364382
 126 C     6.0000    0    12.011  -12.954829  -13.358096    2.772039
 127 C     6.0000    0    12.011  -11.162612  -15.149745    3.326485
 128 C     6.0000    0    12.011   -8.660615  -14.817154    2.500675
 129 C     6.0000    0    12.011   -6.753314  -16.622220    2.976130
 130 C     6.0000    0    12.011   -4.357708  -16.215173    2.121218
 131 N     7.0000    0    14.007   -3.695926  -14.079783    0.857558
 132 C     6.0000    0    12.011   -5.429183  -12.350683    0.370386
 133 C     6.0000    0    12.011   -7.968597  -12.615623    1.105679
 134 H     1.0000    0     1.008  -13.770434   -9.850197    0.917273
 135 H     1.0000    0     1.008  -14.877625  -13.602249    3.406042
 136 H     1.0000    0     1.008  -11.646193  -16.822531    4.386054
 137 H     1.0000    0     1.008   -7.215541  -18.322407    3.999605
 138 H     1.0000    0     1.008   -2.874840  -17.602232    2.438692
 139 H     1.0000    0     1.008   -4.817290  -10.673362   -0.642696
 140 C     6.0000    0    12.011    2.939847    3.350484   -9.591683
 141 C     6.0000    0    12.011    3.045861    5.621746   -9.351877
 142 C     6.0000    0    12.011    2.970272    8.225978   -8.790628
 143 C     6.0000    0    12.011    4.639845    9.954321   -9.812214
 144 C     6.0000    0    12.011    4.556508   12.503184   -9.099976
 145 C     6.0000    0    12.011    2.848951   13.353750   -7.345177
 146 C     6.0000    0    12.011    1.099821   11.651106   -6.269355
 147 C     6.0000    0    12.011   -0.647420   12.369958   -4.395881
 148 N     7.0000    0    14.007   -2.276553   10.771439   -3.406798
 149 C     6.0000    0    12.011   -2.365937    8.341251   -4.225050
 150 C     6.0000    0    12.011   -0.724710    7.447600   -5.997802
 151 C     6.0000    0    12.011    1.116450    9.071441   -7.032238
 152 H     1.0000    0     1.008    6.035974    9.329767  -11.161856
 153 H     1.0000    0     1.008    5.885930   13.802182   -9.938826
 154 H     1.0000    0     1.008    2.826463   15.309994   -6.775991
 155 H     1.0000    0     1.008   -0.703734   14.294644   -3.689123
 156 H     1.0000    0     1.008   -3.834443    7.152613   -3.405664
 157 H     1.0000    0     1.008   -0.803512    5.506851   -6.610640
 158 C     6.0000    0    12.011    2.614058    0.709025   -9.736814
 159 C     6.0000    0    12.011    2.695127   -0.720175   -7.510905
 160 C     6.0000    0    12.011    2.122162   -3.258455   -7.561361
 161 C     6.0000    0    12.011    1.435436   -4.415534   -9.837536
 162 C     6.0000    0    12.011    1.454522   -3.005798  -12.078185
 163 C     6.0000    0    12.011    2.043739   -0.469975  -12.031319
 164 H     1.0000    0     1.008    3.192125    0.195020   -5.758185
 165 H     1.0000    0     1.008    2.164681   -4.356386   -5.845112
 166 H     1.0000    0     1.008    0.969996   -3.911355  -13.840921
 167 H     1.0000    0     1.008    2.022385    0.624177  -13.753238
 168 C     6.0000    0    12.011    0.620019   -6.946822   -9.917661
 169 C     6.0000    0    12.011   -0.233570   -9.066906  -10.016304
 170 C     6.0000    0    12.011   -1.281612  -11.474228  -10.427131
 171 C     6.0000    0    12.011   -1.898230  -12.167191  -12.876027
 172 C     6.0000    0    12.011   -2.975185  -14.517821  -13.406662
 173 C     6.0000    0    12.011   -3.452152  -16.219708  -11.506731
 174 C     6.0000    0    12.011   -2.847628  -15.603658   -8.994718
 175 C     6.0000    0    12.011   -3.266581  -17.288349   -6.965908
 176 C     6.0000    0    12.011   -2.596106  -16.608047   -4.573515
 177 N     7.0000    0    14.007   -1.546174  -14.324124   -4.043825
 178 C     6.0000    0    12.011   -1.152355  -12.688188   -5.883662
 179 C     6.0000    0    12.011   -1.751587  -13.210131   -8.417029
 180 H     1.0000    0     1.008   -1.538048  -10.859689  -14.399146
 181 H     1.0000    0     1.008   -3.431932  -14.987796  -15.337962
 182 H     1.0000    0     1.008   -4.282875  -18.035735  -11.913778
 183 H     1.0000    0     1.008   -4.099383  -19.111556   -7.333838
 184 H     1.0000    0     1.008   -2.888446  -17.878132   -2.979342
 185 H     1.0000    0     1.008   -0.318797  -10.885767   -5.366066
* core charge reduced due to ECP

--------------------------------
INTERNAL COORDINATES (ANGSTROEM)
--------------------------------
 Pd     0   0   0     0.000000000000     0.00000000     0.00000000
 Pd     1   0   0    13.490532303064     0.00000000     0.00000000
 C      1   2   0     7.653107223213    50.16377202     0.00000000
 C      3   1   2     1.210072572204    50.64095251   189.60849175
 C      4   3   1     1.408304459270   173.09199804   349.37630528
 C      5   4   3     1.382454737053   122.94611853   196.77058837
 C      6   5   4     1.400899443215   120.82802350   178.47848242
 C      7   6   5     1.371648694090   121.25369896   359.36571041
 C      8   7   6     1.411979479313   119.71013722     0.46808917
 C      9   8   7     1.407182994496   122.78017833   181.25495848
 N     10   9   8     1.317777837877   122.40382925   179.96039451
 C     11  10   9     1.354784949724   120.40570114     0.29558493
 C     12  11  10     1.363439125887   121.66417232   359.14630471
 C     13  12  11     1.408082220611   119.89252436     0.28741826
 H      6   5   4     1.079457317359   119.55911306   358.50137181
 H      7   6   5     1.079169555723   118.82116303   179.74321638
 H      8   7   6     1.078166169939   120.73053267   180.56478671
 H     10   9   8     1.087744988497   120.86413270     0.00000000
 H     12  11  10     1.084484550374   116.43791718   179.26748870
 H     13  12  11     1.077786755346   120.76639953   180.73026642
 C      3   1   2     1.408556587433   124.98220280    11.80050191
 C     21   3   1     1.400975295999   119.00739191   323.36037297
 C     22  21   3     1.376578871696   120.34856834   174.53647743
 C     23  22  21     1.399425503555   119.98916769   359.72733217
 C     24  23  22     1.401121272410   119.62255767     2.24698519
 C     25  24  23     1.377519691329   120.33934089   358.00216468
 H     22  21   3     1.078824944094   119.24165551   354.72858840
 H     23  22  21     1.078329954142   120.33557145   180.30139613
 H     25  24  23     1.079620067431   119.51021084   178.80800992
 H     26  25  24     1.079619358848   120.32088817   180.92843671
 C     24  23  22     1.407346830032   121.29747490   183.62064279
 C     31  24  23     1.210438085984   177.45935287   117.11725788
 C     32  31  24     1.405995800136   173.98493959    68.63353896
 C     33  32  31     1.385460280918   118.68796122     0.31939337
 C     34  33  32     1.397067110056   121.27383447   179.99337715
 C     35  34  33     1.372967679882   120.80299489   359.87937797
 C     36  35  34     1.405726210896   119.91798973     0.06917974
 C     37  36  35     1.412716974486   122.51048179   180.44853976
 C     38  37  36     1.363115681078   119.85644869   179.33441938
 N     39  38  37     1.358115444283   122.26851305     0.59204814
 C     40  39  38     1.319451435256   119.66359532   359.86081343
 C     41  40  39     1.404720488211   122.66222479   359.48835712
 H     34  33  32     1.079217656453   119.17748587     0.14770450
 H     35  34  33     1.079318715672   119.12537534   180.01408643
 H     36  35  34     1.078604677349   120.86412292   180.19856422
 H     38  37  36     1.078160349855   119.47320829   359.71403263
 H     39  38  37     1.088027233115   121.18556398   180.26331560
 H     41  40  39     1.086429114117   116.98363056   179.72345691
 C     19  12  11     5.674389596247    90.95675878   255.60106105
 C     49  19  12     1.210911103261    78.50320620    58.38461833
 C     50  49  19     1.408482775898   170.15155030   356.02799846
 C     51  50  49     1.382735144560   123.70068264   211.92337083
 C     52  51  50     1.400693153407   120.65208425   174.49397237
 C     53  52  51     1.372824158441   121.41139758   357.95206072
 C     54  53  52     1.410965081070   119.72364396     2.24228683
 C     55  54  53     1.412907813695   123.11632643   184.35549227
 N     56  55  54     1.314514606233   122.55576865   180.08204903
 C     57  56  55     1.361579703873   119.82474905     2.66906058
 C     58  57  56     1.362761989490   121.99616816   355.12675821
 C     59  58  57     1.408688759095   119.73310574     0.93573966
 H     52  51  50     1.079414545020   119.71558590   355.15087866
 H     53  52  51     1.079309691423   118.76139795   179.46771349
 H     54  53  52     1.078285027254   120.69203172   182.38581540
 H     56  55  54     1.085101626577   120.45743522     0.67179270
 H     58  57  56     1.092468072760   117.30143264   175.07795788
 H     59  58  57     1.077685937553   121.13495283   181.65621586
 C     49  19  12     1.408660509136    98.31729034   239.85368863
 C     67  49  19     1.401706980792   119.12543744   328.58505893
 C     68  67  49     1.377098936170   120.54184981   176.40705384
 C     69  68  67     1.398624560059   119.99061134   359.78940902
 C     70  69  68     1.401976037598   119.50166530     1.30392371
 C     71  70  69     1.377266343160   120.46768012   358.86745815
 H     68  67  49     1.078897219387   119.43951577   356.53414997
 H     69  68  67     1.078599114593   120.31951179   180.04008482
 H     71  70  69     1.079729021561   119.48128967   179.21863354
 H     72  71  70     1.079696536069   120.29651825   180.41729391
 C     70  69  68     1.407698000283   122.09696603   181.46919760
 C     77  70  69     1.211201742073   177.74263188   163.74978856
 C     78  77  70     1.406791903588   169.77418649    27.32981655
 C     79  78  77     1.387172826291   117.12162567   352.09296905
 C     80  79  78     1.395732313160   121.56217695   178.39595828
 C     81  80  79     1.372811349021   120.55060007   359.47168922
 C     82  81  80     1.405089413525   119.86916448     0.66736284
 C     83  82  81     1.412613439693   122.05464516   180.84553179
 C     84  83  82     1.362010546949   119.82725667   180.13718658
 N     85  84  83     1.360874667264   122.36265603     1.06507701
 C     86  85  84     1.319269559264   119.54939980   358.36735158
 C     87  86  85     1.407040845178   122.68943904     0.39137072
 H     80  79  78     1.079228618042   118.96838762   358.78293107
 H     81  80  79     1.079100189973   119.23994850   179.99571317
 H     82  81  80     1.078629695493   120.91618555   180.82468086
 H     84  83  82     1.078216054416   119.43900299     0.47178035
 H     85  84  83     1.090416053624   120.85407663   180.93864876
 H     87  86  85     1.085198995576   116.97763960   180.61804085
 C     65  58  57     5.978972573946   163.68596569   333.95823209
 C     95  65  58     1.210228189227    82.44069659    24.40383453
 C     96  95  65     1.412479245865   169.42052418    19.52233761
 C     97  96  95     1.380629019686   123.70077603   141.60784041
 C     98  97  96     1.401999033523   120.65949284   186.92702267
 C     99  98  97     1.371460976477   121.28693102     3.06934539
 C    100  99  98     1.411600311703   119.73000726   357.16740137
 C    101 100  99     1.412310291685   123.15510376   171.63037151
 N    102 101 100     1.318325229221   122.82623387   180.94633271
 C    103 102 101     1.363146507166   119.09879106   353.64782712
 C    104 103 102     1.366140647957   122.10557134    10.35838960
 C    105 104 103     1.411773444997   119.46323090   357.50426698
 H     98  97  96     1.079412590255   119.72447185     6.19308322
 H     99  98  97     1.079250040537   118.79416604   180.89165285
 H    100  99  98     1.078352511937   120.84394991   176.47843417
 H    102 101 100     1.084132551859   119.99326817   359.14980147
 H    104 103 102     1.085858604976   116.23795379   194.70466455
 H    105 104 103     1.078481093946   121.09279673   176.54147224
 C     95  65  58     1.412439963326    92.39324315   204.57043540
 C    113  95  65     1.398686769795   120.25047181    95.67948791
 C    114 113  95     1.377477988935   120.03917337   187.46609512
 C    115 114 113     1.401536271382   120.37564175     0.18958599
 C    116 115 114     1.398376151112   119.46424561   357.62214979
 C    117 116 115     1.378572163508   120.13199318     2.21824748
 H    114 113  95     1.079856217281   119.70252325     6.64761937
 H    115 114 113     1.079527517018   120.05730529   179.24354516
 H    117 116 115     1.078120763180   119.57587071   181.52689751
 H    118 117 116     1.078872402094   120.40976586   179.37328477
 C    116 115 114     1.408597667895   118.24472114   176.44055672
 C    123 116 115     1.211027501752   176.52510691   325.06023556
 C    124 123 116     1.407076717880   170.59620238    46.28412299
 C    125 124 123     1.386712782086   117.40366220   351.82680569
 C    126 125 124     1.396218933406   121.51699543   178.30888409
 C    127 126 125     1.372748968311   120.63112577   359.20916406
 C    128 127 126     1.405318825036   119.86377966     0.82380286
 C    129 128 127     1.412230891179   122.22334167   181.23449732
 C    130 129 128     1.363131031853   119.91026608   179.63271412
 N    131 130 129     1.358933305943   122.30124070     1.60327354
 C    132 131 130     1.320962406732   119.54357527   358.21870760
 C    133 132 131     1.406006148635   122.72061059   359.95536168
 H    126 125 124     1.079054739112   119.02711058   358.74159754
 H    127 126 125     1.079147413470   119.21509650   179.86590839
 H    128 127 126     1.078632625132   120.93047202   181.05030077
 H    130 129 128     1.078248491768   119.45479944     0.24137934
 H    131 130 129     1.087535787917   120.87100697   181.20431441
 H    133 132 131     1.086316441006   117.08528682   179.96576312
 C    122 118 117     5.283565949243   168.01800188   304.02924905
 C    141 122 118     1.209881990113   112.18310240   267.76505998
 C    142 141 122     1.410307984094   172.51935667    35.82926991
 C    143 142 141     1.381779204504   123.11068660   163.45789792
 C    144 143 142     1.401163752029   120.78388941   183.00755907
 C    145 144 143     1.371634400998   121.24688761     1.01444426
 C    146 145 144     1.411608603686   119.70584454   358.58391367
 C    147 146 145     1.407999744318   122.82758372   177.74206586
 N    148 147 146     1.316324724375   122.44111880   179.83063116
 C    149 148 147     1.357763709192   120.30933970   358.34487722
 C    150 149 148     1.363069429633   121.72774914     2.83337371
 C    151 150 149     1.409717610020   119.74420223   359.73179151
 H    144 143 142     1.079415272265   119.59249052     2.43287071
 H    145 144 143     1.079109920258   118.81810421   180.14296652
 H    146 145 144     1.078193901856   120.76107010   178.56706568
 H    148 147 146     1.085406048445   120.94168842   359.56976415
 H    150 149 148     1.089740505809   116.40066245   183.57666963
 H    151 150 149     1.077793291870   120.86503533   179.19130338
 C    141 122 118     1.410483902779    62.75386966    86.35200257
 C    159 141 122     1.400456536277   119.05449078   283.00777523
 C    160 159 141     1.377254286615   120.24083177   173.19621623
 C    161 160 159     1.399210884749   120.04291683   359.46892770
 C    162 161 160     1.400893464900   119.58425607     3.09172869
 C    163 162 161     1.377871507072   120.33219043   357.32647863
 H    160 159 141     1.078875219847   119.21707360   353.82143072
 H    161 160 159     1.078375857482   120.30022149   180.65397247
 H    163 162 161     1.079578362140   119.55309156   178.46503150
 H    164 163 162     1.079654634594   120.31297809   181.21007003
 C    162 161 160     1.407924095965   121.45705068   185.78791858
 C    169 162 161     1.210544232980   175.85989966   108.06088315
 C    170 169 162     1.406294823286   173.38523092    65.88722365
 C    171 170 169     1.385747953273   118.49869560     6.76581877
 C    172 171 170     1.396754044204   121.31491513   180.84142825
 C    173 172 171     1.373177075253   120.78919725   359.88931078
 C    174 173 172     1.405578350715   119.90016098   359.82427113
 C    175 174 173     1.412989773494   122.44775491   180.76961937
 C    176 175 174     1.363172417561   119.87999500   178.68810809
 N    177 176 175     1.359401857436   122.18575549     0.71782060
 C    178 177 176     1.319380161288   119.71961276     0.07122829
 C    179 178 177     1.405007903892   122.64688039   359.29698223
 H    172 171 170     1.079208029066   119.15540669     0.79447387
 H    173 172 171     1.079237962638   119.14193465   179.90423467
 H    174 173 172     1.078501886878   120.86967017   180.02732984
 H    176 175 174     1.078407909837   119.43295620   359.29529336
 H    177 176 175     1.089638224366   121.27646732   180.39621080
 H    179 178 177     1.085967246283   117.02161726   179.68305928

---------------------------
INTERNAL COORDINATES (A.U.)
---------------------------
 Pd     0   0   0     0.000000000000     0.00000000     0.00000000
 Pd     1   0   0    25.493411453608     0.00000000     0.00000000
 C      1   2   0    14.462276725408    50.16377202     0.00000000
 C      3   1   2     2.286705763635    50.64095251   189.60849175
 C      4   3   1     2.661309741201   173.09199804   349.37630528
 C      5   4   3     2.612460845572   122.94611853   196.77058837
 C      6   5   4     2.647316288839   120.82802350   178.47848242
 C      7   6   5     2.592040383782   121.25369896   359.36571041
 C      8   7   6     2.668254522618   119.71013722     0.46808917
 C      9   8   7     2.659190479910   122.78017833   181.25495848
 N     10   9   8     2.490239218939   122.40382925   179.96039451
 C     11  10   9     2.560172525338   120.40570114     0.29558493
 C     12  11  10     2.576526548200   121.66417232   359.14630471
 C     13  12  11     2.660889770998   119.89252436     0.28741826
 H      6   5   4     2.039878703066   119.55911306   358.50137181
 H      7   6   5     2.039334912382   118.82116303   179.74321638
 H      8   7   6     2.037438788043   120.73053267   180.56478671
 H     10   9   8     2.055540131804   120.86413270     0.00000000
 H     12  11  10     2.049378796676   116.43791718   179.26748870
 H     13  12  11     2.036721798372   120.76639953   180.73026642
 C      3   1   2     2.661786194378   124.98220280    11.80050191
 C     21   3   1     2.647459629828   119.00739191   323.36037297
 C     22  21   3     2.601357069248   120.34856834   174.53647743
 C     23  22  21     2.644530946544   119.98916769   359.72733217
 C     24  23  22     2.647735485266   119.62255767     2.24698519
 C     25  24  23     2.603134960696   120.33934089   358.00216468
 H     22  21   3     2.038683690781   119.24165551   354.72858840
 H     23  22  21     2.037748295332   120.33557145   180.30139613
 H     25  24  23     2.040186256130   119.51021084   178.80800992
 H     26  25  24     2.040184917103   120.32088817   180.92843671
 C     24  23  22     2.659500084202   121.29747490   183.62064279
 C     31  24  23     2.287396484577   177.45935287   117.11725788
 C     32  31  24     2.656947007700   173.98493959    68.63353896
 C     33  32  31     2.618140500360   118.68796122     0.31939337
 C     34  33  32     2.640074228715   121.27383447   179.99337715
 C     35  34  33     2.594532905702   120.80299489   359.87937797
 C     36  35  34     2.656437557868   119.91798973     0.06917974
 C     37  36  35     2.669648186520   122.51048179   180.44853976
 C     38  37  36     2.575915326090   119.85644869   179.33441938
 N     39  38  37     2.566466247944   122.26851305     0.59204814
 C     40  39  38     2.493401859644   119.66359532   359.86081343
 C     41  40  39     2.654537017427   122.66222479   359.48835712
 H     34  33  32     2.039425809589   119.17748587     0.14770450
 H     35  34  33     2.039616783836   119.12537534   180.01408643
 H     36  35  34     2.038267446957   120.86412292   180.19856422
 H     38  37  36     2.037427789679   119.47320829   359.71403263
 H     39  38  37     2.056073496836   121.18556398   180.26331560
 H     41  40  39     2.053053489599   116.98363056   179.72345691
 C     19  12  11    10.723042314079    90.95675878   255.60106105
 C     49  19  12     2.288290357687    78.50320620    58.38461833
 C     50  49  19     2.661646710792   170.15155030   356.02799846
 C     51  50  49     2.612990738965   123.70068264   211.92337083
 C     52  51  50     2.646926457597   120.65208425   174.49397237
 C     53  52  51     2.594261689485   121.41139758   357.95206072
 C     54  53  52     2.666337587749   119.72364396     2.24228683
 C     55  54  53     2.670008820361   123.11632643   184.35549227
 N     56  55  54     2.484072604820   122.55576865   180.08204903
 C     57  56  55     2.573012749826   119.82474905     2.66906058
 C     58  57  56     2.575246945855   121.99616816   355.12675821
 C     59  58  57     2.662035962623   119.73310574     0.93573966
 H     52  51  50     2.039797875058   119.71558590   355.15087866
 H     53  52  51     2.039599730477   118.76139795   179.46771349
 H     54  53  52     2.037663395818   120.69203172   182.38581540
 H     56  55  54     2.050544901703   120.45743522     0.67179270
 H     58  57  56     2.064465467569   117.30143264   175.07795788
 H     59  58  57     2.036531280354   121.13495283   181.65621586
 C     49  19  12     2.661982577938    98.31729034   239.85368863
 C     67  49  19     2.648842313702   119.12543744   328.58505893
 C     68  67  49     2.602339848675   120.54184981   176.40705384
 C     69  68  67     2.643017382687   119.99061134   359.78940902
 C     70  69  68     2.649350757381   119.50166530     1.30392371
 C     71  70  69     2.602656202039   120.46768012   358.86745815
 H     68  67  49     2.038820271290   119.43951577   356.53414997
 H     69  68  67     2.038256934870   120.31951179   180.04008482
 H     71  70  69     2.040392149596   119.48128967   179.21863354
 H     72  71  70     2.040330760914   120.29651825   180.41729391
 C     70  69  68     2.660163699803   122.09696603   181.46919760
 C     77  70  69     2.288839585446   177.74263188   163.74978856
 C     78  77  70     2.658451425199   169.77418649    27.32981655
 C     79  78  77     2.621376742107   117.12162567   352.09296905
 C     80  79  78     2.637551828138   121.56217695   178.39595828
 C     81  80  79     2.594237483188   120.55060007   359.47168922
 C     82  81  80     2.655234185234   119.86916448     0.66736284
 C     83  82  81     2.669452534115   122.05464516   180.84553179
 C     84  83  82     2.573826925246   119.82725667   180.13718658
 N     85  84  83     2.571680423720   122.36265603     1.06507701
 C     86  85  84     2.493058163828   119.54939980   358.36735158
 C     87  86  85     2.658921856628   122.68943904     0.39137072
 H     80  79  78     2.039446523989   118.96838762   358.78293107
 H     81  80  79     2.039203830112   119.23994850   179.99571317
 H     82  81  80     2.038314724397   120.91618555   180.82468086
 H     84  83  82     2.037533056043   119.43900299     0.47178035
 H     85  84  83     2.060587713380   120.85407663   180.93864876
 H     87  86  85     2.050728902446   116.97763960   180.61804085
 C     65  58  57    11.298620726984   163.68596569   333.95823209
 C     95  65  58     2.286999837191    82.44069659    24.40383453
 C     96  95  65     2.669198944533   169.42052418    19.52233761
 C     97  96  95     2.609010739751   123.70077603   141.60784041
 C     98  97  96     2.649394213381   120.65949284   186.92702267
 C     99  98  97     2.591685648902   121.28693102     3.06934539
 C    100  99  98     2.667537999677   119.73000726   357.16740137
 C    101 100  99     2.668879667404   123.15510376   171.63037151
 N    102 101 100     2.491273638666   122.82623387   180.94633271
 C    103 102 101     2.575973578956   119.09879106   353.64782712
 C    104 103 102     2.581631685056   122.10557134    10.35838960
 C    105 104 103     2.667865174188   119.46323090   357.50426698
 H     98  97  96     2.039794181088   119.72447185     6.19308322
 H     99  98  97     2.039487006639   118.79416604   180.89165285
 H    100  99  98     2.037790923386   120.84394991   176.47843417
 H    102 101 100     2.048713615882   119.99326817   359.14980147
 H    104 103 102     2.051975383566   116.23795379   194.70466455
 H    105 104 103     2.038033908171   121.09279673   176.54147224
 C     95  65  58     2.669124711292    92.39324315   204.57043540
 C    113  95  65     2.643134942052   120.25047181    95.67948791
 C    114 113  95     2.603056154591   120.03917337   187.46609512
 C    115 114 113     2.648519719670   120.37564175     0.18958599
 C    116 115 114     2.642547957809   119.46424561   357.62214979
 C    117 116 115     2.605123844878   120.13199318     2.21824748
 H    114 113  95     2.040632514673   119.70252325     6.64761937
 H    115 114 113     2.040011361197   120.05730529   179.24354516
 H    117 116 115     2.037352981705   119.57587071   181.52689751
 H    118 117 116     2.038773373403   120.40976586   179.37328477
 C    116 115 114     2.661863825202   118.24472114   176.44055672
 C    123 116 115     2.288510318958   176.52510691   325.06023556
 C    124 123 116     2.658989646210   170.59620238    46.28412299
 C    125 124 123     2.620507384550   117.40366220   351.82680569
 C    126 125 124     2.638471407132   121.51699543   178.30888409
 C    127 126 125     2.594119600731   120.63112577   359.20916406
 C    128 127 126     2.655667710162   119.86377966     0.82380286
 C    129 128 127     2.668729622192   122.22334167   181.23449732
 C    130 129 128     2.575944334851   119.91026608   179.63271412
 N    131 130 129     2.568011782496   122.30124070     1.60327354
 C    132 131 130     2.496257181930   119.54357527   358.21870760
 C    133 132 131     2.656966563530   122.72061059   359.95536168
 H    126 125 124     2.039117940431   119.02711058   358.74159754
 H    127 126 125     2.039293069589   119.21509650   179.86590839
 H    128 127 126     2.038320260613   120.93047202   181.05030077
 H    130 129 128     2.037594353755   119.45479944     0.24137934
 H    131 130 129     2.055144800001   120.87100697   181.20431441
 H    133 132 131     2.052840568277   117.08528682   179.96576312
 C    122 118 117     9.984492654581   168.01800188   304.02924905
 C    141 122 118     2.286345615677   112.18310240   267.76505998
 C    142 141 122     2.665095854421   172.51935667    35.82926991
 C    143 142 141     2.611184274060   123.11068660   163.45789792
 C    144 143 142     2.647815760112   120.78388941   183.00755907
 C    145 144 143     2.592013373751   121.24688761     1.01444426
 C    146 145 144     2.667553669253   119.70584454   358.58391367
 C    147 146 145     2.660733913392   122.82758372   177.74206586
 N    148 147 146     2.487493232377   122.44111880   179.83063116
 C    149 148 147     2.565801564951   120.30933970   358.34487722
 C    150 149 148     2.575827923527   121.72774914     2.83337371
 C    151 150 149     2.663980209103   119.74420223   359.73179151
 H    144 143 142     2.039799249354   119.59249052     2.43287071
 H    145 144 143     2.039222217686   118.81810421   180.14296652
 H    146 145 144     2.037491193772   120.76107010   178.56706568
 H    148 147 146     2.051120175662   120.94168842   359.56976415
 H    150 149 148     2.059311113019   116.40066245   183.57666963
 H    151 150 149     2.036734150612   120.86503533   179.19130338
 C    141 122 118     2.665428292558    62.75386966    86.35200257
 C    159 141 122     2.646479316023   119.05449078   283.00777523
 C    160 159 141     2.602633418472   120.24083177   173.19621623
 C    161 160 159     2.644125375777   120.04291683   359.46892770
 C    162 161 160     2.647304991461   119.58425607     3.09172869
 C    163 162 161     2.603799796099   120.33219043   357.32647863
 H    160 159 141     2.038778698185   119.21707360   353.82143072
 H    161 160 159     2.037835040073   120.30022149   180.65397247
 H    163 162 161     2.040107444551   119.55309156   178.46503150
 H    164 163 162     2.040251578601   120.31297809   181.21007003
 C    162 161 160     2.660590958723   121.45705068   185.78791858
 C    169 162 161     2.287597073329   175.85989966   108.06088315
 C    170 169 162     2.657512079561   173.38523092    65.88722365
 C    171 170 169     2.618684122328   118.49869560     6.76581877
 C    172 171 170     2.639482619992   121.31491513   180.84142825
 C    173 172 171     2.594928605607   120.78919725   359.88931078
 C    174 173 172     2.656158142621   119.90016098   359.82427113
 C    175 174 173     2.670163701936   122.44775491   180.76961937
 C    176 175 174     2.576022542506   119.87999500   178.68810809
 N    177 176 175     2.568897216498   122.18575549     0.71782060
 C    178 177 176     2.493267171363   119.71961276     0.07122829
 C    179 178 177     2.655080154351   122.64688039   359.29698223
 H    172 171 170     2.039407616463   119.15540669     0.79447387
 H    173 172 171     2.039464182718   119.14193465   179.90423467
 H    174 173 172     2.038073201117   120.86967017   180.02732984
 H    176 175 174     2.037895610247   119.43295620   359.29529336
 H    177 176 175     2.059117829104   121.27646732   180.39621080
 H    179 178 177     2.052180685884   117.02161726   179.68305928

---------------------
BASIS SET INFORMATION
---------------------
There are 4 groups of distinct atoms

 Group   1 Type Pd  : 7s7p6d contracted to 6s4p3d pattern {211111/4111/411}
 Group   2 Type C   : 11s6p1d contracted to 5s3p1d pattern {62111/411/1}
 Group   3 Type N   : 11s6p1d contracted to 5s3p1d pattern {62111/411/1}
 Group   4 Type H   : 5s contracted to 3s pattern {311}

Atom   0Pd   basis set group =>   1
Atom   1Pd   basis set group =>   1
Atom   2C    basis set group =>   2
Atom   3C    basis set group =>   2
Atom   4C    basis set group =>   2
Atom   5C    basis set group =>   2
Atom   6C    basis set group =>   2
Atom   7C    basis set group =>   2
Atom   8C    basis set group =>   2
Atom   9C    basis set group =>   2
Atom  10N    basis set group =>   3
Atom  11C    basis set group =>   2
Atom  12C    basis set group =>   2
Atom  13C    basis set group =>   2
Atom  14H    basis set group =>   4
Atom  15H    basis set group =>   4
Atom  16H    basis set group =>   4
Atom  17H    basis set group =>   4
Atom  18H    basis set group =>   4
Atom  19H    basis set group =>   4
Atom  20C    basis set group =>   2
Atom  21C    basis set group =>   2
Atom  22C    basis set group =>   2
Atom  23C    basis set group =>   2
Atom  24C    basis set group =>   2
Atom  25C    basis set group =>   2
Atom  26H    basis set group =>   4
Atom  27H    basis set group =>   4
Atom  28H    basis set group =>   4
Atom  29H    basis set group =>   4
Atom  30C    basis set group =>   2
Atom  31C    basis set group =>   2
Atom  32C    basis set group =>   2
Atom  33C    basis set group =>   2
Atom  34C    basis set group =>   2
Atom  35C    basis set group =>   2
Atom  36C    basis set group =>   2
Atom  37C    basis set group =>   2
Atom  38C    basis set group =>   2
Atom  39N    basis set group =>   3
Atom  40C    basis set group =>   2
Atom  41C    basis set group =>   2
Atom  42H    basis set group =>   4
Atom  43H    basis set group =>   4
Atom  44H    basis set group =>   4
Atom  45H    basis set group =>   4
Atom  46H    basis set group =>   4
Atom  47H    basis set group =>   4
Atom  48C    basis set group =>   2
Atom  49C    basis set group =>   2
Atom  50C    basis set group =>   2
Atom  51C    basis set group =>   2
Atom  52C    basis set group =>   2
Atom  53C    basis set group =>   2
Atom  54C    basis set group =>   2
Atom  55C    basis set group =>   2
Atom  56N    basis set group =>   3
Atom  57C    basis set group =>   2
Atom  58C    basis set group =>   2
Atom  59C    basis set group =>   2
Atom  60H    basis set group =>   4
Atom  61H    basis set group =>   4
Atom  62H    basis set group =>   4
Atom  63H    basis set group =>   4
Atom  64H    basis set group =>   4
Atom  65H    basis set group =>   4
Atom  66C    basis set group =>   2
Atom  67C    basis set group =>   2
Atom  68C    basis set group =>   2
Atom  69C    basis set group =>   2
Atom  70C    basis set group =>   2
Atom  71C    basis set group =>   2
Atom  72H    basis set group =>   4
Atom  73H    basis set group =>   4
Atom  74H    basis set group =>   4
Atom  75H    basis set group =>   4
Atom  76C    basis set group =>   2
Atom  77C    basis set group =>   2
Atom  78C    basis set group =>   2
Atom  79C    basis set group =>   2
Atom  80C    basis set group =>   2
Atom  81C    basis set group =>   2
Atom  82C    basis set group =>   2
Atom  83C    basis set group =>   2
Atom  84C    basis set group =>   2
Atom  85N    basis set group =>   3
Atom  86C    basis set group =>   2
Atom  87C    basis set group =>   2
Atom  88H    basis set group =>   4
Atom  89H    basis set group =>   4
Atom  90H    basis set group =>   4
Atom  91H    basis set group =>   4
Atom  92H    basis set group =>   4
Atom  93H    basis set group =>   4
Atom  94C    basis set group =>   2
Atom  95C    basis set group =>   2
Atom  96C    basis set group =>   2
Atom  97C    basis set group =>   2
Atom  98C    basis set group =>   2
Atom  99C    basis set group =>   2
Atom 100C    basis set group =>   2
Atom 101C    basis set group =>   2
Atom 102N    basis set group =>   3
Atom 103C    basis set group =>   2
Atom 104C    basis set group =>   2
Atom 105C    basis set group =>   2
Atom 106H    basis set group =>   4
Atom 107H    basis set group =>   4
Atom 108H    basis set group =>   4
Atom 109H    basis set group =>   4
Atom 110H    basis set group =>   4
Atom 111H    basis set group =>   4
Atom 112C    basis set group =>   2
Atom 113C    basis set group =>   2
Atom 114C    basis set group =>   2
Atom 115C    basis set group =>   2
Atom 116C    basis set group =>   2
Atom 117C    basis set group =>   2
Atom 118H    basis set group =>   4
Atom 119H    basis set group =>   4
Atom 120H    basis set group =>   4
Atom 121H    basis set group =>   4
Atom 122C    basis set group =>   2
Atom 123C    basis set group =>   2
Atom 124C    basis set group =>   2
Atom 125C    basis set group =>   2
Atom 126C    basis set group =>   2
Atom 127C    basis set group =>   2
Atom 128C    basis set group =>   2
Atom 129C    basis set group =>   2
Atom 130C    basis set group =>   2
Atom 131N    basis set group =>   3
Atom 132C    basis set group =>   2
Atom 133C    basis set group =>   2
Atom 134H    basis set group =>   4
Atom 135H    basis set group =>   4
Atom 136H    basis set group =>   4
Atom 137H    basis set group =>   4
Atom 138H    basis set group =>   4
Atom 139H    basis set group =>   4
Atom 140C    basis set group =>   2
Atom 141C    basis set group =>   2
Atom 142C    basis set group =>   2
Atom 143C    basis set group =>   2
Atom 144C    basis set group =>   2
Atom 145C    basis set group =>   2
Atom 146C    basis set group =>   2
Atom 147C    basis set group =>   2
Atom 148N    basis set group =>   3
Atom 149C    basis set group =>   2
Atom 150C    basis set group =>   2
Atom 151C    basis set group =>   2
Atom 152H    basis set group =>   4
Atom 153H    basis set group =>   4
Atom 154H    basis set group =>   4
Atom 155H    basis set group =>   4
Atom 156H    basis set group =>   4
Atom 157H    basis set group =>   4
Atom 158C    basis set group =>   2
Atom 159C    basis set group =>   2
Atom 160C    basis set group =>   2
Atom 161C    basis set group =>   2
Atom 162C    basis set group =>   2
Atom 163C    basis set group =>   2
Atom 164H    basis set group =>   4
Atom 165H    basis set group =>   4
Atom 166H    basis set group =>   4
Atom 167H    basis set group =>   4
Atom 168C    basis set group =>   2
Atom 169C    basis set group =>   2
Atom 170C    basis set group =>   2
Atom 171C    basis set group =>   2
Atom 172C    basis set group =>   2
Atom 173C    basis set group =>   2
Atom 174C    basis set group =>   2
Atom 175C    basis set group =>   2
Atom 176C    basis set group =>   2
Atom 177N    basis set group =>   3
Atom 178C    basis set group =>   2
Atom 179C    basis set group =>   2
Atom 180H    basis set group =>   4
Atom 181H    basis set group =>   4
Atom 182H    basis set group =>   4
Atom 183H    basis set group =>   4
Atom 184H    basis set group =>   4
Atom 185H    basis set group =>   4

-------------------------
BASIS SET IN INPUT FORMAT
-------------------------

 # Basis set for element : H 
 NewGTO H 
 S 3 
   1      34.0613410000      0.0254393072
   2       5.1235746000      0.1900859489
   3       1.1646626000      0.8524411301
 S 1 
   1       0.3272304100      1.0000000000
 S 1 
   1       0.1030724100      1.0000000000
  end;

 # Basis set for element : C 
 NewGTO C 
 S 6 
   1   13575.3496820000      0.0006064549
   2    2035.2333680000      0.0046979088
   3     463.2256235900      0.0243324776
   4     131.2001959800      0.0973999683
   5      42.8530158910      0.3019558425
   6      15.5841857660      0.6623360915
 S 2 
   1       6.2067138508      0.6559530854
   2       2.5764896527      0.3758563329
 S 1 
   1       0.5769633942      1.0000000000
 S 1 
   1       0.2297283136      1.0000000000
 S 1 
   1       0.0951644400      1.0000000000
 P 4 
   1      34.6972322440      0.0113272200
   2       7.9582622826      0.0761696592
   3       2.3780826883      0.3019225220
   4       0.8143320818      0.7278502735
 P 1 
   1       0.2888754725      1.0000000000
 P 1 
   1       0.1005682367      1.0000000000
 D 1 
   1       0.8000000000      1.0000000000
  end;

 # Basis set for element : N 
 NewGTO N 
 S 6 
   1   19730.8006470000      0.0005862639
   2    2957.8958745000      0.0045428821
   3     673.2213359500      0.0235584136
   4     190.6824949400      0.0947091933
   5      62.2954418980      0.2971978492
   6      22.6541611820      0.6691624689
 S 2 
   1       8.9791477428      0.6459668363
   2       3.6863002370      0.3870057440
 S 1 
   1       0.8466007680      1.0000000000
 S 1 
   1       0.3364713377      1.0000000000
 S 1 
   1       0.1364765367      1.0000000000
 P 4 
   1      49.2003805100      0.0114488252
   2      11.3467905370      0.0784223379
   3       3.4273972411      0.3081809474
   4       1.1785525134      0.7202719637
 P 1 
   1       0.4164220497      1.0000000000
 P 1 
   1       0.1426082601      1.0000000000
 D 1 
   1       0.8000000000      1.0000000000
  end;

 # Basis set for element : Pd
 NewGTO Pd
 S 2 
   1      18.0000000000     -0.8955869481
   2      14.6621343080      1.8822771923
 S 1 
   1       5.6388709265      1.0000000000
 S 1 
   1       1.3198953252      1.0000000000
 S 1 
   1       0.5781790851      1.0000000000
 S 1 
   1       0.1035216624      1.0000000000
 S 1 
   1       0.0375484427      1.0000000000
 P 4 
   1      12.5528993000      0.0701895210
   2       7.2444496380     -0.2749252830
   3       1.8905941078      0.5623121361
   4       0.9073716876      0.5736959368
 P 1 
   1       0.4087721081      1.0000000000
 P 1 
   1       0.1150000000      1.0000000000
 P 1 
   1       0.0370000000      1.0000000000
 D 4 
   1      22.3574575750      0.0063445039
   2      10.6825263820     -0.0225156052
   3       2.4858232550      0.3884291800
   4       1.0735333903      0.6828976806
 D 1 
   1       0.4261384285      1.0000000000
 D 1 
   1       0.1504635538      1.0000000000
  end;

---------------------------------
AUXILIARY/J BASIS SET INFORMATION
---------------------------------
There are 4 groups of distinct atoms

 Group   1 Type Pd  : 11s5p5d3f3g contracted to 8s5p5d2f3g pattern {41111111/11111/11111/21/111}
 Group   2 Type C   : 8s3p3d contracted to 6s3p3d pattern {311111/111/111}
 Group   3 Type N   : 8s3p3d contracted to 6s3p3d pattern {311111/111/111}
 Group   4 Type H   : 5s2p contracted to 3s1p pattern {311/2}

Atom   0Pd   basis set group =>   1
Atom   1Pd   basis set group =>   1
Atom   2C    basis set group =>   2
Atom   3C    basis set group =>   2
Atom   4C    basis set group =>   2
Atom   5C    basis set group =>   2
Atom   6C    basis set group =>   2
Atom   7C    basis set group =>   2
Atom   8C    basis set group =>   2
Atom   9C    basis set group =>   2
Atom  10N    basis set group =>   3
Atom  11C    basis set group =>   2
Atom  12C    basis set group =>   2
Atom  13C    basis set group =>   2
Atom  14H    basis set group =>   4
Atom  15H    basis set group =>   4
Atom  16H    basis set group =>   4
Atom  17H    basis set group =>   4
Atom  18H    basis set group =>   4
Atom  19H    basis set group =>   4
Atom  20C    basis set group =>   2
Atom  21C    basis set group =>   2
Atom  22C    basis set group =>   2
Atom  23C    basis set group =>   2
Atom  24C    basis set group =>   2
Atom  25C    basis set group =>   2
Atom  26H    basis set group =>   4
Atom  27H    basis set group =>   4
Atom  28H    basis set group =>   4
Atom  29H    basis set group =>   4
Atom  30C    basis set group =>   2
Atom  31C    basis set group =>   2
Atom  32C    basis set group =>   2
Atom  33C    basis set group =>   2
Atom  34C    basis set group =>   2
Atom  35C    basis set group =>   2
Atom  36C    basis set group =>   2
Atom  37C    basis set group =>   2
Atom  38C    basis set group =>   2
Atom  39N    basis set group =>   3
Atom  40C    basis set group =>   2
Atom  41C    basis set group =>   2
Atom  42H    basis set group =>   4
Atom  43H    basis set group =>   4
Atom  44H    basis set group =>   4
Atom  45H    basis set group =>   4
Atom  46H    basis set group =>   4
Atom  47H    basis set group =>   4
Atom  48C    basis set group =>   2
Atom  49C    basis set group =>   2
Atom  50C    basis set group =>   2
Atom  51C    basis set group =>   2
Atom  52C    basis set group =>   2
Atom  53C    basis set group =>   2
Atom  54C    basis set group =>   2
Atom  55C    basis set group =>   2
Atom  56N    basis set group =>   3
Atom  57C    basis set group =>   2
Atom  58C    basis set group =>   2
Atom  59C    basis set group =>   2
Atom  60H    basis set group =>   4
Atom  61H    basis set group =>   4
Atom  62H    basis set group =>   4
Atom  63H    basis set group =>   4
Atom  64H    basis set group =>   4
Atom  65H    basis set group =>   4
Atom  66C    basis set group =>   2
Atom  67C    basis set group =>   2
Atom  68C    basis set group =>   2
Atom  69C    basis set group =>   2
Atom  70C    basis set group =>   2
Atom  71C    basis set group =>   2
Atom  72H    basis set group =>   4
Atom  73H    basis set group =>   4
Atom  74H    basis set group =>   4
Atom  75H    basis set group =>   4
Atom  76C    basis set group =>   2
Atom  77C    basis set group =>   2
Atom  78C    basis set group =>   2
Atom  79C    basis set group =>   2
Atom  80C    basis set group =>   2
Atom  81C    basis set group =>   2
Atom  82C    basis set group =>   2
Atom  83C    basis set group =>   2
Atom  84C    basis set group =>   2
Atom  85N    basis set group =>   3
Atom  86C    basis set group =>   2
Atom  87C    basis set group =>   2
Atom  88H    basis set group =>   4
Atom  89H    basis set group =>   4
Atom  90H    basis set group =>   4
Atom  91H    basis set group =>   4
Atom  92H    basis set group =>   4
Atom  93H    basis set group =>   4
Atom  94C    basis set group =>   2
Atom  95C    basis set group =>   2
Atom  96C    basis set group =>   2
Atom  97C    basis set group =>   2
Atom  98C    basis set group =>   2
Atom  99C    basis set group =>   2
Atom 100C    basis set group =>   2
Atom 101C    basis set group =>   2
Atom 102N    basis set group =>   3
Atom 103C    basis set group =>   2
Atom 104C    basis set group =>   2
Atom 105C    basis set group =>   2
Atom 106H    basis set group =>   4
Atom 107H    basis set group =>   4
Atom 108H    basis set group =>   4
Atom 109H    basis set group =>   4
Atom 110H    basis set group =>   4
Atom 111H    basis set group =>   4
Atom 112C    basis set group =>   2
Atom 113C    basis set group =>   2
Atom 114C    basis set group =>   2
Atom 115C    basis set group =>   2
Atom 116C    basis set group =>   2
Atom 117C    basis set group =>   2
Atom 118H    basis set group =>   4
Atom 119H    basis set group =>   4
Atom 120H    basis set group =>   4
Atom 121H    basis set group =>   4
Atom 122C    basis set group =>   2
Atom 123C    basis set group =>   2
Atom 124C    basis set group =>   2
Atom 125C    basis set group =>   2
Atom 126C    basis set group =>   2
Atom 127C    basis set group =>   2
Atom 128C    basis set group =>   2
Atom 129C    basis set group =>   2
Atom 130C    basis set group =>   2
Atom 131N    basis set group =>   3
Atom 132C    basis set group =>   2
Atom 133C    basis set group =>   2
Atom 134H    basis set group =>   4
Atom 135H    basis set group =>   4
Atom 136H    basis set group =>   4
Atom 137H    basis set group =>   4
Atom 138H    basis set group =>   4
Atom 139H    basis set group =>   4
Atom 140C    basis set group =>   2
Atom 141C    basis set group =>   2
Atom 142C    basis set group =>   2
Atom 143C    basis set group =>   2
Atom 144C    basis set group =>   2
Atom 145C    basis set group =>   2
Atom 146C    basis set group =>   2
Atom 147C    basis set group =>   2
Atom 148N    basis set group =>   3
Atom 149C    basis set group =>   2
Atom 150C    basis set group =>   2
Atom 151C    basis set group =>   2
Atom 152H    basis set group =>   4
Atom 153H    basis set group =>   4
Atom 154H    basis set group =>   4
Atom 155H    basis set group =>   4
Atom 156H    basis set group =>   4
Atom 157H    basis set group =>   4
Atom 158C    basis set group =>   2
Atom 159C    basis set group =>   2
Atom 160C    basis set group =>   2
Atom 161C    basis set group =>   2
Atom 162C    basis set group =>   2
Atom 163C    basis set group =>   2
Atom 164H    basis set group =>   4
Atom 165H    basis set group =>   4
Atom 166H    basis set group =>   4
Atom 167H    basis set group =>   4
Atom 168C    basis set group =>   2
Atom 169C    basis set group =>   2
Atom 170C    basis set group =>   2
Atom 171C    basis set group =>   2
Atom 172C    basis set group =>   2
Atom 173C    basis set group =>   2
Atom 174C    basis set group =>   2
Atom 175C    basis set group =>   2
Atom 176C    basis set group =>   2
Atom 177N    basis set group =>   3
Atom 178C    basis set group =>   2
Atom 179C    basis set group =>   2
Atom 180H    basis set group =>   4
Atom 181H    basis set group =>   4
Atom 182H    basis set group =>   4
Atom 183H    basis set group =>   4
Atom 184H    basis set group =>   4
Atom 185H    basis set group =>   4

-------------------------------------
AUXILIARY/J BASIS SET IN INPUT FORMAT
-------------------------------------

 # Auxiliary/J basis set for element : H 
 NewAuxJGTO H 
 S 3 
   1      15.6752927000      0.1007184237
   2       3.6063578000      0.3404257499
   3       1.2080016000      0.6491996172
 S 1 
   1       0.4726794000      1.0000000000
 S 1 
   1       0.2018100000      1.0000000000
 P 2 
   1       2.0281365000      0.5596620919
   2       0.5358730000      0.5596620919
  end;

 # Auxiliary/J basis set for element : C 
 NewAuxJGTO C 
 S 3 
   1     459.7023860000      0.1098751775
   2     132.9577920000      0.2844848472
   3      41.5658170000      0.6964707648
 S 1 
   1      13.9155610000      1.0000000000
 S 1 
   1       4.9305290000     -1.0000000000
 S 1 
   1       1.8229480000      1.0000000000
 S 1 
   1       0.6920510000      1.0000000000
 S 1 
   1       0.2650930000      1.0000000000
 P 1 
   1       0.3278473579      1.0000000000
 P 1 
   1       0.7868336591      1.0000000000
 P 1 
   1       1.9710183160      1.0000000000
 D 1 
   1       4.0133010000      1.0000000000
 D 1 
   1       1.2475050000      1.0000000000
 D 1 
   1       0.4081480000      1.0000000000
  end;

 # Auxiliary/J basis set for element : N 
 NewAuxJGTO N 
 S 3 
   1     680.5425300000      0.1043830093
   2     196.7562140000      0.2751518961
   3      61.2707930000      0.7090825511
 S 1 
   1      20.3644630000      1.0000000000
 S 1 
   1       7.1424770000     -1.0000000000
 S 1 
   1       2.6080260000      1.0000000000
 S 1 
   1       0.9763730000      1.0000000000
 S 1 
   1       0.3686330000      1.0000000000
 P 1 
   1       0.4707391941      1.0000000000
 P 1 
   1       1.1297740658     -1.0000000000
 P 1 
   1       2.8300840347      1.0000000000
 D 1 
   1       5.8329865000      1.0000000000
 D 1 
   1       1.7326865000      1.0000000000
 D 1 
   1       0.5452425000      1.0000000000
  end;

 # Auxiliary/J basis set for element : Pd
 NewAuxJGTO Pd
 S 4 
   1      51.0211803000      0.0154414011
   2      17.6543867000     -0.3899991562
   3      10.3849330000      1.7000917225
   4       6.2315704000     -2.2542519748
 S 1 
   1       3.6656295000     -1.0000000000
 S 1 
   1       2.1995933000      1.0000000000
 S 1 
   1       1.2683839000      1.0000000000
 S 1 
   1       0.7461081000      1.0000000000
 S 1 
   1       0.4477087000      1.0000000000
 S 1 
   1       0.2581689000      1.0000000000
 S 1 
   1       0.1518640000      1.0000000000
 P 1 
   1       5.6999676000      1.0000000000
 P 1 
   1       2.5155374000     -1.0000000000
 P 1 
   1       1.1229524000      1.0000000000
 P 1 
   1       0.5047808000     -1.0000000000
 P 1 
   1       0.2274325000     -1.0000000000
 D 1 
   1       3.8006002000      1.0000000000
 D 1 
   1       1.5882692000     -1.0000000000
 D 1 
   1       0.6550157000     -1.0000000000
 D 1 
   1       0.2680210000      1.0000000000
 D 1 
   1       0.1093843000     -1.0000000000
 F 2 
   1       2.0106185000     -1.3134732431
   2       0.8268460000      0.9210621264
 F 1 
   1       0.3451253000      1.0000000000
 G 1 
   1       7.5375072000      1.0000000000
 G 1 
   1       2.7664349000      1.0000000000
 G 1 
   1       1.0133462000      1.0000000000
  end;

-------------------------
ECP PARAMETER INFORMATION
-------------------------

 Group 1, Type Pd ECP Def2-ECP (replacing 28 core electrons, lmax=3)

Atom   0Pd   ECP group =>   1
Atom   1Pd   ECP group =>   1


-------------------------
ECP BASIS IN INPUT FORMAT
-------------------------

 #ECP Def2-ECP
 NewECP Pd
   N_core 28
   lmax f
   s 4
     1      12.4300000000    240.2290403000  2
     2       6.1707594000     35.1719435000  2
     3      13.2700000000     31.9295543000  2
     4       6.6300000000      5.3982169000  2
   p 4
     1      11.0800000000    170.4172760000  2
     2       5.8295541000     28.4721329000  2
     3      13.2700000000     31.9295543000  2
     4       6.6300000000      5.3982169000  2
   d 4
     1       9.5100000000     69.0138449000  2
     2       4.1397811000     11.7508616000  2
     3      13.2700000000     31.9295543000  2
     4       6.6300000000      5.3982169000  2
   f 2
     1      13.2700000000    -31.9295543000  2
     2       6.6300000000     -5.3982169000  2
 End




           ************************************************************
           *        Program running with 32 parallel MPI-processes    *
           *              working on a common directory               *
           ************************************************************
------------------------------------------------------------------------------
                           ORCA GTO INTEGRAL CALCULATION
                           -- RI-GTO INTEGRALS CHOSEN --
------------------------------------------------------------------------------

                         BASIS SET STATISTICS AND STARTUP INFO

Gaussian basis set:
 # of primitive gaussian shells          ... 2520
 # of primitive gaussian functions       ... 4516
 # of contracted shells                  ... 1298
 # of contracted basis functions         ... 2538
 Highest angular momentum                ...    2
 Maximum contraction depth               ...    6
Auxiliary gaussian basis set:
 # of primitive gaussian shells          ... 2182
 # of primitive gaussian functions       ... 4742
 # of contracted shells                  ... 1742
 # of contracted aux-basis functions     ... 4162
 Highest angular momentum                ...    4
 Maximum contraction depth               ...    4
Ratio of auxiliary to basis functions    ...  1.64
Integral package used                  ... LIBINT
 One Electron integrals                  
   ECP integrals                         ... done
 Ordering auxiliary basis shells         ... done
 Integral threshhold             Thresh  ...  2.500e-11
 Primitive cut-off               TCut    ...  2.500e-12
 Pre-screening matrix                    ... done
 Shell pair data                         ... 
 Ordering of the shell pairs             ... done (   0.060 sec) 257803 of 843051 pairs
 Determination of significant pairs      ... done (   0.001 sec)
 Creation of shell pair data             ... done (   0.028 sec)
 Storage of shell pair data              ... done (   0.063 sec)
 Shell pair data done in (   0.153 sec)
 Computing two index integrals           ... done
 Cholesky decomposition of the V-matrix  ... done


Timings:
 Total evaluation time                   ...  11.134 sec (  0.186 min)
 One electron matrix time                ...   6.567 sec (  0.109 min) = 59.0%
 Schwartz matrix evaluation time         ...   3.245 sec (  0.054 min) = 29.1%
 Two index repulsion integral time       ...   0.318 sec (  0.005 min) =  2.9%
 Cholesky decomposition of V             ...   0.830 sec (  0.014 min) =  7.5%
 Three index repulsion integral time     ...   0.000 sec (  0.000 min) =  0.0%



           ************************************************************
           *        Program running with 32 parallel MPI-processes    *
           *              working on a common directory               *
           ************************************************************
-------------------------------------------------------------------------------
                                 ORCA SCF
-------------------------------------------------------------------------------

------------
SCF SETTINGS
------------
Hamiltonian:
[...]
 84 C      6.1932     6.0000    -0.1932     3.9744     3.9744    -0.0000
 85 N      7.0927     7.0000    -0.0927     3.2708     3.2708    -0.0000
 86 C      6.1161     6.0000    -0.1161     3.7271     3.7271    -0.0000
 87 C      5.6288     6.0000     0.3712     3.0359     3.0359    -0.0000
 88 H      0.7608     1.0000     0.2392     0.9043     0.9043    -0.0000
 89 H      0.7763     1.0000     0.2237     0.9258     0.9258    -0.0000
 90 H      0.7584     1.0000     0.2416     0.8993     0.8993    -0.0000
 91 H      0.7490     1.0000     0.2510     0.8905     0.8905    -0.0000
 92 H      0.8334     1.0000     0.1666     0.9731     0.9731    -0.0000
 93 H      0.8115     1.0000     0.1885     0.9602     0.9602    -0.0000
 94 C      5.9658     6.0000     0.0342     3.4317     3.4317    -0.0000
 95 C      5.9123     6.0000     0.0877     3.0713     3.0713    -0.0000
 96 C      6.1938     6.0000    -0.1938     3.8881     3.8881    -0.0000
 97 C      6.0826     6.0000    -0.0826     3.8273     3.8273    -0.0000
 98 C      6.1803     6.0000    -0.1803     4.1281     4.1281    -0.0000
 99 C      6.2354     6.0000    -0.2354     3.9765     3.9765    -0.0000
100 C      5.8904     6.0000     0.1096     3.4492     3.4492    -0.0000
101 C      6.1455     6.0000    -0.1455     3.8036     3.8036    -0.0000
102 N      7.0645     7.0000    -0.0645     3.3774     3.3774    -0.0000
103 C      6.2404     6.0000    -0.2404     3.9476     3.9476    -0.0000
104 C      6.0660     6.0000    -0.0660     3.5858     3.5858    -0.0000
105 C      5.8283     6.0000     0.1717     3.4607     3.4607    -0.0000
106 H      0.7486     1.0000     0.2514     0.8977     0.8977    -0.0000
107 H      0.7773     1.0000     0.2227     0.9263     0.9263    -0.0000
108 H      0.7694     1.0000     0.2306     0.9079     0.9079    -0.0000
109 H      0.7905     1.0000     0.2095     0.9269     0.9269    -0.0000
110 H      0.7856     1.0000     0.2144     0.9537     0.9537    -0.0000
111 H      0.7727     1.0000     0.2273     0.9207     0.9207    -0.0000
112 C      6.2140     6.0000    -0.2140     3.9213     3.9213    -0.0000
113 C      6.1328     6.0000    -0.1328     3.8344     3.8344    -0.0000
114 C      6.1449     6.0000    -0.1449     3.8188     3.8188    -0.0000
115 C      6.1553     6.0000    -0.1553     3.8003     3.8003    -0.0000
116 C      6.1434     6.0000    -0.1434     3.8092     3.8092    -0.0000
117 C      6.1411     6.0000    -0.1411     3.8126     3.8126    -0.0000
118 H      0.7666     1.0000     0.2334     0.9094     0.9094    -0.0000
119 H      0.7788     1.0000     0.2212     0.9143     0.9143    -0.0000
120 H      0.8169     1.0000     0.1831     0.9206     0.9206    -0.0000
121 H      0.7958     1.0000     0.2042     0.9141     0.9141    -0.0000
122 C      5.9878     6.0000     0.0122     3.4231     3.4231    -0.0000
123 C      5.9954     6.0000     0.0046     3.0658     3.0658    -0.0000
124 C      6.1149     6.0000    -0.1149     3.6156     3.6156    -0.0000
125 C      6.1075     6.0000    -0.1075     3.8358     3.8358    -0.0000
126 C      6.1977     6.0000    -0.1977     4.1891     4.1891    -0.0000
127 C      6.2037     6.0000    -0.2037     3.8984     3.8984    -0.0000
128 C      6.0614     6.0000    -0.0614     3.7391     3.7391    -0.0000
129 C      6.1122     6.0000    -0.1122     3.7575     3.7575    -0.0000
130 C      6.1657     6.0000    -0.1657     3.9861     3.9861    -0.0000
131 N      7.0791     7.0000    -0.0791     3.2803     3.2803    -0.0000
132 C      6.0983     6.0000    -0.0983     3.7151     3.7151    -0.0000
133 C      5.6468     6.0000     0.3532     3.0828     3.0828    -0.0000
134 H      0.7622     1.0000     0.2378     0.9050     0.9050    -0.0000
135 H      0.7771     1.0000     0.2229     0.9260     0.9260    -0.0000
136 H      0.7581     1.0000     0.2419     0.8990     0.8990    -0.0000
137 H      0.7510     1.0000     0.2490     0.8918     0.8918    -0.0000
138 H      0.8408     1.0000     0.1592     0.9757     0.9757    -0.0000
139 H      0.8190     1.0000     0.1810     0.9635     0.9635    -0.0000
140 C      5.9151     6.0000     0.0849     3.2839     3.2839    -0.0000
141 C      5.9326     6.0000     0.0674     3.1168     3.1168    -0.0000
142 C      6.3021     6.0000    -0.3021     3.8906     3.8906    -0.0000
143 C      6.0582     6.0000    -0.0582     3.7954     3.7954    -0.0000
144 C      6.1895     6.0000    -0.1895     4.1468     4.1468    -0.0000
145 C      6.2359     6.0000    -0.2359     3.9430     3.9430    -0.0000
146 C      5.9016     6.0000     0.0984     3.5199     3.5199    -0.0000
147 C      6.1672     6.0000    -0.1672     3.7718     3.7718    -0.0000
148 N      7.1260     7.0000    -0.1260     3.3055     3.3055    -0.0000
149 C      6.1932     6.0000    -0.1932     4.0110     4.0110    -0.0000
150 C      6.0493     6.0000    -0.0493     3.6684     3.6684    -0.0000
151 C      5.7360     6.0000     0.2640     3.3248     3.3248    -0.0000
152 H      0.7439     1.0000     0.2561     0.8950     0.8950    -0.0000
153 H      0.7750     1.0000     0.2250     0.9261     0.9261    -0.0000
154 H      0.7687     1.0000     0.2313     0.9049     0.9049    -0.0000
155 H      0.7825     1.0000     0.2175     0.9253     0.9253    -0.0000
156 H      0.8139     1.0000     0.1861     0.9422     0.9422    -0.0000
157 H      0.7860     1.0000     0.2140     0.9246     0.9246    -0.0000
158 C      6.1951     6.0000    -0.1951     3.9212     3.9212    -0.0000
159 C      6.1484     6.0000    -0.1484     3.8208     3.8208    -0.0000
160 C      6.1457     6.0000    -0.1457     3.8007     3.8007    -0.0000
161 C      6.1434     6.0000    -0.1434     3.8042     3.8042    -0.0000
162 C      6.1389     6.0000    -0.1389     3.8184     3.8184    -0.0000
163 C      6.1193     6.0000    -0.1193     3.8372     3.8372    -0.0000
164 H      0.8030     1.0000     0.1970     0.9198     0.9198    -0.0000
165 H      0.8231     1.0000     0.1769     0.9222     0.9222    -0.0000
166 H      0.7742     1.0000     0.2258     0.9127     0.9127    -0.0000
167 H      0.7650     1.0000     0.2350     0.9072     0.9072    -0.0000
168 C      5.9656     6.0000     0.0344     3.3458     3.3458    -0.0000
169 C      6.0033     6.0000    -0.0033     3.0750     3.0750    -0.0000
170 C      6.1349     6.0000    -0.1349     3.6147     3.6147    -0.0000
171 C      6.1068     6.0000    -0.1068     3.8371     3.8371    -0.0000
172 C      6.1874     6.0000    -0.1874     4.1744     4.1744    -0.0000
173 C      6.2148     6.0000    -0.2148     3.9168     3.9168    -0.0000
174 C      6.0417     6.0000    -0.0417     3.7365     3.7365    -0.0000
175 C      6.0993     6.0000    -0.0993     3.7235     3.7235    -0.0000
176 C      6.1795     6.0000    -0.1795     3.9716     3.9716    -0.0000
177 N      7.1014     7.0000    -0.1014     3.3012     3.3012    -0.0000
178 C      6.0838     6.0000    -0.0838     3.7115     3.7115    -0.0000
179 C      5.6786     6.0000     0.3214     3.1500     3.1500    -0.0000
180 H      0.7575     1.0000     0.2425     0.9025     0.9025    -0.0000
181 H      0.7760     1.0000     0.2240     0.9256     0.9256    -0.0000
182 H      0.7578     1.0000     0.2422     0.8993     0.8993    -0.0000
183 H      0.7490     1.0000     0.2510     0.8920     0.8920    -0.0000
184 H      0.8277     1.0000     0.1723     0.9658     0.9658    -0.0000
185 H      0.8240     1.0000     0.1760     0.9721     0.9721    -0.0000

  Mayer bond orders larger than 0.100000
B(  0-Pd, 10-N ) :   0.5146 B(  0-Pd, 56-N ) :   0.5499 B(  0-Pd,102-N ) :   0.5594 
B(  0-Pd,148-N ) :   0.5290 B(  1-Pd, 39-N ) :   0.5074 B(  1-Pd, 85-N ) :   0.5049 
B(  1-Pd,131-N ) :   0.5161 B(  1-Pd,177-N ) :   0.5217 B(  2-C ,  3-C ) :   1.8713 
B(  2-C ,  4-C ) :  -0.2963 B(  2-C , 20-C ) :   1.5200 B(  3-C ,  4-C ) :   1.4816 
B(  3-C ,  5-C ) :  -0.1048 B(  3-C , 13-C ) :  -0.1802 B(  3-C , 20-C ) :  -0.3717 
B(  4-C ,  5-C ) :   1.5142 B(  4-C , 12-C ) :  -0.1132 B(  4-C , 13-C ) :   1.1109 
B(  5-C ,  6-C ) :   1.3958 B(  5-C , 14-H ) :   0.8540 B(  6-C ,  7-C ) :   1.6410 
B(  6-C , 15-H ) :   0.8722 B(  7-C ,  8-C ) :   1.3096 B(  7-C , 16-H ) :   0.8693 
B(  8-C ,  9-C ) :   1.2460 B(  8-C , 13-C ) :   1.0933 B(  9-C , 10-N ) :   1.5032 
B(  9-C , 13-C ) :  -0.1288 B(  9-C , 17-H ) :   0.9072 B( 10-N , 11-C ) :   1.2857 
B( 11-C , 12-C ) :   1.5366 B( 11-C , 13-C ) :   0.1130 B( 11-C , 18-H ) :   0.8842 
B( 12-C , 13-C ) :   1.3536 B( 12-C , 19-H ) :   0.8769 B( 20-C , 21-C ) :   1.2865 
B( 20-C , 25-C ) :   1.3191 B( 21-C , 22-C ) :   1.5220 B( 21-C , 26-H ) :   0.9084 
B( 22-C , 23-C ) :   1.2736 B( 22-C , 27-H ) :   0.9280 B( 23-C , 24-C ) :   1.2908 
B( 23-C , 30-C ) :   1.5612 B( 23-C , 31-C ) :  -0.4072 B( 24-C , 25-C ) :   1.5344 
B( 24-C , 28-H ) :   0.9054 B( 25-C , 29-H ) :   0.8906 B( 30-C , 31-C ) :   1.8871 
B( 30-C , 32-C ) :  -0.2767 B( 30-C , 41-C ) :   0.1103 B( 31-C , 32-C ) :   1.4472 
B( 31-C , 36-C ) :   0.1031 B( 31-C , 41-C ) :  -0.2309 B( 32-C , 33-C ) :   1.5232 
B( 32-C , 40-C ) :  -0.1365 B( 32-C , 41-C ) :   0.9977 B( 33-C , 34-C ) :   1.4255 
B( 33-C , 42-H ) :   0.8630 B( 34-C , 35-C ) :   1.6172 B( 34-C , 43-H ) :   0.8748 
B( 35-C , 36-C ) :   1.3734 B( 35-C , 41-C ) :  -0.1321 B( 35-C , 44-H ) :   0.8628 
B( 36-C , 37-C ) :   1.2649 B( 36-C , 40-C ) :  -0.1156 B( 36-C , 41-C ) :   1.0333 
B( 37-C , 38-C ) :   1.5987 B( 37-C , 45-H ) :   0.8729 B( 38-C , 39-N ) :   1.2234 
B( 38-C , 46-H ) :   0.9105 B( 39-N , 40-C ) :   1.4677 B( 39-N ,131-N ) :   0.1002 
B( 40-C , 41-C ) :   1.3974 B( 40-C , 47-H ) :   0.8971 B( 48-C , 49-C ) :   1.9165 
B( 48-C , 50-C ) :  -0.2533 B( 48-C , 66-C ) :   1.5198 B( 49-C , 50-C ) :   1.4567 
B( 49-C , 59-C ) :  -0.1842 B( 49-C , 66-C ) :  -0.4008 B( 50-C , 51-C ) :   1.5058 
B( 50-C , 59-C ) :   1.0937 B( 51-C , 52-C ) :   1.4013 B( 51-C , 60-H ) :   0.8571 
B( 52-C , 53-C ) :   1.6479 B( 52-C , 61-H ) :   0.8757 B( 53-C , 54-C ) :   1.3173 
B( 53-C , 62-H ) :   0.8632 B( 54-C , 55-C ) :   1.2085 B( 54-C , 59-C ) :   1.0837 
B( 55-C , 56-N ) :   1.5491 B( 55-C , 59-C ) :  -0.1062 B( 55-C , 63-H ) :   0.9239 
B( 56-N , 57-C ) :   1.2480 B( 57-C , 58-C ) :   1.5090 B( 57-C , 59-C ) :   0.1007 
B( 57-C , 64-H ) :   0.9113 B( 58-C , 59-C ) :   1.3549 B( 58-C , 65-H ) :   0.8749 
B( 66-C , 67-C ) :   1.2247 B( 66-C , 71-C ) :   1.3103 B( 67-C , 68-C ) :   1.5358 
B( 67-C , 72-H ) :   0.9362 B( 68-C , 69-C ) :   1.2928 B( 68-C , 73-H ) :   0.9183 
B( 68-C , 77-C ) :   0.1001 B( 69-C , 70-C ) :   1.2854 B( 69-C , 76-C ) :   1.5566 
B( 69-C , 77-C ) :  -0.4037 B( 70-C , 71-C ) :   1.5334 B( 70-C , 74-H ) :   0.9094 
B( 71-C , 75-H ) :   0.8960 B( 76-C , 77-C ) :   1.9283 B( 76-C , 78-C ) :  -0.2483 
B( 76-C , 87-C ) :   0.1186 B( 77-C , 78-C ) :   1.4312 B( 77-C , 82-C ) :   0.1061 
B( 77-C , 87-C ) :  -0.2367 B( 78-C , 79-C ) :   1.5157 B( 78-C , 86-C ) :  -0.1432 
B( 78-C , 87-C ) :   0.9720 B( 79-C , 80-C ) :   1.4373 B( 79-C , 88-H ) :   0.8686 
B( 80-C , 81-C ) :   1.6089 B( 80-C , 89-H ) :   0.8746 B( 81-C , 82-C ) :   1.3717 
B( 81-C , 87-C ) :  -0.1327 B( 81-C , 90-H ) :   0.8628 B( 82-C , 83-C ) :   1.2451 
B( 82-C , 84-C ) :   0.1085 B( 82-C , 86-C ) :  -0.1089 B( 82-C , 87-C ) :   1.0144 
B( 83-C , 84-C ) :   1.5763 B( 83-C , 91-H ) :   0.8735 B( 84-C , 85-N ) :   1.2019 
B( 84-C , 92-H ) :   0.9155 B( 85-N , 86-C ) :   1.4874 B( 86-C , 87-C ) :   1.3896 
B( 86-C , 93-H ) :   0.8975 B( 94-C , 95-C ) :   1.9717 B( 94-C , 96-C ) :  -0.2333 
B( 94-C ,112-C ) :   1.5134 B( 95-C , 96-C ) :   1.4413 B( 95-C ,105-C ) :  -0.1671 
B( 95-C ,112-C ) :  -0.3842 B( 96-C , 97-C ) :   1.5168 B( 96-C ,105-C ) :   1.1331 
B( 97-C , 98-C ) :   1.3914 B( 97-C ,106-H ) :   0.8573 B( 98-C , 99-C ) :   1.6492 
B( 98-C ,107-H ) :   0.8802 B( 99-C ,100-C ) :   1.3092 B( 99-C ,108-H ) :   0.8700 
B(100-C ,101-C ) :   1.1917 B(100-C ,105-C ) :   1.0495 B(101-C ,102-N ) :   1.5127 
B(101-C ,109-H ) :   0.9290 B(102-N ,103-C ) :   1.2372 B(102-N ,105-C ) :   0.1033 
B(103-C ,104-C ) :   1.4544 B(103-C ,110-H ) :   0.9110 B(104-C ,105-C ) :   1.3330 
B(104-C ,111-H ) :   0.8890 B(112-C ,113-C ) :   1.3261 B(112-C ,117-C ) :   1.3173 
B(113-C ,114-C ) :   1.5365 B(113-C ,118-H ) :   0.8917 B(114-C ,115-C ) :   1.2828 
B(114-C ,119-H ) :   0.9091 B(115-C ,116-C ) :   1.2841 B(115-C ,122-C ) :   1.5504 
B(115-C ,123-C ) :  -0.3933 B(116-C ,117-C ) :   1.5216 B(116-C ,120-H ) :   0.9241 
B(116-C ,123-C ) :   0.1017 B(117-C ,121-H ) :   0.9041 B(122-C ,123-C ) :   1.9375 
B(122-C ,124-C ) :  -0.2466 B(122-C ,133-C ) :   0.1154 B(123-C ,124-C ) :   1.4079 
B(123-C ,128-C ) :   0.1048 B(123-C ,133-C ) :  -0.2298 B(124-C ,125-C ) :   1.5171 
B(124-C ,132-C ) :  -0.1331 B(124-C ,133-C ) :   0.9894 B(125-C ,126-C ) :   1.4322 
B(125-C ,134-H ) :   0.8692 B(126-C ,127-C ) :   1.6132 B(126-C ,135-H ) :   0.8753 
B(127-C ,128-C ) :   1.3614 B(127-C ,133-C ) :  -0.1311 B(127-C ,136-H ) :   0.8634 
B(128-C ,129-C ) :   1.2645 B(128-C ,132-C ) :  -0.1172 B(128-C ,133-C ) :   1.0148 
B(129-C ,130-C ) :   1.5880 B(129-C ,137-H ) :   0.8781 B(130-C ,131-N ) :   1.2153 
B(130-C ,138-H ) :   0.9167 B(131-N ,132-C ) :   1.4739 B(132-C ,133-C ) :   1.4051 
B(132-C ,139-H ) :   0.8923 B(140-C ,141-C ) :   1.9382 B(140-C ,142-C ) :  -0.2914 
B(140-C ,158-C ) :   1.4758 B(141-C ,142-C ) :   1.4913 B(141-C ,143-C ) :  -0.1046 
B(141-C ,151-C ) :  -0.1987 B(141-C ,158-C ) :  -0.3405 B(142-C ,143-C ) :   1.5250 
B(142-C ,151-C ) :   1.1275 B(143-C ,144-C ) :   1.3933 B(143-C ,152-H ) :   0.8502 
B(144-C ,145-C ) :   1.6488 B(144-C ,153-H ) :   0.8733 B(145-C ,146-C ) :   1.3082 
B(145-C ,151-C ) :  -0.1048 B(145-C ,154-H ) :   0.8716 B(146-C ,147-C ) :   1.2618 
B(146-C ,151-C ) :   1.0610 B(147-C ,148-N ) :   1.5101 B(147-C ,151-C ) :  -0.1246 
B(147-C ,155-H ) :   0.9134 B(148-N ,149-C ) :   1.2799 B(149-C ,150-C ) :   1.5054 
B(149-C ,156-H ) :   0.9121 B(150-C ,151-C ) :   1.3582 B(150-C ,157-H ) :   0.8658 
B(158-C ,159-C ) :   1.3162 B(158-C ,163-C ) :   1.3330 B(159-C ,160-C ) :   1.5212 
B(159-C ,164-H ) :   0.9086 B(160-C ,161-C ) :   1.2791 B(160-C ,165-H ) :   0.9267 
B(161-C ,162-C ) :   1.2845 B(161-C ,168-C ) :   1.5343 B(161-C ,169-C ) :  -0.3795 
B(162-C ,163-C ) :   1.5370 B(162-C ,166-H ) :   0.9051 B(163-C ,167-H ) :   0.8873 
B(168-C ,169-C ) :   1.9036 B(168-C ,170-C ) :  -0.2803 B(168-C ,179-C ) :   0.1131 
B(169-C ,170-C ) :   1.4395 B(169-C ,174-C ) :   0.1024 B(169-C ,179-C ) :  -0.2233 
B(170-C ,171-C ) :   1.5260 B(170-C ,178-C ) :  -0.1309 B(170-C ,179-C ) :   0.9975 
B(171-C ,172-C ) :   1.4265 B(171-C ,180-H ) :   0.8642 B(172-C ,173-C ) :   1.6160 
B(172-C ,181-H ) :   0.8747 B(173-C ,174-C ) :   1.3737 B(173-C ,179-C ) :  -0.1306 
B(173-C ,182-H ) :   0.8622 B(174-C ,175-C ) :   1.2654 B(174-C ,178-C ) :  -0.1177 
B(174-C ,179-C ) :   1.0322 B(175-C ,176-C ) :   1.5707 B(175-C ,183-H ) :   0.8734 
B(176-C ,177-N ) :   1.2181 B(176-C ,184-H ) :   0.9224 B(177-N ,178-C ) :   1.4829 
B(178-C ,179-C ) :   1.4127 B(178-C ,185-H ) :   0.8894 

-------
TIMINGS
-------

Total SCF time: 0 days 0 hours 15 min 59 sec 

Total time                  ....     959.465 sec
Sum of individual times     ....     939.450 sec  ( 97.9%)

Fock matrix formation       ....     340.809 sec  ( 35.5%)
  Split-RI-J                ....     165.428 sec  ( 48.5% of F)
  XC integration            ....     152.801 sec  ( 44.8% of F)
    Basis function eval.    ....      29.762 sec  ( 19.5% of XC)
    Density eval.           ....      66.283 sec  ( 43.4% of XC)
    XC-Functional eval.     ....       8.888 sec  (  5.8% of XC)
    XC-Potential eval.      ....      23.294 sec  ( 15.2% of XC)
Diagonalization             ....      91.880 sec  (  9.6%)
Density matrix formation    ....       4.285 sec  (  0.4%)
Population analysis         ....      13.278 sec  (  1.4%)
Initial guess               ....      13.073 sec  (  1.4%)
Orbital Transformation      ....       0.000 sec  (  0.0%)
Orbital Orthonormalization  ....       0.000 sec  (  0.0%)
DIIS solution               ....     435.515 sec  ( 45.4%)
Grid generation             ....      40.610 sec  (  4.2%)


-------------------------------------------------------------------------------
                          DFT DISPERSION CORRECTION                            
                                                                               
                              DFTD3 V3.1  Rev 1                                
                          USING Becke-Johnson damping                          
-------------------------------------------------------------------------------
The B97-3c composite method is recognized
Using three-body term ABC
Active option DFTDOPT                   ...         4   

molecular C6(AA) [au] = 549964.999880 


            DFT-D V3
 parameters
 s6 scaling factor         :     1.0000 
 a1 scaling factor         :     0.3700 
 s8 scaling factor         :     1.5000 
 a2 scaling factor         :     4.1000 
 Damping factor alpha9(ATM):    16.0000 
 ad hoc parameters k1-k3   :    16.0000     1.3333    -4.0000 

 Edisp/kcal,au: -447.819159864343  -0.713645180838 
 E6   /kcal   : -221.299545371 
 E8   /kcal   : -228.031808589 
 E6(ABC)      :   1.512194095 
 % E8         :  50.920511900 
 % E6(ABC)    :  -0.337679633 

-------------------------   ----------------
Dispersion correction           -0.713645181
-------------------------   ----------------

------------------   -----------------
SRB correction            -0.753778382
------------------   -----------------

-------------------------   --------------------
FINAL SINGLE POINT ENERGY     -4997.299615080508
-------------------------   --------------------


                            ***************************************
                            *     ORCA property calculations      *
                            ***************************************

                                    ---------------------
                                    Active property flags
                                    ---------------------
   (+) Dipole Moment


------------------------------------------------------------------------------
                       ORCA ELECTRIC PROPERTIES CALCULATION
------------------------------------------------------------------------------

Dipole Moment Calculation                       ... on
Quadrupole Moment Calculation                   ... off
Polarizability Calculation                      ... off
GBWName                                         ... _s_5b4_a_B97-3c.gbw
Electron density file                           ... _s_5b4_a_B97-3c.scfp
The origin for moment calculation is the CENTER OF MASS  = (-0.710089, -1.888099 -0.636828)

-------------
DIPOLE MOMENT
-------------
                                X             Y             Z
Electronic contribution:    -96.01416      31.12830      27.95511
Nuclear contribution   :     96.80654     -31.65521     -28.01968
                        -----------------------------------------
Total Dipole Moment    :      0.79238      -0.52691      -0.06457
                        -----------------------------------------
Magnitude (a.u.)       :      0.95376
Magnitude (Debye)      :      2.42427



--------------------
Rotational spectrum 
--------------------
 
Rotational constants in cm-1:     0.000464     0.000232     0.000217 
Rotational constants in MHz :    13.905407     6.966685     6.505564 

 Dipole components along the rotational axes: 
x,y,z [a.u.] :     0.614767    -0.221905     0.694607 
x,y,z [Debye]:     1.562613    -0.564037     1.765552 

 

Timings for individual modules:

Sum of individual times         ...      971.472 sec (=  16.191 min)
GTO integral calculation        ...       11.555 sec (=   0.193 min)   1.2 %
SCF iterations                  ...      959.917 sec (=  15.999 min)  98.8 %
                             ****ORCA TERMINATED NORMALLY****
TOTAL RUN TIME: 0 days 0 hours 16 minutes 14 seconds 544 msec
