Job execution start: Tue Jun 22 09:31:49 BST 2021
Shared library path: /work/e05/e05/atarzia/orca_4_2_1_linux_x86-64_openmpi314:/work/e05/e05/atarzia/openmpi-3.1.4/lib:/opt/cray/pe/papi/6.0.0.4/lib64:/opt/cray/libfabric/1.11.0.0.233/lib64
Slurm Job ID is: 344290
Slurm Job name is: s_5d1_d_PBE0
nid001695

                                 *****************
                                 * O   R   C   A *
                                 *****************

           --- An Ab Initio, DFT and Semiempirical electronic structure package ---

                  #######################################################
                  #                        -***-                        #
                  #          Department of theory and spectroscopy      #
                  #               Directorship: Frank Neese             #
                  #        Max Planck Institute fuer Kohlenforschung    #
                  #                Kaiser Wilhelm Platz 1               #
                  #                 D-45470 Muelheim/Ruhr               #
                  #                      Germany                        #
                  #                                                     #
                  #                  All rights reserved                #
                  #                        -***-                        #
                  #######################################################


                         Program Version 4.2.1 -  RELEASE  -


 With contributions from (in alphabetic order):
   Daniel Aravena         : Magnetic Suceptibility
   Michael Atanasov       : Ab Initio Ligand Field Theory (pilot matlab implementation)
   Alexander A. Auer      : GIAO ZORA, VPT2
   Ute Becker             : Parallelization
   Giovanni Bistoni       : ED, misc. LED, open-shell LED, HFLD
   Martin Brehm           : Molecular dynamics
   Dmytro Bykov           : SCF Hessian
   Vijay G. Chilkuri      : MRCI spin determinant printing, contributions to CSF-ICE
   Dipayan Datta          : RHF DLPNO-CCSD density
   Achintya Kumar Dutta   : EOM-CC, STEOM-CC
   Dmitry Ganyushin       : Spin-Orbit,Spin-Spin,Magnetic field MRCI
   Miquel Garcia          : C-PCM Hessian, Gaussian charge scheme
   Yang Guo               : DLPNO-NEVPT2, CIM, IAO-localization
   Andreas Hansen         : Spin unrestricted coupled pair/coupled cluster methods
   Benjamin Helmich-Paris : CASSCF linear response (MC-RPA)
   Lee Huntington         : MR-EOM, pCC
   Robert Izsak           : Overlap fitted RIJCOSX, COSX-SCS-MP3, EOM
   Christian Kollmar      : KDIIS, OOCD, Brueckner-CCSD(T), CCSD density
   Simone Kossmann        : Meta GGA functionals, TD-DFT gradient, OOMP2, MP2 Hessian
   Martin Krupicka        : AUTO-CI
   Lucas Lang             : DCDCAS
   Dagmar Lenk            : GEPOL surface, SMD
   Dimitrios Liakos       : Extrapolation schemes; Compound Job, initial MDCI parallelization
   Dimitrios Manganas     : Further ROCIS development; embedding schemes
   Dimitrios Pantazis     : SARC Basis sets
   Taras Petrenko         : DFT Hessian,TD-DFT gradient, ASA, ECA, R-Raman, ABS, FL, XAS/XES, NRVS
   Peter Pinski           : DLPNO-MP2, DLPNO-MP2 Gradient
   Christoph Reimann      : Effective Core Potentials
   Marius Retegan         : Local ZFS, SOC
   Christoph Riplinger    : Optimizer, TS searches, QM/MM, DLPNO-CCSD(T), (RO)-DLPNO pert. Triples
   Tobias Risthaus        : Range-separated hybrids, TD-DFT gradient, RPA, STAB
   Michael Roemelt        : Original ROCIS implementation
   Masaaki Saitow         : Open-shell DLPNO-CCSD energy and density
   Barbara Sandhoefer     : DKH picture change effects
   Avijit Sen             : IP-ROCIS
   Kantharuban Sivalingam : CASSCF convergence, NEVPT2, FIC-MRCI
   Bernardo de Souza      : ESD, SOC TD-DFT
   Georgi Stoychev        : AutoAux, RI-MP2 NMR
   Willem Van den Heuvel  : Paramagnetic NMR
   Boris Wezisla          : Elementary symmetry handling
   Frank Wennmohs         : Technical directorship


 We gratefully acknowledge several colleagues who have allowed us to
 interface, adapt or use parts of their codes:
   Stefan Grimme, W. Hujo, H. Kruse,             : VdW corrections, initial TS optimization,
                  C. Bannwarth                     DFT functionals, gCP, sTDA/sTD-DF
   Ed Valeev, F. Pavosevic, A. Kumar             : LibInt (2-el integral package), F12 methods
   Garnet Chan, S. Sharma, J. Yang, R. Olivares  : DMRG
   Ulf Ekstrom                                   : XCFun DFT Library
   Mihaly Kallay                                 : mrcc  (arbitrary order and MRCC methods)
   Andreas Klamt, Michael Diedenhofen            : otool_cosmo (COSMO solvation model)
   Jiri Pittner, Ondrej Demel                    : Mk-CCSD
   Frank Weinhold                                : gennbo (NPA and NBO analysis)
   Christopher J. Cramer and Donald G. Truhlar   : smd solvation model
   Lars Goerigk                                  : TD-DFT with DH, B97 family of functionals
   V. Asgeirsson, H. Jonsson                     : NEB implementation
   FAccTs GmbH                                   : IRC, NEB, NEB-TS, Multilevel, MM, QM/MM, CI optimization
   S Lehtola, MJT Oliveira, MAL Marques          : LibXC Library


 Your calculation uses the libint2 library for the computation of 2-el integrals
 For citations please refer to: http://libint.valeyev.net

 Your ORCA version has been built with support for libXC version: 4.2.3
 For citations please refer to: https://tddft.org/programs/libxc/

 This ORCA versions uses:
   CBLAS   interface :  Fast vector & matrix operations
   LAPACKE interface :  Fast linear algebra routines
   SCALAPACK package :  Parallel linear algebra routines




***************************************
The coordinates will be read from file: s_5d1_d.xyz
***************************************


Your calculation utilizes the atom-pairwise dispersion correction
with the Becke-Johnson damping scheme (D3BJ)
Cite in your paper:
S.Grimme, S.Ehrlich, L.Goerigk, J Comput Chem, (2011), 32, 1456–1465 
S.Grimme, J.Antony, S.Ehrlich and H.Krieg, J.Chem.Phys., 132, (2010), 154104 
   

----- Orbital basis set information -----
Your calculation utilizes the basis: def2-SVP
   F. Weigend and R. Ahlrichs, Phys. Chem. Chem. Phys. 7, 3297 (2005).

cite the ECPs for Pd [Def2-ECP] as follows:
Ce-Yb(ecp-28): M. Dolg, H. Stoll, H.Preuss, J. Chem. Phys., 1989, 90, 1730-1734.
Y-Cd(ecp-28), Hf-Hg(ecp-46): D. Andrae,U. Haeussermann, M. Dolg, H. Stoll, H. Preuss, Theor. Chim. Acta, 1990, 77, 123-141.
In-Sb(ecp-28), Tl-Bi(ecp-46): B. Metz, H. Stoll, M. Dolg, J. Chem. Phys., 2000, 113, 2563-2569.
Te-Xe(ecp-28), Po-Rn(ecp-46): K. A. Peterson, D. Figgen, E. Goll, H. Stoll, M. Dolg, J. Chem. Phys., 2003, 119, 11113-11123.
Rb(ecp-28), Cs(ecp-46): T. Leininger, A. Nicklass, W. Kuechle, H. Stoll, M. Dolg, A. Bergner, Chem. Phys. Lett., 1996, 255, 274-280.
Sr(ecp-28), Ba(ecp-46): M. Kaupp, P. V. Schleyer, H. Stoll and H. Preuss, J. Chem. Phys., 1991, 94, 1360-1366.
La(ecp-46): M. Dolg, H. Stoll, A. Savin, H. Preuss, Theor. Chim. Acta, 1989, 75, 173-194.
Lu(ecp-28): X. Cao, M. Dolg, J. Chem. Phys., 2001, 115, 7348-7355.

ECP parameters for Pd [Def2-ECP] have been obtained from:
TURBOMOLE (7.0.2)

================================================================================
                                        WARNINGS
                       Please study these warnings very carefully!
================================================================================


INFO   : the flag for use of LIBINT has been found!

================================================================================
                                       INPUT FILE
================================================================================
NAME = s_5d1_d_PBE0.in
|  1> ! DFT SP RKS PBE0 def2-SVP D3BJ Grid6 NOFINALGRID SlowConv TightSCF printbasis 
|  2> 
|  3> %base "_s_5d1_d_PBE0"
|  4> %maxcore 3000
|  5> %scf
|  6>    MaxIter 2000
|  7> end
|  8> %pal
|  9>    nprocs 32
| 10> end
| 11> 
| 12> * xyzfile 4 1 s_5d1_d.xyz
| 13> 
| 14>                          ****END OF INPUT****
================================================================================

                       ****************************
                       * Single Point Calculation *
                       ****************************

---------------------------------
CARTESIAN COORDINATES (ANGSTROEM)
---------------------------------
  Pd    -0.438900    3.615500   -0.634800
  Pd    -0.570600   -5.439400   -0.722900
  C      5.734300   -1.292000   -0.728900
  C      5.615800   -2.472900   -0.960100
  C      5.342900   -3.837600   -1.185400
  C      6.334300   -4.748300   -1.499800
  C      6.028100   -6.099800   -1.703400
  C      4.740800   -6.561400   -1.593500
  C      3.701100   -5.664200   -1.270500
  C      2.357200   -6.070800   -1.137900
  N      1.393700   -5.233000   -0.834300
  C      1.667300   -3.914400   -0.635000
  C      2.934900   -3.421300   -0.739200
  C      3.998400   -4.288200   -1.065200
  H      7.356700   -4.413900   -1.590400
  H      6.826700   -6.783000   -1.948800
  H      4.515800   -7.604400   -1.749900
  H      2.085100   -7.108900   -1.290400
  H      0.821500   -3.268800   -0.372900
  H      3.146400   -2.377200   -0.572300
  C      5.865900    0.073900   -0.395600
  C      7.016600    0.526500    0.254000
  C      7.109600    1.852400    0.633200
  C      6.076700    2.733500    0.364400
  C      4.927500    2.298600   -0.300500
  C      4.826100    0.962700   -0.675000
  H      7.821000   -0.161900    0.463100
  H      7.993300    2.203200    1.144500
  H      6.158200    3.757300    0.694900
  H      3.964600    0.609600   -1.219800
  C      3.854000    3.262400   -0.592300
  C      4.160400    4.579400   -0.946500
  C      3.139500    5.488700   -1.167800
  C      1.828000    5.065200   -1.048100
  N      1.532200    3.797200   -0.740400
  C      2.503900    2.917400   -0.512100
  H      5.189200    4.883900   -1.057500
  H      3.361000    6.510300   -1.431300
  H      0.993700    5.753500   -1.208400
  H      2.190300    1.917400   -0.234900
  C     -0.613400   -0.677200    5.570400
  C     -0.383300    0.507000    5.488100
  C     -0.153800    1.878300    5.254900
  C      0.110900    2.769000    6.278500
  C      0.319600    4.127800    6.010500
  C      0.263500    4.616600    4.729800
  C     -0.008200    3.740700    3.657800
  C     -0.088000    4.176300    2.318800
  N     -0.345100    3.358200    1.325400
  C     -0.544000    2.032200    1.561400
  C     -0.489500    1.511900    2.821100
  C     -0.217000    2.357400    3.916300
  H      0.158200    2.413000    7.296500
  H      0.525500    4.794800    6.833600
  H      0.422900    5.665100    4.534400
  H      0.067400    5.221200    2.076400
  H     -0.762000    1.402800    0.691100
  H     -0.656500    0.462100    3.002400
  C     -0.943300   -2.047400    5.658100
  C     -1.621800   -2.532600    6.778500
  C     -1.994500   -3.862700    6.828100
  C     -1.690900   -4.716200    5.781700
  C     -0.997600   -4.248500    4.662600
  C     -0.629700   -2.908300    4.604700
  H     -1.857700   -1.865800    7.593700
  H     -2.527600   -4.238500    7.688200
  H     -2.015800   -5.743900    5.828700
  H     -0.063800   -2.530800    3.767400
  C     -0.670500   -5.183300    3.573800
  C     -0.312000   -6.504400    3.856900
  C     -0.058200   -7.386800    2.820100
  C     -0.152500   -6.933200    1.516500
  N     -0.464900   -5.661300    1.243900
  C     -0.722300   -4.806700    2.230900
  H     -0.223000   -6.832700    4.880600
  H      0.209600   -8.411100    3.023100
  H      0.033200   -7.599600    0.670000
  H     -0.999900   -3.801300    1.935000
  C     -6.754900   -1.120900   -0.687700
  C     -6.674500   -2.308800   -0.477100
  C     -6.442300   -3.684600   -0.275000
  C     -7.461800   -4.573800    0.009800
  C     -7.194800   -5.936900    0.189900
  C     -5.919400   -6.431400    0.085300
  C     -4.851800   -5.557000   -0.207900
  C     -3.518100   -5.997700   -0.334700
  N     -2.528900   -5.180600   -0.610400
  C     -2.764000   -3.851100   -0.784600
  C     -4.018700   -3.325600   -0.684300
  C     -5.109200   -4.169500   -0.388500
  H     -8.475800   -4.213300    0.095100
  H     -8.014600   -6.602600    0.412500
  H     -5.724700   -7.483100    0.223200
  H     -3.276100   -7.045700   -0.201300
  H     -1.897600   -3.223500   -1.022700
  H     -4.199600   -2.272800   -0.831600
  C     -6.841400    0.254200   -0.997100
  C     -7.968800    0.752700   -1.653900
  C     -8.017200    2.087500   -2.009700
  C     -6.962600    2.932300   -1.710200
  C     -5.836400    2.451200   -1.037800
  C     -5.779700    1.106300   -0.687200
  H     -8.790200    0.092500   -1.886700
  H     -8.882600    2.473800   -2.526500
  H     -7.009000    3.964000   -2.022400
  H     -4.936700    0.717900   -0.137500
  C     -4.739600    3.377400   -0.713300
  C     -5.013200    4.695400   -0.336700
  C     -3.970100    5.571000   -0.085100
  C     -2.669600    5.113100   -0.198700
  N     -2.405700    3.843500   -0.528100
  C     -3.398900    2.995900   -0.784300
  H     -6.034400    5.026700   -0.232000
  H     -4.165900    6.593100    0.196300
  H     -1.818300    5.774300   -0.015500
  H     -3.109700    1.992800   -1.076400
  C     -0.498900   -0.557200   -6.921300
  C     -0.697200    0.630500   -6.811900
  C     -0.886600    2.002400   -6.547700
  C     -1.161600    2.917600   -7.546800
  C     -1.329900    4.275700   -7.248500
  C     -1.223500    4.739500   -5.961700
  C     -0.940100    3.837900   -4.914200
  C     -0.812600    4.246400   -3.570400
  N     -0.545600    3.404400   -2.599800
  C     -0.381400    2.079300   -2.865900
  C     -0.483800    1.583900   -4.132600
  C     -0.770900    2.455300   -5.203600
  H     -1.248500    2.581600   -8.568900
  H     -1.545100    4.962200   -8.052900
  H     -1.352600    5.787500   -5.742900
  H     -0.937900    5.289600   -3.304400
  H     -0.149500    1.429600   -2.014400
  H     -0.344700    0.534400   -4.337700
  C     -0.203800   -1.932800   -7.042800
  C      0.441600   -2.410200   -8.185800
  C      0.783200   -3.746900   -8.269000
  C      0.480700   -4.614400   -7.233800
  C     -0.180500   -4.154300   -6.092300
  C     -0.516900   -2.807600   -6.000700
  H      0.676800   -1.732400   -8.992100
  H      1.291000   -4.117100   -9.146700
  H      0.781900   -5.647700   -7.307400
  H     -1.058000   -2.434500   -5.145400
  C     -0.508100   -5.103800   -5.016400
  C     -0.898200   -6.411500   -5.319100
  C     -1.152400   -7.309300   -4.295700
  C     -1.028200   -6.883600   -2.985300
  N     -0.686000   -5.623700   -2.693300
  C     -0.426900   -4.755000   -3.667400
  H     -1.011300   -6.717400   -6.347200
  H     -1.444100   -8.323800   -4.514200
  H     -1.212900   -7.562900   -2.148700
  H     -0.123700   -3.761800   -3.356100

----------------------------
CARTESIAN COORDINATES (A.U.)
----------------------------
  NO LB      ZA    FRAG     MASS         X           Y           Z
   0 Pd   18.0000*   0   106.400   -0.829401    6.832305   -1.199598
   1 Pd   18.0000*   0   106.400   -1.078278  -10.278976   -1.366083
   2 C     6.0000    0    12.011   10.836257   -2.441526   -1.377421
   3 C     6.0000    0    12.011   10.612324   -4.673104   -1.814326
   4 C     6.0000    0    12.011   10.096618   -7.252013   -2.240081
   5 C     6.0000    0    12.011   11.970092   -8.972987   -2.834211
   6 C     6.0000    0    12.011   11.391458  -11.526951   -3.218959
   7 C     6.0000    0    12.011    8.958814  -12.399249   -3.011279
   8 C     6.0000    0    12.011    6.994065  -10.703787   -2.400897
   9 C     6.0000    0    12.011    4.454462  -11.472149   -2.150319
  10 N     7.0000    0    14.007    2.633711   -9.888937   -1.576599
  11 C     6.0000    0    12.011    3.150740   -7.397144   -1.199976
  12 C     6.0000    0    12.011    5.546157   -6.465320   -1.396886
  13 C     6.0000    0    12.011    7.555881   -8.103524   -2.012936
  14 H     1.0000    0     1.008   13.902148   -8.341062   -3.005420
  15 H     1.0000    0     1.008   12.900593  -12.818012   -3.682698
  16 H     1.0000    0     1.008    8.533625  -14.370233   -3.306832
  17 H     1.0000    0     1.008    3.940268  -13.433874   -2.438503
  18 H     1.0000    0     1.008    1.552410   -6.177137   -0.704679
  19 H     1.0000    0     1.008    5.945834   -4.492257   -1.081490
  20 C     6.0000    0    12.011   11.084945    0.139651   -0.747576
  21 C     6.0000    0    12.011   13.259452    0.994941    0.479990
  22 C     6.0000    0    12.011   13.435197    3.500529    1.196575
  23 C     6.0000    0    12.011   11.483299    5.165566    0.688616
  24 C     6.0000    0    12.011    9.311626    4.343724   -0.567863
  25 C     6.0000    0    12.011    9.120007    1.819239   -1.275565
  26 H     1.0000    0     1.008   14.779548   -0.305947    0.875132
  27 H     1.0000    0     1.008   15.105148    4.163445    2.162792
  28 H     1.0000    0     1.008   11.637311    7.100268    1.313171
  29 H     1.0000    0     1.008    7.492008    1.151977   -2.305088
  30 C     6.0000    0    12.011    7.283005    6.165043   -1.119285
  31 C     6.0000    0    12.011    7.862017    8.653812   -1.788626
  32 C     6.0000    0    12.011    5.932795   10.372140   -2.206822
  33 C     6.0000    0    12.011    3.454419    9.571841   -1.980622
  34 N     7.0000    0    14.007    2.895438    7.175668   -1.399153
  35 C     6.0000    0    12.011    4.731685    5.513087   -0.967729
  36 H     1.0000    0     1.008    9.806167    9.229233   -1.998385
  37 H     1.0000    0     1.008    6.351370   12.302684   -2.704765
  38 H     1.0000    0     1.008    1.877821   10.872539   -2.283545
  39 H     1.0000    0     1.008    4.139067    3.623361   -0.443897
  40 C     6.0000    0    12.011   -1.159158   -1.279723   10.526530
  41 C     6.0000    0    12.011   -0.724332    0.958091   10.371006
  42 C     6.0000    0    12.011   -0.290640    3.549473    9.930322
  43 C     6.0000    0    12.011    0.209571    5.232652   11.864646
  44 C     6.0000    0    12.011    0.603956    7.800412   11.358199
  45 C     6.0000    0    12.011    0.497943    8.724110    8.938027
  46 C     6.0000    0    12.011   -0.015496    7.068899    6.912240
  47 C     6.0000    0    12.011   -0.166296    7.892063    4.381897
  48 N     7.0000    0    14.007   -0.652144    6.346078    2.504643
  49 C     6.0000    0    12.011   -1.028011    3.840301    2.950618
  50 C     6.0000    0    12.011   -0.925021    2.857077    5.331106
  51 C     6.0000    0    12.011   -0.410071    4.454840    7.400734
  52 H     1.0000    0     1.008    0.298955    4.559909   13.788387
  53 H     1.0000    0     1.008    0.993051    9.060859   12.913633
  54 H     1.0000    0     1.008    0.799165   10.705488    8.568774
  55 H     1.0000    0     1.008    0.127368    9.866638    3.923827
  56 H     1.0000    0     1.008   -1.439971    2.650908    1.305990
  57 H     1.0000    0     1.008   -1.240605    0.873242    5.673714
  58 C     6.0000    0    12.011   -1.782579   -3.869025   10.692259
  59 C     6.0000    0    12.011   -3.064758   -4.785920   12.809509
  60 C     6.0000    0    12.011   -3.769059   -7.299445   12.903239
  61 C     6.0000    0    12.011   -3.195338   -8.912326   10.925830
  62 C     6.0000    0    12.011   -1.885191   -8.028501    8.811037
  63 C     6.0000    0    12.011   -1.189961   -5.495891    8.701622
  64 H     1.0000    0     1.008   -3.510544   -3.525851   14.350013
  65 H     1.0000    0     1.008   -4.776472   -8.009604   14.528592
  66 H     1.0000    0     1.008   -3.809310  -10.854398   11.014647
  67 H     1.0000    0     1.008   -0.120565   -4.782519    7.119354
  68 C     6.0000    0    12.011   -1.267061   -9.795017    6.753503
  69 C     6.0000    0    12.011   -0.589595  -12.291535    7.288485
  70 C     6.0000    0    12.011   -0.109982  -13.959029    5.329217
  71 C     6.0000    0    12.011   -0.288183  -13.101849    2.865770
  72 N     7.0000    0    14.007   -0.878534  -10.698307    2.350630
  73 C     6.0000    0    12.011   -1.364949   -9.083347    4.215790
  74 H     1.0000    0     1.008   -0.421409  -12.911932    9.222997
  75 H     1.0000    0     1.008    0.396087  -15.894675    5.712831
  76 H     1.0000    0     1.008    0.062739  -14.361163    1.266117
  77 H     1.0000    0     1.008   -1.889537   -7.183416    3.656620
  78 C     6.0000    0    12.011  -12.764911   -2.118194   -1.299565
  79 C     6.0000    0    12.011  -12.612977   -4.363000   -0.901588
  80 C     6.0000    0    12.011  -12.174183   -6.962885   -0.519675
  81 C     6.0000    0    12.011  -14.100758   -8.643229    0.018519
  82 C     6.0000    0    12.011  -13.596202  -11.219115    0.358859
  83 C     6.0000    0    12.011  -11.186045  -12.153585    0.161194
  84 C     6.0000    0    12.011   -9.168573  -10.501208   -0.392874
  85 C     6.0000    0    12.011   -6.648246  -11.334010   -0.632491
  86 N     7.0000    0    14.007   -4.778928   -9.789915   -1.153489
  87 C     6.0000    0    12.011   -5.223203   -7.277524   -1.482679
  88 C     6.0000    0    12.011   -7.594242   -6.284473   -1.293140
  89 C     6.0000    0    12.011   -9.654989   -7.879213   -0.734159
  90 H     1.0000    0     1.008  -16.016941   -7.961983    0.179713
  91 H     1.0000    0     1.008  -15.145399  -12.477106    0.779512
  92 H     1.0000    0     1.008  -10.818115  -14.141010    0.421787
  93 H     1.0000    0     1.008   -6.190932  -13.314443   -0.380402
  94 H     1.0000    0     1.008   -3.585944   -6.091532   -1.932623
  95 H     1.0000    0     1.008   -7.936094   -4.294970   -1.571496
  96 C     6.0000    0    12.011  -12.928372    0.480368   -1.884246
  97 C     6.0000    0    12.011  -15.058850    1.422397   -3.125418
  98 C     6.0000    0    12.011  -15.150312    3.944803   -3.797783
  99 C     6.0000    0    12.011  -13.157407    5.541244   -3.231810
 100 C     6.0000    0    12.011  -11.029198    4.632097   -1.961158
 101 C     6.0000    0    12.011  -10.922050    2.090604   -1.298620
 102 H     1.0000    0     1.008  -16.611071    0.174800   -3.565346
 103 H     1.0000    0     1.008  -16.785681    4.674805   -4.774393
 104 H     1.0000    0     1.008  -13.245090    7.490874   -3.821782
 105 H     1.0000    0     1.008   -9.329011    1.356634   -0.259837
 106 C     6.0000    0    12.011   -8.956546    6.382361   -1.347942
 107 C     6.0000    0    12.011   -9.473575    8.873020   -0.636271
 108 C     6.0000    0    12.011   -7.502402   10.527664   -0.160816
 109 C     6.0000    0    12.011   -5.044813    9.662359   -0.375489
 110 N     7.0000    0    14.007   -4.546114    7.263162   -0.997964
 111 C     6.0000    0    12.011   -6.422990    5.661431   -1.482112
 112 H     1.0000    0     1.008  -11.403363    9.499086   -0.438416
 113 H     1.0000    0     1.008   -7.872410   12.459153    0.370953
 114 H     1.0000    0     1.008   -3.436089   10.911846   -0.029291
 115 H     1.0000    0     1.008   -5.876481    3.765846   -2.034101
 116 C     6.0000    0    12.011   -0.942784   -1.052955  -13.079361
 117 C     6.0000    0    12.011   -1.317517    1.191472  -12.872625
 118 C     6.0000    0    12.011   -1.675431    3.783988  -12.373360
 119 C     6.0000    0    12.011   -2.195106    5.513465  -14.261385
 120 C     6.0000    0    12.011   -2.513147    8.079902  -13.697680
 121 C     6.0000    0    12.011   -2.312080    8.956357  -11.265980
 122 C     6.0000    0    12.011   -1.776532    7.252580   -9.286492
 123 C     6.0000    0    12.011   -1.535591    8.024533   -6.747078
 124 N     7.0000    0    14.007   -1.031035    6.433384   -4.912910
 125 C     6.0000    0    12.011   -0.720742    3.929308   -5.415766
 126 C     6.0000    0    12.011   -0.914250    2.993137   -7.809482
 127 C     6.0000    0    12.011   -1.456790    4.639845   -9.833379
 128 H     1.0000    0     1.008   -2.359323    4.878517  -16.192874
 129 H     1.0000    0     1.008   -2.919816    9.377199  -15.217776
 130 H     1.0000    0     1.008   -2.556044   10.936790  -10.852508
 131 H     1.0000    0     1.008   -1.772374    9.995895   -6.244411
 132 H     1.0000    0     1.008   -0.282514    2.701552   -3.806664
 133 H     1.0000    0     1.008   -0.651389    1.009870   -8.197065
 134 C     6.0000    0    12.011   -0.385126   -3.652463  -13.308963
 135 C     6.0000    0    12.011    0.834503   -4.554618  -15.468920
 136 C     6.0000    0    12.011    1.480034   -7.080615  -15.626145
 137 C     6.0000    0    12.011    0.908391   -8.719952  -13.669901
 138 C     6.0000    0    12.011   -0.341096   -7.850489  -11.512779
 139 C     6.0000    0    12.011   -0.976799   -5.305595  -11.339680
 140 H     1.0000    0     1.008    1.278967   -3.273762  -16.992606
 141 H     1.0000    0     1.008    2.439636   -7.780191  -17.284758
 142 H     1.0000    0     1.008    1.477577  -10.672606  -13.808985
 143 H     1.0000    0     1.008   -1.999330   -4.600538   -9.723397
 144 C     6.0000    0    12.011   -0.960170   -9.644784   -9.479622
 145 C     6.0000    0    12.011   -1.697352  -12.115979  -10.051642
 146 C     6.0000    0    12.011   -2.177720  -13.812575   -8.117697
 147 C     6.0000    0    12.011   -1.943016  -13.008119   -5.641399
 148 N     7.0000    0    14.007   -1.296352  -10.627253   -5.089599
 149 C     6.0000    0    12.011   -0.806724   -8.985648   -6.930382
 150 H     1.0000    0     1.008   -1.911080  -12.694046  -11.994470
 151 H     1.0000    0     1.008   -2.728954  -15.729702   -8.530602
 152 H     1.0000    0     1.008   -2.292049  -14.291810   -4.060455
 153 H     1.0000    0     1.008   -0.233759   -7.108772   -6.342110
* core charge reduced due to ECP

--------------------------------
INTERNAL COORDINATES (ANGSTROEM)
--------------------------------
 Pd     0   0   0     0.000000000000     0.00000000     0.00000000
 Pd     1   0   0     9.056286242716     0.00000000     0.00000000
 C      2   1   0     7.546703039739    55.83195010     0.00000000
 C      3   2   1     1.209140397142    51.79666840   193.41527161
 C      4   3   2     1.409837079240   174.21268014   350.97326861
 C      5   4   3     1.382423889406   122.35792092   189.08792531
 C      6   5   4     1.400629733370   120.79331846   179.32845615
 C      7   6   5     1.371967149753   121.20690227   359.78832232
 C      8   7   6     1.410770332124   119.72660561     0.03371654
 C      9   8   7     1.410309728393   122.71391108   180.18695341
 N     10   9   8     1.312407730090   122.49878652   179.84306214
 C     11  10   9     1.361353521316   120.30751182     0.09033104
 C     12  11  10     1.364116934137   121.71542231   359.87568239
 C     13  12  11     1.410256664583   119.74980896     0.19413782
 H      6   5   4     1.079506127820   119.61886320   359.27375264
 H      7   6   5     1.079233691098   118.82399980   179.91607600
 H      8   7   6     1.078394621648   120.63442303   180.14655896
 H     10   9   8     1.083949385350   120.13828218   359.67321974
 H     12  11  10     1.095843697796   116.77766468   180.68727596
 H     13  12  11     1.078300825373   121.36278065   180.50240290
 C      3   2   1     1.412122607991   127.53502613    16.64835105
 C     21   3   2     1.396759610670   119.99839761   144.82864464
 C     22  21   3     1.382191177081   119.59478197   183.06459502
 C     23  22  21     1.384006163281   120.47777897   359.49458996
 C     24  23  22     1.397100805239   120.54021744   359.65136647
 C     25  24  23     1.391100650564   119.14455301     0.81054283
 H     22  21   3     1.079201894921   119.83299719     2.54545083
 H     23  22  21     1.079543431271   119.78417470   179.37236193
 H     24  23  22     1.078906362944   119.22514710   178.22700952
 H     26  25  24     1.078734860844   120.56486552   182.15528383
 C     25  24  23     1.471889917759   119.36941239   180.97472214
 C     31  25  24     1.397793833153   120.48548954    36.74070833
 C     32  31  25     1.384932124691   119.83622742   182.49273479
 C     33  32  31     1.383370011964   118.94866356   359.21848550
 N     34  33  32     1.337909163583   121.30845109   359.17891737
 C     35  34  33     1.330552449173   120.30993161     1.51519472
 H     32  31  25     1.078642985422   120.07492186     3.14738208
 H     33  32  31     1.078035741523   120.65003828   179.34619604
 H     34  33  32     1.093393556776   121.19780731   179.60563766
 H     36  35  34     1.084059407966   116.26786632   177.96520993
 C     19  12  11     6.640643301669   127.64396285   105.62875310
 C     41  19  12     1.209152157505   106.27057505   108.62071644
 C     42  41  19     1.409792956430   174.18876770    32.09044095
 C     43  42  41     1.382450556078   122.37048583   170.70774526
 C     44  43  42     1.400613126456   120.79117147   180.70271435
 C     45  44  43     1.371956682990   121.20942456     0.23331201
 C     46  45  44     1.410746504515   119.73616431   359.96779006
 C     47  46  45     1.410332017647   122.72307316   179.62403090
 N     48  47  46     1.312338210981   122.49497854   180.21458353
 C     49  48  47     1.361445265150   120.30251338   359.82577608
 C     50  49  48     1.364011154646   121.72002528     0.24921932
 C     51  50  49     1.410173585060   119.75316738   359.80718189
 H     44  43  42     1.079489365395   119.61441225     0.75669256
 H     45  44  43     1.079248544127   118.82061753   180.09770672
 H     46  45  44     1.078397779115   120.63054545   179.82448134
 H     48  47  46     1.083846359038   120.13164211     0.35424163
 H     50  49  48     1.095942722043   116.79203005   179.55895108
 H     51  50  49     1.078350003478   121.36120100   179.45740957
 C     41  19  12     1.412081208713    74.17966109   285.99964016
 C     59  41  19     1.396809740086   120.02391454   188.58413533
 C     60  59  41     1.382219758215   119.60548578   177.04941604
 C     61  60  59     1.384047748454   120.47347483     0.50601535
 C     62  61  60     1.397065850273   120.53271141     0.31884675
 C     63  62  61     1.390984852542   119.15326725   359.20814544
 H     60  59  41     1.079269238883   119.82942922   357.54481201
 H     61  60  59     1.079441179500   119.78678567   180.60703999
 H     62  61  60     1.078858795209   119.23751689   181.72425837
 H     64  63  62     1.078805056532   120.54374536   177.84698626
 C     63  62  61     1.471846082306   119.35586996   179.08295650
 C     69  63  62     1.397845867755   120.49269046   323.03775988
 C     70  69  63     1.384918206971   119.83803183   177.45735078
 C     71  70  69     1.383480541967   118.94816930     0.66967392
 N     72  71  70     1.337772077000   121.30862645     0.90283873
 C     73  72  71     1.330700913053   120.30648943   358.50455562
 H     70  69  63     1.078732394990   120.06505707   356.80219821
 H     71  70  69     1.078014995257   120.66064588   180.61687591
 H     72  71  70     1.093222621427   121.20955558   180.42785270
 H     74  73  72     1.084180672213   116.27289281   181.93634140
 C     57  50  49     6.647179968979   124.20096421   253.29857127
 C     79  57  50     1.209100049624   106.07693746   251.13046285
 C     80  79  57     1.409818034358   174.08776395   327.17896437
 C     81  80  79     1.382449973778   122.39524962   189.15735556
 C     82  81  80     1.400630793607   120.78914486   179.28927352
 C     83  82  81     1.371902536626   121.21193676   359.77343320
 C     84  83  82     1.410783952276   119.73256816     0.04417876
 C     85  84  83     1.410336988099   122.72676445   180.24659883
 N     86  85  84     1.312318383625   122.48967608   179.85061355
 C     87  86  85     1.361318441806   120.31747279     0.10610422
 C     88  87  86     1.363995025651   121.71623481   359.82331257
 C     89  88  87     1.410267740537   119.74754619     0.21605725
 H     82  81  80     1.079551916306   119.61492047   359.24752277
 H     83  82  81     1.079249410470   118.81669907   179.91359898
 H     84  83  82     1.078423567064   120.63775462   180.16213721
 H     86  85  84     1.083818970124   120.14808873   359.68981390
 H     88  87  86     1.096002887770   116.77708208   180.59983339
 H     89  88  87     1.078336654297   121.35996554   180.52253984
 C     79  57  50     1.412129816979    74.39310023    73.82976470
 C     97  79  57     1.396753109895   120.00077193   171.19867303
 C     98  97  79     1.382254404949   119.60053162   183.07804597
 C     99  98  97     1.384040624404   120.46749065   359.48550779
 C    100  99  98     1.397106084018   120.54260688   359.66118162
 C    101 100  99     1.391003687989   119.15049186     0.82088574
 H     98  97  79     1.079239472962   119.83003878     2.56324533
 H     99  98  97     1.079456849531   119.79420995   179.36737479
 H    100  99  98     1.078900685884   119.22857978   178.24376364
 H    102 101 100     1.078737062495   120.55793554   182.14111602
 C    101 100  99     1.471773396281   119.34907158   180.98383433
 C    107 101 100     1.397787008095   120.45904938    36.84624584
 C    108 107 101     1.384931597589   119.84569510   182.53526956
 C    109 108 107     1.383429658494   118.93706979   359.27874765
 N    110 109 108     1.337920674031   121.31390393   359.12456122
 C    111 110 109     1.330605290836   120.30810121     1.50808882
 H    108 107 101     1.078689584635   120.06999364     3.19217794
 H    109 108 107     1.078059372205   120.66661325   179.36614229
 H    110 109 108     1.093370646213   121.19877249   179.56224060
 H    112 111 110     1.084051963699   116.24348564   178.04442767
 C     95  88  87     6.622612727617   126.22745775   106.49177077
 C    117  95  88     1.209099888347   106.27528649   108.64473959
 C    118 117  95     1.409887800500   174.16643140    32.46315840
 C    119 118 117     1.382539999421   122.37347558   171.17992207
 C    120 119 118     1.400622500890   120.78814307   180.67844678
 C    121 120 119     1.371964154051   121.21357473     0.20741460
 C    122 121 120     1.410834635951   119.73059516   359.97316039
 C    123 122 121     1.410293210648   122.71880104   179.77685163
 N    124 123 122     1.312370892698   122.49738478   180.17294539
 C    125 124 123     1.361492144671   120.29323072   359.90719500
 C    126 125 124     1.363977936039   121.73208762     0.13561373
 C    127 126 125     1.410250109023   119.74471349   359.80392891
 H    120 119 118     1.079414665455   119.61961567     0.72977484
 H    121 120 119     1.079190738470   118.81781890   180.09020121
 H    122 121 120     1.078352562940   120.63469800   179.85812061
 H    124 123 122     1.083846082246   120.14518431     0.32279743
 H    126 125 124     1.095874057545   116.78671642   179.35563808
 H    127 126 125     1.078362216512   121.36099813   179.49685400
 C    117  95  88     1.412133711799    74.25120350   285.96261098
 C    135 117  95     1.396746548233   119.99486931   188.43690257
 C    136 135 117     1.382164856303   119.60461685   176.95370616
 C    137 136 135     1.384088703805   120.47164170     0.51614516
 C    138 137 136     1.397104040507   120.53859251     0.33786313
 C    139 138 137     1.391098993602   119.14751819   359.18718888
 H    136 135 117     1.079282896186   119.82788817   357.46955361
 H    137 136 135     1.079474951076   119.79310453   180.61742130
 H    138 137 136     1.078817542497   119.22735182   181.75574469
 H    140 139 138     1.078670899765   120.55517459   177.85105761
 C    139 138 137     1.471880708481   119.34897156   179.04503011
 C    145 139 138     1.397814218700   120.48595904   323.21732334
 C    146 145 139     1.384922394938   119.84636894   177.45700197
 C    147 146 145     1.383399540986   118.94705016     0.73519798
 N    148 147 146     1.337801498728   121.29986185     0.87022537
 C    149 148 147     1.330655218304   120.32109491   358.48421696
 H    146 145 139     1.078589833996   120.06661358   356.79455157
 H    147 146 145     1.077980236368   120.66234245   180.63723206
 H    148 147 146     1.093371912937   121.22704742   180.44239672
 H    150 149 148     1.084105239356   116.25363602   181.99018742

---------------------------
INTERNAL COORDINATES (A.U.)
---------------------------
 Pd     0   0   0     0.000000000000     0.00000000     0.00000000
 Pd     1   0   0    17.113900789131     0.00000000     0.00000000
 C      2   1   0    14.261201959137    55.83195010     0.00000000
 C      3   2   1     2.284944208059    51.79666840   193.41527161
 C      4   3   2     2.664205973211   174.21268014   350.97326861
 C      5   4   3     2.612402551967   122.35792092   189.08792531
 C      6   5   4     2.646806611096   120.79331846   179.32845615
 C      7   6   5     2.592642177769   121.20690227   359.78832232
 C      8   7   6     2.665969565575   119.72660561     0.03371654
 C      9   8   7     2.665099150668   122.71391108   180.18695341
 N     10   9   8     2.480091185911   122.49878652   179.84306214
 C     11  10   9     2.572585326737   120.30751182     0.09033104
 C     12  11  10     2.577807420164   121.71542231   359.87568239
 C     13  12  11     2.664998874599   119.74980896     0.19413782
 H      6   5   4     2.039970941469   119.61886320   359.27375264
 H      7   6   5     2.039456110675   118.82399980   179.91607600
 H      8   7   6     2.037870499209   120.63442303   180.14655896
 H     10   9   8     2.048367481343   120.13828218   359.67321974
 H     12  11  10     2.070844474419   116.77766468   180.68727596
 H     13  12  11     2.037693249936   121.36278065   180.50240290
 C      3   2   1     2.668524996622   127.53502613    16.64835105
 C     21   3   2     2.639493139089   119.99839761   144.82864464
 C     22  21   3     2.611962789405   119.59478197   183.06459502
 C     23  22  21     2.615392616260   120.47777897   359.49458996
 C     24  23  22     2.640137903383   120.54021744   359.65136647
 C     25  24  23     2.628799254286   119.14455301     0.81054283
 H     22  21   3     2.039396024609   119.83299719     2.54545083
 H     23  22  21     2.040041434776   119.78417470   179.37236193
 H     24  23  22     2.038837550108   119.22514710   178.22700952
 H     26  25  24     2.038513458109   120.56486552   182.15528383
 C     25  24  23     2.781468843844   119.36941239   180.97472214
 C     31  25  24     2.641447536343   120.48548954    36.74070833
 C     32  31  25     2.617142429735   119.83622742   182.49273479
 C     33  32  31     2.614190464490   118.94866356   359.21848550
 N     34  33  32     2.528281911236   121.30845109   359.17891737
 C     35  34  33     2.514379735755   120.30993161     1.51519472
 H     32  31  25     2.038339838723   120.07492186     3.14738208
 H     33  32  31     2.037192314056   120.65003828   179.34619604
 H     34  33  32     2.066214378901   121.19780731   179.60563766
 H     36  35  34     2.048575393957   116.26786632   177.96520993
 C     19  12  11    12.548997193213   127.64396285   105.62875310
 C     41  19  12     2.284966431925   106.27057505   108.62071644
 C     42  41  19     2.664122593184   174.18876770    32.09044095
 C     43  42  41     2.612452944674   122.37048583   170.70774526
 C     44  43  42     2.646775228576   120.79117147   180.70271435
 C     45  44  43     2.592622398453   121.20942456     0.23331201
 C     46  45  44     2.665924537919   119.73616431   359.96779006
 C     47  46  45     2.665141271253   122.72307316   179.62403090
 N     48  47  46     2.479959813834   122.49497854   180.21458353
 C     49  48  47     2.572758697458   120.30251338   359.82577608
 C     50  49  48     2.577607525896   121.72002528     0.24921932
 C     51  50  49     2.664841877053   119.75316738   359.80718189
 H     44  43  42     2.039939265076   119.61441225     0.75669256
 H     45  44  43     2.039484178833   118.82061753   180.09770672
 H     46  45  44     2.037876465956   120.63054545   179.82448134
 H     48  47  46     2.048172789830   120.13164211     0.35424163
 H     50  49  48     2.071031603126   116.79203005   179.55895108
 H     51  50  49     2.037786183086   121.36120100   179.45740957
 C     41  19  12     2.668446763324    74.17966109   285.99964016
 C     59  41  19     2.639587869957   120.02391454   188.58413533
 C     60  59  41     2.612016799921   119.60548578   177.04941604
 C     61  60  59     2.615471200848   120.47347483     0.50601535
 C     62  61  60     2.640071848070   120.53271141     0.31884675
 C     63  62  61     2.628580427736   119.15326725   359.20814544
 H     60  59  41     2.039523286255   119.82942922   357.54481201
 H     61  60  59     2.039848206932   119.78678567   180.60703999
 H     62  61  60     2.038747660117   119.23751689   181.72425837
 H     64  63  62     2.038646108736   120.54374536   177.84698626
 C     63  62  61     2.781386006844   119.35586996   179.08295650
 C     69  63  62     2.641545867491   120.49269046   323.03775988
 C     70  69  63     2.617116129057   119.83803183   177.45735078
 C     71  70  69     2.614399335926   118.94816930     0.66967392
 N     72  71  70     2.528022855136   121.30862645     0.90283873
 C     73  72  71     2.514660291829   120.30648943   358.50455562
 H     70  69  63     2.038508798319   120.06505707   356.80219821
 H     71  70  69     2.037153109297   120.66064588   180.61687591
 H     72  71  70     2.065891357905   121.20955558   180.42785270
 H     74  73  72     2.048804550173   116.27289281   181.93634140
 C     57  50  49    12.561349704258   124.20096421   253.29857127
 C     79  57  50     2.284867962299   106.07693746   251.13046285
 C     80  79  57     2.664169983599   174.08776395   327.17896437
 C     81  80  79     2.612451844288   122.39524962   189.15735556
 C     82  81  80     2.646808614654   120.78914486   179.28927352
 C     83  82  81     2.592520076654   121.21193676   359.77343320
 C     84  83  82     2.665995303933   119.73256816     0.04417876
 C     85  84  83     2.665150664046   122.72676445   180.24659883
 N     86  85  84     2.479922345561   122.48967608   179.85061355
 C     87  86  85     2.572519036069   120.31747279     0.10610422
 C     88  87  86     2.577577046511   121.71623481   359.82331257
 C     89  88  87     2.665019805119   119.74754619     0.21605725
 H     82  81  80     2.040057469168   119.61492047   359.24752277
 H     83  82  81     2.039485815984   118.81669907   179.91359898
 H     84  83  82     2.037925198118   120.63775462   180.16213721
 H     86  85  84     2.048121032282   120.14808873   359.68981390
 H     88  87  86     2.071145299872   116.77708208   180.59983339
 H     89  88  87     2.037760956790   121.35996554   180.52253984
 C     79  57  50     2.668538619634    74.39310023    73.82976470
 C     97  79  57     2.639480854403   120.00077193   171.19867303
 C     98  97  79     2.612082272759   119.60053162   183.07804597
 C     99  98  97     2.615457738345   120.46749065   359.48550779
 C    100  99  98     2.640147878829   120.54260688   359.66118162
 C    101 100  99     2.628616021574   119.15049186     0.82088574
 H     98  97  79     2.039467036816   119.83003878     2.56324533
 H     99  98  97     2.039877819000   119.79420995   179.36737479
 H    100  99  98     2.038826822020   119.22857978   178.24376364
 H    102 101 100     2.038517618626   120.55793554   182.14111602
 C    101 100  99     2.781248650162   119.34907158   180.98383433
 C    107 101 100     2.641434638853   120.45904938    36.84624584
 C    108 107 101     2.617141433657   119.84569510   182.53526956
 C    109 108 107     2.614303180097   118.93706979   359.27874765
 N    110 109 108     2.528303662830   121.31390393   359.12456122
 C    111 110 109     2.514479592026   120.30810121     1.50808882
 H    108 107 101     2.038427898473   120.06999364     3.19217794
 H    109 108 107     2.037236969575   120.66661325   179.36614229
 H    110 109 108     2.066171084211   121.19877249   179.56224060
 H    112 111 110     2.048561326331   116.24348564   178.04442767
 C     95  88  87    12.514924346218   126.22745775   106.49177077
 C    117  95  88     2.284867657530   106.27528649   108.64473959
 C    118 117  95     2.664301822502   174.16643140    32.46315840
 C    119 118 117     2.612621968098   122.37347558   171.17992207
 C    120 119 118     2.646792943690   120.78814307   180.67844678
 C    121 120 119     2.592636516713   121.21357473     0.20741460
 C    122 121 120     2.666091082199   119.73059516   359.97316039
 C    123 122 121     2.665067936653   122.71880104   179.77685163
 N    124 123 122     2.480021573328   122.49738478   180.17294539
 C    125 124 123     2.572847286913   120.29323072   359.90719500
 C    126 125 124     2.577544751824   121.73208762     0.13561373
 C    127 126 125     2.664986486386   119.74471349   359.80392891
 H    120 119 118     2.039798102649   119.61961567     0.72977484
 H    121 120 119     2.039374941973   118.81781890   180.09020121
 H    122 121 120     2.037791019769   120.63469800   179.85812061
 H    124 123 122     2.048172266768   120.14518431     0.32279743
 H    126 125 124     2.070901846029   116.78671642   179.35563808
 H    127 126 125     2.037809262375   121.36099813   179.49685400
 C    117  95  88     2.668545979778    74.25120350   285.96261098
 C    135 117  95     2.639468454660   119.99486931   188.43690257
 C    136 135 117     2.611913050344   119.60461685   176.95370616
 C    137 136 135     2.615548595245   120.47164170     0.51614516
 C    138 137 136     2.640144017152   120.53859251     0.33786313
 C    139 138 137     2.628796123081   119.14751819   359.18718888
 H    136 135 117     2.039549094817   119.82788817   357.46955361
 H    137 136 135     2.039912025961   119.79310453   180.61742130
 H    138 137 136     2.038669703790   119.22735182   181.75574469
 H    140 139 138     2.038392589186   120.55517459   177.85105761
 C    139 138 137     2.781451440832   119.34897156   179.04503011
 C    145 139 138     2.641486059444   120.48595904   323.21732334
 C    146 145 139     2.617124043167   119.84636894   177.45700197
 C    147 146 145     2.614246266256   118.94705016     0.73519798
 N    148 147 146     2.528078454146   121.29986185     0.87022537
 C    149 148 147     2.514573941268   120.32109491   358.48421696
 H    146 145 139     2.038239397084   120.06661358   356.79455157
 H    147 146 145     2.037087424515   120.66234245   180.63723206
 H    148 147 146     2.066173477973   121.22704742   180.44239672
 H    150 149 148     2.048662002733   116.25363602   181.99018742

---------------------
BASIS SET INFORMATION
---------------------
There are 4 groups of distinct atoms

 Group   1 Type Pd  : 7s6p5d1f contracted to 5s3p2d1f pattern {31111/411/41/1}
 Group   2 Type C   : 7s4p1d contracted to 3s2p1d pattern {511/31/1}
 Group   3 Type N   : 7s4p1d contracted to 3s2p1d pattern {511/31/1}
 Group   4 Type H   : 4s1p contracted to 2s1p pattern {31/1}

Atom   0Pd   basis set group =>   1
Atom   1Pd   basis set group =>   1
Atom   2C    basis set group =>   2
Atom   3C    basis set group =>   2
Atom   4C    basis set group =>   2
Atom   5C    basis set group =>   2
Atom   6C    basis set group =>   2
Atom   7C    basis set group =>   2
Atom   8C    basis set group =>   2
Atom   9C    basis set group =>   2
Atom  10N    basis set group =>   3
Atom  11C    basis set group =>   2
Atom  12C    basis set group =>   2
Atom  13C    basis set group =>   2
Atom  14H    basis set group =>   4
Atom  15H    basis set group =>   4
Atom  16H    basis set group =>   4
Atom  17H    basis set group =>   4
Atom  18H    basis set group =>   4
Atom  19H    basis set group =>   4
Atom  20C    basis set group =>   2
Atom  21C    basis set group =>   2
Atom  22C    basis set group =>   2
Atom  23C    basis set group =>   2
Atom  24C    basis set group =>   2
Atom  25C    basis set group =>   2
Atom  26H    basis set group =>   4
Atom  27H    basis set group =>   4
Atom  28H    basis set group =>   4
Atom  29H    basis set group =>   4
Atom  30C    basis set group =>   2
Atom  31C    basis set group =>   2
Atom  32C    basis set group =>   2
Atom  33C    basis set group =>   2
Atom  34N    basis set group =>   3
Atom  35C    basis set group =>   2
Atom  36H    basis set group =>   4
Atom  37H    basis set group =>   4
Atom  38H    basis set group =>   4
Atom  39H    basis set group =>   4
Atom  40C    basis set group =>   2
Atom  41C    basis set group =>   2
Atom  42C    basis set group =>   2
Atom  43C    basis set group =>   2
Atom  44C    basis set group =>   2
Atom  45C    basis set group =>   2
Atom  46C    basis set group =>   2
Atom  47C    basis set group =>   2
Atom  48N    basis set group =>   3
Atom  49C    basis set group =>   2
Atom  50C    basis set group =>   2
Atom  51C    basis set group =>   2
Atom  52H    basis set group =>   4
Atom  53H    basis set group =>   4
Atom  54H    basis set group =>   4
Atom  55H    basis set group =>   4
Atom  56H    basis set group =>   4
Atom  57H    basis set group =>   4
Atom  58C    basis set group =>   2
Atom  59C    basis set group =>   2
Atom  60C    basis set group =>   2
Atom  61C    basis set group =>   2
Atom  62C    basis set group =>   2
Atom  63C    basis set group =>   2
Atom  64H    basis set group =>   4
Atom  65H    basis set group =>   4
Atom  66H    basis set group =>   4
Atom  67H    basis set group =>   4
Atom  68C    basis set group =>   2
Atom  69C    basis set group =>   2
Atom  70C    basis set group =>   2
Atom  71C    basis set group =>   2
Atom  72N    basis set group =>   3
Atom  73C    basis set group =>   2
Atom  74H    basis set group =>   4
Atom  75H    basis set group =>   4
Atom  76H    basis set group =>   4
Atom  77H    basis set group =>   4
Atom  78C    basis set group =>   2
Atom  79C    basis set group =>   2
Atom  80C    basis set group =>   2
Atom  81C    basis set group =>   2
Atom  82C    basis set group =>   2
Atom  83C    basis set group =>   2
Atom  84C    basis set group =>   2
Atom  85C    basis set group =>   2
Atom  86N    basis set group =>   3
Atom  87C    basis set group =>   2
Atom  88C    basis set group =>   2
Atom  89C    basis set group =>   2
Atom  90H    basis set group =>   4
Atom  91H    basis set group =>   4
Atom  92H    basis set group =>   4
Atom  93H    basis set group =>   4
Atom  94H    basis set group =>   4
Atom  95H    basis set group =>   4
Atom  96C    basis set group =>   2
Atom  97C    basis set group =>   2
Atom  98C    basis set group =>   2
Atom  99C    basis set group =>   2
Atom 100C    basis set group =>   2
Atom 101C    basis set group =>   2
Atom 102H    basis set group =>   4
Atom 103H    basis set group =>   4
Atom 104H    basis set group =>   4
Atom 105H    basis set group =>   4
Atom 106C    basis set group =>   2
Atom 107C    basis set group =>   2
Atom 108C    basis set group =>   2
Atom 109C    basis set group =>   2
Atom 110N    basis set group =>   3
Atom 111C    basis set group =>   2
Atom 112H    basis set group =>   4
Atom 113H    basis set group =>   4
Atom 114H    basis set group =>   4
Atom 115H    basis set group =>   4
Atom 116C    basis set group =>   2
Atom 117C    basis set group =>   2
Atom 118C    basis set group =>   2
Atom 119C    basis set group =>   2
Atom 120C    basis set group =>   2
Atom 121C    basis set group =>   2
Atom 122C    basis set group =>   2
Atom 123C    basis set group =>   2
Atom 124N    basis set group =>   3
Atom 125C    basis set group =>   2
Atom 126C    basis set group =>   2
Atom 127C    basis set group =>   2
Atom 128H    basis set group =>   4
Atom 129H    basis set group =>   4
Atom 130H    basis set group =>   4
Atom 131H    basis set group =>   4
Atom 132H    basis set group =>   4
Atom 133H    basis set group =>   4
Atom 134C    basis set group =>   2
Atom 135C    basis set group =>   2
Atom 136C    basis set group =>   2
Atom 137C    basis set group =>   2
Atom 138C    basis set group =>   2
Atom 139C    basis set group =>   2
Atom 140H    basis set group =>   4
Atom 141H    basis set group =>   4
Atom 142H    basis set group =>   4
Atom 143H    basis set group =>   4
Atom 144C    basis set group =>   2
Atom 145C    basis set group =>   2
Atom 146C    basis set group =>   2
Atom 147C    basis set group =>   2
Atom 148N    basis set group =>   3
Atom 149C    basis set group =>   2
Atom 150H    basis set group =>   4
Atom 151H    basis set group =>   4
Atom 152H    basis set group =>   4
Atom 153H    basis set group =>   4

-------------------------
BASIS SET IN INPUT FORMAT
-------------------------

 # Basis set for element : H 
 NewGTO H 
 S 3 
   1      13.0107010000      0.0334854848
   2       1.9622572000      0.2347218709
   3       0.4445379600      0.8137702853
 S 1 
   1       0.1219496200      1.0000000000
 P 1 
   1       0.8000000000      1.0000000000
  end;

 # Basis set for element : C 
 NewGTO C 
 S 5 
   1    1238.4016938000      0.0055173650
   2     186.2900499200      0.0410888285
   3      42.2511763460      0.1822538213
   4      11.6765579320      0.4682845944
   5       3.5930506482      0.4457581734
 S 1 
   1       0.4024514736      1.0000000000
 S 1 
   1       0.1309018267      1.0000000000
 P 3 
   1       9.4680970621      0.0568883320
   2       2.0103545142      0.3129405934
   3       0.5477100471      0.7606501651
 P 1 
   1       0.1526861379      1.0000000000
 D 1 
   1       0.8000000000      1.0000000000
  end;

 # Basis set for element : N 
 NewGTO N 
 S 5 
   1    1712.8415853000     -0.0054477995
   2     257.6481267700     -0.0406271746
   3      58.4582458530     -0.1811196225
   4      16.1983679050     -0.4684397556
   5       5.0052600809     -0.4461684629
 S 1 
   1       0.5873185657      1.0000000000
 S 1 
   1       0.1876459225      1.0000000000
 P 3 
   1      13.5714702330     -0.0588481170
   2       2.9257372874     -0.3202462476
   3       0.7992775075     -0.7532822652
 P 1 
   1       0.2195434803      1.0000000000
 D 1 
   1       1.0000000000      1.0000000000
  end;

 # Basis set for element : Pd
 NewGTO Pd
 S 3 
   1       8.4756400000      2.1727229431
   2       7.1657170000     -2.9039633126
   3       3.1821100000     -0.2310570076
 S 1 
   1       1.3973644196      1.0000000000
 S 1 
   1       0.6053295587      1.0000000000
 S 1 
   1       0.1022951421      1.0000000000
 S 1 
   1       0.0373389729      1.0000000000
 P 4 
   1       4.2460970000     -0.8346018694
   2       3.3925940000      0.8828643810
   3       1.1975891264      0.6438870170
   4       0.5267375059      0.2760105151
 P 1 
   1       0.2060709410      1.0000000000
 P 1 
   1       0.0370000000      1.0000000000
 D 4 
   1       7.3613290985     -0.0186922795
   2       2.6291037258      0.2533662423
   3       1.1292744634      0.4840070353
   4       0.4447165990      0.4270306822
 D 1 
   1       0.1554489384      1.0000000000
 F 1 
   1       1.2462900000      1.0000000000
  end;

-------------------------
ECP PARAMETER INFORMATION
-------------------------

 Group 1, Type Pd ECP Def2-ECP (replacing 28 core electrons, lmax=3)

Atom   0Pd   ECP group =>   1
Atom   1Pd   ECP group =>   1


-------------------------
ECP BASIS IN INPUT FORMAT
-------------------------

 #ECP Def2-ECP
 NewECP Pd
   N_core 28
   lmax f
   s 4
     1      12.4300000000    240.2290403000  2
     2       6.1707594000     35.1719435000  2
     3      13.2700000000     31.9295543000  2
     4       6.6300000000      5.3982169000  2
   p 4
     1      11.0800000000    170.4172760000  2
     2       5.8295541000     28.4721329000  2
     3      13.2700000000     31.9295543000  2
     4       6.6300000000      5.3982169000  2
   d 4
     1       9.5100000000     69.0138449000  2
     2       4.1397811000     11.7508616000  2
     3      13.2700000000     31.9295543000  2
     4       6.6300000000      5.3982169000  2
   f 2
     1      13.2700000000    -31.9295543000  2
     2       6.6300000000     -5.3982169000  2
 End




           ************************************************************
           *        Program running with 32 parallel MPI-processes    *
           *              working on a common directory               *
           ************************************************************
------------------------------------------------------------------------------
                           ORCA GTO INTEGRAL CALCULATION
------------------------------------------------------------------------------

                         BASIS SET STATISTICS AND STARTUP INFO

 # of primitive gaussian shells          ... 1470
 # of primitive gaussian functions       ... 2810
 # of contracted shells                  ...  766
 # of contracted basis functions         ... 1686
 Highest angular momentum                ...    3
 Maximum contraction depth               ...    5
 Integral package used                   ... LIBINT
 Integral threshhold            Thresh   ...  2.500e-11
 Primitive cut-off              TCut     ...  2.500e-12


------------------------------ INTEGRAL EVALUATION ----------------------------


 * One electron integrals 

   ECP integrals                         ... done
 Pre-screening matrix                    ... done
 Shell pair data                         ... done (   0.030 sec)



           ************************************************************
           *        Program running with 32 parallel MPI-processes    *
           *              working on a common directory               *
           ************************************************************
-------------------------------------------------------------------------------
                                 ORCA SCF
-------------------------------------------------------------------------------

------------
SCF SETTINGS
------------
Hamiltonian:
 Density Functional     Method          .... DFT(GTOs)
 Exchange Functional    Exchange        .... PBE
   PBE kappa parameter   XKappa         ....  0.804000
   PBE mue parameter    XMuePBE         ....  0.219520
 Correlation Functional Correlation     .... PBE
   PBE beta parameter  CBetaPBE         ....  0.066725
 LDA part of GGA corr.  LDAOpt          .... PW91-LDA
 Gradients option       PostSCFGGA      .... off
 Hybrid DFT is turned on
   Fraction HF Exchange ScalHFX         ....  0.250000
   Scaling of DF-GGA-X  ScalDFX         ....  0.750000
   Scaling of DF-GGA-C  ScalDFC         ....  1.000000
   Scaling of DF-LDA-C  ScalLDAC        ....  1.000000
   Perturbative correction              ....  0.000000
   Density functional embedding theory  .... OFF
   NL short-range parameter             ....  6.900000


General Settings:
 Integral files         IntName         .... _s_5d1_d_PBE0
 Hartree-Fock type      HFTyp           .... RHF
 Total Charge           Charge          ....    4
 Multiplicity           Mult            ....    1
 Number of Electrons    NEL             ....  672
 Basis Dimension        Dim             .... 1686
 Nuclear Repulsion      ENuc            ....  17951.7483363090 Eh

Convergence Acceleration:
 DIIS                   CNVDIIS         .... on
   Start iteration      DIISMaxIt       ....     0
   Startup error        DIISStart       ....  0.200000
   # of expansion vecs  DIISMaxEq       ....     5
   Bias factor          DIISBfac        ....   1.050
   Max. coefficient     DIISMaxC        ....  10.000
 Newton-Raphson         CNVNR           .... off
 SOSCF                  CNVSOSCF        .... off
 Level Shifting         CNVShift        .... on
   Level shift para.    LevelShift      ....    0.2500
   Turn off err/grad.   ShiftErr        ....    0.0000
 Zerner damping         CNVZerner       .... off
 Static damping         CNVDamp         .... on
   Fraction old density DampFac         ....    0.8500
   Max. Damping (<1)    DampMax         ....    0.9800
   Min. Damping (>=0)   DampMin         ....    0.0000
   Turn off err/grad.   DampErr         ....    0.0300
 Fernandez-Rico         CNVRico         .... off

SCF Procedure:
 Maximum # iterations   MaxIter         ....  2000
 SCF integral mode      SCFMode         .... Direct
   Integral package                     .... LIBINT
 Reset frequency        DirectResetFreq ....    20
 Integral Threshold     Thresh          ....  2.500e-11 Eh
 Primitive CutOff       TCut            ....  2.500e-12 Eh

Convergence Tolerance:
 Convergence Check Mode ConvCheckMode   .... Total+1el-Energy
 Convergence forced     ConvForced      .... 0
 Energy Change          TolE            ....  1.000e-08 Eh
 1-El. energy change                    ....  1.000e-05 Eh
 DIIS Error             TolErr          ....  5.000e-07


Diagonalization of the overlap matrix:
Smallest eigenvalue                        ... 2.468e-04
Time for diagonalization                   ...    0.684 sec
Threshold for overlap eigenvalues          ... 1.000e-08
Number of eigenvalues below threshold      ... 0
Time for construction of square roots      ...    0.457 sec
Total time needed                          ...    1.146 sec

-------------------
DFT GRID GENERATION
-------------------

General Integration Accuracy     IntAcc      ...  5.340
Radial Grid Type                 RadialGrid  ... Gauss-Chebyshev
Angular Grid (max. acc.)         AngularGrid ... Lebedev-590
Angular grid pruning method      GridPruning ... 3 (G Style)
Weight generation scheme         WeightScheme... Becke
Basis function cutoff            BFCut       ...    1.0000e-11
Integration weight cutoff        WCut        ...    1.0000e-14
Grids for H and He will be reduced by one unit

# of grid points (after initial pruning)     ... 2250644 (   0.0 sec)
# of grid points (after weights+screening)   ... 1846353 (   9.3 sec)
nearest neighbour list constructed           ...    0.0 sec
Grid point re-assignment to atoms done       ...    0.2 sec
Grid point division into batches done        ...   19.0 sec
Reduced shell lists constructed in   20.0 sec

Total number of grid points                  ...  1846353
Total number of batches                      ...    28929
Average number of points per batch           ...       63
Average number of grid points per atom       ...    11989
Average number of shells per batch           ...   145.11 (18.94%)
Average number of basis functions per batch  ...   293.17 (17.39%)
Average number of large shells per batch     ...    82.06 (56.55%)
Average number of large basis fcns per batch ...   169.66 (57.87%)
Maximum spatial batch extension              ...  11.65,  5.35, 15.75 au
Average spatial batch extension              ...   0.03,  0.03,  0.03 au

Time for grid setup =   31.336 sec

------------------------------
INITIAL GUESS: MODEL POTENTIAL
------------------------------
Loading Hartree-Fock densities                     ... done
  calling /work/e05/e05/atarzia/orca_4_2_1_linux_x86-64_openmpi314/orca _s_5d1_d_PBE0_atom46.inp > _s_5d1_d_PBE0_atom46.out in order to generate an atomic fitting density for atom 0 (Pd with ECP) on-the-fly... 
    atom 0 (Pd), assumed electronic state with S=3: 1s2 2s2 2p6 3s2 3p6 4s2 3d10 4p6 5s2 4d8           ... done
Calculating cut-offs                               ... done
Setting up the integral package                    ... done
Initializing the effective Hamiltonian             ... done
Starting the Coulomb interaction                   ... done (   0.7 sec)
Reading the grid                                   ... done
Mapping shells                                     ... done
Starting the XC term evaluation                    ... done (   1.0 sec)
  promolecular density results
     # of electrons  =    731.959283862
     EX              =   -796.623830307
     EC              =    -26.479740639
     EX+EC           =   -823.103570947
Transforming the Hamiltonian                       ... done (   0.2 sec)
Diagonalizing the Hamiltonian                      ... done (   0.4 sec)
Back transforming the eigenvectors                 ... done (   0.1 sec)
Now organizing SCF variables                       ... done
                      ------------------
                      INITIAL GUESS DONE (  58.8 sec)
                      ------------------
--------------
SCF ITERATIONS
--------------
ITER       Energy         Delta-E        Max-DP      RMS-DP      [F,P]     Damp
               ***  Starting incremental Fock matrix formation  ***
  0  -4071.2585504160   0.000000000000 0.03228316  0.00038812  0.4573856 0.8500
  1  -4071.5448828765  -0.286332460582 0.02758643  0.00036048  0.3872193 0.8500
                               ***Turning on DIIS***
  2  -4071.7537299262  -0.208847049682 0.02259967  0.00028817  0.3269903 0.8500
  3  -4071.8979169801  -0.144187053913 0.01765609  0.00019633  0.2761074 0.8500
  4  -4072.0055283536  -0.107611373420 0.01407612  0.00014760  0.2336707 0.8500
  5  -4072.0885663784  -0.083038024888 0.01152717  0.00011955  0.1982094 0.8500
  6  -4072.1555245242  -0.066958145762 0.00972711  0.00010023  0.1684274 0.8500
  7  -4072.2109333985  -0.055408874341 0.00833326  0.00008611  0.1432346 0.8500
  8  -4072.2574739112  -0.046540512700 0.00726632  0.00007406  0.1218253 0.8500
  9  -4072.2964788875  -0.039004976243 0.00624572  0.00006309  0.1035312 0.8500
 10  -4072.3291211793  -0.032642291844 0.00526299  0.00005347  0.0879294 0.8500
 11  -4072.3564922362  -0.027371056887 0.00441862  0.00004526  0.0746876 0.8500
 12  -4072.3795143493  -0.023022113084 0.00374129  0.00003839  0.0634683 0.8500
 13  -4072.3989224038  -0.019408054472 0.00319883  0.00003261  0.0539478 0.8500
 14  -4072.4153020704  -0.016379666664 0.00273290  0.00002769  0.0458476 0.8500
 15  -4072.4291376241  -0.013835553651 0.00231737  0.00002350  0.0389529 0.8500
 16  -4072.4408353583  -0.011697734211 0.00195785  0.00001993  0.0330940 0.8500
 17  -4072.4507352151  -0.009899856836 0.01106180  0.00011272  0.0281215 0.0000
 18  -4072.5061379374  -0.055402722224 0.00026556  0.00000255  0.0001945 0.0000
 19  -4072.5061411726  -0.000003235265 0.00015722  0.00000103  0.0000812 0.0000
               *** Restarting incremental Fock matrix formation ***
                                   *** Resetting DIIS ***
 20  -4072.5061411716   0.000000001022 0.00013189  0.00000074  0.0000500 0.0000
 21  -4072.5061410224   0.000000149223 0.00005185  0.00000027  0.0000620 0.0000
 22  -4072.5061411525  -0.000000130138 0.00001922  0.00000014  0.0000179 0.0000
 23  -4072.5061412044  -0.000000051896 0.00001633  0.00000014  0.0000057 0.0000
 24  -4072.5061411641   0.000000040342 0.00000517  0.00000005  0.0000020 0.0000
                            ***DIIS convergence achieved***

               *****************************************************
               *                     SUCCESS                       *
               *           SCF CONVERGED AFTER  25 CYCLES          *
               *****************************************************


----------------
TOTAL SCF ENERGY
----------------

Total Energy       :        -4072.50614115 Eh         -110818.52601 eV

Components:
Nuclear Repulsion  :        17951.74833631 Eh          488491.90668 eV
Electronic Energy  :       -22024.25447746 Eh         -599310.43269 eV
One Electron Energy:       -41221.26333329 Eh        -1121687.60079 eV
Two Electron Energy:        19197.00885583 Eh          522377.16811 eV

Virial components:
Potential Energy   :        -7948.76857070 Eh         -216296.98914 eV
Kinetic Energy     :         3876.26242955 Eh          105478.46313 eV
Virial Ratio       :            2.05062704


DFT components:
N(Alpha)           :      335.999922408527 electrons
N(Beta)            :      335.999922408527 electrons
N(Total)           :      671.999844817055 electrons
E(X)               :     -412.581765665903 Eh       
E(C)               :      -23.066420474402 Eh       
E(XC)              :     -435.648186140305 Eh       
DFET-embed. en.    :        0.000000000000 Eh       

---------------
SCF CONVERGENCE
---------------

  Last Energy change         ...    1.5854e-08  Tolerance :   1.0000e-08
  Last MAX-Density change    ...    4.8100e-06  Tolerance :   1.0000e-07
  Last RMS-Density change    ...    4.1671e-08  Tolerance :   5.0000e-09
  Last DIIS Error            ...    8.3168e-07  Tolerance :   5.0000e-07

             **** THE GBW FILE WAS UPDATED (_s_5d1_d_PBE0.gbw) ****
             **** DENSITY FILE WAS UPDATED (_s_5d1_d_PBE0.scfp) ****
             **** ENERGY FILE WAS UPDATED (_s_5d1_d_PBE0.en.tmp) ****
             **** THE GBW FILE WAS UPDATED (_s_5d1_d_PBE0.gbw) ****
             **** DENSITY FILE WAS UPDATED (_s_5d1_d_PBE0.scfp) ****
----------------
ORBITAL ENERGIES
----------------

  NO   OCC          E(Eh)            E(eV) 
   0   2.0000     -14.761888      -401.6914 
   1   2.0000     -14.761839      -401.6901 
   2   2.0000     -14.761780      -401.6885 
   3   2.0000     -14.761710      -401.6866 
   4   2.0000     -14.758205      -401.5912 
   5   2.0000     -14.758166      -401.5901 
   6   2.0000     -14.758122      -401.5889 
   7   2.0000     -14.758091      -401.5881 
   8   2.0000     -10.596196      -288.3372 
   9   2.0000     -10.596134      -288.3355 
  10   2.0000     -10.596060      -288.3335 
  11   2.0000     -10.596006      -288.3320 
  12   2.0000     -10.592064      -288.2247 
  13   2.0000     -10.592011      -288.2233 
  14   2.0000     -10.591911      -288.2206 
  15   2.0000     -10.591790      -288.2173 
  16   2.0000     -10.589786      -288.1627 
  17   2.0000     -10.589661      -288.1593 
  18   2.0000     -10.589556      -288.1565 
  19   2.0000     -10.589472      -288.1542 
  20   2.0000     -10.586324      -288.0685 
  21   2.0000     -10.586287      -288.0675 
  22   2.0000     -10.586198      -288.0651 
  23   2.0000     -10.586146      -288.0637 
  24   2.0000     -10.559858      -287.3483 
  25   2.0000     -10.559813      -287.3471 
  26   2.0000     -10.559700      -287.3440 
  27   2.0000     -10.559546      -287.3399 
  28   2.0000     -10.554186      -287.1940 
  29   2.0000     -10.554119      -287.1922 
  30   2.0000     -10.554009      -287.1892 
  31   2.0000     -10.553947      -287.1875 
  32   2.0000     -10.552477      -287.1475 
  33   2.0000     -10.552407      -287.1456 
  34   2.0000     -10.552323      -287.1433 
  35   2.0000     -10.552146      -287.1385 
  36   2.0000     -10.550909      -287.1048 
  37   2.0000     -10.550836      -287.1028 
  38   2.0000     -10.550737      -287.1001 
  39   2.0000     -10.550655      -287.0979 
  40   2.0000     -10.549625      -287.0699 
  41   2.0000     -10.549569      -287.0684 
  42   2.0000     -10.549460      -287.0654 
  43   2.0000     -10.549452      -287.0652 
  44   2.0000     -10.547676      -287.0169 
  45   2.0000     -10.547568      -287.0139 
  46   2.0000     -10.547454      -287.0108 
  47   2.0000     -10.547331      -287.0075 
  48   2.0000     -10.545625      -286.9610 
  49   2.0000     -10.545578      -286.9598 
  50   2.0000     -10.545438      -286.9559 
  51   2.0000     -10.545383      -286.9545 
  52   2.0000     -10.528690      -286.5002 
  53   2.0000     -10.528642      -286.4989 
  54   2.0000     -10.528525      -286.4957 
  55   2.0000     -10.528376      -286.4917 
  56   2.0000     -10.526598      -286.4433 
  57   2.0000     -10.526566      -286.4424 
  58   2.0000     -10.526494      -286.4405 
  59   2.0000     -10.526444      -286.4391 
  60   2.0000     -10.526431      -286.4387 
  61   2.0000     -10.526319      -286.4357 
  62   2.0000     -10.526285      -286.4348 
  63   2.0000     -10.526212      -286.4328 
  64   2.0000     -10.525200      -286.4052 
  65   2.0000     -10.525135      -286.4035 
  66   2.0000     -10.525003      -286.3999 
  67   2.0000     -10.524923      -286.3977 
  68   2.0000     -10.518813      -286.2315 
  69   2.0000     -10.518780      -286.2306 
  70   2.0000     -10.518653      -286.2271 
  71   2.0000     -10.518592      -286.2254 
  72   2.0000     -10.518528      -286.2237 
  73   2.0000     -10.518514      -286.2233 
  74   2.0000     -10.518419      -286.2207 
  75   2.0000     -10.518312      -286.2178 
  76   2.0000     -10.508967      -285.9635 
  77   2.0000     -10.508923      -285.9623 
  78   2.0000     -10.508771      -285.9582 
  79   2.0000     -10.508745      -285.9575 
  80   2.0000     -10.508017      -285.9377 
  81   2.0000     -10.507964      -285.9362 
  82   2.0000     -10.507877      -285.9339 
  83   2.0000     -10.507664      -285.9281 
  84   2.0000     -10.504796      -285.8500 
  85   2.0000     -10.504763      -285.8491 
  86   2.0000     -10.504618      -285.8452 
  87   2.0000     -10.504559      -285.8436 
  88   2.0000     -10.504164      -285.8328 
  89   2.0000     -10.504103      -285.8312 
  90   2.0000     -10.504006      -285.8285 
  91   2.0000     -10.503835      -285.8239 
  92   2.0000     -10.497824      -285.6603 
  93   2.0000     -10.497760      -285.6586 
  94   2.0000     -10.497676      -285.6563 
  95   2.0000     -10.497461      -285.6504 
  96   2.0000      -3.860047      -105.0372 
  97   2.0000      -3.859989      -105.0356 
  98   2.0000      -2.537873       -69.0590 
  99   2.0000      -2.537857       -69.0586 
 100   2.0000      -2.537630       -69.0524 
 101   2.0000      -2.537466       -69.0480 
 102   2.0000      -2.500980       -68.0551 
 103   2.0000      -2.500943       -68.0541 
 104   2.0000      -1.314388       -35.7663 
 105   2.0000      -1.314287       -35.7636 
 106   2.0000      -1.307874       -35.5891 
 107   2.0000      -1.307824       -35.5877 
 108   2.0000      -1.305578       -35.5266 
 109   2.0000      -1.305508       -35.5247 
 110   2.0000      -1.305008       -35.5111 
 111   2.0000      -1.304919       -35.5087 
 112   2.0000      -1.184999       -32.2455 
 113   2.0000      -1.184902       -32.2428 
 114   2.0000      -1.184257       -32.2253 
 115   2.0000      -1.184182       -32.2232 
 116   2.0000      -1.171415       -31.8758 
 117   2.0000      -1.171300       -31.8727 
 118   2.0000      -1.170915       -31.8622 
 119   2.0000      -1.170808       -31.8593 
 120   2.0000      -1.137586       -30.9553 
 121   2.0000      -1.137422       -30.9508 
 122   2.0000      -1.136066       -30.9139 
 123   2.0000      -1.136011       -30.9124 
 124   2.0000      -1.119359       -30.4593 
 125   2.0000      -1.119241       -30.4561 
 126   2.0000      -1.119133       -30.4532 
 127   2.0000      -1.119081       -30.4518 
 128   2.0000      -1.108497       -30.1637 
 129   2.0000      -1.108392       -30.1609 
 130   2.0000      -1.108288       -30.1581 
 131   2.0000      -1.108088       -30.1526 
 132   2.0000      -1.096326       -29.8325 
 133   2.0000      -1.096161       -29.8281 
 134   2.0000      -1.094678       -29.7877 
 135   2.0000      -1.094630       -29.7864 
 136   2.0000      -1.077005       -29.3068 
 137   2.0000      -1.076577       -29.2951 
 138   2.0000      -1.076508       -29.2933 
 139   2.0000      -1.076269       -29.2868 
 140   2.0000      -1.061235       -28.8777 
 141   2.0000      -1.060729       -28.8639 
 142   2.0000      -1.060683       -28.8627 
 143   2.0000      -1.060321       -28.8528 
 144   2.0000      -1.040945       -28.3255 
 145   2.0000      -1.040874       -28.3236 
 146   2.0000      -1.040761       -28.3206 
 147   2.0000      -1.040604       -28.3163 
 148   2.0000      -1.010445       -27.4956 
 149   2.0000      -1.010226       -27.4897 
 150   2.0000      -1.010129       -27.4870 
 151   2.0000      -1.009991       -27.4833 
 152   2.0000      -0.979668       -26.6581 
 153   2.0000      -0.979365       -26.6499 
 154   2.0000      -0.978204       -26.6183 
 155   2.0000      -0.978142       -26.6166 
 156   2.0000      -0.970803       -26.4169 
 157   2.0000      -0.970767       -26.4159 
 158   2.0000      -0.970522       -26.4093 
 159   2.0000      -0.970334       -26.4041 
 160   2.0000      -0.961746       -26.1704 
 161   2.0000      -0.961505       -26.1639 
 162   2.0000      -0.958816       -26.0907 
 163   2.0000      -0.958784       -26.0898 
 164   2.0000      -0.952003       -25.9053 
 165   2.0000      -0.951833       -25.9007 
 166   2.0000      -0.949778       -25.8448 
 167   2.0000      -0.949731       -25.8435 
 168   2.0000      -0.934475       -25.4284 
 169   2.0000      -0.934427       -25.4271 
 170   2.0000      -0.934034       -25.4164 
 171   2.0000      -0.934028       -25.4162 
 172   2.0000      -0.903840       -24.5947 
 173   2.0000      -0.903377       -24.5821 
 174   2.0000      -0.902598       -24.5609 
 175   2.0000      -0.902549       -24.5596 
 176   2.0000      -0.898159       -24.4401 
 177   2.0000      -0.897862       -24.4321 
 178   2.0000      -0.895137       -24.3579 
 179   2.0000      -0.895078       -24.3563 
 180   2.0000      -0.876742       -23.8574 
 181   2.0000      -0.871763       -23.7219 
 182   2.0000      -0.865909       -23.5626 
 183   2.0000      -0.864542       -23.5254 
 184   2.0000      -0.864516       -23.5247 
 185   2.0000      -0.860384       -23.4122 
 186   2.0000      -0.856662       -23.3110 
 187   2.0000      -0.856636       -23.3103 
 188   2.0000      -0.850042       -23.1308 
 189   2.0000      -0.849487       -23.1157 
 190   2.0000      -0.847173       -23.0528 
 191   2.0000      -0.847111       -23.0511 
 192   2.0000      -0.833265       -22.6743 
 193   2.0000      -0.832958       -22.6659 
 194   2.0000      -0.826128       -22.4801 
 195   2.0000      -0.826091       -22.4791 
 196   2.0000      -0.824544       -22.4370 
 197   2.0000      -0.824527       -22.4365 
 198   2.0000      -0.824392       -22.4329 
 199   2.0000      -0.824349       -22.4317 
 200   2.0000      -0.821619       -22.3574 
 201   2.0000      -0.820966       -22.3396 
 202   2.0000      -0.818399       -22.2698 
 203   2.0000      -0.818368       -22.2689 
 204   2.0000      -0.790600       -21.5133 
 205   2.0000      -0.790416       -21.5083 
 206   2.0000      -0.788400       -21.4535 
 207   2.0000      -0.788002       -21.4426 
 208   2.0000      -0.786052       -21.3896 
 209   2.0000      -0.784723       -21.3534 
 210   2.0000      -0.780851       -21.2480 
 211   2.0000      -0.780824       -21.2473 
 212   2.0000      -0.779544       -21.2125 
 213   2.0000      -0.778531       -21.1849 
 214   2.0000      -0.776107       -21.1189 
 215   2.0000      -0.776011       -21.1163 
 216   2.0000      -0.773864       -21.0579 
 217   2.0000      -0.773851       -21.0576 
 218   2.0000      -0.768572       -20.9139 
 219   2.0000      -0.768455       -20.9107 
 220   2.0000      -0.762582       -20.7509 
 221   2.0000      -0.762515       -20.7491 
 222   2.0000      -0.762041       -20.7362 
 223   2.0000      -0.761123       -20.7112 
 224   2.0000      -0.759004       -20.6535 
 225   2.0000      -0.758759       -20.6469 
 226   2.0000      -0.757117       -20.6022 
 227   2.0000      -0.756986       -20.5986 
 228   2.0000      -0.755466       -20.5573 
 229   2.0000      -0.754452       -20.5297 
 230   2.0000      -0.753589       -20.5062 
 231   2.0000      -0.753430       -20.5019 
 232   2.0000      -0.752033       -20.4639 
 233   2.0000      -0.751986       -20.4626 
 234   2.0000      -0.748717       -20.3736 
 235   2.0000      -0.747820       -20.3492 
 236   2.0000      -0.747124       -20.3303 
 237   2.0000      -0.747078       -20.3290 
 238   2.0000      -0.742998       -20.2180 
 239   2.0000      -0.742943       -20.2165 
 240   2.0000      -0.742417       -20.2022 
 241   2.0000      -0.741722       -20.1833 
 242   2.0000      -0.737507       -20.0686 
 243   2.0000      -0.737458       -20.0673 
 244   2.0000      -0.736034       -20.0285 
 245   2.0000      -0.735553       -20.0154 
 246   2.0000      -0.731849       -19.9146 
 247   2.0000      -0.731831       -19.9141 
 248   2.0000      -0.725912       -19.7531 
 249   2.0000      -0.725650       -19.7459 
 250   2.0000      -0.711242       -19.3539 
[...]
 11 C      5.8707     6.0000     0.1293     3.8216     3.8216    -0.0000
 12 C      5.9891     6.0000     0.0109     3.8922     3.8922    -0.0000
 13 C      5.9401     6.0000     0.0599     3.9596     3.9596    -0.0000
 14 H      0.9350     1.0000     0.0650     0.9903     0.9903    -0.0000
 15 H      0.9208     1.0000     0.0792     0.9813     0.9813    -0.0000
 16 H      0.9527     1.0000     0.0473     0.9913     0.9913    -0.0000
 17 H      0.9359     1.0000     0.0641     0.9986     0.9986    -0.0000
 18 H      0.9434     1.0000     0.0566     0.9832     0.9832    -0.0000
 19 H      0.9732     1.0000     0.0268     1.0152     1.0152    -0.0000
 20 C      6.0579     6.0000    -0.0579     3.7808     3.7808    -0.0000
 21 C      5.9510     6.0000     0.0490     3.8510     3.8510    -0.0000
 22 C      5.9891     6.0000     0.0109     3.8844     3.8844    -0.0000
 23 C      6.0162     6.0000    -0.0162     3.8802     3.8802    -0.0000
 24 C      5.9622     6.0000     0.0378     3.8174     3.8174    -0.0000
 25 C      6.0152     6.0000    -0.0152     3.8712     3.8712    -0.0000
 26 H      0.9448     1.0000     0.0552     0.9899     0.9899    -0.0000
 27 H      0.9323     1.0000     0.0677     0.9821     0.9821    -0.0000
 28 H      0.9589     1.0000     0.0411     0.9890     0.9890    -0.0000
 29 H      1.0054     1.0000    -0.0054     0.9981     0.9981    -0.0000
 30 C      6.0353     6.0000    -0.0353     3.8966     3.8966    -0.0000
 31 C      5.9343     6.0000     0.0657     3.8887     3.8887    -0.0000
 32 C      6.0124     6.0000    -0.0124     3.9273     3.9273    -0.0000
 33 C      5.8754     6.0000     0.1246     3.8472     3.8472    -0.0000
 34 N      7.3100     7.0000    -0.3100     3.3757     3.3757    -0.0000
 35 C      5.8573     6.0000     0.1427     3.8865     3.8865    -0.0000
 36 H      0.9200     1.0000     0.0800     0.9908     0.9908    -0.0000
 37 H      0.9174     1.0000     0.0826     0.9855     0.9855    -0.0000
 38 H      0.9063     1.0000     0.0937     0.9768     0.9768    -0.0000
 39 H      0.9540     1.0000     0.0460     1.0080     1.0080    -0.0000
 40 C      5.9904     6.0000     0.0096     3.6936     3.6936    -0.0000
 41 C      6.0433     6.0000    -0.0433     3.7146     3.7146    -0.0000
 42 C      6.0149     6.0000    -0.0149     3.7535     3.7535    -0.0000
 43 C      5.9543     6.0000     0.0457     3.8300     3.8300    -0.0000
 44 C      5.9794     6.0000     0.0206     3.8449     3.8449    -0.0000
 45 C      5.9792     6.0000     0.0208     3.8374     3.8374    -0.0000
 46 C      6.0621     6.0000    -0.0621     3.8919     3.8919    -0.0000
 47 C      5.8398     6.0000     0.1602     3.8755     3.8755    -0.0000
 48 N      7.3212     7.0000    -0.3212     3.3504     3.3504    -0.0000
 49 C      5.8703     6.0000     0.1297     3.8219     3.8219    -0.0000
 50 C      5.9892     6.0000     0.0108     3.8933     3.8933    -0.0000
 51 C      5.9403     6.0000     0.0597     3.9601     3.9601    -0.0000
 52 H      0.9350     1.0000     0.0650     0.9903     0.9903    -0.0000
 53 H      0.9207     1.0000     0.0793     0.9813     0.9813    -0.0000
 54 H      0.9527     1.0000     0.0473     0.9913     0.9913    -0.0000
 55 H      0.9365     1.0000     0.0635     0.9988     0.9988    -0.0000
 56 H      0.9446     1.0000     0.0554     0.9833     0.9833    -0.0000
 57 H      0.9737     1.0000     0.0263     1.0154     1.0154    -0.0000
 58 C      6.0576     6.0000    -0.0576     3.7806     3.7806    -0.0000
 59 C      5.9511     6.0000     0.0489     3.8509     3.8509    -0.0000
 60 C      5.9892     6.0000     0.0108     3.8843     3.8843    -0.0000
 61 C      6.0162     6.0000    -0.0162     3.8802     3.8802    -0.0000
 62 C      5.9626     6.0000     0.0374     3.8174     3.8174    -0.0000
 63 C      6.0153     6.0000    -0.0153     3.8716     3.8716    -0.0000
 64 H      0.9448     1.0000     0.0552     0.9899     0.9899    -0.0000
 65 H      0.9325     1.0000     0.0675     0.9821     0.9821    -0.0000
 66 H      0.9593     1.0000     0.0407     0.9890     0.9890    -0.0000
 67 H      1.0050     1.0000    -0.0050     0.9980     0.9980    -0.0000
 68 C      6.0356     6.0000    -0.0356     3.8963     3.8963    -0.0000
 69 C      5.9340     6.0000     0.0660     3.8885     3.8885    -0.0000
 70 C      6.0124     6.0000    -0.0124     3.9266     3.9266    -0.0000
 71 C      5.8752     6.0000     0.1248     3.8472     3.8472    -0.0000
 72 N      7.3104     7.0000    -0.3104     3.3753     3.3753    -0.0000
 73 C      5.8581     6.0000     0.1419     3.8854     3.8854    -0.0000
 74 H      0.9199     1.0000     0.0801     0.9908     0.9908    -0.0000
 75 H      0.9173     1.0000     0.0827     0.9855     0.9855    -0.0000
 76 H      0.9060     1.0000     0.0940     0.9769     0.9769    -0.0000
 77 H      0.9530     1.0000     0.0470     1.0079     1.0079    -0.0000
 78 C      5.9908     6.0000     0.0092     3.6934     3.6934    -0.0000
 79 C      6.0428     6.0000    -0.0428     3.7147     3.7147    -0.0000
 80 C      6.0153     6.0000    -0.0153     3.7542     3.7542    -0.0000
 81 C      5.9542     6.0000     0.0458     3.8297     3.8297    -0.0000
 82 C      5.9795     6.0000     0.0205     3.8447     3.8447    -0.0000
 83 C      5.9793     6.0000     0.0207     3.8372     3.8372    -0.0000
 84 C      6.0619     6.0000    -0.0619     3.8911     3.8911    -0.0000
 85 C      5.8403     6.0000     0.1597     3.8747     3.8747    -0.0000
 86 N      7.3214     7.0000    -0.3214     3.3498     3.3498    -0.0000
 87 C      5.8712     6.0000     0.1288     3.8217     3.8217    -0.0000
 88 C      5.9890     6.0000     0.0110     3.8923     3.8923    -0.0000
 89 C      5.9402     6.0000     0.0598     3.9597     3.9597    -0.0000
 90 H      0.9349     1.0000     0.0651     0.9903     0.9903    -0.0000
 91 H      0.9208     1.0000     0.0792     0.9813     0.9813    -0.0000
 92 H      0.9527     1.0000     0.0473     0.9913     0.9913    -0.0000
 93 H      0.9357     1.0000     0.0643     0.9987     0.9987    -0.0000
 94 H      0.9436     1.0000     0.0564     0.9834     0.9834    -0.0000
 95 H      0.9733     1.0000     0.0267     1.0152     1.0152    -0.0000
 96 C      6.0580     6.0000    -0.0580     3.7807     3.7807    -0.0000
 97 C      5.9510     6.0000     0.0490     3.8509     3.8509    -0.0000
 98 C      5.9891     6.0000     0.0109     3.8843     3.8843    -0.0000
 99 C      6.0163     6.0000    -0.0163     3.8802     3.8802    -0.0000
100 C      5.9625     6.0000     0.0375     3.8173     3.8173    -0.0000
101 C      6.0152     6.0000    -0.0152     3.8713     3.8713    -0.0000
102 H      0.9447     1.0000     0.0553     0.9899     0.9899    -0.0000
103 H      0.9324     1.0000     0.0676     0.9821     0.9821    -0.0000
104 H      0.9591     1.0000     0.0409     0.9890     0.9890    -0.0000
105 H      1.0050     1.0000    -0.0050     0.9980     0.9980    -0.0000
106 C      6.0353     6.0000    -0.0353     3.8959     3.8959    -0.0000
107 C      5.9344     6.0000     0.0656     3.8887     3.8887    -0.0000
108 C      6.0123     6.0000    -0.0123     3.9268     3.9268    -0.0000
109 C      5.8762     6.0000     0.1238     3.8473     3.8473    -0.0000
110 N      7.3104     7.0000    -0.3104     3.3743     3.3743    -0.0000
111 C      5.8573     6.0000     0.1427     3.8864     3.8864    -0.0000
112 H      0.9199     1.0000     0.0801     0.9908     0.9908    -0.0000
113 H      0.9174     1.0000     0.0826     0.9855     0.9855    -0.0000
114 H      0.9063     1.0000     0.0937     0.9770     0.9770    -0.0000
115 H      0.9534     1.0000     0.0466     1.0079     1.0079    -0.0000
116 C      5.9908     6.0000     0.0092     3.6935     3.6935    -0.0000
117 C      6.0429     6.0000    -0.0429     3.7146     3.7146    -0.0000
118 C      6.0152     6.0000    -0.0152     3.7537     3.7537    -0.0000
119 C      5.9542     6.0000     0.0458     3.8299     3.8299    -0.0000
120 C      5.9795     6.0000     0.0205     3.8448     3.8448    -0.0000
121 C      5.9792     6.0000     0.0208     3.8373     3.8373    -0.0000
122 C      6.0620     6.0000    -0.0620     3.8916     3.8916    -0.0000
123 C      5.8399     6.0000     0.1601     3.8750     3.8750    -0.0000
124 N      7.3212     7.0000    -0.3212     3.3499     3.3499    -0.0000
125 C      5.8707     6.0000     0.1293     3.8220     3.8220    -0.0000
126 C      5.9892     6.0000     0.0108     3.8927     3.8927    -0.0000
127 C      5.9402     6.0000     0.0598     3.9598     3.9598    -0.0000
128 H      0.9350     1.0000     0.0650     0.9903     0.9903    -0.0000
129 H      0.9208     1.0000     0.0792     0.9813     0.9813    -0.0000
130 H      0.9527     1.0000     0.0473     0.9913     0.9913    -0.0000
131 H      0.9362     1.0000     0.0638     0.9988     0.9988    -0.0000
132 H      0.9443     1.0000     0.0557     0.9834     0.9834    -0.0000
133 H      0.9733     1.0000     0.0267     1.0152     1.0152    -0.0000
134 C      6.0578     6.0000    -0.0578     3.7806     3.7806    -0.0000
135 C      5.9511     6.0000     0.0489     3.8510     3.8510    -0.0000
136 C      5.9891     6.0000     0.0109     3.8844     3.8844    -0.0000
137 C      6.0163     6.0000    -0.0163     3.8802     3.8802    -0.0000
138 C      5.9624     6.0000     0.0376     3.8174     3.8174    -0.0000
139 C      6.0151     6.0000    -0.0151     3.8712     3.8712    -0.0000
140 H      0.9447     1.0000     0.0553     0.9899     0.9899    -0.0000
141 H      0.9324     1.0000     0.0676     0.9821     0.9821    -0.0000
142 H      0.9592     1.0000     0.0408     0.9890     0.9890    -0.0000
143 H      1.0053     1.0000    -0.0053     0.9981     0.9981    -0.0000
144 C      6.0350     6.0000    -0.0350     3.8958     3.8958    -0.0000
145 C      5.9343     6.0000     0.0657     3.8886     3.8886    -0.0000
146 C      6.0122     6.0000    -0.0122     3.9266     3.9266    -0.0000
147 C      5.8759     6.0000     0.1241     3.8472     3.8472    -0.0000
148 N      7.3105     7.0000    -0.3105     3.3747     3.3747    -0.0000
149 C      5.8582     6.0000     0.1418     3.8859     3.8859    -0.0000
150 H      0.9200     1.0000     0.0800     0.9908     0.9908    -0.0000
151 H      0.9174     1.0000     0.0826     0.9855     0.9855    -0.0000
152 H      0.9057     1.0000     0.0943     0.9768     0.9768    -0.0000
153 H      0.9530     1.0000     0.0470     1.0078     1.0078    -0.0000

  Mayer bond orders larger than 0.100000
B(  0-Pd, 34-N ) :   0.5363 B(  0-Pd, 48-N ) :   0.5350 B(  0-Pd,110-N ) :   0.5354 
B(  0-Pd,124-N ) :   0.5353 B(  1-Pd, 10-N ) :   0.5363 B(  1-Pd, 72-N ) :   0.5367 
B(  1-Pd, 86-N ) :   0.5355 B(  1-Pd,148-N ) :   0.5360 B(  2-C ,  3-C ) :   2.5950 
B(  2-C , 20-C ) :   0.9999 B(  3-C ,  4-C ) :   1.0060 B(  4-C ,  5-C ) :   1.4277 
B(  4-C , 13-C ) :   1.2443 B(  5-C ,  6-C ) :   1.2696 B(  5-C , 14-H ) :   0.9921 
B(  6-C ,  7-C ) :   1.4708 B(  6-C , 15-H ) :   0.9801 B(  7-C ,  8-C ) :   1.2405 
B(  7-C , 16-H ) :   0.9957 B(  8-C ,  9-C ) :   1.2817 B(  8-C , 13-C ) :   1.2272 
B(  9-C , 10-N ) :   1.4537 B(  9-C , 17-H ) :   0.9584 B( 10-N , 11-C ) :   1.1677 
B( 11-C , 12-C ) :   1.5398 B( 11-C , 18-H ) :   0.9373 B( 12-C , 13-C ) :   1.2891 
B( 12-C , 19-H ) :   0.9535 B( 20-C , 21-C ) :   1.3370 B( 20-C , 25-C ) :   1.3458 
B( 21-C , 22-C ) :   1.3835 B( 21-C , 26-H ) :   0.9956 B( 22-C , 23-C ) :   1.3956 
B( 22-C , 27-H ) :   0.9830 B( 23-C , 24-C ) :   1.3563 B( 23-C , 28-H ) :   0.9889 
B( 24-C , 25-C ) :   1.3646 B( 24-C , 30-C ) :   1.0051 B( 25-C , 29-H ) :   0.9864 
B( 30-C , 31-C ) :   1.3803 B( 30-C , 35-C ) :   1.3939 B( 31-C , 32-C ) :   1.3989 
B( 31-C , 36-H ) :   0.9800 B( 32-C , 33-C ) :   1.4336 B( 32-C , 37-H ) :   0.9712 
B( 33-C , 34-N ) :   1.2928 B( 33-C , 38-H ) :   0.9422 B( 34-N , 35-C ) :   1.3539 
B( 35-C , 39-H ) :   0.9571 B( 40-C , 41-C ) :   2.5948 B( 40-C , 58-C ) :   1.0002 
B( 41-C , 42-C ) :   1.0062 B( 42-C , 43-C ) :   1.4274 B( 42-C , 51-C ) :   1.2441 
B( 43-C , 44-C ) :   1.2697 B( 43-C , 52-H ) :   0.9921 B( 44-C , 45-C ) :   1.4707 
B( 44-C , 53-H ) :   0.9801 B( 45-C , 46-C ) :   1.2406 B( 45-C , 54-H ) :   0.9957 
B( 46-C , 47-C ) :   1.2817 B( 46-C , 51-C ) :   1.2273 B( 47-C , 48-N ) :   1.4547 
B( 47-C , 55-H ) :   0.9587 B( 48-N , 49-C ) :   1.1675 B( 49-C , 50-C ) :   1.5407 
B( 49-C , 56-H ) :   0.9375 B( 50-C , 51-C ) :   1.2893 B( 50-C , 57-H ) :   0.9532 
B( 58-C , 59-C ) :   1.3369 B( 58-C , 63-C ) :   1.3456 B( 59-C , 60-C ) :   1.3836 
B( 59-C , 64-H ) :   0.9956 B( 60-C , 61-C ) :   1.3954 B( 60-C , 65-H ) :   0.9830 
B( 61-C , 62-C ) :   1.3563 B( 61-C , 66-H ) :   0.9890 B( 62-C , 63-C ) :   1.3650 
B( 62-C , 68-C ) :   1.0047 B( 63-C , 67-H ) :   0.9864 B( 68-C , 69-C ) :   1.3801 
B( 68-C , 73-C ) :   1.3945 B( 69-C , 70-C ) :   1.3990 B( 69-C , 74-H ) :   0.9801 
B( 70-C , 71-C ) :   1.4330 B( 70-C , 75-H ) :   0.9712 B( 71-C , 72-N ) :   1.2933 
B( 71-C , 76-H ) :   0.9421 B( 72-N , 73-C ) :   1.3528 B( 73-C , 77-H ) :   0.9567 
B( 78-C , 79-C ) :   2.5948 B( 78-C , 96-C ) :   1.0000 B( 79-C , 80-C ) :   1.0064 
B( 80-C , 81-C ) :   1.4275 B( 80-C , 89-C ) :   1.2444 B( 81-C , 82-C ) :   1.2696 
B( 81-C , 90-H ) :   0.9921 B( 82-C , 83-C ) :   1.4707 B( 82-C , 91-H ) :   0.9801 
B( 83-C , 84-C ) :   1.2405 B( 83-C , 92-H ) :   0.9957 B( 84-C , 85-C ) :   1.2813 
B( 84-C , 89-C ) :   1.2273 B( 85-C , 86-N ) :   1.4542 B( 85-C , 93-H ) :   0.9585 
B( 86-N , 87-C ) :   1.1674 B( 87-C , 88-C ) :   1.5399 B( 87-C , 94-H ) :   0.9374 
B( 88-C , 89-C ) :   1.2890 B( 88-C , 95-H ) :   0.9535 B( 96-C , 97-C ) :   1.3371 
B( 96-C ,101-C ) :   1.3456 B( 97-C , 98-C ) :   1.3834 B( 97-C ,102-H ) :   0.9956 
B( 98-C , 99-C ) :   1.3956 B( 98-C ,103-H ) :   0.9830 B( 99-C ,100-C ) :   1.3562 
B( 99-C ,104-H ) :   0.9890 B(100-C ,101-C ) :   1.3648 B(100-C ,106-C ) :   1.0049 
B(101-C ,105-H ) :   0.9865 B(106-C ,107-C ) :   1.3803 B(106-C ,111-C ) :   1.3939 
B(107-C ,108-C ) :   1.3989 B(107-C ,112-H ) :   0.9801 B(108-C ,109-C ) :   1.4334 
B(108-C ,113-H ) :   0.9712 B(109-C ,110-N ) :   1.2927 B(109-C ,114-H ) :   0.9423 
B(110-N ,111-C ) :   1.3541 B(111-C ,115-H ) :   0.9569 B(116-C ,117-C ) :   2.5950 
B(116-C ,134-C ) :   0.9999 B(117-C ,118-C ) :   1.0061 B(118-C ,119-C ) :   1.4274 
B(118-C ,127-C ) :   1.2444 B(119-C ,120-C ) :   1.2697 B(119-C ,128-H ) :   0.9921 
B(120-C ,121-C ) :   1.4707 B(120-C ,129-H ) :   0.9801 B(121-C ,122-C ) :   1.2405 
B(121-C ,130-H ) :   0.9957 B(122-C ,123-C ) :   1.2816 B(122-C ,127-C ) :   1.2273 
B(123-C ,124-N ) :   1.4545 B(123-C ,131-H ) :   0.9584 B(124-N ,125-C ) :   1.1675 
B(125-C ,126-C ) :   1.5403 B(125-C ,132-H ) :   0.9376 B(126-C ,127-C ) :   1.2890 
B(126-C ,133-H ) :   0.9534 B(134-C ,135-C ) :   1.3370 B(134-C ,139-C ) :   1.3456 
B(135-C ,136-C ) :   1.3836 B(135-C ,140-H ) :   0.9956 B(136-C ,137-C ) :   1.3955 
B(136-C ,141-H ) :   0.9830 B(137-C ,138-C ) :   1.3563 B(137-C ,142-H ) :   0.9890 
B(138-C ,139-C ) :   1.3648 B(138-C ,144-C ) :   1.0050 B(139-C ,143-H ) :   0.9864 
B(144-C ,145-C ) :   1.3801 B(144-C ,149-C ) :   1.3940 B(145-C ,146-C ) :   1.3989 
B(145-C ,150-H ) :   0.9801 B(146-C ,147-C ) :   1.4331 B(146-C ,151-H ) :   0.9712 
B(147-C ,148-N ) :   1.2930 B(147-C ,152-H ) :   0.9421 B(148-N ,149-C ) :   1.3534 
B(149-C ,153-H ) :   0.9570 

-------
TIMINGS
-------

Total SCF time: 0 days 0 hours 14 min 4 sec 

Total time                  ....     844.663 sec
Sum of individual times     ....     835.037 sec  ( 98.9%)

Fock matrix formation       ....     689.302 sec  ( 81.6%)
  XC integration            ....      33.765 sec  (  4.9% of F)
    Basis function eval.    ....       6.996 sec  ( 20.7% of XC)
    Density eval.           ....      11.258 sec  ( 33.3% of XC)
    XC-Functional eval.     ....       1.561 sec  (  4.6% of XC)
    XC-Potential eval.      ....       4.200 sec  ( 12.4% of XC)
Diagonalization             ....      16.296 sec  (  1.9%)
Density matrix formation    ....       0.948 sec  (  0.1%)
Population analysis         ....       4.018 sec  (  0.5%)
Initial guess               ....      27.455 sec  (  3.3%)
Orbital Transformation      ....       0.000 sec  (  0.0%)
Orbital Orthonormalization  ....       0.000 sec  (  0.0%)
DIIS solution               ....      65.682 sec  (  7.8%)
Grid generation             ....      31.336 sec  (  3.7%)


-------------------------------------------------------------------------------
                          DFT DISPERSION CORRECTION                            
                                                                               
                              DFTD3 V3.1  Rev 1                                
                          USING Becke-Johnson damping                          
-------------------------------------------------------------------------------
The PBE0 functional is recognized
Active option DFTDOPT                   ...         4   

molecular C6(AA) [au] = 365015.805696 


            DFT-D V3
 parameters
 s6 scaling factor         :     1.0000 
 a1 scaling factor         :     0.4145 
 s8 scaling factor         :     1.2177 
 a2 scaling factor         :     4.8593 
 ad hoc parameters k1-k3   :    16.0000     1.3333    -4.0000 

 Edisp/kcal,au: -155.706481321277  -0.248134046015 
 E6   /kcal   : -96.590697779 
 E8   /kcal   : -59.115783543 
 % E8         :  37.966167523 

-------------------------   ----------------
Dispersion correction           -0.248134046
-------------------------   ----------------


-------------------------   --------------------
FINAL SINGLE POINT ENERGY     -4072.754275194235
-------------------------   --------------------


                            ***************************************
                            *     ORCA property calculations      *
                            ***************************************

                                    ---------------------
                                    Active property flags
                                    ---------------------
   (+) Dipole Moment


------------------------------------------------------------------------------
                       ORCA ELECTRIC PROPERTIES CALCULATION
------------------------------------------------------------------------------

Dipole Moment Calculation                       ... on
Quadrupole Moment Calculation                   ... off
Polarizability Calculation                      ... off
GBWName                                         ... _s_5d1_d_PBE0.gbw
Electron density file                           ... _s_5d1_d_PBE0.scfp
The origin for moment calculation is the CENTER OF MASS  = (-0.982523, -1.723123 -1.297064)

-------------
DIPOLE MOMENT
-------------
                                X             Y             Z
Electronic contribution:      2.15571      -0.00344       1.10461
Nuclear contribution   :     -2.16962       0.01187      -1.11261
                        -----------------------------------------
Total Dipole Moment    :     -0.01390       0.00843      -0.00800
                        -----------------------------------------
Magnitude (a.u.)       :      0.01812
Magnitude (Debye)      :      0.04606



--------------------
Rotational spectrum 
--------------------
 
Rotational constants in cm-1:     0.000525     0.000421     0.000418 
Rotational constants in MHz :    15.737495    12.624530    12.517205 

 Dipole components along the rotational axes: 
x,y,z [a.u.] :     0.008145     0.003912    -0.015708 
x,y,z [Debye]:     0.020703     0.009943    -0.039926 

 

Timings for individual modules:

Sum of individual times         ...      869.040 sec (=  14.484 min)
GTO integral calculation        ...       16.081 sec (=   0.268 min)   1.9 %
SCF iterations                  ...      852.959 sec (=  14.216 min)  98.1 %
                             ****ORCA TERMINATED NORMALLY****
TOTAL RUN TIME: 0 days 0 hours 14 minutes 38 seconds 194 msec
