Job execution start: Tue Jun 22 17:20:40 BST 2021
Shared library path: /work/e05/e05/atarzia/orca_4_2_1_linux_x86-64_openmpi314:/work/e05/e05/atarzia/openmpi-3.1.4/lib:/opt/cray/pe/papi/6.0.0.4/lib64:/opt/cray/libfabric/1.11.0.0.233/lib64
Slurm Job ID is: 344739
Slurm Job name is: s_5d1_b_B97-3c
nid001558

                                 *****************
                                 * O   R   C   A *
                                 *****************

           --- An Ab Initio, DFT and Semiempirical electronic structure package ---

                  #######################################################
                  #                        -***-                        #
                  #          Department of theory and spectroscopy      #
                  #               Directorship: Frank Neese             #
                  #        Max Planck Institute fuer Kohlenforschung    #
                  #                Kaiser Wilhelm Platz 1               #
                  #                 D-45470 Muelheim/Ruhr               #
                  #                      Germany                        #
                  #                                                     #
                  #                  All rights reserved                #
                  #                        -***-                        #
                  #######################################################


                         Program Version 4.2.1 -  RELEASE  -


 With contributions from (in alphabetic order):
   Daniel Aravena         : Magnetic Suceptibility
   Michael Atanasov       : Ab Initio Ligand Field Theory (pilot matlab implementation)
   Alexander A. Auer      : GIAO ZORA, VPT2
   Ute Becker             : Parallelization
   Giovanni Bistoni       : ED, misc. LED, open-shell LED, HFLD
   Martin Brehm           : Molecular dynamics
   Dmytro Bykov           : SCF Hessian
   Vijay G. Chilkuri      : MRCI spin determinant printing, contributions to CSF-ICE
   Dipayan Datta          : RHF DLPNO-CCSD density
   Achintya Kumar Dutta   : EOM-CC, STEOM-CC
   Dmitry Ganyushin       : Spin-Orbit,Spin-Spin,Magnetic field MRCI
   Miquel Garcia          : C-PCM Hessian, Gaussian charge scheme
   Yang Guo               : DLPNO-NEVPT2, CIM, IAO-localization
   Andreas Hansen         : Spin unrestricted coupled pair/coupled cluster methods
   Benjamin Helmich-Paris : CASSCF linear response (MC-RPA)
   Lee Huntington         : MR-EOM, pCC
   Robert Izsak           : Overlap fitted RIJCOSX, COSX-SCS-MP3, EOM
   Christian Kollmar      : KDIIS, OOCD, Brueckner-CCSD(T), CCSD density
   Simone Kossmann        : Meta GGA functionals, TD-DFT gradient, OOMP2, MP2 Hessian
   Martin Krupicka        : AUTO-CI
   Lucas Lang             : DCDCAS
   Dagmar Lenk            : GEPOL surface, SMD
   Dimitrios Liakos       : Extrapolation schemes; Compound Job, initial MDCI parallelization
   Dimitrios Manganas     : Further ROCIS development; embedding schemes
   Dimitrios Pantazis     : SARC Basis sets
   Taras Petrenko         : DFT Hessian,TD-DFT gradient, ASA, ECA, R-Raman, ABS, FL, XAS/XES, NRVS
   Peter Pinski           : DLPNO-MP2, DLPNO-MP2 Gradient
   Christoph Reimann      : Effective Core Potentials
   Marius Retegan         : Local ZFS, SOC
   Christoph Riplinger    : Optimizer, TS searches, QM/MM, DLPNO-CCSD(T), (RO)-DLPNO pert. Triples
   Tobias Risthaus        : Range-separated hybrids, TD-DFT gradient, RPA, STAB
   Michael Roemelt        : Original ROCIS implementation
   Masaaki Saitow         : Open-shell DLPNO-CCSD energy and density
   Barbara Sandhoefer     : DKH picture change effects
   Avijit Sen             : IP-ROCIS
   Kantharuban Sivalingam : CASSCF convergence, NEVPT2, FIC-MRCI
   Bernardo de Souza      : ESD, SOC TD-DFT
   Georgi Stoychev        : AutoAux, RI-MP2 NMR
   Willem Van den Heuvel  : Paramagnetic NMR
   Boris Wezisla          : Elementary symmetry handling
   Frank Wennmohs         : Technical directorship


 We gratefully acknowledge several colleagues who have allowed us to
 interface, adapt or use parts of their codes:
   Stefan Grimme, W. Hujo, H. Kruse,             : VdW corrections, initial TS optimization,
                  C. Bannwarth                     DFT functionals, gCP, sTDA/sTD-DF
   Ed Valeev, F. Pavosevic, A. Kumar             : LibInt (2-el integral package), F12 methods
   Garnet Chan, S. Sharma, J. Yang, R. Olivares  : DMRG
   Ulf Ekstrom                                   : XCFun DFT Library
   Mihaly Kallay                                 : mrcc  (arbitrary order and MRCC methods)
   Andreas Klamt, Michael Diedenhofen            : otool_cosmo (COSMO solvation model)
   Jiri Pittner, Ondrej Demel                    : Mk-CCSD
   Frank Weinhold                                : gennbo (NPA and NBO analysis)
   Christopher J. Cramer and Donald G. Truhlar   : smd solvation model
   Lars Goerigk                                  : TD-DFT with DH, B97 family of functionals
   V. Asgeirsson, H. Jonsson                     : NEB implementation
   FAccTs GmbH                                   : IRC, NEB, NEB-TS, Multilevel, MM, QM/MM, CI optimization
   S Lehtola, MJT Oliveira, MAL Marques          : LibXC Library


 Your calculation uses the libint2 library for the computation of 2-el integrals
 For citations please refer to: http://libint.valeyev.net

 Your ORCA version has been built with support for libXC version: 4.2.3
 For citations please refer to: https://tddft.org/programs/libxc/

 This ORCA versions uses:
   CBLAS   interface :  Fast vector & matrix operations
   LAPACKE interface :  Fast linear algebra routines
   SCALAPACK package :  Parallel linear algebra routines




***************************************
The coordinates will be read from file: s_5d1_b.xyz
***************************************


Your calculation utilizes the atom-pairwise dispersion correction
with the Becke-Johnson damping scheme (D3BJ)
Cite in your paper:
S.Grimme, S.Ehrlich, L.Goerigk, J Comput Chem, (2011), 32, 1456–1465 
S.Grimme, J.Antony, S.Ehrlich and H.Krieg, J.Chem.Phys., 132, (2010), 154104 
   

Your calculation employs the composite approach B97-3c by Grimme and coworkers.
For the correct reference, please check the publication list of the Grimme group:
http://www.thch.uni-bonn.de/tc/index.php?section=publikationen&subsection=grimme#2017
   

XCFun DFT library Copyright 2009-2010 Ulf Ekstrom and contributors.
See http://admol.org/xcfun for more information. This is free soft-
ware; see the source code for copying conditions. There is ABSOLUTELY
NO WARRANTY; not even for MERCHANTABILITY or FITNESS FOR A PARTICULAR
PURPOSE. For details see the documentation. Scientific users of this 
library should cite U. Ekstrom, L. Visscher, R. Bast, A. J. Thorvald-
sen and K. Ruud; J.Chem.Theor.Comp. 2010, DOI: 10.1021/ct100117s
XCFun Version 0.99 
----- Orbital basis set information -----
Your calculation utilizes the basis: def2-mTZVP
----- AuxJ basis set information -----
Your calculation utilizes the basis: def2-mTZVP/J
cite the ECPs for Pd [Def2-ECP] as follows:
Ce-Yb(ecp-28): M. Dolg, H. Stoll, H.Preuss, J. Chem. Phys., 1989, 90, 1730-1734.
Y-Cd(ecp-28), Hf-Hg(ecp-46): D. Andrae,U. Haeussermann, M. Dolg, H. Stoll, H. Preuss, Theor. Chim. Acta, 1990, 77, 123-141.
In-Sb(ecp-28), Tl-Bi(ecp-46): B. Metz, H. Stoll, M. Dolg, J. Chem. Phys., 2000, 113, 2563-2569.
Te-Xe(ecp-28), Po-Rn(ecp-46): K. A. Peterson, D. Figgen, E. Goll, H. Stoll, M. Dolg, J. Chem. Phys., 2003, 119, 11113-11123.
Rb(ecp-28), Cs(ecp-46): T. Leininger, A. Nicklass, W. Kuechle, H. Stoll, M. Dolg, A. Bergner, Chem. Phys. Lett., 1996, 255, 274-280.
Sr(ecp-28), Ba(ecp-46): M. Kaupp, P. V. Schleyer, H. Stoll and H. Preuss, J. Chem. Phys., 1991, 94, 1360-1366.
La(ecp-46): M. Dolg, H. Stoll, A. Savin, H. Preuss, Theor. Chim. Acta, 1989, 75, 173-194.
Lu(ecp-28): X. Cao, M. Dolg, J. Chem. Phys., 2001, 115, 7348-7355.

ECP parameters for Pd [Def2-ECP] have been obtained from:
TURBOMOLE (7.0.2)

================================================================================
                                        WARNINGS
                       Please study these warnings very carefully!
================================================================================


INFO   : the flag for use of LIBINT has been found!

================================================================================
                                       INPUT FILE
================================================================================
NAME = s_5d1_b_B97-3c.in
|  1> ! DFT SP B97-3c TightSCF printbasis  Grid6 NOFINALGRID SlowConv 
|  2> 
|  3> %base "_s_5d1_b_B97-3c"
|  4> %maxcore 3000
|  5> %scf
|  6>    MaxIter 2000
|  7> end
|  8> %pal
|  9>    nprocs 32
| 10> end
| 11> 
| 12> * xyzfile 4 1 s_5d1_b.xyz
| 13> 
| 14>                          ****END OF INPUT****
================================================================================

                       ****************************
                       * Single Point Calculation *
                       ****************************

---------------------------------
CARTESIAN COORDINATES (ANGSTROEM)
---------------------------------
  Pd     1.065300    3.394100   -0.059800
  Pd    -0.575800   -5.596000    0.355700
  C      6.253600   -1.654600    0.311000
  C      5.819400   -2.768700    0.489600
  C      5.385600   -4.097300    0.671600
  C      6.316200   -5.101100    0.879300
  C      5.921900   -6.434200    1.038700
  C      4.598200   -6.785700    0.984000
  C      3.619200   -5.791700    0.772200
  C      2.248600   -6.097000    0.693300
  N      1.326400   -5.181000    0.499700
  C      1.671700   -3.875600    0.372000
  C      2.979000   -3.475800    0.422600
  C      4.002000   -4.427800    0.621100
  H      7.364900   -4.848000    0.917900
  H      6.677500   -7.187200    1.201200
  H      4.297200   -7.814600    1.100000
  H      1.925100   -7.129000    0.797400
  H      0.844000   -3.180700    0.224600
  H      3.252900   -2.438900    0.309500
  C      6.688300   -0.338800    0.041600
  C      7.972300   -0.098700   -0.453800
  C      8.351200    1.193700   -0.766700
  C      7.467900    2.248700   -0.606800
  C      6.184400    2.024200   -0.106200
  C      5.809400    0.726400    0.229800
  H      8.658100   -0.919800   -0.595900
  H      9.342300    1.382000   -1.151100
  H      7.772900    3.241700   -0.897800
  H      4.846100    0.528100    0.671600
  C      5.223100    3.128100    0.029600
  C      5.606800    4.434500    0.349000
  C      4.646400    5.429400    0.437600
  C      3.314300    5.106500    0.232600
  N      2.949200    3.858500   -0.057300
  C      3.862300    2.899300   -0.170300
  H      6.643300    4.664500    0.539400
  H      4.928600    6.442500    0.674600
  H      2.522700    5.850700    0.295500
  H      3.499900    1.914300   -0.457500
  C     -0.804400   -0.411800    6.135100
  C     -0.601100    0.765500    5.948700
  C     -0.442200    2.129800    5.636000
  C     -0.883300    3.119000    6.497300
  C     -0.815900    4.469900    6.136400
  C     -0.340900    4.850700    4.907200
  C      0.128500    3.872900    4.005200
  C      0.579300    4.188400    2.708500
  N      1.037300    3.276000    1.882900
  C      1.122000    1.977200    2.266400
  C      0.665000    1.560200    3.483200
  C      0.117300    2.499900    4.381300
  H     -1.294800    2.843600    7.456500
  H     -1.164200    5.214600    6.835600
  H     -0.321100    5.890700    4.622900
  H      0.553000    5.212300    2.349700
  H      1.591700    1.292600    1.556800
  H      0.712200    0.523700    3.776900
  C     -1.127400   -1.768400    6.351100
  C     -1.814400   -2.138800    7.510600
  C     -2.191800   -3.456000    7.690000
  C     -1.893200   -4.408500    6.731100
  C     -1.194000   -4.056200    5.573700
  C     -0.811500   -2.730700    5.390900
  H     -2.051700   -1.394100    8.254800
  H     -2.729300   -3.743700    8.580900
  H     -2.231000   -5.422700    6.875400
  H     -0.244500   -2.437800    4.521700
  C     -0.893800   -5.087500    4.568200
  C     -0.610400   -6.402900    4.949400
  C     -0.398600   -7.373000    3.983600
  C     -0.453400   -7.011300    2.648800
  N     -0.682800   -5.748400    2.287300
  C     -0.902500   -4.807700    3.200900
  H     -0.547400   -6.661200    5.994700
  H     -0.193500   -8.392900    4.266400
  H     -0.317800   -7.752300    1.857100
  H     -1.108000   -3.813300    2.819200
  C     -5.800800   -0.250900    0.337800
  C     -5.449700    0.898100    0.202000
  C     -4.975800    2.219700    0.080200
  C     -5.842900    3.295300    0.019400
  C     -5.358800    4.606400   -0.072400
  C     -4.012400    4.863800   -0.096900
  C     -3.093500    3.793500   -0.037600
  C     -1.700900    3.987700   -0.053500
  N     -0.850000    2.984500   -0.008600
  C     -1.292700    1.706600    0.062200
  C     -2.624300    1.413100    0.095400
  C     -3.571900    2.454400    0.045100
  H     -6.908000    3.121400    0.044400
  H     -6.065500    5.420600   -0.119600
  H     -3.647100    5.876200   -0.161000
  H     -1.279300    4.990200   -0.104700
  H     -0.525700    0.940100    0.093200
  H     -2.970500    0.394400    0.160900
  C     -6.188700   -1.589300    0.564400
  C     -7.433800   -1.872300    1.131500
  C     -7.774800   -3.182700    1.408900
  C     -6.894000   -4.213600    1.129500
  C     -5.651700   -3.947700    0.548200
  C     -5.307600   -2.629200    0.264900
  H     -8.117300   -1.068200    1.357100
  H     -8.732900   -3.404500    1.854100
  H     -7.167900   -5.223800    1.390600
  H     -4.373100   -2.395800   -0.219800
  C     -4.723300   -5.056000    0.272800
  C     -5.191600   -6.319800   -0.105000
  C     -4.298200   -7.360200   -0.293300
  C     -2.945800   -7.123600   -0.117100
  N     -2.496300   -5.913400    0.208500
  C     -3.343300   -4.902900    0.403500
  H     -6.246800   -6.481000   -0.259800
  H     -4.646400   -8.340900   -0.573900
  H     -2.207400   -7.910800   -0.242500
  H     -2.896100   -3.953000    0.693700
  C     -1.473000   -0.602900   -5.721300
  C     -1.288600    0.590700   -5.662200
  C     -1.083800    1.968800   -5.454600
  C     -1.615400    2.925200   -6.300500
  C     -1.462300    4.289900   -6.027000
  C     -0.807700    4.718600   -4.900100
  C     -0.245800    3.774400   -4.015300
  C      0.383600    4.139100   -2.807400
  N      0.912100    3.253500   -1.995200
  C      0.901900    1.933900   -2.313400
  C      0.280800    1.473700   -3.438000
  C     -0.350600    2.386000   -4.308500
  H     -2.161600    2.615600   -7.178600
  H     -1.884900    5.009100   -6.711800
  H     -0.717500    5.771100   -4.683000
  H      0.443300    5.180800   -2.510100
  H      1.432800    1.259000   -1.636800
  H      0.255900    0.422600   -3.676900
  C     -1.724000   -1.989800   -5.790500
  C     -2.498300   -2.510500   -6.830500
  C     -2.758500   -3.867200   -6.877000
  C     -2.249200   -4.713000   -5.906800
  C     -1.469800   -4.206200   -4.864400
  C     -1.215000   -2.840700   -4.807200
  H     -2.888700   -1.851000   -7.590400
  H     -3.361100   -4.270700   -7.676700
  H     -2.479400   -5.766300   -5.949300
  H     -0.593300   -2.434000   -4.025300
  C     -0.924600   -5.131000   -3.857100
  C     -0.430900   -6.381200   -4.240800
  C      0.040200   -7.260600   -3.280200
  C      0.007200   -6.877700   -1.950600
  N     -0.446200   -5.676500   -1.586800
  C     -0.898400   -4.818100   -2.498200
  H     -0.406900   -6.653700   -5.284300
  H      0.422500   -8.228600   -3.561300
  H      0.363800   -7.548000   -1.165700
  H     -1.265700   -3.870400   -2.119700

----------------------------
CARTESIAN COORDINATES (A.U.)
----------------------------
  NO LB      ZA    FRAG     MASS         X           Y           Z
   0 Pd   18.0000*   0   106.400    2.013125    6.413919   -0.113006
   1 Pd   18.0000*   0   106.400   -1.088104  -10.574907    0.672176
   2 C     6.0000    0    12.011   11.817591   -3.126741    0.587705
   3 C     6.0000    0    12.011   10.997072   -5.232085    0.925210
   4 C     6.0000    0    12.011   10.177309   -7.742775    1.269140
   5 C     6.0000    0    12.011   11.935888   -9.639682    1.661636
   6 C     6.0000    0    12.011   11.190769  -12.158876    1.962859
   7 C     6.0000    0    12.011    8.689339  -12.823115    1.859491
   8 C     6.0000    0    12.011    6.839297  -10.944727    1.459247
   9 C     6.0000    0    12.011    4.249238  -11.521660    1.310147
  10 N     7.0000    0    14.007    2.506533   -9.790671    0.944296
  11 C     6.0000    0    12.011    3.159055   -7.323823    0.702978
  12 C     6.0000    0    12.011    5.629494   -6.568310    0.798598
  13 C     6.0000    0    12.011    7.562684   -8.367329    1.173709
  14 H     1.0000    0     1.008   13.917644   -9.161392    1.734580
  15 H     1.0000    0     1.008   12.618646  -13.581840    2.269939
  16 H     1.0000    0     1.008    8.120531  -14.767454    2.078699
  17 H     1.0000    0     1.008    3.637912  -13.471858    1.506868
  18 H     1.0000    0     1.008    1.594929   -6.010652    0.424432
  19 H     1.0000    0     1.008    6.147090   -4.608853    0.584870
  20 C     6.0000    0    12.011   12.639055   -0.640239    0.078613
  21 C     6.0000    0    12.011   15.065464   -0.186516   -0.857558
  22 C     6.0000    0    12.011   15.781481    2.255766   -1.448853
  23 C     6.0000    0    12.011   14.112286    4.249427   -1.146686
  24 C     6.0000    0    12.011   11.686822    3.825184   -0.200689
  25 C     6.0000    0    12.011   10.978175    1.372697    0.434259
  26 H     1.0000    0     1.008   16.361438   -1.738170   -1.126088
  27 H     1.0000    0     1.008   17.654388    2.611602   -2.175264
  28 H     1.0000    0     1.008   14.688652    6.125925   -1.696596
  29 H     1.0000    0     1.008    9.157802    0.997964    1.269140
  30 C     6.0000    0    12.011    9.870229    5.911252    0.055936
  31 C     6.0000    0    12.011   10.595316    8.379991    0.659514
  32 C     6.0000    0    12.011    8.780424   10.260079    0.826944
  33 C     6.0000    0    12.011    6.263119    9.649887    0.439550
  34 N     7.0000    0    14.007    5.573180    7.291508   -0.108281
  35 C     6.0000    0    12.011    7.298689    5.478883   -0.321820
  36 H     1.0000    0     1.008   12.554018    8.814628    1.019318
  37 H     1.0000    0     1.008    9.313704   12.174561    1.274809
  38 H     1.0000    0     1.008    4.767212   11.056221    0.558414
  39 H     1.0000    0     1.008    6.613852    3.617503   -0.864550
  40 C     6.0000    0    12.011   -1.520096   -0.778189   11.593659
  41 C     6.0000    0    12.011   -1.135914    1.446585   11.241414
  42 C     6.0000    0    12.011   -0.835637    4.024739   10.650496
  43 C     6.0000    0    12.011   -1.669195    5.894056   12.278118
  44 C     6.0000    0    12.011   -1.541828    8.446887   11.596115
  45 C     6.0000    0    12.011   -0.644208    9.166495    9.273264
  46 C     6.0000    0    12.011    0.242830    7.318720    7.568731
  47 C     6.0000    0    12.011    1.094718    7.914929    5.118323
  48 N     7.0000    0    14.007    1.960213    6.190743    3.558165
  49 C     6.0000    0    12.011    2.120273    3.736367    4.282875
  50 C     6.0000    0    12.011    1.256668    2.948351    6.582294
  51 C     6.0000    0    12.011    0.221665    4.724126    8.279457
  52 H     1.0000    0     1.008   -2.446817    5.373625   14.090743
  53 H     1.0000    0     1.008   -2.200019    9.854166   12.917412
  54 H     1.0000    0     1.008   -0.606791   11.131810    8.736015
  55 H     1.0000    0     1.008    1.045019    9.849820    4.440289
  56 H     1.0000    0     1.008    3.007877    2.442660    2.941926
  57 H     1.0000    0     1.008    1.345863    0.989650    7.137307
  58 C     6.0000    0    12.011   -2.130477   -3.341792   12.001840
  59 C     6.0000    0    12.011   -3.428719   -4.041746   14.192977
  60 C     6.0000    0    12.011   -4.141902   -6.530894   14.531994
  61 C     6.0000    0    12.011   -3.577630   -8.330858   12.719936
  62 C     6.0000    0    12.011   -2.256333   -7.665107   10.532767
  63 C     6.0000    0    12.011   -1.533513   -5.160275   10.187325
  64 H     1.0000    0     1.008   -3.877151   -2.634467   15.599311
  65 H     1.0000    0     1.008   -5.157630   -7.074568   16.215551
  66 H     1.0000    0     1.008   -4.215979  -10.247418   12.992623
  67 H     1.0000    0     1.008   -0.462038   -4.606774    8.544775
  68 C     6.0000    0    12.011   -1.689037   -9.613982    8.632647
  69 C     6.0000    0    12.011   -1.153489  -12.099727    9.353011
  70 C     6.0000    0    12.011   -0.753245  -13.932951    7.527913
  71 C     6.0000    0    12.011   -0.856802  -13.249437    5.005507
  72 N     7.0000    0    14.007   -1.290305  -10.862902    4.322371
  73 C     6.0000    0    12.011   -1.705478   -9.085236    6.048824
  74 H     1.0000    0     1.008   -1.034436  -12.587844   11.328341
  75 H     1.0000    0     1.008   -0.365662  -15.860282    8.062328
  76 H     1.0000    0     1.008   -0.600555  -14.649724    3.509410
  77 H     1.0000    0     1.008   -2.093817   -7.206093    5.327516
  78 C     6.0000    0    12.011  -10.961923   -0.474132    0.638349
  79 C     6.0000    0    12.011  -10.298441    1.697163    0.381725
  80 C     6.0000    0    12.011   -9.402899    4.194625    0.151556
  81 C     6.0000    0    12.011  -11.041481    6.227215    0.036661
  82 C     6.0000    0    12.011  -10.126664    8.704834   -0.136816
  83 C     6.0000    0    12.011   -7.582337    9.191250   -0.183114
  84 C     6.0000    0    12.011   -5.845868    7.168676   -0.071054
  85 C     6.0000    0    12.011   -3.214235    7.535661   -0.101100
  86 N     7.0000    0    14.007   -1.606267    5.639888   -0.016252
  87 C     6.0000    0    12.011   -2.442849    3.225007    0.117541
  88 C     6.0000    0    12.011   -4.959208    2.670372    0.180280
  89 C     6.0000    0    12.011   -6.749913    4.638144    0.085227
  90 H     1.0000    0     1.008  -13.054228    5.898591    0.083904
  91 H     1.0000    0     1.008  -11.462134   10.243449   -0.226011
  92 H     1.0000    0     1.008   -6.892020   11.104409   -0.304246
  93 H     1.0000    0     1.008   -2.417527    9.430111   -0.197854
  94 H     1.0000    0     1.008   -0.993429    1.776532    0.176122
  95 H     1.0000    0     1.008   -5.613431    0.745308    0.304057
  96 C     6.0000    0    12.011  -11.694948   -3.003342    1.066561
  97 C     6.0000    0    12.011  -14.047846   -3.538134    2.138225
  98 C     6.0000    0    12.011  -14.692243   -6.014431    2.662435
  99 C     6.0000    0    12.011  -13.027772   -7.962550    2.134446
 100 C     6.0000    0    12.011  -10.680165   -7.460072    1.035948
 101 C     6.0000    0    12.011  -10.029910   -4.968468    0.500588
 102 H     1.0000    0     1.008  -15.339474   -2.018605    2.564547
 103 H     1.0000    0     1.008  -16.502789   -6.433573    3.503741
 104 H     1.0000    0     1.008  -13.545368   -9.871551    2.627853
 105 H     1.0000    0     1.008   -8.263961   -4.527406   -0.415362
 106 C     6.0000    0    12.011   -8.925743   -9.554455    0.515517
 107 C     6.0000    0    12.011   -9.810702  -11.942691   -0.198421
 108 C     6.0000    0    12.011   -8.122421  -13.908762   -0.554257
 109 C     6.0000    0    12.011   -5.566755  -13.461653   -0.221287
 110 N     7.0000    0    14.007   -4.717323  -11.174707    0.394008
 111 C     6.0000    0    12.011   -6.317921   -9.265138    0.762504
 112 H     1.0000    0     1.008  -11.804741  -12.247315   -0.490951
 113 H     1.0000    0     1.008   -8.780424  -15.762017   -1.084514
 114 H     1.0000    0     1.008   -4.171381  -14.949246   -0.458259
 115 H     1.0000    0     1.008   -5.472836   -7.470087    1.310903
 116 C     6.0000    0    12.011   -2.783567   -1.139316  -10.811690
 117 C     6.0000    0    12.011   -2.435101    1.116261  -10.700007
 118 C     6.0000    0    12.011   -2.048085    3.720493  -10.307700
 119 C     6.0000    0    12.011   -3.052664    5.527827  -11.906220
 120 C     6.0000    0    12.011   -2.763347    8.106736  -11.389379
 121 C     6.0000    0    12.011   -1.526332    8.916862   -9.259847
 122 C     6.0000    0    12.011   -0.464495    7.132582   -7.587817
 123 C     6.0000    0    12.011    0.724899    7.821765   -5.305217
 124 N     7.0000    0    14.007    1.723619    6.148224   -3.770382
 125 C     6.0000    0    12.011    1.704344    3.654541   -4.371692
 126 C     6.0000    0    12.011    0.530635    2.784889   -6.496878
 127 C     6.0000    0    12.011   -0.662538    4.508887   -8.141885
 128 H     1.0000    0     1.008   -4.084832    4.942768  -13.565588
 129 H     1.0000    0     1.008   -3.561945    9.465827  -12.683464
 130 H     1.0000    0     1.008   -1.355879   10.905798   -8.849587
 131 H     1.0000    0     1.008    0.837716    9.790293   -4.743402
 132 H     1.0000    0     1.008    2.707600    2.379165   -3.093104
 133 H     1.0000    0     1.008    0.483581    0.798598   -6.948334
 134 C     6.0000    0    12.011   -3.257888   -3.760177  -10.942459
 135 C     6.0000    0    12.011   -4.721103   -4.744157  -12.907774
 136 C     6.0000    0    12.011   -5.212810   -7.307949  -12.995647
 137 C     6.0000    0    12.011   -4.250372   -8.906279  -11.162234
 138 C     6.0000    0    12.011   -2.777519   -7.948566   -9.192384
 139 C     6.0000    0    12.011   -2.296017   -5.368145   -9.084291
 140 H     1.0000    0     1.008   -5.458852   -3.497883  -14.343777
 141 H     1.0000    0     1.008   -6.351559   -8.070453  -14.506861
 142 H     1.0000    0     1.008   -4.685387  -10.896728  -11.242548
 143 H     1.0000    0     1.008   -1.121175   -4.599593   -7.606715
 144 C     6.0000    0    12.011   -1.747241   -9.696185   -7.288863
 145 C     6.0000    0    12.011   -0.814283  -12.058720   -8.013951
 146 C     6.0000    0    12.011    0.075967  -13.720546   -6.198680
 147 C     6.0000    0    12.011    0.013606  -12.996969   -3.686100
 148 N     7.0000    0    14.007   -0.843196  -10.727030   -2.998617
 149 C     6.0000    0    12.011   -1.697730   -9.104889   -4.720914
 150 H     1.0000    0     1.008   -0.768930  -12.573671   -9.985880
 151 H     1.0000    0     1.008    0.798409  -15.549800   -6.729882
 152 H     1.0000    0     1.008    0.687482  -14.263653   -2.202854
 153 H     1.0000    0     1.008   -2.391826   -7.313996   -4.005652
* core charge reduced due to ECP

--------------------------------
INTERNAL COORDINATES (ANGSTROEM)
--------------------------------
 Pd     0   0   0     0.000000000000     0.00000000     0.00000000
 Pd     1   0   0     9.148100757534     0.00000000     0.00000000
 C      1   2   0     7.248815159735    56.05608530     0.00000000
 C      3   1   2     1.208985694704   113.09922863   353.17770512
 C      4   3   1     1.409426975760   176.64374555   161.95904308
 C      5   4   3     1.384474662101   119.73243631    24.64449991
 C      6   5   4     1.399298559994   121.22653304   181.20492046
 C      7   6   5     1.370666272292   120.79015269     0.46187502
 C      8   7   6     1.411147136198   119.69231926   359.63066348
 C      9   8   7     1.406405937132   122.11439322   179.32301140
 N     10   9   8     1.314149839250   122.74053941   179.83072167
 C     11  10   9     1.356321694879   120.40275237   359.69248996
 C     12  11  10     1.368003541662   121.40503490     0.85361446
 C     13  12  11     1.411465638972   120.04652060   359.52669609
 H      6   5   4     1.079500467809   119.23291609     1.16326079
 H      7   6   5     1.079048937722   118.99019685   180.15507696
 H      8   7   6     1.078282064211   120.66314348   179.55556103
 H     10   9   8     1.086514178462   119.40451936   359.97693405
 H     12  11  10     1.090733725526   115.63947761   180.62854826
 H     13  12  11     1.078412921844   121.32122282   179.28311350
 C      3   1   2     1.411690507866    63.98921993   170.35143321
 C     21   3   1     1.397041577764   120.72200908   195.62588075
 C     22  21   3     1.382667487142   119.52169422   177.05583961
 C     23  22  21     1.385211861052   120.73237833   359.35442558
 C     24  23  22     1.395841273211   120.34777704     0.98813346
 C     25  24  23     1.392050947344   118.96107668     0.07276973
 H     22  21   3     1.079221599117   119.99818807   357.45981044
 H     23  22  21     1.079583002830   119.68198034   180.09137058
 H     24  23  22     1.078774767966   119.31661798   182.61020802
 H     26  25  24     1.078173000960   120.73448494   176.46082956
 C     25  24  23     1.470079773346   120.90647080   181.90108731
 C     31  25  24     1.398543174164   122.89695570   326.33164627
 C     32  31  25     1.385656570006   119.67893650   178.88946946
 C     33  32  31     1.385922010793   119.30399352     1.22999629
 N     34  33  32     1.332232719910   120.92064912   359.48849373
 C     35  34  33     1.329129508363   120.41607796   359.24125646
 H     32  31  25     1.078649345246   120.20730697   358.02049893
 H     33  32  31     1.078043343284   120.48872931   180.52726483
 H     34  33  32     1.088310897676   122.09003433   179.72844231
 H     36  35  34     1.088137215612   116.54574988   182.96227563
 C     19  12  11     6.731867498696   109.22082927    97.31681148
 C     41  19  12     1.209177877733   102.94136159   118.54967397
 C     42  41  19     1.408667806830   174.97450572    56.39232481
 C     43  42  41     1.383807623913   121.21179161   113.80715127
 C     44  43  42     1.399900846489   120.93131037   184.94071568
 C     45  44  43     1.371701964714   121.03675966     1.57394264
 C     46  45  44     1.410685365346   119.72130275   357.93349336
 C     47  46  45     1.408613424613   122.67313716   177.39640802
 N     48  47  46     1.312955871307   122.33311054   178.74919868
 C     49  48  47     1.356881638169   120.61232163   358.50941717
 C     50  49  48     1.365042211802   121.56395785     3.94106899
 C     51  50  49     1.410530038673   119.60684800   358.56871885
 H     44  43  42     1.079463778920   119.48582312     4.27903379
 H     45  44  43     1.079245857069   118.90162584   180.32758253
 H     46  45  44     1.078340637276   120.68751740   178.01490384
 H     48  47  46     1.085265101254   120.52422456   358.34195722
 H     50  49  48     1.092166383845   116.30885526   185.06857222
 H     51  50  49     1.078341216870   121.45053394   178.55005258
 C     41  19  12     1.411151501434    78.17202221   295.09518263
 C     59  41  19     1.397714352076   119.61982246   188.72737272
 C     60  59  41     1.381893975673   119.63868515   176.66351315
 C     61  60  59     1.384163075653   120.46914286     0.05559067
 C     62  61  60     1.397344155890   120.54779358     0.65593932
 C     63  62  61     1.391643754702   119.10876860   359.41479352
 H     60  59  41     1.079223341112   119.81881296   357.07703938
 H     61  60  59     1.079527836603   119.81133638   180.47782690
 H     62  61  60     1.078671854643   119.12909312   182.32653540
 H     64  63  62     1.078326504358   120.60510439   178.08585021
 C     63  62  61     1.471302137564   119.43461549   180.21565404
 C     69  63  62     1.398537150025   120.95366654   325.32982215
 C     70  69  63     1.385179732020   119.97671275   176.66545822
 C     71  70  69     1.384023471622   118.90502170     0.94164858
 N     72  71  70     1.333500288714   121.04855107     1.14205214
 C     73  72  71     1.329605031579   120.81038849   358.10723272
 H     70  69  63     1.078582393700   120.08212192   356.09393749
 H     71  70  69     1.078071361274   120.58011602   180.88483984
 H     72  71  70     1.092820776706   121.10262303   181.61696102
 H     74  73  72     1.084784079898   115.98150652   181.66473492
 C     78  74  73     6.392997071797   141.85396485    80.07644051
 C     79  78  74     1.209096294759   111.09876571   173.47604396
 C     80  79  78     1.409270382148   176.89687018   353.46064214
 C     81  80  79     1.382922416479   121.48952545   208.91954422
 C     82  81  80     1.400629594147   120.94577641   178.60000002
 C     83  82  81     1.371002541938   121.08734173   359.61604308
 C     84  83  82     1.411890856263   119.74078340     0.41208700
 C     85  84  83     1.406165427679   122.64164113   180.24369911
 N     86  85  84     1.316228346451   122.31575213   180.55106265
 C     87  86  85     1.354261547856   120.64107057   359.67882290
 C     88  87  86     1.363965926994   121.56447233   359.70570322
 C     89  88  87     1.408822749674   119.78468773     0.49731987
 H     82  81  80     1.079492575241   119.49403174   358.68127746
 H     83  82  81     1.079154469944   118.86700591   179.89391432
 H     84  83  82     1.078196021139   120.66902506   180.41555139
 H     86  85  84     1.088748938002   120.74346407     0.52389919
 H     88  87  86     1.084791339383   115.91962381   179.86720252
 H     89  88  87     1.077912046505   121.22466820   180.56816061
 C     79  78  74     1.411782040543    67.11502994   355.94812583
 C     97  79  78     1.397127560390   120.13515052   136.60820902
 C     98  97  79     1.382164939506   119.56261041   183.17002431
 C     99  98  97     1.384423277036   120.56457844     0.00000000
 C    100  99  98     1.397111946123   120.52884685   359.26169074
 C    101 100  99     1.391799536571   119.00116837     0.56604559
 H     98  97  79     1.079186925421   119.89134469     2.64961621
 H     99  98  97     1.079515581175   119.77071238   179.52951133
 H    100  99  98     1.078748561992   119.13942577   177.63876732
 H    102 101 100     1.078285630063   120.71837369   182.48204113
 C    101 100  99     1.471767851939   119.69904223   179.31788910
 C    107 101 100     1.399724319286   121.29025475    34.14305968
 C    108 107 101     1.384215521514   119.96101156   183.18514878
 C    109 108 107     1.384200765785   118.99952900   359.27613732
 N    110 109 108     1.331408896620   121.08799535   358.97706671
 C    111 110 109     1.332870680149   120.68743091     1.54716034
 H    108 107 101     1.078608140151   120.06492671     3.84071517
 H    109 108 107     1.077846041882   120.71608143   179.33841290
 H    110 109 108     1.086574231242   121.69715309   179.29842906
 H    112 111 110     1.089272183616   116.05408333   178.37112508
 C     95  88  87     6.089879846105    92.39340198   255.71279850
 C    117  95  88     1.209205164561    71.30757888    52.59777841
 C    118 117  95     1.408616487906   174.31695489   349.73279086
 C    119 118 117     1.383056878801   122.03979770   217.96403266
 C    120 119 118     1.400231391592   120.82877972   176.22085549
 C    121 120 119     1.371928737216   121.14193481   358.56689899
 C    122 121 120     1.410714815262   119.74129856     1.70049055
 C    123 122 121     1.410025836643   122.81796563   183.14947562
 N    124 123 122     1.312733198331   122.35994317   180.50354783
 C    125 124 123     1.357460658730   120.51417914     1.78451616
 C    126 125 124     1.364651754112   121.62903273   356.14845083
 C    127 126 125     1.410222500175   119.62444167     1.02719099
 H    120 119 118     1.079465705801   119.58263788   356.68730156
 H    121 120 119     1.079254576085   118.86363161   179.63145305
 H    122 121 120     1.078436228991   120.67902339   181.67993224
 H    124 123 122     1.084937910666   120.50714995     0.85603868
 H    126 125 124     1.093221102980   116.83393344   174.91521954
 H    127 126 125     1.078194987004   121.45729423   181.35482315
 C    117  95  88     1.411127651915   108.87538148   234.14302294
 C    135 117  95     1.397236193347   120.08851758   152.94117995
 C    136 135 117     1.382208804776   119.67954418   181.13592202
 C    137 136 135     1.384215362579   120.45838593   359.51455906
 C    138 137 136     1.396749211562   120.44353894     0.26125297
 C    139 138 137     1.390246427796   119.29852570     0.28801370
 H    136 135 117     1.079259199636   119.78924124     1.10688513
 H    137 136 135     1.079564310266   119.79268942   179.66228381
 H    138 137 136     1.078999156626   119.36517763   178.80355122
 H    140 139 138     1.078556159873   120.38697101   181.66684623
 C    139 138 137     1.472124780717   119.29958090   180.88542722
 C    145 139 138     1.397843131399   120.32039903    39.68178355
 C    146 145 139     1.384930297885   119.84524306   182.06870418
 C    147 146 145     1.384029468617   118.85211061     0.16319388
 N    148 147 146     1.334467474313   121.26690680   358.84777281
 C    149 148 147     1.331159404429   120.61179347     0.94896161
 H    146 145 139     1.078760631466   119.95395076     2.79792654
 H    147 146 145     1.078051251101   120.65905135   179.91117760
 H    148 147 146     1.092031895139   120.85622366   179.57057324
 H    150 149 148     1.084576797650   116.07675903   178.93920672

---------------------------
INTERNAL COORDINATES (A.U.)
---------------------------
 Pd     0   0   0     0.000000000000     0.00000000     0.00000000
 Pd     1   0   0    17.287405077257     0.00000000     0.00000000
 C      1   2   0    13.698275447315    56.05608530     0.00000000
 C      3   1   2     2.284651862820   113.09922863   353.17770512
 C      4   3   1     2.663430989947   176.64374555   161.95904308
 C      5   4   3     2.616277950724   119.73243631    24.64449991
 C      6   5   4     2.644291057978   121.22653304   181.20492046
 C      7   6   5     2.590183875635   120.79015269     0.46187502
 C      8   7   6     2.666681622082   119.69231926   359.63066348
 C      9   8   7     2.657722054300   122.11439322   179.32301140
 N     10   9   8     2.483383295119   122.74053941   179.83072167
 C     11  10   9     2.563076552818   120.40275237   359.69248996
 C     12  11  10     2.585152043976   121.40503490     0.85361446
 C     13  12  11     2.667283505098   120.04652060   359.52669609
 H      6   5   4     2.039960245599   119.23291609     1.16326079
 H      7   6   5     2.039106977394   118.99019685   180.15507696
 H      8   7   6     2.037657796479   120.66314348   179.55556103
 H     10   9   8     2.053214237917   119.40451936   359.97693405
 H     12  11  10     2.061188026276   115.63947761   180.62854826
 H     13  12  11     2.037905081567   121.32122282   179.28311350
 C      3   1   2     2.667708445724    63.98921993   170.35143321
 C     21   3   1     2.640025979674   120.72200908   195.62588075
 C     22  21   3     2.612862884976   119.52169422   177.05583961
 C     23  22  21     2.617671054848   120.73237833   359.35442558
 C     24  23  22     2.637757732793   120.34777704     0.98813346
 C     25  24  23     2.630595054945   118.96107668     0.07276973
 H     22  21   3     2.039433260143   119.99818807   357.45981044
 H     23  22  21     2.040116214186   119.68198034   180.09137058
 H     24  23  22     2.038588871640   119.31661798   182.61020802
 H     26  25  24     2.037451696803   120.73448494   176.46082956
 C     25  24  23     2.778048166640   120.90647080   181.90108731
 C     31  25  24     2.642863585634   122.89695570   326.33164627
 C     32  31  25     2.618511432979   119.67893650   178.88946946
 C     33  32  31     2.619013043372   119.30399352     1.22999629
 N     34  33  32     2.517554987280   120.92064912   359.48849373
 C     35  34  33     2.511690767319   120.41607796   359.24125646
 H     32  31  25     2.038351857049   120.20730697   358.02049893
 H     33  32  31     2.037206679305   120.48872931   180.52726483
 H     34  33  32     2.056609545169   122.09003433   179.72844231
 H     36  35  34     2.056281333634   116.54574988   182.96227563
 C     19  12  11    12.721385942381   109.22082927    97.31681148
 C     41  19  12     2.285015036112   102.94136159   118.54967397
 C     42  41  19     2.661996368581   174.97450572    56.39232481
 C     43  42  41     2.615017431228   121.21179161   113.80715127
 C     44  43  42     2.645429214508   120.93131037   184.94071568
 C     45  44  43     2.592141050671   121.03675966     1.57394264
 C     46  45  44     2.665809001634   119.72130275   357.93349336
 C     47  46  45     2.661893601084   122.67313716   177.39640802
 N     48  47  46     2.481127022695   122.33311054   178.74919868
 C     49  48  47     2.564134692286   120.61232163   358.50941717
 C     50  49  48     2.579555941547   121.56395785     3.94106899
 C     51  50  49     2.665515476762   119.60684800   358.56871885
 H     44  43  42     2.039890913646   119.48582312     4.27903379
 H     45  44  43     2.039479101029   118.90162584   180.32758253
 H     46  45  44     2.037768483529   120.68751740   178.01490384
 H     48  47  46     2.050853824073   120.52422456   358.34195722
 H     50  49  48     2.063895358141   116.30885526   185.06857222
 H     51  50  49     2.037769578803   121.45053394   178.55005258
 C     41  19  12     2.666689871182    78.17202221   295.09518263
 C     59  41  19     2.641297338875   119.61982246   188.72737272
 C     60  59  41     2.611401160137   119.63868515   176.66351315
 C     61  60  59     2.615689137669   120.46914286     0.05559067
 C     62  61  60     2.640597769468   120.54779358     0.65593932
 C     63  62  61     2.629825572368   119.10876860   359.41479352
 H     60  59  41     2.039436552036   119.81881296   357.07703938
 H     61  60  59     2.040011965123   119.81133638   180.47782690
 H     62  61  60     2.038394393645   119.12909312   182.32653540
 H     64  63  62     2.037741776184   120.60510439   178.08585021
 C     63  62  61     2.780358100249   119.43461549   180.21565404
 C     69  63  62     2.642852201662   120.95366654   325.32982215
 C     70  69  63     2.617610339777   119.97671275   176.66545822
 C     71  70  69     2.615425324284   118.90502170     0.94164858
 N     72  71  70     2.519950345174   121.04855107     1.14205214
 C     73  72  71     2.512589375968   120.81038849   358.10723272
 H     70  69  63     2.038225336963   120.08212192   356.09393749
 H     71  70  69     2.037259625632   120.58011602   180.88483984
 H     72  71  70     2.065131981433   121.10262303   181.61696102
 H     74  73  72     2.049944825445   115.98150652   181.66473492
 C     78  74  73    12.081013640656   141.85396485    80.07644051
 C     79  78  74     2.284860866633   111.09876571   173.47604396
 C     80  79  78     2.663135070907   176.89687018   353.46064214
 C     81  80  79     2.613344631606   121.48952545   208.91954422
 C     82  81  80     2.646806348003   120.94577641   178.60000002
 C     83  82  81     2.590819333172   121.08734173   359.61604308
 C     84  83  82     2.668087049325   119.74078340     0.41208700
 C     85  84  83     2.657267557302   122.64164113   180.24369911
 N     86  85  84     2.487311104496   122.31575213   180.55106265
 C     87  86  85     2.559183439147   120.64107057   359.67882290
 C     88  87  86     2.577522058018   121.56447233   359.70570322
 C     89  88  87     2.662289168122   119.78468773     0.49731987
 H     82  81  80     2.039945330806   119.49403174   358.68127746
 H     83  82  81     2.039306404391   118.86700591   179.89391432
 H     84  83  82     2.037495198636   120.66902506   180.41555139
 H     86  85  84     2.057437321421   120.74346407     0.52389919
 H     88  87  86     2.049958543883   115.91962381   179.86720252
 H     89  88  87     2.036958564349   121.22466820   180.56816061
 C     79  78  74     2.667881417415    67.11502994   355.94812583
 C     97  79  78     2.640188463290   120.13515052   136.60820902
 C     98  97  79     2.611913207574   119.56261041   183.17002431
 C     99  98  97     2.616180847024   120.56457844     0.00000000
 C    100  99  98     2.640158956602   120.52884685   359.26169074
 C    101 100  99     2.630119957438   119.00116837     0.56604559
 H     98  97  79     2.039367736355   119.89134469     2.64961621
 H     99  98  97     2.039988805722   119.77071238   179.52951133
 H    100  99  98     2.038539349526   119.13942577   177.63876732
 H    102 101 100     2.037664534961   120.71837369   182.48204113
 C    101 100  99     2.781238172874   119.69904223   179.31788910
 C    107 101 100     2.645095626439   121.29025475    34.14305968
 C    108 107 101     2.615788245984   119.96101156   183.18514878
 C    109 108 107     2.615760361698   118.99952900   359.27613732
 N    110 109 108     2.515998186879   121.08799535   358.97706671
 C    111 110 109     2.518760557414   120.68743091     1.54716034
 H    108 107 101     2.038273990704   120.06492671     3.84071517
 H    109 108 107     2.036833833687   120.71608143   179.33841290
 H    110 109 108     2.053327721224   121.69715309   179.29842906
 H    112 111 110     2.058426112333   116.05408333   178.37112508
 C     95  88  87    11.508205097626    92.39340198   255.71279850
 C    117  95  88     2.285066600743    71.30757888    52.59777841
 C    118 117  95     2.661899389868   174.31695489   349.73279086
 C    119 118 117     2.613598728571   122.03979770   217.96403266
 C    120 119 118     2.646053854229   120.82877972   176.22085549
 C    121 120 119     2.592569588595   121.14193481   358.56689899
 C    122 121 120     2.665864653911   119.74129856     1.70049055
 C    123 122 121     2.664562673008   122.81796563   183.14947562
 N    124 123 122     2.480706231752   122.35994317   180.50354783
 C    125 124 123     2.565228882572   120.51417914     1.78451616
 C    126 125 124     2.578818083446   121.62903273   356.14845083
 C    127 126 125     2.664934313225   119.62444167     1.02719099
 H    120 119 118     2.039894554924   119.58263788   356.68730156
 H    121 120 119     2.039495577582   118.86363161   179.63145305
 H    122 121 120     2.037949125691   120.67902339   181.67993224
 H    124 123 122     2.050235523467   120.50714995     0.85603868
 H    126 125 124     2.065888488455   116.83393344   174.91521954
 H    127 126 125     2.037493244404   121.45729423   181.35482315
 C    117  95  88     2.666644802123   108.87538148   234.14302294
 C    135 117  95     2.640393749829   120.08851758   152.94117995
 C    136 135 117     2.611996100921   119.67954418   181.13592202
 C    137 136 135     2.615787945641   120.45838593   359.51455906
 C    138 137 136     2.639473487623   120.44353894     0.26125297
 C    139 138 137     2.627185007197   119.29852570     0.28801370
 H    136 135 117     2.039504314828   119.78924124     1.10688513
 H    137 136 135     2.040080890358   119.79268942   179.66228381
 H    138 137 136     2.039012904755   119.36517763   178.80355122
 H    140 139 138     2.038175762214   120.38697101   181.66684623
 C    139 138 137     2.781912670513   119.29958090   180.88542722
 C    145 139 138     2.641540696527   120.32039903    39.68178355
 C    146 145 139     2.617138977573   119.84524306   182.06870418
 C    147 146 145     2.615436656963   118.85211061     0.16319388
 N    148 147 146     2.521778061078   121.26690680   358.84777281
 C    149 148 147     2.515526714965   120.61179347     0.94896161
 H    146 145 139     2.038562157526   119.95395076     2.79792654
 H    147 146 145     2.037221622912   120.65905135   179.91117760
 H    148 147 146     2.063641211319   120.85622366   179.57057324
 H    150 149 148     2.049553118763   116.07675903   178.93920672

---------------------
BASIS SET INFORMATION
---------------------
There are 4 groups of distinct atoms

 Group   1 Type Pd  : 7s7p6d contracted to 6s4p3d pattern {211111/4111/411}
 Group   2 Type C   : 11s6p1d contracted to 5s3p1d pattern {62111/411/1}
 Group   3 Type N   : 11s6p1d contracted to 5s3p1d pattern {62111/411/1}
 Group   4 Type H   : 5s contracted to 3s pattern {311}

Atom   0Pd   basis set group =>   1
Atom   1Pd   basis set group =>   1
Atom   2C    basis set group =>   2
Atom   3C    basis set group =>   2
Atom   4C    basis set group =>   2
Atom   5C    basis set group =>   2
Atom   6C    basis set group =>   2
Atom   7C    basis set group =>   2
Atom   8C    basis set group =>   2
Atom   9C    basis set group =>   2
Atom  10N    basis set group =>   3
Atom  11C    basis set group =>   2
Atom  12C    basis set group =>   2
Atom  13C    basis set group =>   2
Atom  14H    basis set group =>   4
Atom  15H    basis set group =>   4
Atom  16H    basis set group =>   4
Atom  17H    basis set group =>   4
Atom  18H    basis set group =>   4
Atom  19H    basis set group =>   4
Atom  20C    basis set group =>   2
Atom  21C    basis set group =>   2
Atom  22C    basis set group =>   2
Atom  23C    basis set group =>   2
Atom  24C    basis set group =>   2
Atom  25C    basis set group =>   2
Atom  26H    basis set group =>   4
Atom  27H    basis set group =>   4
Atom  28H    basis set group =>   4
Atom  29H    basis set group =>   4
Atom  30C    basis set group =>   2
Atom  31C    basis set group =>   2
Atom  32C    basis set group =>   2
Atom  33C    basis set group =>   2
Atom  34N    basis set group =>   3
Atom  35C    basis set group =>   2
Atom  36H    basis set group =>   4
Atom  37H    basis set group =>   4
Atom  38H    basis set group =>   4
Atom  39H    basis set group =>   4
Atom  40C    basis set group =>   2
Atom  41C    basis set group =>   2
Atom  42C    basis set group =>   2
Atom  43C    basis set group =>   2
Atom  44C    basis set group =>   2
Atom  45C    basis set group =>   2
Atom  46C    basis set group =>   2
Atom  47C    basis set group =>   2
Atom  48N    basis set group =>   3
Atom  49C    basis set group =>   2
Atom  50C    basis set group =>   2
Atom  51C    basis set group =>   2
Atom  52H    basis set group =>   4
Atom  53H    basis set group =>   4
Atom  54H    basis set group =>   4
Atom  55H    basis set group =>   4
Atom  56H    basis set group =>   4
Atom  57H    basis set group =>   4
Atom  58C    basis set group =>   2
Atom  59C    basis set group =>   2
Atom  60C    basis set group =>   2
Atom  61C    basis set group =>   2
Atom  62C    basis set group =>   2
Atom  63C    basis set group =>   2
Atom  64H    basis set group =>   4
Atom  65H    basis set group =>   4
Atom  66H    basis set group =>   4
Atom  67H    basis set group =>   4
Atom  68C    basis set group =>   2
Atom  69C    basis set group =>   2
Atom  70C    basis set group =>   2
Atom  71C    basis set group =>   2
Atom  72N    basis set group =>   3
Atom  73C    basis set group =>   2
Atom  74H    basis set group =>   4
Atom  75H    basis set group =>   4
Atom  76H    basis set group =>   4
Atom  77H    basis set group =>   4
Atom  78C    basis set group =>   2
Atom  79C    basis set group =>   2
Atom  80C    basis set group =>   2
Atom  81C    basis set group =>   2
Atom  82C    basis set group =>   2
Atom  83C    basis set group =>   2
Atom  84C    basis set group =>   2
Atom  85C    basis set group =>   2
Atom  86N    basis set group =>   3
Atom  87C    basis set group =>   2
Atom  88C    basis set group =>   2
Atom  89C    basis set group =>   2
Atom  90H    basis set group =>   4
Atom  91H    basis set group =>   4
Atom  92H    basis set group =>   4
Atom  93H    basis set group =>   4
Atom  94H    basis set group =>   4
Atom  95H    basis set group =>   4
Atom  96C    basis set group =>   2
Atom  97C    basis set group =>   2
Atom  98C    basis set group =>   2
Atom  99C    basis set group =>   2
Atom 100C    basis set group =>   2
Atom 101C    basis set group =>   2
Atom 102H    basis set group =>   4
Atom 103H    basis set group =>   4
Atom 104H    basis set group =>   4
Atom 105H    basis set group =>   4
Atom 106C    basis set group =>   2
Atom 107C    basis set group =>   2
Atom 108C    basis set group =>   2
Atom 109C    basis set group =>   2
Atom 110N    basis set group =>   3
Atom 111C    basis set group =>   2
Atom 112H    basis set group =>   4
Atom 113H    basis set group =>   4
Atom 114H    basis set group =>   4
Atom 115H    basis set group =>   4
Atom 116C    basis set group =>   2
Atom 117C    basis set group =>   2
Atom 118C    basis set group =>   2
Atom 119C    basis set group =>   2
Atom 120C    basis set group =>   2
Atom 121C    basis set group =>   2
Atom 122C    basis set group =>   2
Atom 123C    basis set group =>   2
Atom 124N    basis set group =>   3
Atom 125C    basis set group =>   2
Atom 126C    basis set group =>   2
Atom 127C    basis set group =>   2
Atom 128H    basis set group =>   4
Atom 129H    basis set group =>   4
Atom 130H    basis set group =>   4
Atom 131H    basis set group =>   4
Atom 132H    basis set group =>   4
Atom 133H    basis set group =>   4
Atom 134C    basis set group =>   2
Atom 135C    basis set group =>   2
Atom 136C    basis set group =>   2
Atom 137C    basis set group =>   2
Atom 138C    basis set group =>   2
Atom 139C    basis set group =>   2
Atom 140H    basis set group =>   4
Atom 141H    basis set group =>   4
Atom 142H    basis set group =>   4
Atom 143H    basis set group =>   4
Atom 144C    basis set group =>   2
Atom 145C    basis set group =>   2
Atom 146C    basis set group =>   2
Atom 147C    basis set group =>   2
Atom 148N    basis set group =>   3
Atom 149C    basis set group =>   2
Atom 150H    basis set group =>   4
Atom 151H    basis set group =>   4
Atom 152H    basis set group =>   4
Atom 153H    basis set group =>   4

-------------------------
BASIS SET IN INPUT FORMAT
-------------------------

 # Basis set for element : H 
 NewGTO H 
 S 3 
   1      34.0613410000      0.0254393072
   2       5.1235746000      0.1900859489
   3       1.1646626000      0.8524411301
 S 1 
   1       0.3272304100      1.0000000000
 S 1 
   1       0.1030724100      1.0000000000
  end;

 # Basis set for element : C 
 NewGTO C 
 S 6 
   1   13575.3496820000      0.0006064549
   2    2035.2333680000      0.0046979088
   3     463.2256235900      0.0243324776
   4     131.2001959800      0.0973999683
   5      42.8530158910      0.3019558425
   6      15.5841857660      0.6623360915
 S 2 
   1       6.2067138508      0.6559530854
   2       2.5764896527      0.3758563329
 S 1 
   1       0.5769633942      1.0000000000
 S 1 
   1       0.2297283136      1.0000000000
 S 1 
   1       0.0951644400      1.0000000000
 P 4 
   1      34.6972322440      0.0113272200
   2       7.9582622826      0.0761696592
   3       2.3780826883      0.3019225220
   4       0.8143320818      0.7278502735
 P 1 
   1       0.2888754725      1.0000000000
 P 1 
   1       0.1005682367      1.0000000000
 D 1 
   1       0.8000000000      1.0000000000
  end;

 # Basis set for element : N 
 NewGTO N 
 S 6 
   1   19730.8006470000      0.0005862639
   2    2957.8958745000      0.0045428821
   3     673.2213359500      0.0235584136
   4     190.6824949400      0.0947091933
   5      62.2954418980      0.2971978492
   6      22.6541611820      0.6691624689
 S 2 
   1       8.9791477428      0.6459668363
   2       3.6863002370      0.3870057440
 S 1 
   1       0.8466007680      1.0000000000
 S 1 
   1       0.3364713377      1.0000000000
 S 1 
   1       0.1364765367      1.0000000000
 P 4 
   1      49.2003805100      0.0114488252
   2      11.3467905370      0.0784223379
   3       3.4273972411      0.3081809474
   4       1.1785525134      0.7202719637
 P 1 
   1       0.4164220497      1.0000000000
 P 1 
   1       0.1426082601      1.0000000000
 D 1 
   1       0.8000000000      1.0000000000
  end;

 # Basis set for element : Pd
 NewGTO Pd
 S 2 
   1      18.0000000000     -0.8955869481
   2      14.6621343080      1.8822771923
 S 1 
   1       5.6388709265      1.0000000000
 S 1 
   1       1.3198953252      1.0000000000
 S 1 
   1       0.5781790851      1.0000000000
 S 1 
   1       0.1035216624      1.0000000000
 S 1 
   1       0.0375484427      1.0000000000
 P 4 
   1      12.5528993000      0.0701895210
   2       7.2444496380     -0.2749252830
   3       1.8905941078      0.5623121361
   4       0.9073716876      0.5736959368
 P 1 
   1       0.4087721081      1.0000000000
 P 1 
   1       0.1150000000      1.0000000000
 P 1 
   1       0.0370000000      1.0000000000
 D 4 
   1      22.3574575750      0.0063445039
   2      10.6825263820     -0.0225156052
   3       2.4858232550      0.3884291800
   4       1.0735333903      0.6828976806
 D 1 
   1       0.4261384285      1.0000000000
 D 1 
   1       0.1504635538      1.0000000000
  end;

---------------------------------
AUXILIARY/J BASIS SET INFORMATION
---------------------------------
There are 4 groups of distinct atoms

 Group   1 Type Pd  : 11s5p5d3f3g contracted to 8s5p5d2f3g pattern {41111111/11111/11111/21/111}
 Group   2 Type C   : 8s3p3d contracted to 6s3p3d pattern {311111/111/111}
 Group   3 Type N   : 8s3p3d contracted to 6s3p3d pattern {311111/111/111}
 Group   4 Type H   : 5s2p contracted to 3s1p pattern {311/2}

Atom   0Pd   basis set group =>   1
Atom   1Pd   basis set group =>   1
Atom   2C    basis set group =>   2
Atom   3C    basis set group =>   2
Atom   4C    basis set group =>   2
Atom   5C    basis set group =>   2
Atom   6C    basis set group =>   2
Atom   7C    basis set group =>   2
Atom   8C    basis set group =>   2
Atom   9C    basis set group =>   2
Atom  10N    basis set group =>   3
Atom  11C    basis set group =>   2
Atom  12C    basis set group =>   2
Atom  13C    basis set group =>   2
Atom  14H    basis set group =>   4
Atom  15H    basis set group =>   4
Atom  16H    basis set group =>   4
Atom  17H    basis set group =>   4
Atom  18H    basis set group =>   4
Atom  19H    basis set group =>   4
Atom  20C    basis set group =>   2
Atom  21C    basis set group =>   2
Atom  22C    basis set group =>   2
Atom  23C    basis set group =>   2
Atom  24C    basis set group =>   2
Atom  25C    basis set group =>   2
Atom  26H    basis set group =>   4
Atom  27H    basis set group =>   4
Atom  28H    basis set group =>   4
Atom  29H    basis set group =>   4
Atom  30C    basis set group =>   2
Atom  31C    basis set group =>   2
Atom  32C    basis set group =>   2
Atom  33C    basis set group =>   2
Atom  34N    basis set group =>   3
Atom  35C    basis set group =>   2
Atom  36H    basis set group =>   4
Atom  37H    basis set group =>   4
Atom  38H    basis set group =>   4
Atom  39H    basis set group =>   4
Atom  40C    basis set group =>   2
Atom  41C    basis set group =>   2
Atom  42C    basis set group =>   2
Atom  43C    basis set group =>   2
Atom  44C    basis set group =>   2
Atom  45C    basis set group =>   2
Atom  46C    basis set group =>   2
Atom  47C    basis set group =>   2
Atom  48N    basis set group =>   3
Atom  49C    basis set group =>   2
Atom  50C    basis set group =>   2
Atom  51C    basis set group =>   2
Atom  52H    basis set group =>   4
Atom  53H    basis set group =>   4
Atom  54H    basis set group =>   4
Atom  55H    basis set group =>   4
Atom  56H    basis set group =>   4
Atom  57H    basis set group =>   4
Atom  58C    basis set group =>   2
Atom  59C    basis set group =>   2
Atom  60C    basis set group =>   2
Atom  61C    basis set group =>   2
Atom  62C    basis set group =>   2
Atom  63C    basis set group =>   2
Atom  64H    basis set group =>   4
Atom  65H    basis set group =>   4
Atom  66H    basis set group =>   4
Atom  67H    basis set group =>   4
Atom  68C    basis set group =>   2
Atom  69C    basis set group =>   2
Atom  70C    basis set group =>   2
Atom  71C    basis set group =>   2
Atom  72N    basis set group =>   3
Atom  73C    basis set group =>   2
Atom  74H    basis set group =>   4
Atom  75H    basis set group =>   4
Atom  76H    basis set group =>   4
Atom  77H    basis set group =>   4
Atom  78C    basis set group =>   2
Atom  79C    basis set group =>   2
Atom  80C    basis set group =>   2
Atom  81C    basis set group =>   2
Atom  82C    basis set group =>   2
Atom  83C    basis set group =>   2
Atom  84C    basis set group =>   2
Atom  85C    basis set group =>   2
Atom  86N    basis set group =>   3
Atom  87C    basis set group =>   2
Atom  88C    basis set group =>   2
Atom  89C    basis set group =>   2
Atom  90H    basis set group =>   4
Atom  91H    basis set group =>   4
Atom  92H    basis set group =>   4
Atom  93H    basis set group =>   4
Atom  94H    basis set group =>   4
Atom  95H    basis set group =>   4
Atom  96C    basis set group =>   2
Atom  97C    basis set group =>   2
Atom  98C    basis set group =>   2
Atom  99C    basis set group =>   2
Atom 100C    basis set group =>   2
Atom 101C    basis set group =>   2
Atom 102H    basis set group =>   4
Atom 103H    basis set group =>   4
Atom 104H    basis set group =>   4
Atom 105H    basis set group =>   4
Atom 106C    basis set group =>   2
Atom 107C    basis set group =>   2
Atom 108C    basis set group =>   2
Atom 109C    basis set group =>   2
Atom 110N    basis set group =>   3
Atom 111C    basis set group =>   2
Atom 112H    basis set group =>   4
Atom 113H    basis set group =>   4
Atom 114H    basis set group =>   4
Atom 115H    basis set group =>   4
Atom 116C    basis set group =>   2
Atom 117C    basis set group =>   2
Atom 118C    basis set group =>   2
Atom 119C    basis set group =>   2
Atom 120C    basis set group =>   2
Atom 121C    basis set group =>   2
Atom 122C    basis set group =>   2
Atom 123C    basis set group =>   2
Atom 124N    basis set group =>   3
Atom 125C    basis set group =>   2
Atom 126C    basis set group =>   2
Atom 127C    basis set group =>   2
Atom 128H    basis set group =>   4
Atom 129H    basis set group =>   4
Atom 130H    basis set group =>   4
Atom 131H    basis set group =>   4
Atom 132H    basis set group =>   4
Atom 133H    basis set group =>   4
Atom 134C    basis set group =>   2
Atom 135C    basis set group =>   2
Atom 136C    basis set group =>   2
Atom 137C    basis set group =>   2
Atom 138C    basis set group =>   2
Atom 139C    basis set group =>   2
Atom 140H    basis set group =>   4
Atom 141H    basis set group =>   4
Atom 142H    basis set group =>   4
Atom 143H    basis set group =>   4
Atom 144C    basis set group =>   2
Atom 145C    basis set group =>   2
Atom 146C    basis set group =>   2
Atom 147C    basis set group =>   2
Atom 148N    basis set group =>   3
Atom 149C    basis set group =>   2
Atom 150H    basis set group =>   4
Atom 151H    basis set group =>   4
Atom 152H    basis set group =>   4
Atom 153H    basis set group =>   4

-------------------------------------
AUXILIARY/J BASIS SET IN INPUT FORMAT
-------------------------------------

 # Auxiliary/J basis set for element : H 
 NewAuxJGTO H 
 S 3 
   1      15.6752927000      0.1007184237
   2       3.6063578000      0.3404257499
   3       1.2080016000      0.6491996172
 S 1 
   1       0.4726794000      1.0000000000
 S 1 
   1       0.2018100000      1.0000000000
 P 2 
   1       2.0281365000      0.5596620919
   2       0.5358730000      0.5596620919
  end;

 # Auxiliary/J basis set for element : C 
 NewAuxJGTO C 
 S 3 
   1     459.7023860000      0.1098751775
   2     132.9577920000      0.2844848472
   3      41.5658170000      0.6964707648
 S 1 
   1      13.9155610000      1.0000000000
 S 1 
   1       4.9305290000     -1.0000000000
 S 1 
   1       1.8229480000      1.0000000000
 S 1 
   1       0.6920510000      1.0000000000
 S 1 
   1       0.2650930000      1.0000000000
 P 1 
   1       0.3278473579      1.0000000000
 P 1 
   1       0.7868336591      1.0000000000
 P 1 
   1       1.9710183160      1.0000000000
 D 1 
   1       4.0133010000      1.0000000000
 D 1 
   1       1.2475050000      1.0000000000
 D 1 
   1       0.4081480000      1.0000000000
  end;

 # Auxiliary/J basis set for element : N 
 NewAuxJGTO N 
 S 3 
   1     680.5425300000      0.1043830093
   2     196.7562140000      0.2751518961
   3      61.2707930000      0.7090825511
 S 1 
   1      20.3644630000      1.0000000000
 S 1 
   1       7.1424770000     -1.0000000000
 S 1 
   1       2.6080260000      1.0000000000
 S 1 
   1       0.9763730000      1.0000000000
 S 1 
   1       0.3686330000      1.0000000000
 P 1 
   1       0.4707391941      1.0000000000
 P 1 
   1       1.1297740658     -1.0000000000
 P 1 
   1       2.8300840347      1.0000000000
 D 1 
   1       5.8329865000      1.0000000000
 D 1 
   1       1.7326865000      1.0000000000
 D 1 
   1       0.5452425000      1.0000000000
  end;

 # Auxiliary/J basis set for element : Pd
 NewAuxJGTO Pd
 S 4 
   1      51.0211803000      0.0154414011
   2      17.6543867000     -0.3899991562
   3      10.3849330000      1.7000917225
   4       6.2315704000     -2.2542519748
 S 1 
   1       3.6656295000     -1.0000000000
 S 1 
   1       2.1995933000      1.0000000000
 S 1 
   1       1.2683839000      1.0000000000
 S 1 
   1       0.7461081000      1.0000000000
 S 1 
   1       0.4477087000      1.0000000000
 S 1 
   1       0.2581689000      1.0000000000
 S 1 
   1       0.1518640000      1.0000000000
 P 1 
   1       5.6999676000      1.0000000000
 P 1 
   1       2.5155374000     -1.0000000000
 P 1 
   1       1.1229524000      1.0000000000
 P 1 
   1       0.5047808000     -1.0000000000
 P 1 
   1       0.2274325000     -1.0000000000
 D 1 
   1       3.8006002000      1.0000000000
 D 1 
   1       1.5882692000     -1.0000000000
 D 1 
   1       0.6550157000     -1.0000000000
 D 1 
   1       0.2680210000      1.0000000000
 D 1 
   1       0.1093843000     -1.0000000000
 F 2 
   1       2.0106185000     -1.3134732431
   2       0.8268460000      0.9210621264
 F 1 
   1       0.3451253000      1.0000000000
 G 1 
   1       7.5375072000      1.0000000000
 G 1 
   1       2.7664349000      1.0000000000
 G 1 
   1       1.0133462000      1.0000000000
  end;

-------------------------
ECP PARAMETER INFORMATION
-------------------------

 Group 1, Type Pd ECP Def2-ECP (replacing 28 core electrons, lmax=3)

Atom   0Pd   ECP group =>   1
Atom   1Pd   ECP group =>   1


-------------------------
ECP BASIS IN INPUT FORMAT
-------------------------

 #ECP Def2-ECP
 NewECP Pd
   N_core 28
   lmax f
   s 4
     1      12.4300000000    240.2290403000  2
     2       6.1707594000     35.1719435000  2
     3      13.2700000000     31.9295543000  2
     4       6.6300000000      5.3982169000  2
   p 4
     1      11.0800000000    170.4172760000  2
     2       5.8295541000     28.4721329000  2
     3      13.2700000000     31.9295543000  2
     4       6.6300000000      5.3982169000  2
   d 4
     1       9.5100000000     69.0138449000  2
     2       4.1397811000     11.7508616000  2
     3      13.2700000000     31.9295543000  2
     4       6.6300000000      5.3982169000  2
   f 2
     1      13.2700000000    -31.9295543000  2
     2       6.6300000000     -5.3982169000  2
 End




           ************************************************************
           *        Program running with 32 parallel MPI-processes    *
           *              working on a common directory               *
           ************************************************************
------------------------------------------------------------------------------
                           ORCA GTO INTEGRAL CALCULATION
                           -- RI-GTO INTEGRALS CHOSEN --
------------------------------------------------------------------------------

                         BASIS SET STATISTICS AND STARTUP INFO

Gaussian basis set:
 # of primitive gaussian shells          ... 2048
 # of primitive gaussian functions       ... 3660
 # of contracted shells                  ... 1058
 # of contracted basis functions         ... 2058
 Highest angular momentum                ...    2
 Maximum contraction depth               ...    6
Auxiliary gaussian basis set:
 # of primitive gaussian shells          ... 1790
 # of primitive gaussian functions       ... 3886
 # of contracted shells                  ... 1422
 # of contracted aux-basis functions     ... 3394
 Highest angular momentum                ...    4
 Maximum contraction depth               ...    4
Ratio of auxiliary to basis functions    ...  1.65
Integral package used                  ... LIBINT
 One Electron integrals                  
   ECP integrals                         ... done
 Ordering auxiliary basis shells         ... done
 Integral threshhold             Thresh  ...  2.500e-11
 Primitive cut-off               TCut    ...  2.500e-12
 Pre-screening matrix                    ... done
 Shell pair data                         ... 
 Ordering of the shell pairs             ... done (   0.045 sec) 206808 of 560211 pairs
 Determination of significant pairs      ... done (   0.001 sec)
 Creation of shell pair data             ... done (   0.020 sec)
 Storage of shell pair data              ... done (   0.037 sec)
 Shell pair data done in (   0.103 sec)
 Computing two index integrals           ... done
 Cholesky decomposition of the V-matrix  ... done


Timings:
 Total evaluation time                   ...   9.144 sec (  0.152 min)
 One electron matrix time                ...   5.655 sec (  0.094 min) = 61.8%
 Schwartz matrix evaluation time         ...   2.177 sec (  0.036 min) = 23.8%
 Two index repulsion integral time       ...   0.214 sec (  0.004 min) =  2.3%
 Cholesky decomposition of V             ...   0.965 sec (  0.016 min) = 10.6%
 Three index repulsion integral time     ...   0.001 sec (  0.000 min) =  0.0%



           ************************************************************
           *        Program running with 32 parallel MPI-processes    *
           *              working on a common directory               *
           ************************************************************
-------------------------------------------------------------------------------
                                 ORCA SCF
-------------------------------------------------------------------------------

------------
SCF SETTINGS
------------
Hamiltonian:
 Density Functional     Method          .... DFT(GTOs)
 Exchange Functional    Exchange        .... B973C
 Correlation Functional Correlation     .... B973C
 Gradients option       PostSCFGGA      .... off
   Density functional embedding theory  .... OFF
 RI-approximation to the Coulomb term is turned on
   Number of auxiliary basis functions  .... 3394


General Settings:
 Integral files         IntName         .... _s_5d1_b_B97-3c
 Hartree-Fock type      HFTyp           .... RHF
 Total Charge           Charge          ....    4
 Multiplicity           Mult            ....    1
 Number of Electrons    NEL             ....  672
 Basis Dimension        Dim             .... 2058
 Nuclear Repulsion      ENuc            ....  18145.5222383828 Eh

Convergence Acceleration:
 DIIS                   CNVDIIS         .... on
   Start iteration      DIISMaxIt       ....     0
   Startup error        DIISStart       ....  0.200000
   # of expansion vecs  DIISMaxEq       ....     5
   Bias factor          DIISBfac        ....   1.050
   Max. coefficient     DIISMaxC        ....  10.000
 Newton-Raphson         CNVNR           .... off
 SOSCF                  CNVSOSCF        .... off
 Level Shifting         CNVShift        .... on
   Level shift para.    LevelShift      ....    0.2500
   Turn off err/grad.   ShiftErr        ....    0.0000
 Zerner damping         CNVZerner       .... off
 Static damping         CNVDamp         .... on
   Fraction old density DampFac         ....    0.8500
   Max. Damping (<1)    DampMax         ....    0.9800
   Min. Damping (>=0)   DampMin         ....    0.0000
   Turn off err/grad.   DampErr         ....    0.0300
 Fernandez-Rico         CNVRico         .... off

SCF Procedure:
 Maximum # iterations   MaxIter         ....  2000
 SCF integral mode      SCFMode         .... Direct
   Integral package                     .... LIBINT
 Reset frequency        DirectResetFreq ....    20
 Integral Threshold     Thresh          ....  2.500e-11 Eh
 Primitive CutOff       TCut            ....  2.500e-12 Eh

Convergence Tolerance:
 Convergence Check Mode ConvCheckMode   .... Total+1el-Energy
 Convergence forced     ConvForced      .... 0
 Energy Change          TolE            ....  1.000e-08 Eh
 1-El. energy change                    ....  1.000e-05 Eh
 DIIS Error             TolErr          ....  5.000e-07


Diagonalization of the overlap matrix:
Smallest eigenvalue                        ... 5.781e-06
Time for diagonalization                   ...    0.689 sec
Threshold for overlap eigenvalues          ... 1.000e-08
Number of eigenvalues below threshold      ... 0
Time for construction of square roots      ...    0.491 sec
Total time needed                          ...    1.187 sec

--------------------------------
INITIAL GUESS: MINIMAL BASIS EHT
--------------------------------
The minimal basis has 562 functions
EHT matrix was diagonalized
Basis set overlap was calculated now projecting the orbitals
Using GuessMode=FMatrix for the initial guess
C*T matrix was formed
Effective Fockian was calculated
Effective Fockian was diagonalized
Initial density was built
                      ------------------
                      INITIAL GUESS DONE
                      ------------------
-------------------
DFT GRID GENERATION
-------------------

General Integration Accuracy     IntAcc      ...  5.340
Radial Grid Type                 RadialGrid  ... Gauss-Chebyshev
Angular Grid (max. acc.)         AngularGrid ... Lebedev-590
Angular grid pruning method      GridPruning ... 3 (G Style)
Weight generation scheme         WeightScheme... Becke
Basis function cutoff            BFCut       ...    1.0000e-11
Integration weight cutoff        WCut        ...    1.0000e-14
Grids for H and He will be reduced by one unit

# of grid points (after initial pruning)     ... 2250644 (   0.0 sec)
# of grid points (after weights+screening)   ... 1842084 (  10.1 sec)
nearest neighbour list constructed           ...    0.0 sec
Grid point re-assignment to atoms done       ...    0.3 sec
Grid point division into batches done        ...   18.8 sec
Reduced shell lists constructed in   20.1 sec

Total number of grid points                  ...  1842084
Total number of batches                      ...    28860
Average number of points per batch           ...       63
Average number of grid points per atom       ...    11962
Average number of shells per batch           ...   218.40 (20.64%)
Average number of basis functions per batch  ...   429.10 (20.85%)
Average number of large shells per batch     ...   116.84 (53.50%)
Average number of large basis fcns per batch ...   234.08 (54.55%)
Maximum spatial batch extension              ...  13.04,  4.33, 13.17 au
Average spatial batch extension              ...   0.03,  0.03,  0.03 au

Time for grid setup =   31.177 sec

--------------
SCF ITERATIONS
--------------
ITER       Energy         Delta-E        Max-DP      RMS-DP      [F,P]     Damp
               ***  Starting incremental Fock matrix formation  ***
  0  -4032.4456883466   0.00000000000025.50681092  0.09197304  5.2200121 0.8500
  1  -4041.3958278459  -8.950139499342 3.45959400  0.01371691  4.5262187 0.8500
                               ***Turning on DIIS***
  2  -4048.2732777667  -6.877449920830 3.02121438  0.01161487  3.8803446 0.8500
  3  -4053.2334329805  -4.960155213790 3.01998055  0.01035780  3.3201927 0.8500
  4  -4054.3191925038  -1.08575952331017.67331810  0.04932215  2.8228561 0.8500
  5  -4039.0193239146  15.299868589234 4.72117654  0.01353134  2.4019011 0.8500
  6  -4044.4449674272  -5.425643512597 4.15362629  0.01178275  2.0531653 0.8500
  7  -4053.5909846824  -9.146017255218 3.56822011  0.01021705  1.7506257 0.8500
  8  -4059.2189394539  -5.627954771462 2.94521632  0.00852565  1.4674867 0.8500
  9  -4060.9223148986  -1.703375444704 2.21236262  0.00690331  1.2511232 0.8500
 10  -4060.6650306063   0.257284292275 1.98383615  0.00619030  1.0672333 0.8500
 11  -4059.6195444047   1.045486201569 1.92194562  0.00566247  0.9121033 0.8500
 12  -4062.2473776175  -2.627833212759 1.68997995  0.00487148  0.7785864 0.8500
 13  -4065.5184288040  -3.271051186468 1.29209843  0.00380468  0.6428982 0.8500
 14  -4067.1773965151  -1.658967711162 1.14425771  0.00345216  0.5538292 0.8500
 15  -4068.5007969150  -1.323400399870 0.99971671  0.00305805  0.4746540 0.8500
 16  -4069.7464007432  -1.245603828178 0.87315839  0.00266391  0.4058112 0.8500
 17  -4070.9251947143  -1.178793971121 0.73715486  0.00229389  0.3431981 0.8500
 18  -4071.9217896373  -0.996594922944 0.62797816  0.00195260  0.2884749 0.8500
 19  -4072.7466876904  -0.824898053190 0.53774053  0.00163739  0.2447306 0.8500
               *** Restarting incremental Fock matrix formation ***
                                   *** Resetting DIIS ***
 20  -4073.4419000847  -0.695212394301 0.45909687  0.00138707  0.2084109 0.8500
 21  -4074.0315466712  -0.589646586490 0.38978402  0.00118490  0.1767942 0.8500
 22  -4074.5282356226  -0.496688951367 0.33054386  0.00101058  0.1498378 0.8500
 23  -4074.9476021377  -0.419366515052 0.28120469  0.00086139  0.1271356 0.8500
 24  -4075.3028114107  -0.355209273079 0.23958348  0.00073417  0.1080175 0.8500
 25  -4075.6043877250  -0.301576314272 0.20448886  0.00062530  0.0917998 0.8500
 26  -4075.8607669641  -0.256379239145 0.17415339  0.00053234  0.0780262 0.8500
 27  -4076.0785406655  -0.217773701377 0.14794465  0.00045252  0.0662902 0.8500
 28  -4076.2634337259  -0.184893060359 0.12568154  0.00038445  0.0563209 0.8500
 29  -4076.4204422038  -0.157008477872 0.10692714  0.00032691  0.0478639 0.8500
 30  -4076.5538231588  -0.133380955016 0.09103699  0.00027821  0.0406781 0.8500
 31  -4076.6671573292  -0.113334170448 0.07751469  0.00023680  0.0345668 0.8500
 32  -4076.7634575071  -0.096300177876 0.43966931  0.00134287  0.0293700 0.0000
 33  -4077.3084813465  -0.545023839386 0.00442328  0.00001849  0.0006231 0.0000
 34  -4077.3084828198  -0.000001473352 0.00095027  0.00000428  0.0008303 0.0000
 35  -4077.3084875395  -0.000004719652 0.00061143  0.00000363  0.0001983 0.0000
 36  -4077.3084882879  -0.000000748409 0.00103665  0.00000489  0.0001156 0.0000
 37  -4077.3084885014  -0.000000213466 0.00085047  0.00000362  0.0000544 0.0000
 38  -4077.3084885326  -0.000000031232 0.00104157  0.00000439  0.0000190 0.0000
 39  -4077.3084885397  -0.000000007134 0.00354750  0.00001985  0.0000071 0.0000
               *** Restarting incremental Fock matrix formation ***
                                   *** Resetting DIIS ***
 40  -4077.3084883701   0.000000169654 0.00179021  0.00000883  0.0000057 0.0000
 41  -4077.3084882150   0.000000155062 0.00045896  0.00000193  0.0000101 0.0000
 42  -4077.3084880647   0.000000150263 0.00134503  0.00000397  0.0000019 0.0000
 43  -4077.3084881552  -0.000000090480 0.00075839  0.00000208  0.0000046 0.0000
 44  -4077.3084881719  -0.000000016680 0.00020428  0.00000067  0.0000012 0.0000
 45  -4077.3084880597   0.000000112228 0.00065339  0.00000185  0.0000010 0.0000
 46  -4077.3084879977   0.000000061933 0.00053514  0.00000095  0.0000013 0.0000
                            ***DIIS convergence achieved***

               *****************************************************
               *                     SUCCESS                       *
               *           SCF CONVERGED AFTER  47 CYCLES          *
               *****************************************************


----------------
TOTAL SCF ENERGY
----------------

Total Energy       :        -4077.30848799 Eh         -110949.20451 eV

Components:
Nuclear Repulsion  :        18145.52223838 Eh          493764.76262 eV
Electronic Energy  :       -22222.83072637 Eh         -604713.96713 eV
One Electron Energy:       -41619.81324633 Eh        -1132532.69528 eV
Two Electron Energy:        19396.98251996 Eh          527818.72815 eV

Virial components:
Potential Energy   :        -7982.00343731 Eh         -217201.35583 eV
Kinetic Energy     :         3904.69494932 Eh          106252.15133 eV
Virial Ratio       :            2.04420666


DFT components:
N(Alpha)           :      335.999919638381 electrons
N(Beta)            :      335.999919638381 electrons
[...]
 25 C      6.1335     6.0000    -0.1335     3.6539     3.6539    -0.0000
 26 H      0.7591     1.0000     0.2409     0.9032     0.9032    -0.0000
 27 H      0.7745     1.0000     0.2255     0.9237     0.9237    -0.0000
 28 H      0.7567     1.0000     0.2433     0.9015     0.9015    -0.0000
 29 H      0.7715     1.0000     0.2285     0.8746     0.8746    -0.0000
 30 C      5.9747     6.0000     0.0253     3.7377     3.7377    -0.0000
 31 C      6.1627     6.0000    -0.1627     3.9978     3.9978    -0.0000
 32 C      6.0503     6.0000    -0.0503     3.9048     3.9048    -0.0000
 33 C      6.1307     6.0000    -0.1307     3.9539     3.9539    -0.0000
 34 N      7.0148     7.0000    -0.0148     3.3308     3.3308    -0.0000
 35 C      6.1554     6.0000    -0.1554     3.9133     3.9133    -0.0000
 36 H      0.7393     1.0000     0.2607     0.8947     0.8947    -0.0000
 37 H      0.7532     1.0000     0.2468     0.9116     0.9116    -0.0000
 38 H      0.8102     1.0000     0.1898     0.9520     0.9520    -0.0000
 39 H      0.8179     1.0000     0.1821     0.9421     0.9421    -0.0000
 40 C      6.0362     6.0000    -0.0362     3.3137     3.3137    -0.0000
 41 C      5.9028     6.0000     0.0972     2.9947     2.9947    -0.0000
 42 C      6.2014     6.0000    -0.2014     3.7556     3.7556    -0.0000
 43 C      6.0930     6.0000    -0.0930     3.8210     3.8210    -0.0000
 44 C      6.1863     6.0000    -0.1863     4.1624     4.1624    -0.0000
 45 C      6.2193     6.0000    -0.2193     3.9402     3.9402    -0.0000
 46 C      5.8850     6.0000     0.1150     3.5383     3.5383    -0.0000
 47 C      6.1837     6.0000    -0.1837     3.8100     3.8100    -0.0000
 48 N      7.1012     7.0000    -0.1012     3.3626     3.3626    -0.0000
 49 C      6.1932     6.0000    -0.1932     3.9400     3.9400    -0.0000
 50 C      5.9875     6.0000     0.0125     3.5788     3.5788    -0.0000
 51 C      5.7893     6.0000     0.2107     3.3675     3.3675    -0.0000
 52 H      0.7437     1.0000     0.2563     0.8962     0.8962    -0.0000
 53 H      0.7704     1.0000     0.2296     0.9244     0.9244    -0.0000
 54 H      0.7641     1.0000     0.2359     0.9026     0.9026    -0.0000
 55 H      0.7936     1.0000     0.2064     0.9302     0.9302    -0.0000
 56 H      0.8466     1.0000     0.1534     0.9642     0.9642    -0.0000
 57 H      0.8012     1.0000     0.1988     0.9285     0.9285    -0.0000
 58 C      6.1536     6.0000    -0.1536     4.0281     4.0281    -0.0000
 59 C      6.1294     6.0000    -0.1294     3.8481     3.8481    -0.0000
 60 C      6.1702     6.0000    -0.1702     4.2180     4.2180    -0.0000
 61 C      6.1458     6.0000    -0.1458     3.9114     3.9114    -0.0000
 62 C      6.0265     6.0000    -0.0265     3.6901     3.6901    -0.0000
 63 C      6.1471     6.0000    -0.1471     3.6290     3.6290    -0.0000
 64 H      0.7571     1.0000     0.2429     0.9026     0.9026    -0.0000
 65 H      0.7748     1.0000     0.2252     0.9241     0.9241    -0.0000
 66 H      0.7550     1.0000     0.2450     0.9008     0.9008    -0.0000
 67 H      0.7866     1.0000     0.2134     0.8833     0.8833    -0.0000
 68 C      5.9941     6.0000     0.0059     3.7548     3.7548    -0.0000
 69 C      6.1784     6.0000    -0.1784     3.9949     3.9949    -0.0000
 70 C      6.0373     6.0000    -0.0373     3.8995     3.8995    -0.0000
 71 C      6.1352     6.0000    -0.1352     3.9613     3.9613    -0.0000
 72 N      7.0535     7.0000    -0.0535     3.2831     3.2831    -0.0000
 73 C      6.1148     6.0000    -0.1148     3.8585     3.8585    -0.0000
 74 H      0.7314     1.0000     0.2686     0.8935     0.8935    -0.0000
 75 H      0.7510     1.0000     0.2490     0.9107     0.9107    -0.0000
 76 H      0.8112     1.0000     0.1888     0.9465     0.9465    -0.0000
 77 H      0.8071     1.0000     0.1929     0.9456     0.9456    -0.0000
 78 C      5.9961     6.0000     0.0039     3.2219     3.2219    -0.0000
 79 C      5.9444     6.0000     0.0556     3.0300     3.0300    -0.0000
 80 C      6.2387     6.0000    -0.2387     3.7309     3.7309    -0.0000
 81 C      6.0770     6.0000    -0.0770     3.8047     3.8047    -0.0000
 82 C      6.1873     6.0000    -0.1873     4.1550     4.1550    -0.0000
 83 C      6.2284     6.0000    -0.2284     3.9249     3.9249    -0.0000
 84 C      5.7892     6.0000     0.2108     3.4029     3.4029    -0.0000
 85 C      6.2486     6.0000    -0.2486     3.7466     3.7466    -0.0000
 86 N      7.0801     7.0000    -0.0801     3.2579     3.2579    -0.0000
 87 C      6.1033     6.0000    -0.1033     3.9405     3.9405    -0.0000
 88 C      5.9815     6.0000     0.0185     3.6274     3.6274    -0.0000
 89 C      5.8079     6.0000     0.1921     3.4144     3.4144    -0.0000
 90 H      0.7405     1.0000     0.2595     0.8942     0.8942    -0.0000
 91 H      0.7701     1.0000     0.2299     0.9242     0.9242    -0.0000
 92 H      0.7655     1.0000     0.2345     0.9024     0.9024    -0.0000
 93 H      0.7918     1.0000     0.2082     0.9282     0.9282    -0.0000
 94 H      0.8664     1.0000     0.1336     0.9744     0.9744    -0.0000
 95 H      0.8338     1.0000     0.1662     0.9417     0.9417    -0.0000
 96 C      6.1755     6.0000    -0.1755     4.0960     4.0960    -0.0000
 97 C      6.1219     6.0000    -0.1219     3.8401     3.8401    -0.0000
 98 C      6.1691     6.0000    -0.1691     4.2131     4.2131    -0.0000
 99 C      6.1452     6.0000    -0.1452     3.9290     3.9290    -0.0000
100 C      6.0488     6.0000    -0.0488     3.7127     3.7127    -0.0000
101 C      6.1329     6.0000    -0.1329     3.6274     3.6274    -0.0000
102 H      0.7566     1.0000     0.2434     0.9021     0.9021    -0.0000
103 H      0.7747     1.0000     0.2253     0.9241     0.9241    -0.0000
104 H      0.7558     1.0000     0.2442     0.9009     0.9009    -0.0000
105 H      0.7805     1.0000     0.2195     0.8832     0.8832    -0.0000
106 C      5.9389     6.0000     0.0611     3.6565     3.6565    -0.0000
107 C      6.1714     6.0000    -0.1714     4.0041     4.0041    -0.0000
108 C      6.0629     6.0000    -0.0629     3.9536     3.9536    -0.0000
109 C      6.1086     6.0000    -0.1086     3.9474     3.9474    -0.0000
110 N      7.0559     7.0000    -0.0559     3.2731     3.2731    -0.0000
111 C      6.1687     6.0000    -0.1687     3.8587     3.8587    -0.0000
112 H      0.7330     1.0000     0.2670     0.8930     0.8930    -0.0000
113 H      0.7504     1.0000     0.2496     0.9109     0.9109    -0.0000
114 H      0.8080     1.0000     0.1920     0.9561     0.9561    -0.0000
115 H      0.8123     1.0000     0.1877     0.9480     0.9480    -0.0000
116 C      6.0344     6.0000    -0.0344     3.3116     3.3116    -0.0000
117 C      5.8904     6.0000     0.1096     2.9869     2.9869    -0.0000
118 C      6.2019     6.0000    -0.2019     3.7648     3.7648    -0.0000
119 C      6.0909     6.0000    -0.0909     3.8160     3.8160    -0.0000
120 C      6.1817     6.0000    -0.1817     4.1556     4.1556    -0.0000
121 C      6.2218     6.0000    -0.2218     3.9515     3.9515    -0.0000
122 C      5.8815     6.0000     0.1185     3.4963     3.4963    -0.0000
123 C      6.2028     6.0000    -0.2028     3.8209     3.8209    -0.0000
124 N      7.0801     7.0000    -0.0801     3.3760     3.3760    -0.0000
125 C      6.1889     6.0000    -0.1889     3.9667     3.9667    -0.0000
126 C      5.9734     6.0000     0.0266     3.5841     3.5841    -0.0000
127 C      5.8124     6.0000     0.1876     3.4098     3.4098    -0.0000
128 H      0.7421     1.0000     0.2579     0.8953     0.8953    -0.0000
129 H      0.7702     1.0000     0.2298     0.9244     0.9244    -0.0000
130 H      0.7632     1.0000     0.2368     0.9026     0.9026    -0.0000
131 H      0.7875     1.0000     0.2125     0.9280     0.9280    -0.0000
132 H      0.8585     1.0000     0.1415     0.9563     0.9563    -0.0000
133 H      0.8089     1.0000     0.1911     0.9280     0.9280    -0.0000
134 C      6.1559     6.0000    -0.1559     4.0056     4.0056     0.0000
135 C      6.1293     6.0000    -0.1293     3.8430     3.8430    -0.0000
136 C      6.1616     6.0000    -0.1616     4.1938     4.1938    -0.0000
137 C      6.1598     6.0000    -0.1598     3.9199     3.9199    -0.0000
138 C      6.0021     6.0000    -0.0021     3.7047     3.7047    -0.0000
139 C      6.1753     6.0000    -0.1753     3.6727     3.6727    -0.0000
140 H      0.7552     1.0000     0.2448     0.9014     0.9014    -0.0000
141 H      0.7751     1.0000     0.2249     0.9241     0.9241    -0.0000
142 H      0.7560     1.0000     0.2440     0.9022     0.9022    -0.0000
143 H      0.7875     1.0000     0.2125     0.8845     0.8845    -0.0000
144 C      6.0074     6.0000    -0.0074     3.7393     3.7393    -0.0000
145 C      6.1726     6.0000    -0.1726     3.9991     3.9991    -0.0000
146 C      6.0492     6.0000    -0.0492     3.9089     3.9089    -0.0000
147 C      6.1277     6.0000    -0.1277     3.9659     3.9659    -0.0000
148 N      7.0566     7.0000    -0.0566     3.2958     3.2958    -0.0000
149 C      6.1091     6.0000    -0.1091     3.8482     3.8482    -0.0000
150 H      0.7305     1.0000     0.2695     0.8934     0.8934    -0.0000
151 H      0.7505     1.0000     0.2495     0.9104     0.9104    -0.0000
152 H      0.8229     1.0000     0.1771     0.9555     0.9555    -0.0000
153 H      0.7976     1.0000     0.2024     0.9402     0.9402    -0.0000

  Mayer bond orders larger than 0.100000
B(  0-Pd, 34-N ) :   0.5326 B(  0-Pd, 48-N ) :   0.5751 B(  0-Pd, 86-N ) :   0.4992 
B(  0-Pd,124-N ) :   0.5799 B(  1-Pd, 10-N ) :   0.5302 B(  1-Pd, 71-C ) :   0.1099 
B(  1-Pd, 72-N ) :   0.5419 B(  1-Pd,110-N ) :   0.5290 B(  1-Pd,147-C ) :   0.1072 
B(  1-Pd,148-N ) :   0.5310 B(  2-C ,  3-C ) :   1.8773 B(  2-C ,  4-C ) :  -0.2924 
B(  2-C , 20-C ) :   1.5110 B(  3-C ,  4-C ) :   1.4613 B(  3-C , 13-C ) :  -0.2077 
B(  3-C , 20-C ) :  -0.3745 B(  4-C ,  5-C ) :   1.5319 B(  4-C , 12-C ) :  -0.1305 
B(  4-C , 13-C ) :   1.0546 B(  5-C ,  6-C ) :   1.4179 B(  5-C , 14-H ) :   0.8538 
B(  6-C ,  7-C ) :   1.6435 B(  6-C , 15-H ) :   0.8691 B(  7-C ,  8-C ) :   1.2834 
B(  7-C , 13-C ) :  -0.1016 B(  7-C , 16-H ) :   0.8623 B(  8-C ,  9-C ) :   1.3183 
B(  8-C , 13-C ) :   1.0692 B(  9-C , 10-N ) :   1.4607 B(  9-C , 13-C ) :  -0.1179 
B(  9-C , 17-H ) :   0.8933 B( 10-N , 11-C ) :   1.2630 B( 11-C , 12-C ) :   1.4141 
B( 11-C , 13-C ) :   0.1078 B( 11-C , 18-H ) :   0.9535 B( 12-C , 13-C ) :   1.4236 
B( 12-C , 19-H ) :   0.8774 B( 20-C , 21-C ) :   1.3617 B( 20-C , 25-C ) :   1.4318 
B( 21-C , 22-C ) :   1.5375 B( 21-C , 26-H ) :   0.8818 B( 22-C , 23-C ) :   1.5811 
B( 22-C , 27-H ) :   0.8702 B( 23-C , 24-C ) :   1.3674 B( 23-C , 28-H ) :   0.8462 
B( 24-C , 25-C ) :   1.3375 B( 24-C , 30-C ) :   0.9072 B( 25-C , 29-H ) :   0.8609 
B( 30-C , 31-C ) :   1.4506 B( 30-C , 35-C ) :   1.3943 B( 31-C , 32-C ) :   1.5107 
B( 31-C , 36-H ) :   0.8736 B( 32-C , 33-C ) :   1.4294 B( 32-C , 37-H ) :   0.8691 
B( 33-C , 34-N ) :   1.3579 B( 33-C , 38-H ) :   0.9278 B( 34-N , 35-C ) :   1.3635 
B( 34-N , 86-N ) :   0.1084 B( 35-C , 39-H ) :   0.9150 B( 40-C , 41-C ) :   1.8939 
B( 40-C , 42-C ) :  -0.2778 B( 40-C , 58-C ) :   1.5008 B( 41-C , 42-C ) :   1.4537 
B( 41-C , 51-C ) :  -0.2006 B( 41-C , 58-C ) :  -0.3943 B( 42-C , 43-C ) :   1.5164 
B( 42-C , 51-C ) :   1.0698 B( 43-C , 44-C ) :   1.4082 B( 43-C , 52-H ) :   0.8581 
B( 44-C , 45-C ) :   1.6460 B( 44-C , 53-H ) :   0.8722 B( 45-C , 46-C ) :   1.3061 
B( 45-C , 54-H ) :   0.8628 B( 46-C , 47-C ) :   1.2626 B( 46-C , 51-C ) :   1.0771 
B( 47-C , 48-N ) :   1.4998 B( 47-C , 51-C ) :  -0.1204 B( 47-C , 55-H ) :   0.9117 
B( 48-N , 49-C ) :   1.2555 B( 49-C , 50-C ) :   1.4629 B( 49-C , 56-H ) :   0.9290 
B( 50-C , 51-C ) :   1.3869 B( 50-C , 57-H ) :   0.8732 B( 58-C , 59-C ) :   1.3564 
B( 58-C , 63-C ) :   1.3830 B( 59-C , 60-C ) :   1.5461 B( 59-C , 64-H ) :   0.8856 
B( 60-C , 61-C ) :   1.5858 B( 60-C , 65-H ) :   0.8702 B( 61-C , 62-C ) :   1.3505 
B( 61-C , 66-H ) :   0.8391 B( 62-C , 63-C ) :   1.3176 B( 62-C , 68-C ) :   0.9260 
B( 63-C , 67-H ) :   0.8874 B( 68-C , 69-C ) :   1.4192 B( 68-C , 73-C ) :   1.3915 
B( 69-C , 70-C ) :   1.5053 B( 69-C , 74-H ) :   0.8662 B( 70-C , 71-C ) :   1.4487 
B( 70-C , 75-H ) :   0.8609 B( 71-C , 72-N ) :   1.2986 B( 71-C , 76-H ) :   0.9237 
B( 72-N , 73-C ) :   1.4058 B( 73-C , 77-H ) :   0.9083 B( 78-C , 79-C ) :   1.8554 
B( 78-C , 80-C ) :  -0.2886 B( 78-C , 96-C ) :   1.5113 B( 79-C , 80-C ) :   1.4804 
B( 79-C , 89-C ) :  -0.1947 B( 79-C , 96-C ) :  -0.3902 B( 80-C , 81-C ) :   1.5220 
B( 80-C , 88-C ) :  -0.1250 B( 80-C , 89-C ) :   1.0708 B( 81-C , 82-C ) :   1.4036 
B( 81-C , 90-H ) :   0.8532 B( 82-C , 83-C ) :   1.6413 B( 82-C , 91-H ) :   0.8696 
B( 83-C , 84-C ) :   1.2987 B( 83-C , 92-H ) :   0.8665 B( 84-C , 85-C ) :   1.2117 
B( 84-C , 89-C ) :   1.0865 B( 85-C , 86-N ) :   1.4734 B( 85-C , 89-C ) :  -0.1242 
B( 85-C , 93-H ) :   0.9225 B( 86-N , 87-C ) :   1.3037 B( 87-C , 88-C ) :   1.4852 
B( 87-C , 89-C ) :   0.1093 B( 87-C , 94-H ) :   0.9026 B( 88-C , 89-C ) :   1.3950 
B( 88-C , 95-H ) :   0.8742 B( 96-C , 97-C ) :   1.3673 B( 96-C ,101-C ) :   1.4133 
B( 97-C , 98-C ) :   1.5404 B( 97-C ,102-H ) :   0.8815 B( 98-C , 99-C ) :   1.5893 
B( 98-C ,103-H ) :   0.8704 B( 99-C ,100-C ) :   1.3558 B( 99-C ,104-H ) :   0.8422 
B(100-C ,101-C ) :   1.3295 B(100-C ,106-C ) :   0.9235 B(101-C ,105-H ) :   0.8738 
B(106-C ,107-C ) :   1.4293 B(106-C ,111-C ) :   1.3493 B(107-C ,108-C ) :   1.5247 
B(107-C ,112-H ) :   0.8671 B(108-C ,109-C ) :   1.4596 B(108-C ,113-H ) :   0.8629 
B(109-C ,110-N ) :   1.3443 B(109-C ,114-H ) :   0.9144 B(110-N ,111-C ) :   1.3709 
B(111-C ,115-H ) :   0.9241 B(116-C ,117-C ) :   1.8867 B(116-C ,118-C ) :  -0.2797 
B(116-C ,134-C ) :   1.5075 B(117-C ,118-C ) :   1.4680 B(117-C ,127-C ) :  -0.1973 
B(117-C ,134-C ) :  -0.4024 B(118-C ,119-C ) :   1.5153 B(118-C ,127-C ) :   1.0821 
B(119-C ,120-C ) :   1.4052 B(119-C ,128-H ) :   0.8548 B(120-C ,121-C ) :   1.6500 
B(120-C ,129-H ) :   0.8720 B(121-C ,122-C ) :   1.3127 B(121-C ,130-H ) :   0.8607 
B(122-C ,123-C ) :   1.2434 B(122-C ,127-C ) :   1.0784 B(123-C ,124-N ) :   1.5187 
B(123-C ,127-C ) :  -0.1117 B(123-C ,131-H ) :   0.9175 B(124-N ,125-C ) :   1.2499 
B(125-C ,126-C ) :   1.4692 B(125-C ,127-C ) :   0.1021 B(125-C ,132-H ) :   0.9294 
B(126-C ,127-C ) :   1.3821 B(126-C ,133-H ) :   0.8752 B(134-C ,135-C ) :   1.3606 
B(134-C ,139-C ) :   1.3796 B(135-C ,136-C ) :   1.5401 B(135-C ,140-H ) :   0.8838 
B(136-C ,137-C ) :   1.5757 B(136-C ,141-H ) :   0.8710 B(137-C ,138-C ) :   1.3561 
B(137-C ,142-H ) :   0.8429 B(138-C ,139-C ) :   1.3520 B(138-C ,144-C ) :   0.8952 
B(139-C ,143-H ) :   0.8913 B(144-C ,145-C ) :   1.4222 B(144-C ,149-C ) :   1.3942 
B(145-C ,146-C ) :   1.5068 B(145-C ,150-H ) :   0.8704 B(146-C ,147-C ) :   1.4552 
B(146-C ,151-H ) :   0.8603 B(147-C ,148-N ) :   1.3102 B(147-C ,152-H ) :   0.9261 
B(148-N ,149-C ) :   1.4104 B(149-C ,153-H ) :   0.9088 

-------
TIMINGS
-------

Total SCF time: 0 days 0 hours 8 min 28 sec 

Total time                  ....     508.400 sec
Sum of individual times     ....     489.521 sec  ( 96.3%)

Fock matrix formation       ....     208.552 sec  ( 41.0%)
  Split-RI-J                ....      90.694 sec  ( 43.5% of F)
  XC integration            ....     104.789 sec  ( 50.2% of F)
    Basis function eval.    ....      18.865 sec  ( 18.0% of XC)
    Density eval.           ....      43.167 sec  ( 41.2% of XC)
    XC-Functional eval.     ....       6.320 sec  (  6.0% of XC)
    XC-Potential eval.      ....      15.838 sec  ( 15.1% of XC)
Diagonalization             ....      45.251 sec  (  8.9%)
Density matrix formation    ....       2.143 sec  (  0.4%)
Population analysis         ....       7.299 sec  (  1.4%)
Initial guess               ....       7.323 sec  (  1.4%)
Orbital Transformation      ....       0.000 sec  (  0.0%)
Orbital Orthonormalization  ....       0.000 sec  (  0.0%)
DIIS solution               ....     187.775 sec  ( 36.9%)
Grid generation             ....      31.177 sec  (  6.1%)


-------------------------------------------------------------------------------
                          DFT DISPERSION CORRECTION                            
                                                                               
                              DFTD3 V3.1  Rev 1                                
                          USING Becke-Johnson damping                          
-------------------------------------------------------------------------------
The B97-3c composite method is recognized
Using three-body term ABC
Active option DFTDOPT                   ...         4   

molecular C6(AA) [au] = 365009.949863 


            DFT-D V3
 parameters
 s6 scaling factor         :     1.0000 
 a1 scaling factor         :     0.3700 
 s8 scaling factor         :     1.5000 
 a2 scaling factor         :     4.1000 
 Damping factor alpha9(ATM):    16.0000 
 ad hoc parameters k1-k3   :    16.0000     1.3333    -4.0000 

 Edisp/kcal,au: -372.017646654059  -0.592847793296 
 E6   /kcal   : -183.522517082 
 E8   /kcal   : -189.483054781 
 E6(ABC)      :   0.987925209 
 % E8         :  50.933888885 
 % E6(ABC)    :  -0.265558695 

-------------------------   ----------------
Dispersion correction           -0.592847793
-------------------------   ----------------

------------------   -----------------
SRB correction            -0.608717902
------------------   -----------------

-------------------------   --------------------
FINAL SINGLE POINT ENERGY     -4078.510053686709
-------------------------   --------------------


                            ***************************************
                            *     ORCA property calculations      *
                            ***************************************

                                    ---------------------
                                    Active property flags
                                    ---------------------
   (+) Dipole Moment


------------------------------------------------------------------------------
                       ORCA ELECTRIC PROPERTIES CALCULATION
------------------------------------------------------------------------------

Dipole Moment Calculation                       ... on
Quadrupole Moment Calculation                   ... off
Polarizability Calculation                      ... off
GBWName                                         ... _s_5d1_b_B97-3c.gbw
Electron density file                           ... _s_5d1_b_B97-3c.scfp
The origin for moment calculation is the CENTER OF MASS  = (-0.298246, -1.924345  0.415144)

-------------
DIPOLE MOMENT
-------------
                                X             Y             Z
Electronic contribution:     59.14503      -3.28018     -10.52060
Nuclear contribution   :    -59.61862       2.05141      10.68913
                        -----------------------------------------
Total Dipole Moment    :     -0.47359      -1.22878       0.16853
                        -----------------------------------------
Magnitude (a.u.)       :      1.32762
Magnitude (Debye)      :      3.37454



--------------------
Rotational spectrum 
--------------------
 
Rotational constants in cm-1:     0.000556     0.000428     0.000413 
Rotational constants in MHz :    16.660618    12.845862    12.370563 

 Dipole components along the rotational axes: 
x,y,z [a.u.] :    -1.322457    -0.067227     0.095730 
x,y,z [Debye]:    -3.361417    -0.170877     0.243327 

 

Timings for individual modules:

Sum of individual times         ...      537.960 sec (=   8.966 min)
GTO integral calculation        ...       21.683 sec (=   0.361 min)   4.0 %
SCF iterations                  ...      516.276 sec (=   8.605 min)  96.0 %
                             ****ORCA TERMINATED NORMALLY****
TOTAL RUN TIME: 0 days 0 hours 9 minutes 3 seconds 594 msec
