Job execution start: Tue Jun 22 17:20:40 BST 2021
Shared library path: /work/e05/e05/atarzia/orca_4_2_1_linux_x86-64_openmpi314:/work/e05/e05/atarzia/openmpi-3.1.4/lib:/opt/cray/pe/papi/6.0.0.4/lib64:/opt/cray/libfabric/1.11.0.0.233/lib64
Slurm Job ID is: 344740
Slurm Job name is: s_5d1_c_B97-3c
nid001042

                                 *****************
                                 * O   R   C   A *
                                 *****************

           --- An Ab Initio, DFT and Semiempirical electronic structure package ---

                  #######################################################
                  #                        -***-                        #
                  #          Department of theory and spectroscopy      #
                  #               Directorship: Frank Neese             #
                  #        Max Planck Institute fuer Kohlenforschung    #
                  #                Kaiser Wilhelm Platz 1               #
                  #                 D-45470 Muelheim/Ruhr               #
                  #                      Germany                        #
                  #                                                     #
                  #                  All rights reserved                #
                  #                        -***-                        #
                  #######################################################


                         Program Version 4.2.1 -  RELEASE  -


 With contributions from (in alphabetic order):
   Daniel Aravena         : Magnetic Suceptibility
   Michael Atanasov       : Ab Initio Ligand Field Theory (pilot matlab implementation)
   Alexander A. Auer      : GIAO ZORA, VPT2
   Ute Becker             : Parallelization
   Giovanni Bistoni       : ED, misc. LED, open-shell LED, HFLD
   Martin Brehm           : Molecular dynamics
   Dmytro Bykov           : SCF Hessian
   Vijay G. Chilkuri      : MRCI spin determinant printing, contributions to CSF-ICE
   Dipayan Datta          : RHF DLPNO-CCSD density
   Achintya Kumar Dutta   : EOM-CC, STEOM-CC
   Dmitry Ganyushin       : Spin-Orbit,Spin-Spin,Magnetic field MRCI
   Miquel Garcia          : C-PCM Hessian, Gaussian charge scheme
   Yang Guo               : DLPNO-NEVPT2, CIM, IAO-localization
   Andreas Hansen         : Spin unrestricted coupled pair/coupled cluster methods
   Benjamin Helmich-Paris : CASSCF linear response (MC-RPA)
   Lee Huntington         : MR-EOM, pCC
   Robert Izsak           : Overlap fitted RIJCOSX, COSX-SCS-MP3, EOM
   Christian Kollmar      : KDIIS, OOCD, Brueckner-CCSD(T), CCSD density
   Simone Kossmann        : Meta GGA functionals, TD-DFT gradient, OOMP2, MP2 Hessian
   Martin Krupicka        : AUTO-CI
   Lucas Lang             : DCDCAS
   Dagmar Lenk            : GEPOL surface, SMD
   Dimitrios Liakos       : Extrapolation schemes; Compound Job, initial MDCI parallelization
   Dimitrios Manganas     : Further ROCIS development; embedding schemes
   Dimitrios Pantazis     : SARC Basis sets
   Taras Petrenko         : DFT Hessian,TD-DFT gradient, ASA, ECA, R-Raman, ABS, FL, XAS/XES, NRVS
   Peter Pinski           : DLPNO-MP2, DLPNO-MP2 Gradient
   Christoph Reimann      : Effective Core Potentials
   Marius Retegan         : Local ZFS, SOC
   Christoph Riplinger    : Optimizer, TS searches, QM/MM, DLPNO-CCSD(T), (RO)-DLPNO pert. Triples
   Tobias Risthaus        : Range-separated hybrids, TD-DFT gradient, RPA, STAB
   Michael Roemelt        : Original ROCIS implementation
   Masaaki Saitow         : Open-shell DLPNO-CCSD energy and density
   Barbara Sandhoefer     : DKH picture change effects
   Avijit Sen             : IP-ROCIS
   Kantharuban Sivalingam : CASSCF convergence, NEVPT2, FIC-MRCI
   Bernardo de Souza      : ESD, SOC TD-DFT
   Georgi Stoychev        : AutoAux, RI-MP2 NMR
   Willem Van den Heuvel  : Paramagnetic NMR
   Boris Wezisla          : Elementary symmetry handling
   Frank Wennmohs         : Technical directorship


 We gratefully acknowledge several colleagues who have allowed us to
 interface, adapt or use parts of their codes:
   Stefan Grimme, W. Hujo, H. Kruse,             : VdW corrections, initial TS optimization,
                  C. Bannwarth                     DFT functionals, gCP, sTDA/sTD-DF
   Ed Valeev, F. Pavosevic, A. Kumar             : LibInt (2-el integral package), F12 methods
   Garnet Chan, S. Sharma, J. Yang, R. Olivares  : DMRG
   Ulf Ekstrom                                   : XCFun DFT Library
   Mihaly Kallay                                 : mrcc  (arbitrary order and MRCC methods)
   Andreas Klamt, Michael Diedenhofen            : otool_cosmo (COSMO solvation model)
   Jiri Pittner, Ondrej Demel                    : Mk-CCSD
   Frank Weinhold                                : gennbo (NPA and NBO analysis)
   Christopher J. Cramer and Donald G. Truhlar   : smd solvation model
   Lars Goerigk                                  : TD-DFT with DH, B97 family of functionals
   V. Asgeirsson, H. Jonsson                     : NEB implementation
   FAccTs GmbH                                   : IRC, NEB, NEB-TS, Multilevel, MM, QM/MM, CI optimization
   S Lehtola, MJT Oliveira, MAL Marques          : LibXC Library


 Your calculation uses the libint2 library for the computation of 2-el integrals
 For citations please refer to: http://libint.valeyev.net

 Your ORCA version has been built with support for libXC version: 4.2.3
 For citations please refer to: https://tddft.org/programs/libxc/

 This ORCA versions uses:
   CBLAS   interface :  Fast vector & matrix operations
   LAPACKE interface :  Fast linear algebra routines
   SCALAPACK package :  Parallel linear algebra routines




***************************************
The coordinates will be read from file: s_5d1_c.xyz
***************************************


Your calculation utilizes the atom-pairwise dispersion correction
with the Becke-Johnson damping scheme (D3BJ)
Cite in your paper:
S.Grimme, S.Ehrlich, L.Goerigk, J Comput Chem, (2011), 32, 1456–1465 
S.Grimme, J.Antony, S.Ehrlich and H.Krieg, J.Chem.Phys., 132, (2010), 154104 
   

Your calculation employs the composite approach B97-3c by Grimme and coworkers.
For the correct reference, please check the publication list of the Grimme group:
http://www.thch.uni-bonn.de/tc/index.php?section=publikationen&subsection=grimme#2017
   

XCFun DFT library Copyright 2009-2010 Ulf Ekstrom and contributors.
See http://admol.org/xcfun for more information. This is free soft-
ware; see the source code for copying conditions. There is ABSOLUTELY
NO WARRANTY; not even for MERCHANTABILITY or FITNESS FOR A PARTICULAR
PURPOSE. For details see the documentation. Scientific users of this 
library should cite U. Ekstrom, L. Visscher, R. Bast, A. J. Thorvald-
sen and K. Ruud; J.Chem.Theor.Comp. 2010, DOI: 10.1021/ct100117s
XCFun Version 0.99 
----- Orbital basis set information -----
Your calculation utilizes the basis: def2-mTZVP
----- AuxJ basis set information -----
Your calculation utilizes the basis: def2-mTZVP/J
cite the ECPs for Pd [Def2-ECP] as follows:
Ce-Yb(ecp-28): M. Dolg, H. Stoll, H.Preuss, J. Chem. Phys., 1989, 90, 1730-1734.
Y-Cd(ecp-28), Hf-Hg(ecp-46): D. Andrae,U. Haeussermann, M. Dolg, H. Stoll, H. Preuss, Theor. Chim. Acta, 1990, 77, 123-141.
In-Sb(ecp-28), Tl-Bi(ecp-46): B. Metz, H. Stoll, M. Dolg, J. Chem. Phys., 2000, 113, 2563-2569.
Te-Xe(ecp-28), Po-Rn(ecp-46): K. A. Peterson, D. Figgen, E. Goll, H. Stoll, M. Dolg, J. Chem. Phys., 2003, 119, 11113-11123.
Rb(ecp-28), Cs(ecp-46): T. Leininger, A. Nicklass, W. Kuechle, H. Stoll, M. Dolg, A. Bergner, Chem. Phys. Lett., 1996, 255, 274-280.
Sr(ecp-28), Ba(ecp-46): M. Kaupp, P. V. Schleyer, H. Stoll and H. Preuss, J. Chem. Phys., 1991, 94, 1360-1366.
La(ecp-46): M. Dolg, H. Stoll, A. Savin, H. Preuss, Theor. Chim. Acta, 1989, 75, 173-194.
Lu(ecp-28): X. Cao, M. Dolg, J. Chem. Phys., 2001, 115, 7348-7355.

ECP parameters for Pd [Def2-ECP] have been obtained from:
TURBOMOLE (7.0.2)

================================================================================
                                        WARNINGS
                       Please study these warnings very carefully!
================================================================================


INFO   : the flag for use of LIBINT has been found!

================================================================================
                                       INPUT FILE
================================================================================
NAME = s_5d1_c_B97-3c.in
|  1> ! DFT SP B97-3c TightSCF printbasis  Grid6 NOFINALGRID SlowConv 
|  2> 
|  3> %base "_s_5d1_c_B97-3c"
|  4> %maxcore 3000
|  5> %scf
|  6>    MaxIter 2000
|  7> end
|  8> %pal
|  9>    nprocs 32
| 10> end
| 11> 
| 12> * xyzfile 4 1 s_5d1_c.xyz
| 13> 
| 14>                          ****END OF INPUT****
================================================================================

                       ****************************
                       * Single Point Calculation *
                       ****************************

---------------------------------
CARTESIAN COORDINATES (ANGSTROEM)
---------------------------------
  Pd    -0.052400    3.661000    0.293000
  Pd    -0.737800   -5.573300    0.175500
  C      5.667800   -1.123600    0.665800
  C      5.411200   -2.305200    0.670800
  C      5.097000   -3.676000    0.753700
  C      6.061300   -4.597700    1.122800
  C      5.743900   -5.952300    1.277800
  C      4.462800   -6.402500    1.088600
  C      3.452200   -5.495600    0.703400
  C      2.114500   -5.890600    0.519200
  N      1.172700   -5.051900    0.142500
  C      1.474900   -3.751800   -0.104300
  C      2.736400   -3.261100    0.075700
  C      3.767700   -4.120500    0.507100
  H      7.072400   -4.264000    1.300400
  H      6.523500   -6.641700    1.563300
  H      4.219100   -7.443400    1.229500
  H      1.820500   -6.922800    0.693900
  H      0.648000   -3.137000   -0.453900
  H      2.966300   -2.224000   -0.109000
  C      5.946800    0.258300    0.729000
  C      7.194400    0.700300    1.177800
  C      7.437600    2.056000    1.293500
  C      6.455800    2.977900    0.971600
  C      5.208000    2.551000    0.512500
  C      4.963100    1.186800    0.388400
  H      7.958100   -0.017100    1.436300
  H      8.398800    2.399900    1.644700
  H      6.656100    4.029600    1.104000
  H      4.022100    0.831600    0.000300
  C      4.166800    3.536100    0.180900
  C      4.483600    4.773000   -0.390300
  C      3.476100    5.683500   -0.661900
  C      2.165200    5.339900   -0.379700
  N      1.857900    4.153000    0.147100
  C      2.820000    3.275500    0.430800
  H      5.507500    5.011300   -0.631700
  H      3.705300    6.643800   -1.094700
  H      1.338800    6.020600   -0.574200
  H      2.498100    2.344500    0.893000
  C     -0.051100   -0.775300    6.302300
  C     -0.135300   -1.967800    6.121500
  C     -0.154800   -3.358400    5.896100
  C      0.117400   -4.242200    6.925800
  C      0.171700   -5.622300    6.697800
  C     -0.022000   -6.137700    5.442200
  C     -0.310300   -5.270300    4.366700
  C     -0.492600   -5.734700    3.051200
  N     -0.780400   -4.931600    2.048800
  C     -0.932600   -3.599900    2.263100
  C     -0.744000   -3.044700    3.496300
  C     -0.405200   -3.866900    4.590500
  H      0.297400   -3.859000    7.918800
  H      0.383100   -6.280300    7.526600
  H      0.041900   -7.199900    5.267800
  H     -0.391900   -6.793900    2.826700
  H     -1.214200   -3.014400    1.390200
  H     -0.852000   -1.984000    3.656200
  C      0.116800    0.612700    6.494500
  C      0.596900    1.096500    7.714600
  C      0.815500    2.452000    7.873500
  C      0.565400    3.332400    6.834400
  C      0.076000    2.864500    5.613200
  C     -0.151200    1.501000    5.452900
  H      0.799300    0.410600    8.522900
  H      1.191200    2.827700    8.813300
  H      0.777200    4.381600    6.969500
  H     -0.564900    1.118200    4.533800
  C     -0.179800    3.805000    4.511200
  C     -0.657500    5.098100    4.747800
  C     -0.859800    5.962100    3.684600
  C     -0.602600    5.517900    2.399100
  N     -0.164900    4.278500    2.168600
  C      0.051600    3.443600    3.184500
  H     -0.881500    5.416700    5.753800
  H     -1.220400    6.964100    3.851700
  H     -0.745200    6.158600    1.531100
  H      0.443300    2.462600    2.923300
  C     -6.458800   -0.784000   -0.184600
  C     -6.204900    0.398100   -0.172000
  C     -5.893300    1.770600   -0.235300
  C     -6.862900    2.697300   -0.576800
  C     -6.548600    4.054600   -0.713100
  C     -5.265400    4.502800   -0.533300
  C     -4.249300    3.590600   -0.176300
  C     -2.909400    3.983500   -0.003700
  N     -1.962300    3.139700    0.347700
  C     -2.260900    1.835900    0.578800
  C     -3.524200    1.347100    0.406900
  C     -4.561300    2.212300    0.002000
  H     -7.875900    2.365700   -0.747200
  H     -7.332300    4.747900   -0.976900
  H     -5.024300    5.546100   -0.660300
  H     -2.618200    5.018400   -0.166400
  H     -1.429300    1.216500    0.908600
  H     -3.751200    0.307000    0.577900
  C     -6.735500   -2.165300   -0.269000
  C     -7.978600   -2.602200   -0.735000
  C     -8.219400   -3.956300   -0.871600
  C     -7.239700   -4.881600   -0.553400
  C     -5.996500   -4.460100   -0.077000
  C     -5.754000   -3.097500    0.067700
  H     -8.740500   -1.881800   -0.990400
  H     -9.177000   -4.296200   -1.236300
  H     -7.437800   -5.931700   -0.701800
  H     -4.816900   -2.747000    0.469500
  C     -4.958000   -5.448900    0.251600
  C     -5.279600   -6.692600    0.804900
  C     -4.274400   -7.606000    1.075100
  C     -2.961100   -7.258800    0.808900
  N     -2.649400   -6.065800    0.298700
  C     -3.609000   -5.185100    0.016800
  H     -6.305600   -6.933900    1.034200
  H     -4.507300   -8.571400    1.494400
  H     -2.136300   -7.941600    1.002800
  H     -3.283200   -4.248500   -0.431100
  C     -0.746800   -1.140500   -5.833400
  C     -0.680700    0.052800   -5.650400
  C     -0.681600    1.443100   -5.422400
  C     -0.981400    2.323900   -6.447000
  C     -1.055500    3.702600   -6.215800
  C     -0.853600    4.219100   -4.961900
  C     -0.537300    3.354900   -3.891800
  C     -0.344200    3.820400   -2.578200
  N     -0.031200    3.020300   -1.581000
  C      0.137800    1.691300   -1.799000
  C     -0.057900    1.135100   -3.030600
  C     -0.423200    1.953500   -4.119200
  H     -1.167800    1.939500   -7.438300
  H     -1.288500    4.358300   -7.040500
  H     -0.932400    5.279900   -4.784800
  H     -0.457800    4.877600   -2.350800
  H      0.438900    1.108900   -0.930600
  H      0.064500    0.076300   -3.193600
  C     -0.893300   -2.530600   -6.027800
  C     -1.354900   -3.020900   -7.252400
  C     -1.552700   -4.379400   -7.413300
  C     -1.300300   -5.256300   -6.371900
  C     -0.829300   -4.781700   -5.145900
  C     -0.622600   -3.415200   -4.983700
  H     -1.559200   -2.337900   -8.062600
  H     -1.914100   -4.760200   -8.356700
  H     -1.496200   -6.308300   -6.509000
  H     -0.223500   -3.026700   -4.060700
  C     -0.571800   -5.718600   -4.041300
  C     -0.076000   -7.005900   -4.272800
  C      0.126700   -7.866900   -3.207300
  C     -0.147900   -7.425500   -1.924400
  N     -0.602400   -6.191300   -1.698600
  C     -0.819700   -5.359600   -2.716900
  H      0.161400   -7.322000   -5.276400
  H      0.500800   -8.864700   -3.370600
  H     -0.005600   -8.064100   -1.054900
  H     -1.226000   -4.383400   -2.459800

----------------------------
CARTESIAN COORDINATES (A.U.)
----------------------------
  NO LB      ZA    FRAG     MASS         X           Y           Z
   0 Pd   18.0000*   0   106.400   -0.099022    6.918287    0.553690
   1 Pd   18.0000*   0   106.400   -1.394240  -10.532011    0.331647
   2 C     6.0000    0    12.011   10.710590   -2.123296    1.258180
   3 C     6.0000    0    12.011   10.225686   -4.356197    1.267628
   4 C     6.0000    0    12.011    9.631934   -6.946633    1.424287
   5 C     6.0000    0    12.011   11.454197   -8.688394    2.121785
   6 C     6.0000    0    12.011   10.854398  -11.248217    2.414692
   7 C     6.0000    0    12.011    8.433470  -12.098972    2.057156
   8 C     6.0000    0    12.011    6.523713  -10.385179    1.329233
   9 C     6.0000    0    12.011    3.995826  -11.131621    0.981146
  10 N     7.0000    0    14.007    2.216082   -9.546707    0.269286
  11 C     6.0000    0    12.011    2.787157   -7.089875   -0.197098
  12 C     6.0000    0    12.011    5.171047   -6.162586    0.143052
  13 C     6.0000    0    12.011    7.119921   -7.786617    0.958280
  14 H     1.0000    0     1.008   13.364899   -8.057792    2.457400
  15 H     1.0000    0     1.008   12.327628  -12.550994    2.954209
  16 H     1.0000    0     1.008    7.972944  -14.065988    2.323418
  17 H     1.0000    0     1.008    3.440246  -13.082196    1.311281
  18 H     1.0000    0     1.008    1.224543   -5.928071   -0.857747
  19 H     1.0000    0     1.008    5.605495   -4.202751   -0.205980
  20 C     6.0000    0    12.011   11.237823    0.488116    1.377610
  21 C     6.0000    0    12.011   13.595446    1.323375    2.225719
  22 C     6.0000    0    12.011   14.055027    3.885277    2.444361
  23 C     6.0000    0    12.011   12.199694    5.627415    1.836058
  24 C     6.0000    0    12.011    9.841694    4.820691    0.968485
  25 C     6.0000    0    12.011    9.378900    2.242727    0.733970
  26 H     1.0000    0     1.008   15.038630   -0.032314    2.714214
  27 H     1.0000    0     1.008   15.871432    4.535154    3.108033
  28 H     1.0000    0     1.008   12.578206    7.614840    2.086258
  29 H     1.0000    0     1.008    7.600667    1.571496    0.000567
  30 C     6.0000    0    12.011    7.874111    6.682261    0.341851
  31 C     6.0000    0    12.011    8.472776    9.019663   -0.737560
  32 C     6.0000    0    12.011    6.568877   10.740258   -1.250810
  33 C     6.0000    0    12.011    4.091635   10.090949   -0.717529
  34 N     7.0000    0    14.007    3.510922    7.848033    0.277979
  35 C     6.0000    0    12.011    5.329028    6.189798    0.814094
  36 H     1.0000    0     1.008   10.407667    9.469985   -1.193740
  37 H     1.0000    0     1.008    7.002002   12.554962   -2.068683
  38 H     1.0000    0     1.008    2.529965   11.377285   -1.085081
  39 H     1.0000    0     1.008    4.720725    4.430463    1.687525
  40 C     6.0000    0    12.011   -0.096565   -1.465105   11.909621
  41 C     6.0000    0    12.011   -0.255680   -3.718603   11.567959
  42 C     6.0000    0    12.011   -0.292530   -6.346456   11.142014
  43 C     6.0000    0    12.011    0.221854   -8.016596   13.087865
  44 C     6.0000    0    12.011    0.324466  -10.624607   12.657008
  45 C     6.0000    0    12.011   -0.041574  -11.598572   10.284268
  46 C     6.0000    0    12.011   -0.586382   -9.959424    8.251867
  47 C     6.0000    0    12.011   -0.930879  -10.837012    5.765932
  48 N     7.0000    0    14.007   -1.474742   -9.319373    3.871671
  49 C     6.0000    0    12.011   -1.762359   -6.802825    4.276639
  50 C     6.0000    0    12.011   -1.405956   -5.753649    6.607049
  51 C     6.0000    0    12.011   -0.765717   -7.307382    8.674788
  52 H     1.0000    0     1.008    0.562005   -7.292453   14.964363
  53 H     1.0000    0     1.008    0.723954  -11.868047   14.223213
  54 H     1.0000    0     1.008    0.079180  -13.605839    9.954699
  55 H     1.0000    0     1.008   -0.740584  -12.838610    5.341689
  56 H     1.0000    0     1.008   -2.294505   -5.696390    2.627097
  57 H     1.0000    0     1.008   -1.610047   -3.749217    6.909217
  58 C     6.0000    0    12.011    0.220720    1.157835   12.272826
  59 C     6.0000    0    12.011    1.127978    2.072085   14.578481
  60 C     6.0000    0    12.011    1.541072    4.633608   14.878759
  61 C     6.0000    0    12.011    1.068451    6.297323   12.915144
  62 C     6.0000    0    12.011    0.143619    5.413121   10.607411
  63 C     6.0000    0    12.011   -0.285727    2.836479   10.304488
  64 H     1.0000    0     1.008    1.510458    0.775922   16.105947
  65 H     1.0000    0     1.008    2.251042    5.343579   16.654723
  66 H     1.0000    0     1.008    1.468695    8.280024   13.170446
  67 H     1.0000    0     1.008   -1.067506    2.113092    8.567640
  68 C     6.0000    0    12.011   -0.339773    7.190408    8.524933
  69 C     6.0000    0    12.011   -1.242495    9.634013    8.972042
  70 C     6.0000    0    12.011   -1.624787   11.266736    6.962885
  71 C     6.0000    0    12.011   -1.138749   10.427320    4.533642
  72 N     7.0000    0    14.007   -0.311616    8.085193    4.098060
  73 C     6.0000    0    12.011    0.097510    6.507461    6.017833
  74 H     1.0000    0     1.008   -1.665794   10.236080   10.873106
  75 H     1.0000    0     1.008   -2.306222   13.160242    7.278658
  76 H     1.0000    0     1.008   -1.408224   11.638067    2.893360
  77 H     1.0000    0     1.008    0.837716    4.653640    5.524236
  78 C     6.0000    0    12.011  -12.205363   -1.481545   -0.348843
  79 C     6.0000    0    12.011  -11.725562    0.752300   -0.325033
  80 C     6.0000    0    12.011  -11.136723    3.345949   -0.444653
  81 C     6.0000    0    12.011  -12.969001    5.097158   -1.089994
  82 C     6.0000    0    12.011  -12.375061    7.662084   -1.347564
  83 C     6.0000    0    12.011   -9.950164    8.509059   -1.007791
  84 C     6.0000    0    12.011   -8.030013    6.785251   -0.333159
  85 C     6.0000    0    12.011   -5.497969    7.527724   -0.006992
  86 N     7.0000    0    14.007   -3.708210    5.933173    0.657058
  87 C     6.0000    0    12.011   -4.272482    3.469348    1.093773
  88 C     6.0000    0    12.011   -6.659773    2.545650    0.768930
  89 C     6.0000    0    12.011   -8.619608    4.180641    0.003779
  90 H     1.0000    0     1.008  -14.883294    4.470525   -1.412003
  91 H     1.0000    0     1.008  -13.856039    8.972231   -1.846073
  92 H     1.0000    0     1.008   -9.494551   10.480610   -1.247786
  93 H     1.0000    0     1.008   -4.947681    9.483402   -0.314450
  94 H     1.0000    0     1.008   -2.700986    2.298852    1.717005
  95 H     1.0000    0     1.008   -7.088741    0.580146    1.092073
  96 C     6.0000    0    12.011  -12.728250   -4.091824   -0.508336
  97 C     6.0000    0    12.011  -15.077369   -4.917445   -1.388949
  98 C     6.0000    0    12.011  -15.532415   -7.476324   -1.647085
  99 C     6.0000    0    12.011  -13.681050   -9.224887   -1.045774
 100 C     6.0000    0    12.011  -11.331743   -8.428368   -0.145509
 101 C     6.0000    0    12.011  -10.873484   -5.853427    0.127934
 102 H     1.0000    0     1.008  -16.517151   -3.556087   -1.871585
 103 H     1.0000    0     1.008  -17.342017   -8.118641   -2.336268
 104 H     1.0000    0     1.008  -14.055405  -11.209289   -1.326210
 105 H     1.0000    0     1.008   -9.102622   -5.191078    0.887226
 106 C     6.0000    0    12.011   -9.369262  -10.296929    0.475455
 107 C     6.0000    0    12.011   -9.976998  -12.647181    1.521041
 108 C     6.0000    0    12.011   -8.077445  -14.373257    2.031645
 109 C     6.0000    0    12.011   -5.595668  -13.717144    1.528599
 110 N     7.0000    0    14.007   -5.006640  -11.462701    0.564461
 111 C     6.0000    0    12.011   -6.820022   -9.798419    0.031747
 112 H     1.0000    0     1.008  -11.915857  -13.103172    1.954355
 113 H     1.0000    0     1.008   -8.517563  -16.197599    2.824007
 114 H     1.0000    0     1.008   -4.037022  -15.007449    1.895017
 115 H     1.0000    0     1.008   -6.204349   -8.028501   -0.814661
 116 C     6.0000    0    12.011   -1.411247   -2.155233  -11.023528
 117 C     6.0000    0    12.011   -1.286337    0.099778  -10.677709
 118 C     6.0000    0    12.011   -1.288037    2.727064  -10.246851
 119 C     6.0000    0    12.011   -1.854577    4.391535  -12.183064
 120 C     6.0000    0    12.011   -1.994606    6.996900  -11.746160
 121 C     6.0000    0    12.011   -1.613070    7.972944   -9.376632
 122 C     6.0000    0    12.011   -1.015350    6.339842   -7.354436
 123 C     6.0000    0    12.011   -0.650444    7.219510   -4.872092
 124 N     7.0000    0    14.007   -0.058959    5.707540   -2.987657
 125 C     6.0000    0    12.011    0.260404    3.196094   -3.399617
 126 C     6.0000    0    12.011   -0.109415    2.145028   -5.727004
 127 C     6.0000    0    12.011   -0.799732    3.691580   -7.784160
 128 H     1.0000    0     1.008   -2.206822    3.665124  -14.056350
 129 H     1.0000    0     1.008   -2.434912    8.235993  -13.304617
 130 H     1.0000    0     1.008   -1.761981    9.977565   -9.041962
 131 H     1.0000    0     1.008   -0.865117    9.217328   -4.442368
 132 H     1.0000    0     1.008    0.829401    2.095517   -1.758579
 133 H     1.0000    0     1.008    0.121887    0.144186   -6.035029
 134 C     6.0000    0    12.011   -1.688092   -4.782141  -11.390891
 135 C     6.0000    0    12.011   -2.560390   -5.708674  -13.705050
 136 C     6.0000    0    12.011   -2.934178   -8.275867  -14.009107
 137 C     6.0000    0    12.011   -2.457211   -9.932967  -12.041146
 138 C     6.0000    0    12.011   -1.567150   -9.036103   -9.724342
 139 C     6.0000    0    12.011   -1.176543   -6.453793   -9.417828
 140 H     1.0000    0     1.008   -2.946461   -4.417991  -15.236106
 141 H     1.0000    0     1.008   -3.617125   -8.995474  -15.791874
 142 H     1.0000    0     1.008   -2.827408  -11.920959  -12.300227
 143 H     1.0000    0     1.008   -0.422354   -5.719634   -7.673611
 144 C     6.0000    0    12.011   -1.080545  -10.806588   -7.636950
 145 C     6.0000    0    12.011   -0.143619  -13.239232   -8.074422
 146 C     6.0000    0    12.011    0.239428  -14.866287   -6.060919
 147 C     6.0000    0    12.011   -0.279490  -14.032161   -3.636589
 148 N     7.0000    0    14.007   -1.138371  -11.699861   -3.209889
 149 C     6.0000    0    12.011   -1.549009  -10.128176   -5.134197
 150 H     1.0000    0     1.008    0.305002  -13.836575   -9.970951
 151 H     1.0000    0     1.008    0.946375  -16.751855   -6.369511
 152 H     1.0000    0     1.008   -0.010582  -15.238941   -1.993472
 153 H     1.0000    0     1.008   -2.316804   -8.283426   -4.648348
* core charge reduced due to ECP

--------------------------------
INTERNAL COORDINATES (ANGSTROEM)
--------------------------------
 Pd     0   0   0     0.000000000000     0.00000000     0.00000000
 Pd     1   0   0     9.260446852069     0.00000000     0.00000000
 C      1   2   0     7.466730545560    54.43366618     0.00000000
 C      3   1   2     1.209151404912   117.63379498   358.28768731
 C      4   3   1     1.408789086414   176.79533995   278.71689906
 C      5   4   3     1.384066541030   120.54960037   274.14223807
 C      6   5   4     1.399896038997   121.06090487   176.56260222
 C      7   6   5     1.371019288705   120.95235029   358.97284261
 C      8   7   6     1.411438631326   119.71725944     1.40162230
 C      9   8   7     1.406910064645   122.41984566   181.27168939
 N     10   9   8     1.316171652939   122.61053064   180.94661234
 C     11  10   9     1.357385387427   120.20297206     0.96327186
 C     12  11  10     1.365492123741   121.72904019   357.46739728
 C     13  12  11     1.410054612418   119.80159555     1.09888395
 H      6   5   4     1.079453871177   119.38048957   356.99684953
 H      7   6   5     1.079147242039   118.92499662   179.78936409
 H      8   7   6     1.078292775641   120.67262833   181.30043224
 H     10   9   8     1.087378926594   120.16884096     1.30160180
 H     12  11  10     1.088100551420   115.49315936   177.35548899
 H     13  12  11     1.078213573463   121.33616548   180.87326860
 C      3   1   2     1.411199082341    61.71942698   181.51871081
 C     21   3   1     1.397601946192   120.03680733   164.43311641
 C     22  21   3     1.382192179113   119.61321802   182.90626628
 C     23  22  21     1.384720354440   120.58339797     0.13896825
 C     24  23  22     1.396431616657   120.42797784   359.38488458
 C     25  24  23     1.391552535839   119.09617777     0.26808207
 H     22  21   3     1.079223192857   119.89276498     2.57536430
 H     23  22  21     1.079589778573   119.75744663   179.69142556
 H     24  23  22     1.078759815714   119.26737340   177.78223612
 H     26  25  24     1.078086105096   120.57813523   182.38197819
 C     25  24  23     1.471216506841   120.11861351   179.59555135
 C     31  25  24     1.398768490494   121.59091022    35.30222817
 C     32  31  25     1.384858498187   119.78203462   181.33079544
 C     33  32  31     1.384253087409   119.06361480   358.99686770
 N     34  33  32     1.334422399392   121.28827273     0.02460534
 C     35  34  33     1.332714654380   120.22728120     0.93517819
 H     32  31  25     1.078625078514   120.11579306     2.21766514
 H     33  32  31     1.077972434713   120.64752693   179.51187311
 H     34  33  32     1.088172642553   121.83556429   179.95588730
 H     36  35  34     1.088121983052   116.11751956   177.74817782
 C     40  36  35     6.744783107706   148.01989832   291.07078657
 C     41  40  36     1.209063492956   111.26030735   181.58636486
 C     42  41  40     1.408883873852   176.74664311    57.32889664
 C     43  42  41     1.384007720354   120.56678987    86.66475874
 C     44  43  42     1.399860171589   121.06549094   183.46964110
 C     45  44  43     1.371017217251   120.95071954     1.06668237
 C     46  45  44     1.411453116473   119.71391967   358.56158372
 C     47  46  45     1.406926046386   122.41730958   178.69281615
 N     48  47  46     1.316284243619   122.61491230   179.00406540
 C     49  48  47     1.357392434044   120.18976706   359.03470725
 C     50  49  48     1.365503291831   121.73472003     2.59685569
 C     51  50  49     1.409990042518   119.79769653   358.84897207
 H     44  43  42     1.079486563140   119.37346097     3.03305152
 H     45  44  43     1.079149387249   118.92356612   180.22610090
 H     46  45  44     1.078316933930   120.66732782   178.67157815
 H     48  47  46     1.087403043954   120.16952428   358.66494836
 H     50  49  48     1.088146690479   115.48385838   182.68557124
 H     51  50  49     1.078107833197   121.34124754   179.06167481
 C     41  40  36     1.411267249673    67.00407678   359.03420817
 C     59  41  40     1.397570198595   120.01522608   220.55365068
 C     60  59  41     1.382177781619   119.61609744   177.08696938
 C     61  60  59     1.384695988295   120.57722188   359.87762764
 C     62  61  60     1.396342440091   120.43393204     0.60858011
 C     63  62  61     1.391563214518   119.09777303   359.71634323
 H     60  59  41     1.079246709515   119.88510743   357.42441182
 H     61  60  59     1.079594840669   119.76208737   180.31736624
 H     62  61  60     1.078856751381   119.26830500   182.19971615
 H     64  63  62     1.078159700601   120.57974385   177.59837054
 C     63  62  61     1.471182480184   120.12096466   180.36070971
 C     69  63  62     1.398672391949   121.58090979   324.62711006
 C     70  69  63     1.384852169006   119.79004824   178.69887903
 C     71  70  69     1.384187750993   119.05448561     0.98520273
 N     72  71  70     1.334475140271   121.29232596   359.96665575
 C     73  72  71     1.332660147975   120.22984709   359.09126636
 H     70  69  63     1.078757600205   120.11371211   357.79876181
 H     71  70  69     1.077941914019   120.65016154   180.46478379
 H     72  71  70     1.088234924086   121.83462536   180.04457225
 H     74  73  72     1.088124684951   116.12336107   182.21587653
 C     57  50  49     5.912741188315   130.25356089   102.53013330
 C     79  57  50     1.209125460819   100.35546286   117.54540545
 C     80  79  57     1.408849779075   176.75803252    93.92272153
 C     81  80  79     1.384022868308   120.55957182    86.82535640
 C     82  81  80     1.399866232895   121.06047016   183.47052419
 C     83  82  81     1.371062916135   120.95229553     1.06802963
 C     84  83  82     1.411388341315   119.71489397   358.56993396
 C     85  84  83     1.406944625776   122.42295723   178.69926003
 N     86  85  84     1.316236608669   122.61496194   179.00765794
 C     87  86  85     1.357373791555   120.19416978   359.02178836
 C     88  87  86     1.365431045494   121.73210376     2.60194581
 C     89  88  87     1.409996971628   119.80205955   358.84772545
 H     82  81  80     1.079427496407   119.38749299     3.04083406
 H     83  82  81     1.079092683693   118.92668311   180.23039656
 H     84  83  82     1.078301024761   120.67097209   178.66975182
 H     86  85  84     1.087330097073   120.16458042   358.65564195
 H     88  87  86     1.088109810635   115.48375553   182.68069444
 H     89  88  87     1.078229108307   121.34165501   179.05935909
 C     79  57  50     1.411267494134    79.66685077   294.55611739
 C     97  79  57     1.397617694507   120.01945413   184.16996746
 C     98  97  79     1.382111070066   119.61607541   177.08225781
 C     99  98  97     1.384645593645   120.57916661   359.87704656
 C    100  99  98     1.396483243723   120.43626063     0.61333413
 C    101 100  99     1.391554203041   119.08853219   359.71301143
 H     98  97  79     1.079211253648   119.87853713   357.41899267
 H     99  98  97     1.079599861060   119.76099955   180.32190408
 H    100  99  98     1.078877277544   119.26868644   182.19793252
 H    102 101 100     1.078169699073   120.56662385   177.60580993
 C    101 100  99     1.471117143534   120.11709248   180.35191903
 C    107 101 100     1.398698373489   121.58117688   324.63207010
 C    108 107 101     1.384822963414   119.78675399   178.71307662
 C    109 108 107     1.384256901735   119.05856569     0.97674455
 N    110 109 108     1.334432437406   121.29005926   359.97101729
 C    111 110 109     1.332641084463   120.23217623   359.08916012
 H    108 107 101     1.078647384459   120.11350674   357.79590702
 H    109 108 107     1.077985185427   120.64788541   180.47400031
 H    110 109 108     1.088167307908   121.83448374   180.05776448
 H    112 111 110     1.088108271267   116.12427841   182.21608729
 C     19  12  11     5.905124853888   131.54648368   257.04732614
 C    117  19  12     1.209058766148   100.53821606   241.93412415
 C    118 117  19     1.408871498754   176.77424127   266.10068319
 C    119 118 117     1.384013670453   120.55422221   273.93712281
 C    120 119 118     1.399913547331   121.06214092   176.55184757
 C    121 120 119     1.371058375854   120.94757787   358.96932650
 C    122 121 120     1.411382775862   119.71853978     1.40770834
 C    123 122 121     1.406955159200   122.41560182   181.25671828
 N    124 123 122     1.316258656192   122.60576388   180.95242946
 C    125 124 123     1.357323100813   120.20559423     0.97056793
 C    126 125 124     1.365465301646   121.72572564   357.46250458
 C    127 126 125     1.410061207891   119.80501947     1.10162878
 H    120 119 118     1.079436894867   119.38243084   356.99450728
 H    121 120 119     1.079055874364   118.92466188   179.79184598
 H    122 121 120     1.078364729579   120.66489580   181.30636762
 H    124 123 122     1.087330474143   120.17272412     1.31547714
 H    126 125 124     1.088103639365   115.48963885   177.35974008
 H    127 126 125     1.078243108023   121.33698227   180.88135992
 C    117  19  12     1.411251791850    79.45426395    64.90813725
 C    135 117  19     1.397538482476   120.03735321   176.26907381
 C    136 135 117     1.382221364326   119.60900400   182.91549992
 C    137 136 135     1.384620283688   120.58444971     0.13690521
 C    138 137 136     1.396482065764   120.43417182   359.38533286
 C    139 138 137     1.391530085913   119.08934163     0.26724708
 H    136 135 117     1.079190219563   119.89021828     2.58790790
 H    137 136 135     1.079639828832   119.75399242   179.68458312
 H    138 137 136     1.078831414077   119.26710430   177.78160448
 H    140 139 138     1.078026929163   120.57663008   182.38594153
 C    139 138 137     1.471131883959   120.11808748   179.60011479
 C    145 139 138     1.398767736259   121.59285869    35.29071518
 C    146 145 139     1.384809929196   119.78461125   181.33058799
 C    147 146 145     1.384222355693   119.06491540   359.00255382
 N    148 147 146     1.334468257397   121.28563623     0.00000000
 C    149 148 147     1.332621127703   120.22885983     0.94112303
 H    146 145 139     1.078652367540   120.11230897     2.22823814
 H    147 146 145     1.078064255970   120.64391187   179.50962192
 H    148 147 146     1.088158765990   121.83575959   179.96218594
 H    150 149 148     1.088184975085   116.11834667   177.74772456

---------------------------
INTERNAL COORDINATES (A.U.)
---------------------------
 Pd     0   0   0     0.000000000000     0.00000000     0.00000000
 Pd     1   0   0    17.499708428144     0.00000000     0.00000000
 C      1   2   0    14.110075846893    54.43366618     0.00000000
 C      3   1   2     2.284965009729   117.63379498   358.28768731
 C      4   3   1     2.662225553780   176.79533995   278.71689906
 C      5   4   3     2.615506713671   120.54960037   274.14223807
 C      6   5   4     2.645420129666   121.06090487   176.56260222
 C      7   6   5     2.590850979975   120.95235029   358.97284261
 C      8   7   6     2.667232468043   119.71725944     1.40162230
 C      9   8   7     2.658674717237   122.41984566   181.27168939
 N     10   9   8     2.487203969285   122.61053064   180.94661234
 C     11  10   9     2.565086640423   120.20297206     0.96327186
 C     12  11  10     2.580406151898   121.72904019   357.46739728
 C     13  12  11     2.664617051342   119.80159555     1.09888395
 H      6   5   4     2.039872190727   119.38048957   356.99684953
 H      7   6   5     2.039292745630   118.92499662   179.78936409
 H      8   7   6     2.037678038148   120.67262833   181.30043224
 H     10   9   8     2.054848375059   120.16884096     1.30160180
 H     12  11  10     2.056212048352   115.49315936   177.35548899
 H     13  12  11     2.037528367722   121.33616548   180.87326860
 C      3   1   2     2.666779786065    61.71942698   181.51871081
 C     21   3   1     2.641084922538   120.03680733   164.43311641
 C     22  21   3     2.611964682971   119.61321802   182.90626628
 C     23  22  21     2.616742241958   120.58339797     0.13896825
 C     24  23  22     2.638873320231   120.42797784   359.38488458
 C     25  24  23     2.629653193699   119.09617777     0.26808207
 H     22  21   3     2.039436271875   119.89276498     2.57536430
 H     23  22  21     2.040129018484   119.75744663   179.69142556
 H     24  23  22     2.038560615979   119.26737340   177.78223612
 H     26  25  24     2.037287487416   120.57813523   182.38197819
 C     25  24  23     2.780196281633   120.11861351   179.59555135
 C     31  25  24     2.643289371793   121.59091022    35.30222817
 C     32  31  25     2.617003295806   119.78203462   181.33079544
 C     33  32  31     2.615859235237   119.06361480   358.99686770
 N     34  33  32     2.521692881822   121.28827273     0.02460534
 C     35  34  33     2.518465711442   120.22728120     0.93517819
 H     32  31  25     2.038305999571   120.11579306     2.21766514
 H     33  32  31     2.037072681523   120.64752693   179.51187311
 H     34  33  32     2.056348280850   121.83556429   179.95588730
 H     36  35  34     2.056252548267   116.11751956   177.74817782
 C     40  36  35    12.745792906263   148.01989832   291.07078657
 C     41  40  36     2.284798880210   111.26030735   181.58636486
 C     42  41  40     2.662404676078   176.74664311    57.32889664
 C     43  42  41     2.615395558702   120.56678987    86.66475874
 C     44  43  42     2.645352350086   121.06549094   183.46964110
 C     45  44  43     2.590847065496   120.95071954     1.06668237
 C     46  45  44     2.667259841003   119.71391967   358.56158372
 C     47  46  45     2.658704918351   122.41730958   178.69281615
 N     48  47  46     2.487416734836   122.61491230   179.00406540
 C     49  48  47     2.565099956600   120.18976706   359.03470725
 C     50  49  48     2.580427256528   121.73472003     2.59685569
 C     51  50  49     2.664495031915   119.79769653   358.84897207
 H     44  43  42     2.039933969583   119.37346097     3.03305152
 H     45  44  43     2.039296799490   118.92356612   180.22610090
 H     46  45  44     2.037723690697   120.66732782   178.67157815
 H     48  47  46     2.054893950265   120.16952428   358.66494836
 H     50  49  48     2.056299238538   115.48385838   182.68557124
 H     51  50  49     2.037328547577   121.34124754   179.06167481
 C     41  40  36     2.666908603655    67.00407678   359.03420817
 C     59  41  40     2.641024928274   120.01522608   220.55365068
 C     60  59  41     2.611937475650   119.61609744   177.08696938
 C     61  60  59     2.616696196617   120.57722188   359.87762764
 C     62  61  60     2.638704800944   120.43393204     0.60858011
 C     63  62  61     2.629673373478   119.09777303   359.71634323
 H     60  59  41     2.039480711920   119.88510743   357.42441182
 H     61  60  59     2.040138584460   119.76208737   180.31736624
 H     62  61  60     2.038743797842   119.26830500   182.19971615
 H     64  63  62     2.037426562766   120.57974385   177.59837054
 C     63  62  61     2.780131980571   120.12096466   180.36070971
 C     69  63  62     2.643107771860   121.58090979   324.62711006
 C     70  69  63     2.616991335388   119.79004824   178.69887903
 C     71  70  69     2.615735767306   119.05448561     0.98520273
 N     72  71  70     2.521792547637   121.29232596   359.96665575
 C     73  72  71     2.518362709263   120.22984709   359.09126636
 H     70  69  63     2.038556429274   120.11371211   357.79876181
 H     71  70  69     2.037015005772   120.65016154   180.46478379
 H     72  71  70     2.056465975891   121.83462536   180.04457225
 H     74  73  72     2.056257654117   116.12336107   182.21587653
 C     57  50  49    11.173461546672   130.25356089   102.53013330
 C     79  57  50     2.284915982499   100.35546286   117.54540545
 C     80  79  57     2.662340246287   176.75803252    93.92272153
 C     81  80  79     2.615424184187   120.55957182    86.82535640
 C     82  81  80     2.645363804296   121.06047016   183.47052419
 C     83  82  81     2.590933423870   120.95229553     1.06802963
 C     84  83  82     2.667137433695   119.71489397   358.56993396
 C     85  84  83     2.658740028309   122.42295723   178.69926003
 N     86  85  84     2.487326717825   122.61496194   179.00765794
 C     87  86  85     2.565064727401   120.19416978   359.02178836
 C     88  87  86     2.580290730738   121.73210376     2.60194581
 C     89  88  87     2.664508126035   119.80205955   358.84772545
 H     82  81  80     2.039822349634   119.38749299     3.04083406
 H     83  82  81     2.039189645298   118.92668311   180.23039656
 H     84  83  82     2.037693626724   120.67097209   178.66975182
 H     86  85  84     2.054756100637   120.16458042   358.65564195
 H     88  87  86     2.056229545733   115.48375553   182.68069444
 H     89  88  87     2.037557724322   121.34165501   179.05935909
 C     79  57  50     2.666909065619    79.66685077   294.55611739
 C     97  79  57     2.641114682541   120.01945413   184.16996746
 C     98  97  79     2.611811409086   119.61607541   177.08225781
 C     99  98  97     2.616600964530   120.57916661   359.87704656
 C    100  99  98     2.638970881247   120.43626063     0.61333413
 C    101 100  99     2.629656344254   119.08853219   359.71301143
 H     98  97  79     2.039413710040   119.87853713   357.41899267
 H     99  98  97     2.040148071622   119.76099955   180.32190408
 H    100  99  98     2.038782586668   119.26868644   182.19793252
 H    102 101 100     2.037445457141   120.56662385   177.60580993
 C    101 100  99     2.780008512196   120.11709248   180.35191903
 C    107 101 100     2.643156869855   121.58117688   324.63207010
 C    108 107 101     2.616936144819   119.78675399   178.71307662
 C    109 108 107     2.615866443269   119.05856569     0.97674455
 N    110 109 108     2.521711850917   121.29005926   359.97101729
 C    111 110 109     2.518326684448   120.23217623   359.08916012
 H    108 107 101     2.038348151698   120.11350674   357.79590702
 H    109 108 107     2.037096776881   120.64788541   180.47400031
 H    110 109 108     2.056338199833   121.83448374   180.05776448
 H    112 111 110     2.056226636749   116.12427841   182.21608729
 C     19  12  11    11.159068760459   131.54648368   257.04732614
 C    117  19  12     2.284789947837   100.53821606   241.93412415
 C    118 117  19     2.662381290531   176.77424127   266.10068319
 C    119 118 117     2.615406802759   120.55422221   273.93712281
 C    120 119 118     2.645453215621   121.06214092   176.55184757
 C    121 120 119     2.590924843983   120.94757787   358.96932650
 C    122 121 120     2.667126916513   119.71853978     1.40770834
 C    123 122 121     2.658759933596   122.41560182   181.25671828
 N    124 123 122     2.487368381606   122.60576388   180.95242946
 C    125 124 123     2.564968935781   120.20559423     0.97056793
 C    126 125 124     2.580355465484   121.72572564   357.46250458
 C    127 126 125     2.664629514981   119.80501947     1.10162878
 H    120 119 118     2.039840110149   119.38243084   356.99450728
 H    121 120 119     2.039120085747   118.92466188   179.79184598
 H    122 121 120     2.037814011384   120.66489580   181.30636762
 H    124 123 122     2.054756813197   120.17272412     1.31547714
 H    126 125 124     2.056217883723   115.48963885   177.35974008
 H    127 126 125     2.037584179952   121.33698227   180.88135992
 C    117  19  12     2.666879392602    79.45426395    64.90813725
 C    135 117  19     2.640964993495   120.03735321   176.26907381
 C    136 135 117     2.612019835032   119.60900400   182.91549992
 C    137 136 135     2.616553135643   120.58444971     0.13690521
 C    138 137 136     2.638968655226   120.43417182   359.38533286
 C    139 138 137     2.629610769487   119.08934163     0.26724708
 H    136 135 117     2.039373961380   119.89021828     2.58790790
 H    137 136 135     2.040223599766   119.75399242   179.68458312
 H    138 137 136     2.038695917277   119.26710430   177.78160448
 H    140 139 138     2.037175661110   120.57663008   182.38594153
 C    139 138 137     2.780036367562   120.11808748   179.60011479
 C    145 139 138     2.643287946495   121.59285869    35.29071518
 C    146 145 139     2.616911513715   119.78461125   181.33058799
 C    147 146 145     2.615801160711   119.06491540   359.00255382
 N    148 147 146     2.521779540891   121.28563623     0.00000000
 C    149 148 147     2.518288971636   120.22885983     0.94112303
 H    146 145 139     2.038357568357   120.11230897     2.22823814
 H    147 146 145     2.037246198553   120.64391187   179.50962192
 H    148 147 146     2.056322057946   121.83575959   179.96218594
 H    150 149 148     2.056371585958   116.11834667   177.74772456

---------------------
BASIS SET INFORMATION
---------------------
There are 4 groups of distinct atoms

 Group   1 Type Pd  : 7s7p6d contracted to 6s4p3d pattern {211111/4111/411}
 Group   2 Type C   : 11s6p1d contracted to 5s3p1d pattern {62111/411/1}
 Group   3 Type N   : 11s6p1d contracted to 5s3p1d pattern {62111/411/1}
 Group   4 Type H   : 5s contracted to 3s pattern {311}

Atom   0Pd   basis set group =>   1
Atom   1Pd   basis set group =>   1
Atom   2C    basis set group =>   2
Atom   3C    basis set group =>   2
Atom   4C    basis set group =>   2
Atom   5C    basis set group =>   2
Atom   6C    basis set group =>   2
Atom   7C    basis set group =>   2
Atom   8C    basis set group =>   2
Atom   9C    basis set group =>   2
Atom  10N    basis set group =>   3
Atom  11C    basis set group =>   2
Atom  12C    basis set group =>   2
Atom  13C    basis set group =>   2
Atom  14H    basis set group =>   4
Atom  15H    basis set group =>   4
Atom  16H    basis set group =>   4
Atom  17H    basis set group =>   4
Atom  18H    basis set group =>   4
Atom  19H    basis set group =>   4
Atom  20C    basis set group =>   2
Atom  21C    basis set group =>   2
Atom  22C    basis set group =>   2
Atom  23C    basis set group =>   2
Atom  24C    basis set group =>   2
Atom  25C    basis set group =>   2
Atom  26H    basis set group =>   4
Atom  27H    basis set group =>   4
Atom  28H    basis set group =>   4
Atom  29H    basis set group =>   4
Atom  30C    basis set group =>   2
Atom  31C    basis set group =>   2
Atom  32C    basis set group =>   2
Atom  33C    basis set group =>   2
Atom  34N    basis set group =>   3
Atom  35C    basis set group =>   2
Atom  36H    basis set group =>   4
Atom  37H    basis set group =>   4
Atom  38H    basis set group =>   4
Atom  39H    basis set group =>   4
Atom  40C    basis set group =>   2
Atom  41C    basis set group =>   2
Atom  42C    basis set group =>   2
Atom  43C    basis set group =>   2
Atom  44C    basis set group =>   2
Atom  45C    basis set group =>   2
Atom  46C    basis set group =>   2
Atom  47C    basis set group =>   2
Atom  48N    basis set group =>   3
Atom  49C    basis set group =>   2
Atom  50C    basis set group =>   2
Atom  51C    basis set group =>   2
Atom  52H    basis set group =>   4
Atom  53H    basis set group =>   4
Atom  54H    basis set group =>   4
Atom  55H    basis set group =>   4
Atom  56H    basis set group =>   4
Atom  57H    basis set group =>   4
Atom  58C    basis set group =>   2
Atom  59C    basis set group =>   2
Atom  60C    basis set group =>   2
Atom  61C    basis set group =>   2
Atom  62C    basis set group =>   2
Atom  63C    basis set group =>   2
Atom  64H    basis set group =>   4
Atom  65H    basis set group =>   4
Atom  66H    basis set group =>   4
Atom  67H    basis set group =>   4
Atom  68C    basis set group =>   2
Atom  69C    basis set group =>   2
Atom  70C    basis set group =>   2
Atom  71C    basis set group =>   2
Atom  72N    basis set group =>   3
Atom  73C    basis set group =>   2
Atom  74H    basis set group =>   4
Atom  75H    basis set group =>   4
Atom  76H    basis set group =>   4
Atom  77H    basis set group =>   4
Atom  78C    basis set group =>   2
Atom  79C    basis set group =>   2
Atom  80C    basis set group =>   2
Atom  81C    basis set group =>   2
Atom  82C    basis set group =>   2
Atom  83C    basis set group =>   2
Atom  84C    basis set group =>   2
Atom  85C    basis set group =>   2
Atom  86N    basis set group =>   3
Atom  87C    basis set group =>   2
Atom  88C    basis set group =>   2
Atom  89C    basis set group =>   2
Atom  90H    basis set group =>   4
Atom  91H    basis set group =>   4
Atom  92H    basis set group =>   4
Atom  93H    basis set group =>   4
Atom  94H    basis set group =>   4
Atom  95H    basis set group =>   4
Atom  96C    basis set group =>   2
Atom  97C    basis set group =>   2
Atom  98C    basis set group =>   2
Atom  99C    basis set group =>   2
Atom 100C    basis set group =>   2
Atom 101C    basis set group =>   2
Atom 102H    basis set group =>   4
Atom 103H    basis set group =>   4
Atom 104H    basis set group =>   4
Atom 105H    basis set group =>   4
Atom 106C    basis set group =>   2
Atom 107C    basis set group =>   2
Atom 108C    basis set group =>   2
Atom 109C    basis set group =>   2
Atom 110N    basis set group =>   3
Atom 111C    basis set group =>   2
Atom 112H    basis set group =>   4
Atom 113H    basis set group =>   4
Atom 114H    basis set group =>   4
Atom 115H    basis set group =>   4
Atom 116C    basis set group =>   2
Atom 117C    basis set group =>   2
Atom 118C    basis set group =>   2
Atom 119C    basis set group =>   2
Atom 120C    basis set group =>   2
Atom 121C    basis set group =>   2
Atom 122C    basis set group =>   2
Atom 123C    basis set group =>   2
Atom 124N    basis set group =>   3
Atom 125C    basis set group =>   2
Atom 126C    basis set group =>   2
Atom 127C    basis set group =>   2
Atom 128H    basis set group =>   4
Atom 129H    basis set group =>   4
Atom 130H    basis set group =>   4
Atom 131H    basis set group =>   4
Atom 132H    basis set group =>   4
Atom 133H    basis set group =>   4
Atom 134C    basis set group =>   2
Atom 135C    basis set group =>   2
Atom 136C    basis set group =>   2
Atom 137C    basis set group =>   2
Atom 138C    basis set group =>   2
Atom 139C    basis set group =>   2
Atom 140H    basis set group =>   4
Atom 141H    basis set group =>   4
Atom 142H    basis set group =>   4
Atom 143H    basis set group =>   4
Atom 144C    basis set group =>   2
Atom 145C    basis set group =>   2
Atom 146C    basis set group =>   2
Atom 147C    basis set group =>   2
Atom 148N    basis set group =>   3
Atom 149C    basis set group =>   2
Atom 150H    basis set group =>   4
Atom 151H    basis set group =>   4
Atom 152H    basis set group =>   4
Atom 153H    basis set group =>   4

-------------------------
BASIS SET IN INPUT FORMAT
-------------------------

 # Basis set for element : H 
 NewGTO H 
 S 3 
   1      34.0613410000      0.0254393072
   2       5.1235746000      0.1900859489
   3       1.1646626000      0.8524411301
 S 1 
   1       0.3272304100      1.0000000000
 S 1 
   1       0.1030724100      1.0000000000
  end;

 # Basis set for element : C 
 NewGTO C 
 S 6 
   1   13575.3496820000      0.0006064549
   2    2035.2333680000      0.0046979088
   3     463.2256235900      0.0243324776
   4     131.2001959800      0.0973999683
   5      42.8530158910      0.3019558425
   6      15.5841857660      0.6623360915
 S 2 
   1       6.2067138508      0.6559530854
   2       2.5764896527      0.3758563329
 S 1 
   1       0.5769633942      1.0000000000
 S 1 
   1       0.2297283136      1.0000000000
 S 1 
   1       0.0951644400      1.0000000000
 P 4 
   1      34.6972322440      0.0113272200
   2       7.9582622826      0.0761696592
   3       2.3780826883      0.3019225220
   4       0.8143320818      0.7278502735
 P 1 
   1       0.2888754725      1.0000000000
 P 1 
   1       0.1005682367      1.0000000000
 D 1 
   1       0.8000000000      1.0000000000
  end;

 # Basis set for element : N 
 NewGTO N 
 S 6 
   1   19730.8006470000      0.0005862639
   2    2957.8958745000      0.0045428821
   3     673.2213359500      0.0235584136
   4     190.6824949400      0.0947091933
   5      62.2954418980      0.2971978492
   6      22.6541611820      0.6691624689
 S 2 
   1       8.9791477428      0.6459668363
   2       3.6863002370      0.3870057440
 S 1 
   1       0.8466007680      1.0000000000
 S 1 
   1       0.3364713377      1.0000000000
 S 1 
   1       0.1364765367      1.0000000000
 P 4 
   1      49.2003805100      0.0114488252
   2      11.3467905370      0.0784223379
   3       3.4273972411      0.3081809474
   4       1.1785525134      0.7202719637
 P 1 
   1       0.4164220497      1.0000000000
 P 1 
   1       0.1426082601      1.0000000000
 D 1 
   1       0.8000000000      1.0000000000
  end;

 # Basis set for element : Pd
 NewGTO Pd
 S 2 
   1      18.0000000000     -0.8955869481
   2      14.6621343080      1.8822771923
 S 1 
   1       5.6388709265      1.0000000000
 S 1 
   1       1.3198953252      1.0000000000
 S 1 
   1       0.5781790851      1.0000000000
 S 1 
   1       0.1035216624      1.0000000000
 S 1 
   1       0.0375484427      1.0000000000
 P 4 
   1      12.5528993000      0.0701895210
   2       7.2444496380     -0.2749252830
   3       1.8905941078      0.5623121361
   4       0.9073716876      0.5736959368
 P 1 
   1       0.4087721081      1.0000000000
 P 1 
   1       0.1150000000      1.0000000000
 P 1 
   1       0.0370000000      1.0000000000
 D 4 
   1      22.3574575750      0.0063445039
   2      10.6825263820     -0.0225156052
   3       2.4858232550      0.3884291800
   4       1.0735333903      0.6828976806
 D 1 
   1       0.4261384285      1.0000000000
 D 1 
   1       0.1504635538      1.0000000000
  end;

---------------------------------
AUXILIARY/J BASIS SET INFORMATION
---------------------------------
There are 4 groups of distinct atoms

 Group   1 Type Pd  : 11s5p5d3f3g contracted to 8s5p5d2f3g pattern {41111111/11111/11111/21/111}
 Group   2 Type C   : 8s3p3d contracted to 6s3p3d pattern {311111/111/111}
 Group   3 Type N   : 8s3p3d contracted to 6s3p3d pattern {311111/111/111}
 Group   4 Type H   : 5s2p contracted to 3s1p pattern {311/2}

Atom   0Pd   basis set group =>   1
Atom   1Pd   basis set group =>   1
Atom   2C    basis set group =>   2
Atom   3C    basis set group =>   2
Atom   4C    basis set group =>   2
Atom   5C    basis set group =>   2
Atom   6C    basis set group =>   2
Atom   7C    basis set group =>   2
Atom   8C    basis set group =>   2
Atom   9C    basis set group =>   2
Atom  10N    basis set group =>   3
Atom  11C    basis set group =>   2
Atom  12C    basis set group =>   2
Atom  13C    basis set group =>   2
Atom  14H    basis set group =>   4
Atom  15H    basis set group =>   4
Atom  16H    basis set group =>   4
Atom  17H    basis set group =>   4
Atom  18H    basis set group =>   4
Atom  19H    basis set group =>   4
Atom  20C    basis set group =>   2
Atom  21C    basis set group =>   2
Atom  22C    basis set group =>   2
Atom  23C    basis set group =>   2
Atom  24C    basis set group =>   2
Atom  25C    basis set group =>   2
Atom  26H    basis set group =>   4
Atom  27H    basis set group =>   4
Atom  28H    basis set group =>   4
Atom  29H    basis set group =>   4
Atom  30C    basis set group =>   2
Atom  31C    basis set group =>   2
Atom  32C    basis set group =>   2
Atom  33C    basis set group =>   2
Atom  34N    basis set group =>   3
Atom  35C    basis set group =>   2
Atom  36H    basis set group =>   4
Atom  37H    basis set group =>   4
Atom  38H    basis set group =>   4
Atom  39H    basis set group =>   4
Atom  40C    basis set group =>   2
Atom  41C    basis set group =>   2
Atom  42C    basis set group =>   2
Atom  43C    basis set group =>   2
Atom  44C    basis set group =>   2
Atom  45C    basis set group =>   2
Atom  46C    basis set group =>   2
Atom  47C    basis set group =>   2
Atom  48N    basis set group =>   3
Atom  49C    basis set group =>   2
Atom  50C    basis set group =>   2
Atom  51C    basis set group =>   2
Atom  52H    basis set group =>   4
Atom  53H    basis set group =>   4
Atom  54H    basis set group =>   4
Atom  55H    basis set group =>   4
Atom  56H    basis set group =>   4
Atom  57H    basis set group =>   4
Atom  58C    basis set group =>   2
Atom  59C    basis set group =>   2
Atom  60C    basis set group =>   2
Atom  61C    basis set group =>   2
Atom  62C    basis set group =>   2
Atom  63C    basis set group =>   2
Atom  64H    basis set group =>   4
Atom  65H    basis set group =>   4
Atom  66H    basis set group =>   4
Atom  67H    basis set group =>   4
Atom  68C    basis set group =>   2
Atom  69C    basis set group =>   2
Atom  70C    basis set group =>   2
Atom  71C    basis set group =>   2
Atom  72N    basis set group =>   3
Atom  73C    basis set group =>   2
Atom  74H    basis set group =>   4
Atom  75H    basis set group =>   4
Atom  76H    basis set group =>   4
Atom  77H    basis set group =>   4
Atom  78C    basis set group =>   2
Atom  79C    basis set group =>   2
Atom  80C    basis set group =>   2
Atom  81C    basis set group =>   2
Atom  82C    basis set group =>   2
Atom  83C    basis set group =>   2
Atom  84C    basis set group =>   2
Atom  85C    basis set group =>   2
Atom  86N    basis set group =>   3
Atom  87C    basis set group =>   2
Atom  88C    basis set group =>   2
Atom  89C    basis set group =>   2
Atom  90H    basis set group =>   4
Atom  91H    basis set group =>   4
Atom  92H    basis set group =>   4
Atom  93H    basis set group =>   4
Atom  94H    basis set group =>   4
Atom  95H    basis set group =>   4
Atom  96C    basis set group =>   2
Atom  97C    basis set group =>   2
Atom  98C    basis set group =>   2
Atom  99C    basis set group =>   2
Atom 100C    basis set group =>   2
Atom 101C    basis set group =>   2
Atom 102H    basis set group =>   4
Atom 103H    basis set group =>   4
Atom 104H    basis set group =>   4
Atom 105H    basis set group =>   4
Atom 106C    basis set group =>   2
Atom 107C    basis set group =>   2
Atom 108C    basis set group =>   2
Atom 109C    basis set group =>   2
Atom 110N    basis set group =>   3
Atom 111C    basis set group =>   2
Atom 112H    basis set group =>   4
Atom 113H    basis set group =>   4
Atom 114H    basis set group =>   4
Atom 115H    basis set group =>   4
Atom 116C    basis set group =>   2
Atom 117C    basis set group =>   2
Atom 118C    basis set group =>   2
Atom 119C    basis set group =>   2
Atom 120C    basis set group =>   2
Atom 121C    basis set group =>   2
Atom 122C    basis set group =>   2
Atom 123C    basis set group =>   2
Atom 124N    basis set group =>   3
Atom 125C    basis set group =>   2
Atom 126C    basis set group =>   2
Atom 127C    basis set group =>   2
Atom 128H    basis set group =>   4
Atom 129H    basis set group =>   4
Atom 130H    basis set group =>   4
Atom 131H    basis set group =>   4
Atom 132H    basis set group =>   4
Atom 133H    basis set group =>   4
Atom 134C    basis set group =>   2
Atom 135C    basis set group =>   2
Atom 136C    basis set group =>   2
Atom 137C    basis set group =>   2
Atom 138C    basis set group =>   2
Atom 139C    basis set group =>   2
Atom 140H    basis set group =>   4
Atom 141H    basis set group =>   4
Atom 142H    basis set group =>   4
Atom 143H    basis set group =>   4
Atom 144C    basis set group =>   2
Atom 145C    basis set group =>   2
Atom 146C    basis set group =>   2
Atom 147C    basis set group =>   2
Atom 148N    basis set group =>   3
Atom 149C    basis set group =>   2
Atom 150H    basis set group =>   4
Atom 151H    basis set group =>   4
Atom 152H    basis set group =>   4
Atom 153H    basis set group =>   4

-------------------------------------
AUXILIARY/J BASIS SET IN INPUT FORMAT
-------------------------------------

 # Auxiliary/J basis set for element : H 
 NewAuxJGTO H 
 S 3 
   1      15.6752927000      0.1007184237
   2       3.6063578000      0.3404257499
   3       1.2080016000      0.6491996172
 S 1 
   1       0.4726794000      1.0000000000
 S 1 
   1       0.2018100000      1.0000000000
 P 2 
   1       2.0281365000      0.5596620919
   2       0.5358730000      0.5596620919
  end;

 # Auxiliary/J basis set for element : C 
 NewAuxJGTO C 
 S 3 
   1     459.7023860000      0.1098751775
   2     132.9577920000      0.2844848472
   3      41.5658170000      0.6964707648
 S 1 
   1      13.9155610000      1.0000000000
 S 1 
   1       4.9305290000     -1.0000000000
 S 1 
   1       1.8229480000      1.0000000000
 S 1 
   1       0.6920510000      1.0000000000
 S 1 
   1       0.2650930000      1.0000000000
 P 1 
   1       0.3278473579      1.0000000000
 P 1 
   1       0.7868336591      1.0000000000
 P 1 
   1       1.9710183160      1.0000000000
 D 1 
   1       4.0133010000      1.0000000000
 D 1 
   1       1.2475050000      1.0000000000
 D 1 
   1       0.4081480000      1.0000000000
  end;

 # Auxiliary/J basis set for element : N 
 NewAuxJGTO N 
 S 3 
   1     680.5425300000      0.1043830093
   2     196.7562140000      0.2751518961
   3      61.2707930000      0.7090825511
 S 1 
   1      20.3644630000      1.0000000000
 S 1 
   1       7.1424770000     -1.0000000000
 S 1 
   1       2.6080260000      1.0000000000
 S 1 
   1       0.9763730000      1.0000000000
 S 1 
   1       0.3686330000      1.0000000000
 P 1 
   1       0.4707391941      1.0000000000
 P 1 
   1       1.1297740658     -1.0000000000
 P 1 
   1       2.8300840347      1.0000000000
 D 1 
   1       5.8329865000      1.0000000000
 D 1 
   1       1.7326865000      1.0000000000
 D 1 
   1       0.5452425000      1.0000000000
  end;

 # Auxiliary/J basis set for element : Pd
 NewAuxJGTO Pd
 S 4 
   1      51.0211803000      0.0154414011
   2      17.6543867000     -0.3899991562
   3      10.3849330000      1.7000917225
   4       6.2315704000     -2.2542519748
 S 1 
   1       3.6656295000     -1.0000000000
 S 1 
   1       2.1995933000      1.0000000000
 S 1 
   1       1.2683839000      1.0000000000
 S 1 
   1       0.7461081000      1.0000000000
 S 1 
   1       0.4477087000      1.0000000000
 S 1 
   1       0.2581689000      1.0000000000
 S 1 
   1       0.1518640000      1.0000000000
 P 1 
   1       5.6999676000      1.0000000000
 P 1 
   1       2.5155374000     -1.0000000000
 P 1 
   1       1.1229524000      1.0000000000
 P 1 
   1       0.5047808000     -1.0000000000
 P 1 
   1       0.2274325000     -1.0000000000
 D 1 
   1       3.8006002000      1.0000000000
 D 1 
   1       1.5882692000     -1.0000000000
 D 1 
   1       0.6550157000     -1.0000000000
 D 1 
   1       0.2680210000      1.0000000000
 D 1 
   1       0.1093843000     -1.0000000000
 F 2 
   1       2.0106185000     -1.3134732431
   2       0.8268460000      0.9210621264
 F 1 
   1       0.3451253000      1.0000000000
 G 1 
   1       7.5375072000      1.0000000000
 G 1 
   1       2.7664349000      1.0000000000
 G 1 
   1       1.0133462000      1.0000000000
  end;

-------------------------
ECP PARAMETER INFORMATION
-------------------------

 Group 1, Type Pd ECP Def2-ECP (replacing 28 core electrons, lmax=3)

Atom   0Pd   ECP group =>   1
Atom   1Pd   ECP group =>   1


-------------------------
ECP BASIS IN INPUT FORMAT
-------------------------

 #ECP Def2-ECP
 NewECP Pd
   N_core 28
   lmax f
   s 4
     1      12.4300000000    240.2290403000  2
     2       6.1707594000     35.1719435000  2
     3      13.2700000000     31.9295543000  2
     4       6.6300000000      5.3982169000  2
   p 4
     1      11.0800000000    170.4172760000  2
     2       5.8295541000     28.4721329000  2
     3      13.2700000000     31.9295543000  2
     4       6.6300000000      5.3982169000  2
   d 4
     1       9.5100000000     69.0138449000  2
     2       4.1397811000     11.7508616000  2
     3      13.2700000000     31.9295543000  2
     4       6.6300000000      5.3982169000  2
   f 2
     1      13.2700000000    -31.9295543000  2
     2       6.6300000000     -5.3982169000  2
 End




           ************************************************************
           *        Program running with 32 parallel MPI-processes    *
           *              working on a common directory               *
           ************************************************************
------------------------------------------------------------------------------
                           ORCA GTO INTEGRAL CALCULATION
                           -- RI-GTO INTEGRALS CHOSEN --
------------------------------------------------------------------------------

                         BASIS SET STATISTICS AND STARTUP INFO

Gaussian basis set:
 # of primitive gaussian shells          ... 2048
 # of primitive gaussian functions       ... 3660
 # of contracted shells                  ... 1058
 # of contracted basis functions         ... 2058
 Highest angular momentum                ...    2
 Maximum contraction depth               ...    6
Auxiliary gaussian basis set:
 # of primitive gaussian shells          ... 1790
 # of primitive gaussian functions       ... 3886
 # of contracted shells                  ... 1422
 # of contracted aux-basis functions     ... 3394
 Highest angular momentum                ...    4
 Maximum contraction depth               ...    4
Ratio of auxiliary to basis functions    ...  1.65
Integral package used                  ... LIBINT
 One Electron integrals                  
   ECP integrals                         ... done
 Ordering auxiliary basis shells         ... done
 Integral threshhold             Thresh  ...  2.500e-11
 Primitive cut-off               TCut    ...  2.500e-12
 Pre-screening matrix                    ... done
 Shell pair data                         ... 
 Ordering of the shell pairs             ... done (   0.048 sec) 204395 of 560211 pairs
 Determination of significant pairs      ... done (   0.002 sec)
 Creation of shell pair data             ... done (   0.017 sec)
 Storage of shell pair data              ... done (   0.051 sec)
 Shell pair data done in (   0.118 sec)
 Computing two index integrals           ... done
 Cholesky decomposition of the V-matrix  ... done


Timings:
 Total evaluation time                   ...   8.576 sec (  0.143 min)
 One electron matrix time                ...   5.449 sec (  0.091 min) = 63.5%
 Schwartz matrix evaluation time         ...   2.177 sec (  0.036 min) = 25.4%
 Two index repulsion integral time       ...   0.212 sec (  0.004 min) =  2.5%
 Cholesky decomposition of V             ...   0.590 sec (  0.010 min) =  6.9%
 Three index repulsion integral time     ...   0.001 sec (  0.000 min) =  0.0%



           ************************************************************
           *        Program running with 32 parallel MPI-processes    *
           *              working on a common directory               *
           ************************************************************
-------------------------------------------------------------------------------
                                 ORCA SCF
-------------------------------------------------------------------------------

------------
SCF SETTINGS
------------
Hamiltonian:
 Density Functional     Method          .... DFT(GTOs)
 Exchange Functional    Exchange        .... B973C
 Correlation Functional Correlation     .... B973C
 Gradients option       PostSCFGGA      .... off
   Density functional embedding theory  .... OFF
 RI-approximation to the Coulomb term is turned on
   Number of auxiliary basis functions  .... 3394


General Settings:
 Integral files         IntName         .... _s_5d1_c_B97-3c
 Hartree-Fock type      HFTyp           .... RHF
 Total Charge           Charge          ....    4
 Multiplicity           Mult            ....    1
 Number of Electrons    NEL             ....  672
 Basis Dimension        Dim             .... 2058
 Nuclear Repulsion      ENuc            ....  18013.9580125662 Eh

Convergence Acceleration:
 DIIS                   CNVDIIS         .... on
   Start iteration      DIISMaxIt       ....     0
   Startup error        DIISStart       ....  0.200000
   # of expansion vecs  DIISMaxEq       ....     5
   Bias factor          DIISBfac        ....   1.050
   Max. coefficient     DIISMaxC        ....  10.000
 Newton-Raphson         CNVNR           .... off
 SOSCF                  CNVSOSCF        .... off
 Level Shifting         CNVShift        .... on
   Level shift para.    LevelShift      ....    0.2500
   Turn off err/grad.   ShiftErr        ....    0.0000
 Zerner damping         CNVZerner       .... off
 Static damping         CNVDamp         .... on
   Fraction old density DampFac         ....    0.8500
   Max. Damping (<1)    DampMax         ....    0.9800
   Min. Damping (>=0)   DampMin         ....    0.0000
   Turn off err/grad.   DampErr         ....    0.0300
 Fernandez-Rico         CNVRico         .... off

SCF Procedure:
 Maximum # iterations   MaxIter         ....  2000
 SCF integral mode      SCFMode         .... Direct
   Integral package                     .... LIBINT
 Reset frequency        DirectResetFreq ....    20
 Integral Threshold     Thresh          ....  2.500e-11 Eh
 Primitive CutOff       TCut            ....  2.500e-12 Eh

Convergence Tolerance:
 Convergence Check Mode ConvCheckMode   .... Total+1el-Energy
 Convergence forced     ConvForced      .... 0
 Energy Change          TolE            ....  1.000e-08 Eh
 1-El. energy change                    ....  1.000e-05 Eh
 DIIS Error             TolErr          ....  5.000e-07


Diagonalization of the overlap matrix:
Smallest eigenvalue                        ... 5.931e-06
Time for diagonalization                   ...    0.694 sec
Threshold for overlap eigenvalues          ... 1.000e-08
Number of eigenvalues below threshold      ... 0
Time for construction of square roots      ...    0.499 sec
Total time needed                          ...    1.202 sec

--------------------------------
INITIAL GUESS: MINIMAL BASIS EHT
--------------------------------
The minimal basis has 562 functions
EHT matrix was diagonalized
Basis set overlap was calculated now projecting the orbitals
Using GuessMode=FMatrix for the initial guess
C*T matrix was formed
Effective Fockian was calculated
Effective Fockian was diagonalized
Initial density was built
                      ------------------
                      INITIAL GUESS DONE
                      ------------------
-------------------
DFT GRID GENERATION
-------------------

General Integration Accuracy     IntAcc      ...  5.340
Radial Grid Type                 RadialGrid  ... Gauss-Chebyshev
Angular Grid (max. acc.)         AngularGrid ... Lebedev-590
Angular grid pruning method      GridPruning ... 3 (G Style)
Weight generation scheme         WeightScheme... Becke
Basis function cutoff            BFCut       ...    1.0000e-11
Integration weight cutoff        WCut        ...    1.0000e-14
Grids for H and He will be reduced by one unit

# of grid points (after initial pruning)     ... 2250644 (   0.0 sec)
# of grid points (after weights+screening)   ... 1844825 (   9.5 sec)
nearest neighbour list constructed           ...    0.0 sec
Grid point re-assignment to atoms done       ...    0.3 sec
Grid point division into batches done        ...   18.9 sec
Reduced shell lists constructed in   20.2 sec

Total number of grid points                  ...  1844825
Total number of batches                      ...    28899
Average number of points per batch           ...       63
Average number of grid points per atom       ...    11979
Average number of shells per batch           ...   222.07 (20.99%)
Average number of basis functions per batch  ...   436.44 (21.21%)
Average number of large shells per batch     ...   116.28 (52.36%)
Average number of large basis fcns per batch ...   232.62 (53.30%)
Maximum spatial batch extension              ...   9.50,  3.77, 11.33 au
Average spatial batch extension              ...   0.03,  0.03,  0.03 au

Time for grid setup =   30.535 sec

--------------
SCF ITERATIONS
--------------
ITER       Energy         Delta-E        Max-DP      RMS-DP      [F,P]     Damp
               ***  Starting incremental Fock matrix formation  ***
  0  -4032.1183993612   0.00000000000016.36039131  0.08318129  5.1943311 0.8500
  1  -4042.0781888335  -9.959789472305 2.11011220  0.01213736  4.5041421 0.8500
                               ***Turning on DIIS***
  2  -4049.4710488947  -7.392860061231 2.01604546  0.01052370  3.8637446 0.8500
  3  -4054.1301612003  -4.659112305555 1.93434051  0.00951326  3.3053634 0.8500
  4  -4057.7922655146  -3.662104314288 1.61307349  0.00813548  2.8075336 0.8500
  5  -4060.4992391224  -2.706973607856 1.39087400  0.00697758  2.3752518 0.8500
  6  -4063.0289163061  -2.529677183662 1.20007113  0.00595923  2.0166937 0.8500
  7  -4065.2587263192  -2.229810013072 1.03412499  0.00506703  1.7148913 0.8500
  8  -4067.1748028754  -1.916076556259 0.87825656  0.00433080  1.4611159 0.8500
  9  -4068.7401556215  -1.565352746129 0.73730467  0.00367727  1.2416712 0.8500
 10  -4070.0283977582  -1.288242136616 0.62508876  0.00311746  1.0532072 0.8500
 11  -4071.1337312889  -1.105333530704 0.53493441  0.00264874  0.8946113 0.8500
 12  -4072.0835726072  -0.949841318306 0.45803608  0.00225661  0.7610714 0.8500
 13  -4072.8875584546  -0.803985847477 0.38909286  0.00192283  0.6475327 0.8500
 14  -4073.5629660548  -0.675407600196 0.32877946  0.00163330  0.5501645 0.8500
 15  -4074.1330588782  -0.570092823393 0.27887459  0.00138529  0.4671420 0.8500
 16  -4074.6182548057  -0.485195927478 0.23787054  0.00117682  0.3969920 0.8500
 17  -4075.0311452296  -0.412890423893 0.20303287  0.00100183  0.3376521 0.8500
 18  -4075.3812392494  -0.350094019825 0.17255647  0.00085261  0.2871070 0.8500
 19  -4075.6778020290  -0.296562779578 0.14624748  0.00072500  0.2439406 0.8500
               *** Restarting incremental Fock matrix formation ***
                                   *** Resetting DIIS ***
 20  -4075.9294513144  -0.251649285368 0.12577513  0.00061223  0.2072368 0.8500
 21  -4076.1439929723  -0.214541657890 0.10669819  0.00052396  0.1766285 0.8500
 22  -4076.3255375233  -0.181544551018 0.08949743  0.00044632  0.1499783 0.8500
 23  -4076.4793731884  -0.153835665104 0.07567888  0.00037801  0.1271499 0.8500
 24  -4076.6102917546  -0.130918566167 0.06447797  0.00032116  0.1080163 0.8500
 25  -4076.7216362066  -0.111344452056 0.05519550  0.00027333  0.0918464 0.8500
 26  -4076.8162968676  -0.094660661009 0.04701994  0.00023326  0.0781758 0.8500
 27  -4076.8966907271  -0.080393859444 0.03981844  0.00019860  0.0664425 0.8500
 28  -4076.9649808466  -0.068290119485 0.03372994  0.00016847  0.0564107 0.8500
 29  -4077.0230351623  -0.058054315738 0.02869797  0.00014307  0.0479316 0.8500
 30  -4077.0723888647  -0.049353702441 0.02448161  0.00012187  0.0407626 0.8500
 31  -4077.1143343899  -0.041945525121 0.02085361  0.00010399  0.0346658 0.8500
 32  -4077.1499792943  -0.035644904427 0.11804535  0.00059065  0.0294571 0.0000
 33  -4077.3519133115  -0.201934017241 0.00462499  0.00001875  0.0009095 0.0000
 34  -4077.3519062548   0.000007056766 0.00146516  0.00000499  0.0015689 0.0000
 35  -4077.3519159283  -0.000009673557 0.00074703  0.00000462  0.0004176 0.0000
 36  -4077.3519169990  -0.000001070694 0.00084297  0.00000486  0.0001253 0.0000
 37  -4077.3519170119  -0.000000012889 0.00107834  0.00000416  0.0000246 0.0000
 38  -4077.3519169882   0.000000023731 0.00052013  0.00000294  0.0000065 0.0000
 39  -4077.3519171177  -0.000000129527 0.00351368  0.00001954  0.0000017 0.0000
               *** Restarting incremental Fock matrix formation ***
                                   *** Resetting DIIS ***
 40  -4077.3519169938   0.000000123928 0.00129350  0.00000784  0.0000021 0.0000
 41  -4077.3519170904  -0.000000096621 0.00044152  0.00000175  0.0000029 0.0000
                            ***DIIS convergence achieved***

               *****************************************************
               *                     SUCCESS                       *
               *           SCF CONVERGED AFTER  42 CYCLES          *
               *****************************************************


----------------
TOTAL SCF ENERGY
----------------

Total Energy       :        -4077.35191714 Eh         -110950.38627 eV

Components:
Nuclear Repulsion  :        18013.95801257 Eh          490184.71803 eV
Electronic Energy  :       -22091.30992970 Eh         -601135.10431 eV
One Electron Energy:       -41358.05921040 Eh        -1125410.00585 eV
Two Electron Energy:        19266.74928070 Eh          524274.90155 eV

Virial components:
Potential Energy   :        -7981.67239521 Eh         -217192.34772 eV
Kinetic Energy     :         3904.32047807 Eh          106241.96145 eV
Virial Ratio       :            2.04431794


DFT components:
N(Alpha)           :      336.000218352698 electrons
N(Beta)            :      336.000218352698 electrons
N(Total)           :      672.000436705396 electrons
E(XC)              :     -576.005021398489 Eh       
DFET-embed. en.    :        0.000000000000 Eh       

---------------
SCF CONVERGENCE
---------------

  Last Energy change         ...   -4.6773e-08  Tolerance :   1.0000e-08
  Last MAX-Density change    ...    3.2578e-04  Tolerance :   1.0000e-07
[...]
 25 C      6.1448     6.0000    -0.1448     3.6370     3.6370    -0.0000
 26 H      0.7591     1.0000     0.2409     0.9034     0.9034    -0.0000
 27 H      0.7748     1.0000     0.2252     0.9240     0.9240    -0.0000
 28 H      0.7540     1.0000     0.2460     0.8998     0.8998    -0.0000
 29 H      0.7836     1.0000     0.2164     0.8759     0.8759    -0.0000
 30 C      5.9845     6.0000     0.0155     3.7240     3.7240    -0.0000
 31 C      6.1664     6.0000    -0.1664     4.0062     4.0062    -0.0000
 32 C      6.0531     6.0000    -0.0531     3.9299     3.9299    -0.0000
 33 C      6.1350     6.0000    -0.1350     3.9698     3.9698    -0.0000
 34 N      7.0453     7.0000    -0.0453     3.3294     3.3294    -0.0000
 35 C      6.1447     6.0000    -0.1447     3.8704     3.8704    -0.0000
 36 H      0.7358     1.0000     0.2642     0.8940     0.8940    -0.0000
 37 H      0.7523     1.0000     0.2477     0.9117     0.9117    -0.0000
 38 H      0.8123     1.0000     0.1877     0.9517     0.9517    -0.0000
 39 H      0.8067     1.0000     0.1933     0.9429     0.9429    -0.0000
 40 C      6.0031     6.0000    -0.0031     3.2702     3.2702    -0.0000
 41 C      5.9584     6.0000     0.0416     3.0246     3.0246    -0.0000
 42 C      6.1826     6.0000    -0.1826     3.6860     3.6860    -0.0000
 43 C      6.0918     6.0000    -0.0918     3.8199     3.8199    -0.0000
 44 C      6.1874     6.0000    -0.1874     4.1671     4.1671    -0.0000
 45 C      6.2207     6.0000    -0.2207     3.9294     3.9294    -0.0000
 46 C      5.8277     6.0000     0.1723     3.4685     3.4685    -0.0000
 47 C      6.2217     6.0000    -0.2217     3.8000     3.8000    -0.0000
 48 N      7.0825     7.0000    -0.0825     3.3234     3.3234    -0.0000
 49 C      6.1664     6.0000    -0.1664     3.9376     3.9376    -0.0000
 50 C      5.9739     6.0000     0.0261     3.5895     3.5895    -0.0000
 51 C      5.8311     6.0000     0.1689     3.4172     3.4172    -0.0000
 52 H      0.7426     1.0000     0.2574     0.8956     0.8956    -0.0000
 53 H      0.7700     1.0000     0.2300     0.9239     0.9239    -0.0000
 54 H      0.7656     1.0000     0.2344     0.9023     0.9023    -0.0000
 55 H      0.8017     1.0000     0.1983     0.9314     0.9314    -0.0000
 56 H      0.8586     1.0000     0.1414     0.9651     0.9651    -0.0000
 57 H      0.8236     1.0000     0.1764     0.9375     0.9375    -0.0000
 58 C      6.1634     6.0000    -0.1634     4.0611     4.0611    -0.0000
 59 C      6.1256     6.0000    -0.1256     3.8348     3.8348    -0.0000
 60 C      6.1676     6.0000    -0.1676     4.2062     4.2062    -0.0000
 61 C      6.1364     6.0000    -0.1364     3.9092     3.9092    -0.0000
 62 C      6.0257     6.0000    -0.0257     3.7127     3.7127    -0.0000
 63 C      6.1443     6.0000    -0.1443     3.6363     3.6363    -0.0000
 64 H      0.7591     1.0000     0.2409     0.9034     0.9034    -0.0000
 65 H      0.7749     1.0000     0.2251     0.9240     0.9240    -0.0000
 66 H      0.7540     1.0000     0.2460     0.8998     0.8998    -0.0000
 67 H      0.7827     1.0000     0.2173     0.8757     0.8757    -0.0000
 68 C      5.9832     6.0000     0.0168     3.7217     3.7217    -0.0000
 69 C      6.1666     6.0000    -0.1666     4.0070     4.0070    -0.0000
 70 C      6.0528     6.0000    -0.0528     3.9296     3.9296    -0.0000
 71 C      6.1366     6.0000    -0.1366     3.9700     3.9700    -0.0000
 72 N      7.0452     7.0000    -0.0452     3.3299     3.3299    -0.0000
 73 C      6.1446     6.0000    -0.1446     3.8698     3.8698    -0.0000
 74 H      0.7357     1.0000     0.2643     0.8940     0.8940    -0.0000
 75 H      0.7523     1.0000     0.2477     0.9117     0.9117    -0.0000
 76 H      0.8115     1.0000     0.1885     0.9516     0.9516    -0.0000
 77 H      0.8074     1.0000     0.1926     0.9433     0.9433    -0.0000
 78 C      6.0030     6.0000    -0.0030     3.2698     3.2698    -0.0000
 79 C      5.9583     6.0000     0.0417     3.0245     3.0245    -0.0000
 80 C      6.1828     6.0000    -0.1828     3.6858     3.6858    -0.0000
 81 C      6.0918     6.0000    -0.0918     3.8198     3.8198    -0.0000
 82 C      6.1875     6.0000    -0.1875     4.1671     4.1671    -0.0000
 83 C      6.2206     6.0000    -0.2206     3.9295     3.9295    -0.0000
 84 C      5.8279     6.0000     0.1721     3.4694     3.4694    -0.0000
 85 C      6.2221     6.0000    -0.2221     3.8004     3.8004    -0.0000
 86 N      7.0816     7.0000    -0.0816     3.3230     3.3230    -0.0000
 87 C      6.1663     6.0000    -0.1663     3.9381     3.9381    -0.0000
 88 C      5.9739     6.0000     0.0261     3.5890     3.5890    -0.0000
 89 C      5.8309     6.0000     0.1691     3.4173     3.4173    -0.0000
 90 H      0.7426     1.0000     0.2574     0.8956     0.8956    -0.0000
 91 H      0.7700     1.0000     0.2300     0.9239     0.9239    -0.0000
 92 H      0.7656     1.0000     0.2344     0.9023     0.9023    -0.0000
 93 H      0.8016     1.0000     0.1984     0.9313     0.9313    -0.0000
 94 H      0.8590     1.0000     0.1410     0.9652     0.9652    -0.0000
 95 H      0.8237     1.0000     0.1763     0.9376     0.9376    -0.0000
 96 C      6.1632     6.0000    -0.1632     4.0602     4.0602    -0.0000
 97 C      6.1256     6.0000    -0.1256     3.8349     3.8349    -0.0000
 98 C      6.1676     6.0000    -0.1676     4.2062     4.2062    -0.0000
 99 C      6.1365     6.0000    -0.1365     3.9091     3.9091    -0.0000
100 C      6.0257     6.0000    -0.0257     3.7129     3.7129    -0.0000
101 C      6.1445     6.0000    -0.1445     3.6362     3.6362    -0.0000
102 H      0.7591     1.0000     0.2409     0.9034     0.9034    -0.0000
103 H      0.7749     1.0000     0.2251     0.9240     0.9240    -0.0000
104 H      0.7540     1.0000     0.2460     0.8998     0.8998    -0.0000
105 H      0.7828     1.0000     0.2172     0.8757     0.8757    -0.0000
106 C      5.9843     6.0000     0.0157     3.7245     3.7245    -0.0000
107 C      6.1665     6.0000    -0.1665     4.0069     4.0069    -0.0000
108 C      6.0528     6.0000    -0.0528     3.9291     3.9291    -0.0000
109 C      6.1365     6.0000    -0.1365     3.9700     3.9700    -0.0000
110 N      7.0450     7.0000    -0.0450     3.3299     3.3299    -0.0000
111 C      6.1441     6.0000    -0.1441     3.8702     3.8702    -0.0000
112 H      0.7357     1.0000     0.2643     0.8940     0.8940    -0.0000
113 H      0.7523     1.0000     0.2477     0.9117     0.9117    -0.0000
114 H      0.8117     1.0000     0.1883     0.9516     0.9516    -0.0000
115 H      0.8072     1.0000     0.1928     0.9432     0.9432    -0.0000
116 C      6.0037     6.0000    -0.0037     3.2703     3.2703    -0.0000
117 C      5.9581     6.0000     0.0419     3.0239     3.0239    -0.0000
118 C      6.1828     6.0000    -0.1828     3.6853     3.6853    -0.0000
119 C      6.0918     6.0000    -0.0918     3.8199     3.8199    -0.0000
120 C      6.1877     6.0000    -0.1877     4.1673     4.1673    -0.0000
121 C      6.2206     6.0000    -0.2206     3.9291     3.9291    -0.0000
122 C      5.8278     6.0000     0.1722     3.4695     3.4695    -0.0000
123 C      6.2218     6.0000    -0.2218     3.7997     3.7997    -0.0000
124 N      7.0825     7.0000    -0.0825     3.3219     3.3219    -0.0000
125 C      6.1693     6.0000    -0.1693     3.9387     3.9387    -0.0000
126 C      5.9751     6.0000     0.0249     3.5897     3.5897    -0.0000
127 C      5.8291     6.0000     0.1709     3.4138     3.4138    -0.0000
128 H      0.7426     1.0000     0.2574     0.8956     0.8956    -0.0000
129 H      0.7700     1.0000     0.2300     0.9239     0.9239    -0.0000
130 H      0.7656     1.0000     0.2344     0.9023     0.9023    -0.0000
131 H      0.8017     1.0000     0.1983     0.9309     0.9309    -0.0000
132 H      0.8567     1.0000     0.1433     0.9642     0.9642    -0.0000
133 H      0.8229     1.0000     0.1771     0.9372     0.9372    -0.0000
134 C      6.1624     6.0000    -0.1624     4.0584     4.0584    -0.0000
135 C      6.1254     6.0000    -0.1254     3.8343     3.8343    -0.0000
136 C      6.1678     6.0000    -0.1678     4.2067     4.2067    -0.0000
137 C      6.1364     6.0000    -0.1364     3.9083     3.9083    -0.0000
138 C      6.0251     6.0000    -0.0251     3.7124     3.7124    -0.0000
139 C      6.1447     6.0000    -0.1447     3.6371     3.6371    -0.0000
140 H      0.7590     1.0000     0.2410     0.9034     0.9034    -0.0000
141 H      0.7749     1.0000     0.2251     0.9240     0.9240    -0.0000
142 H      0.7540     1.0000     0.2460     0.8998     0.8998    -0.0000
143 H      0.7836     1.0000     0.2164     0.8759     0.8759    -0.0000
144 C      5.9836     6.0000     0.0164     3.7214     3.7214    -0.0000
145 C      6.1665     6.0000    -0.1665     4.0065     4.0065    -0.0000
146 C      6.0532     6.0000    -0.0532     3.9305     3.9305    -0.0000
147 C      6.1352     6.0000    -0.1352     3.9699     3.9699    -0.0000
148 N      7.0455     7.0000    -0.0455     3.3296     3.3296    -0.0000
149 C      6.1452     6.0000    -0.1452     3.8699     3.8699    -0.0000
150 H      0.7358     1.0000     0.2642     0.8940     0.8940    -0.0000
151 H      0.7524     1.0000     0.2476     0.9117     0.9117    -0.0000
152 H      0.8121     1.0000     0.1879     0.9517     0.9517    -0.0000
153 H      0.8069     1.0000     0.1931     0.9431     0.9431    -0.0000

  Mayer bond orders larger than 0.100000
B(  0-Pd, 34-N ) :   0.5366 B(  0-Pd, 72-N ) :   0.5364 B(  0-Pd, 86-N ) :   0.5347 
B(  0-Pd,124-N ) :   0.5347 B(  1-Pd, 10-N ) :   0.5346 B(  1-Pd, 48-N ) :   0.5349 
B(  1-Pd,110-N ) :   0.5364 B(  1-Pd,148-N ) :   0.5367 B(  2-C ,  3-C ) :   1.8707 
B(  2-C ,  4-C ) :  -0.2885 B(  2-C , 20-C ) :   1.5100 B(  3-C ,  4-C ) :   1.4519 
B(  3-C , 13-C ) :  -0.1959 B(  3-C , 20-C ) :  -0.3889 B(  4-C ,  5-C ) :   1.5171 
B(  4-C , 12-C ) :  -0.1263 B(  4-C , 13-C ) :   1.0541 B(  5-C ,  6-C ) :   1.4101 
B(  5-C , 14-H ) :   0.8582 B(  6-C ,  7-C ) :   1.6442 B(  6-C , 15-H ) :   0.8707 
B(  7-C ,  8-C ) :   1.2917 B(  7-C , 16-H ) :   0.8644 B(  8-C ,  9-C ) :   1.2526 
B(  8-C , 13-C ) :   1.0770 B(  9-C , 10-N ) :   1.4708 B(  9-C , 13-C ) :  -0.1186 
B(  9-C , 17-H ) :   0.9182 B( 10-N , 11-C ) :   1.2831 B( 11-C , 12-C ) :   1.4590 
B( 11-C , 13-C ) :   0.1023 B( 11-C , 18-H ) :   0.9336 B( 12-C , 13-C ) :   1.4119 
B( 12-C , 19-H ) :   0.8793 B( 20-C , 21-C ) :   1.3512 B( 20-C , 25-C ) :   1.3980 
B( 21-C , 22-C ) :   1.5422 B( 21-C , 26-H ) :   0.8862 B( 22-C , 23-C ) :   1.5784 
B( 22-C , 27-H ) :   0.8700 B( 23-C , 24-C ) :   1.3558 B( 23-C , 28-H ) :   0.8410 
B( 24-C , 25-C ) :   1.3260 B( 24-C , 30-C ) :   0.9127 B( 25-C , 29-H ) :   0.8837 
B( 30-C , 31-C ) :   1.4413 B( 30-C , 35-C ) :   1.3851 B( 31-C , 32-C ) :   1.5142 
B( 31-C , 36-H ) :   0.8714 B( 32-C , 33-C ) :   1.4496 B( 32-C , 37-H ) :   0.8654 
B( 33-C , 34-N ) :   1.3534 B( 33-C , 38-H ) :   0.9238 B( 34-N , 35-C ) :   1.3769 
B( 35-C , 39-H ) :   0.9143 B( 40-C , 41-C ) :   1.8710 B( 40-C , 42-C ) :  -0.2881 
B( 40-C , 58-C ) :   1.5111 B( 41-C , 42-C ) :   1.4515 B( 41-C , 51-C ) :  -0.1953 
B( 41-C , 58-C ) :  -0.3885 B( 42-C , 43-C ) :   1.5170 B( 42-C , 50-C ) :  -0.1259 
B( 42-C , 51-C ) :   1.0553 B( 43-C , 44-C ) :   1.4100 B( 43-C , 52-H ) :   0.8582 
B( 44-C , 45-C ) :   1.6443 B( 44-C , 53-H ) :   0.8707 B( 45-C , 46-C ) :   1.2916 
B( 45-C , 54-H ) :   0.8644 B( 46-C , 47-C ) :   1.2521 B( 46-C , 51-C ) :   1.0774 
B( 47-C , 48-N ) :   1.4712 B( 47-C , 51-C ) :  -0.1187 B( 47-C , 55-H ) :   0.9181 
B( 48-N , 49-C ) :   1.2832 B( 49-C , 50-C ) :   1.4590 B( 49-C , 51-C ) :   0.1032 
B( 49-C , 56-H ) :   0.9335 B( 50-C , 51-C ) :   1.4116 B( 50-C , 57-H ) :   0.8792 
B( 58-C , 59-C ) :   1.3521 B( 58-C , 63-C ) :   1.3989 B( 59-C , 60-C ) :   1.5422 
B( 59-C , 64-H ) :   0.8861 B( 60-C , 61-C ) :   1.5783 B( 60-C , 65-H ) :   0.8700 
B( 61-C , 62-C ) :   1.3564 B( 61-C , 66-H ) :   0.8411 B( 62-C , 63-C ) :   1.3259 
B( 62-C , 68-C ) :   0.9121 B( 63-C , 67-H ) :   0.8830 B( 68-C , 69-C ) :   1.4416 
B( 68-C , 73-C ) :   1.3833 B( 69-C , 70-C ) :   1.5142 B( 69-C , 74-H ) :   0.8715 
B( 70-C , 71-C ) :   1.4498 B( 70-C , 75-H ) :   0.8655 B( 71-C , 72-N ) :   1.3533 
B( 71-C , 76-H ) :   0.9234 B( 72-N , 73-C ) :   1.3770 B( 73-C , 77-H ) :   0.9153 
B( 78-C , 79-C ) :   1.8710 B( 78-C , 80-C ) :  -0.2881 B( 78-C , 96-C ) :   1.5108 
B( 79-C , 80-C ) :   1.4513 B( 79-C , 89-C ) :  -0.1952 B( 79-C , 96-C ) :  -0.3885 
B( 80-C , 81-C ) :   1.5170 B( 80-C , 88-C ) :  -0.1258 B( 80-C , 89-C ) :   1.0554 
B( 81-C , 82-C ) :   1.4101 B( 81-C , 90-H ) :   0.8581 B( 82-C , 83-C ) :   1.6442 
B( 82-C , 91-H ) :   0.8707 B( 83-C , 84-C ) :   1.2918 B( 83-C , 92-H ) :   0.8644 
B( 84-C , 85-C ) :   1.2525 B( 84-C , 89-C ) :   1.0775 B( 85-C , 86-N ) :   1.4713 
B( 85-C , 89-C ) :  -0.1187 B( 85-C , 93-H ) :   0.9179 B( 86-N , 87-C ) :   1.2831 
B( 87-C , 88-C ) :   1.4588 B( 87-C , 89-C ) :   0.1031 B( 87-C , 94-H ) :   0.9338 
B( 88-C , 89-C ) :   1.4115 B( 88-C , 95-H ) :   0.8792 B( 96-C , 97-C ) :   1.3520 
B( 96-C ,101-C ) :   1.3985 B( 97-C , 98-C ) :   1.5423 B( 97-C ,102-H ) :   0.8861 
B( 98-C , 99-C ) :   1.5784 B( 98-C ,103-H ) :   0.8700 B( 99-C ,100-C ) :   1.3562 
B( 99-C ,104-H ) :   0.8411 B(100-C ,101-C ) :   1.3259 B(100-C ,106-C ) :   0.9123 
B(101-C ,105-H ) :   0.8831 B(106-C ,107-C ) :   1.4417 B(106-C ,111-C ) :   1.3847 
B(107-C ,108-C ) :   1.5143 B(107-C ,112-H ) :   0.8714 B(108-C ,109-C ) :   1.4494 
B(108-C ,113-H ) :   0.8655 B(109-C ,110-N ) :   1.3534 B(109-C ,114-H ) :   0.9237 
B(110-N ,111-C ) :   1.3769 B(111-C ,115-H ) :   0.9146 B(116-C ,117-C ) :   1.8707 
B(116-C ,118-C ) :  -0.2885 B(116-C ,134-C ) :   1.5105 B(117-C ,118-C ) :   1.4522 
B(117-C ,127-C ) :  -0.1959 B(117-C ,134-C ) :  -0.3891 B(118-C ,119-C ) :   1.5171 
B(118-C ,126-C ) :  -0.1262 B(118-C ,127-C ) :   1.0541 B(119-C ,120-C ) :   1.4101 
B(119-C ,128-H ) :   0.8582 B(120-C ,121-C ) :   1.6442 B(120-C ,129-H ) :   0.8707 
B(121-C ,122-C ) :   1.2917 B(121-C ,130-H ) :   0.8644 B(122-C ,123-C ) :   1.2522 
B(122-C ,127-C ) :   1.0769 B(123-C ,124-N ) :   1.4707 B(123-C ,127-C ) :  -0.1187 
B(123-C ,131-H ) :   0.9184 B(124-N ,125-C ) :   1.2832 B(125-C ,126-C ) :   1.4594 
B(125-C ,127-C ) :   0.1023 B(125-C ,132-H ) :   0.9334 B(126-C ,127-C ) :   1.4116 
B(126-C ,133-H ) :   0.8794 B(134-C ,135-C ) :   1.3515 B(134-C ,139-C ) :   1.3982 
B(135-C ,136-C ) :   1.5420 B(135-C ,140-H ) :   0.8862 B(136-C ,137-C ) :   1.5787 
B(136-C ,141-H ) :   0.8700 B(137-C ,138-C ) :   1.3557 B(137-C ,142-H ) :   0.8409 
B(138-C ,139-C ) :   1.3260 B(138-C ,144-C ) :   0.9126 B(139-C ,143-H ) :   0.8837 
B(144-C ,145-C ) :   1.4412 B(144-C ,149-C ) :   1.3837 B(145-C ,146-C ) :   1.5143 
B(145-C ,150-H ) :   0.8715 B(146-C ,147-C ) :   1.4501 B(146-C ,151-H ) :   0.8654 
B(147-C ,148-N ) :   1.3532 B(147-C ,152-H ) :   0.9236 B(148-N ,149-C ) :   1.3772 
B(149-C ,153-H ) :   0.9149 

-------
TIMINGS
-------

Total SCF time: 0 days 0 hours 8 min 24 sec 

Total time                  ....     504.588 sec
Sum of individual times     ....     494.008 sec  ( 97.9%)

Fock matrix formation       ....     180.473 sec  ( 35.8%)
  Split-RI-J                ....      80.152 sec  ( 44.4% of F)
  XC integration            ....      89.391 sec  ( 49.5% of F)
    Basis function eval.    ....      16.900 sec  ( 18.9% of XC)
    Density eval.           ....      38.350 sec  ( 42.9% of XC)
    XC-Functional eval.     ....       5.350 sec  (  6.0% of XC)
    XC-Potential eval.      ....      14.178 sec  ( 15.9% of XC)
Diagonalization             ....      42.232 sec  (  8.4%)
Density matrix formation    ....       1.972 sec  (  0.4%)
Population analysis         ....       9.649 sec  (  1.9%)
Initial guess               ....       9.326 sec  (  1.8%)
Orbital Transformation      ....       0.000 sec  (  0.0%)
Orbital Orthonormalization  ....       0.000 sec  (  0.0%)
DIIS solution               ....     219.821 sec  ( 43.6%)
Grid generation             ....      30.535 sec  (  6.1%)


-------------------------------------------------------------------------------
                          DFT DISPERSION CORRECTION                            
                                                                               
                              DFTD3 V3.1  Rev 1                                
                          USING Becke-Johnson damping                          
-------------------------------------------------------------------------------
The B97-3c composite method is recognized
Using three-body term ABC
Active option DFTDOPT                   ...         4   

molecular C6(AA) [au] = 365534.720584 


            DFT-D V3
 parameters
 s6 scaling factor         :     1.0000 
 a1 scaling factor         :     0.3700 
 s8 scaling factor         :     1.5000 
 a2 scaling factor         :     4.1000 
 Damping factor alpha9(ATM):    16.0000 
 ad hoc parameters k1-k3   :    16.0000     1.3333    -4.0000 

 Edisp/kcal,au: -368.111466258022  -0.586622899265 
 E6   /kcal   : -181.429929608 
 E8   /kcal   : -187.505459345 
 E6(ABC)      :   0.823922695 
 % E8         :  50.937141744 
 % E6(ABC)    :  -0.223824241 

-------------------------   ----------------
Dispersion correction           -0.586622899
-------------------------   ----------------

------------------   -----------------
SRB correction            -0.606289098
------------------   -----------------

-------------------------   --------------------
FINAL SINGLE POINT ENERGY     -4078.544829134221
-------------------------   --------------------


                            ***************************************
                            *     ORCA property calculations      *
                            ***************************************

                                    ---------------------
                                    Active property flags
                                    ---------------------
   (+) Dipole Moment


------------------------------------------------------------------------------
                       ORCA ELECTRIC PROPERTIES CALCULATION
------------------------------------------------------------------------------

Dipole Moment Calculation                       ... on
Quadrupole Moment Calculation                   ... off
Polarizability Calculation                      ... off
GBWName                                         ... _s_5d1_c_B97-3c.gbw
Electron density file                           ... _s_5d1_c_B97-3c.scfp
The origin for moment calculation is the CENTER OF MASS  = (-0.748574, -1.806563  0.445695)

-------------
DIPOLE MOMENT
-------------
                                X             Y             Z
Electronic contribution:      0.10052      -0.01906      -0.18388
Nuclear contribution   :     -0.09925       0.01924       0.18231
                        -----------------------------------------
Total Dipole Moment    :      0.00127       0.00018      -0.00157
                        -----------------------------------------
Magnitude (a.u.)       :      0.00203
Magnitude (Debye)      :      0.00515



--------------------
Rotational spectrum 
--------------------
 
Rotational constants in cm-1:     0.000552     0.000433     0.000394 
Rotational constants in MHz :    16.547852    12.969529    11.796969 

 Dipole components along the rotational axes: 
x,y,z [a.u.] :    -0.000200    -0.000287    -0.001997 
x,y,z [Debye]:    -0.000509    -0.000730    -0.005077 

 

Timings for individual modules:

Sum of individual times         ...      534.150 sec (=   8.902 min)
GTO integral calculation        ...       21.164 sec (=   0.353 min)   4.0 %
SCF iterations                  ...      512.986 sec (=   8.550 min)  96.0 %
                             ****ORCA TERMINATED NORMALLY****
TOTAL RUN TIME: 0 days 0 hours 8 minutes 59 seconds 494 msec
