Job execution start: Tue Jun 22 09:35:23 BST 2021
Shared library path: /work/e05/e05/atarzia/orca_4_2_1_linux_x86-64_openmpi314:/work/e05/e05/atarzia/openmpi-3.1.4/lib:/opt/cray/pe/papi/6.0.0.4/lib64:/opt/cray/libfabric/1.11.0.0.233/lib64
Slurm Job ID is: 344292
Slurm Job name is: s_5d3_b_PBE0
nid001347

                                 *****************
                                 * O   R   C   A *
                                 *****************

           --- An Ab Initio, DFT and Semiempirical electronic structure package ---

                  #######################################################
                  #                        -***-                        #
                  #          Department of theory and spectroscopy      #
                  #               Directorship: Frank Neese             #
                  #        Max Planck Institute fuer Kohlenforschung    #
                  #                Kaiser Wilhelm Platz 1               #
                  #                 D-45470 Muelheim/Ruhr               #
                  #                      Germany                        #
                  #                                                     #
                  #                  All rights reserved                #
                  #                        -***-                        #
                  #######################################################


                         Program Version 4.2.1 -  RELEASE  -


 With contributions from (in alphabetic order):
   Daniel Aravena         : Magnetic Suceptibility
   Michael Atanasov       : Ab Initio Ligand Field Theory (pilot matlab implementation)
   Alexander A. Auer      : GIAO ZORA, VPT2
   Ute Becker             : Parallelization
   Giovanni Bistoni       : ED, misc. LED, open-shell LED, HFLD
   Martin Brehm           : Molecular dynamics
   Dmytro Bykov           : SCF Hessian
   Vijay G. Chilkuri      : MRCI spin determinant printing, contributions to CSF-ICE
   Dipayan Datta          : RHF DLPNO-CCSD density
   Achintya Kumar Dutta   : EOM-CC, STEOM-CC
   Dmitry Ganyushin       : Spin-Orbit,Spin-Spin,Magnetic field MRCI
   Miquel Garcia          : C-PCM Hessian, Gaussian charge scheme
   Yang Guo               : DLPNO-NEVPT2, CIM, IAO-localization
   Andreas Hansen         : Spin unrestricted coupled pair/coupled cluster methods
   Benjamin Helmich-Paris : CASSCF linear response (MC-RPA)
   Lee Huntington         : MR-EOM, pCC
   Robert Izsak           : Overlap fitted RIJCOSX, COSX-SCS-MP3, EOM
   Christian Kollmar      : KDIIS, OOCD, Brueckner-CCSD(T), CCSD density
   Simone Kossmann        : Meta GGA functionals, TD-DFT gradient, OOMP2, MP2 Hessian
   Martin Krupicka        : AUTO-CI
   Lucas Lang             : DCDCAS
   Dagmar Lenk            : GEPOL surface, SMD
   Dimitrios Liakos       : Extrapolation schemes; Compound Job, initial MDCI parallelization
   Dimitrios Manganas     : Further ROCIS development; embedding schemes
   Dimitrios Pantazis     : SARC Basis sets
   Taras Petrenko         : DFT Hessian,TD-DFT gradient, ASA, ECA, R-Raman, ABS, FL, XAS/XES, NRVS
   Peter Pinski           : DLPNO-MP2, DLPNO-MP2 Gradient
   Christoph Reimann      : Effective Core Potentials
   Marius Retegan         : Local ZFS, SOC
   Christoph Riplinger    : Optimizer, TS searches, QM/MM, DLPNO-CCSD(T), (RO)-DLPNO pert. Triples
   Tobias Risthaus        : Range-separated hybrids, TD-DFT gradient, RPA, STAB
   Michael Roemelt        : Original ROCIS implementation
   Masaaki Saitow         : Open-shell DLPNO-CCSD energy and density
   Barbara Sandhoefer     : DKH picture change effects
   Avijit Sen             : IP-ROCIS
   Kantharuban Sivalingam : CASSCF convergence, NEVPT2, FIC-MRCI
   Bernardo de Souza      : ESD, SOC TD-DFT
   Georgi Stoychev        : AutoAux, RI-MP2 NMR
   Willem Van den Heuvel  : Paramagnetic NMR
   Boris Wezisla          : Elementary symmetry handling
   Frank Wennmohs         : Technical directorship


 We gratefully acknowledge several colleagues who have allowed us to
 interface, adapt or use parts of their codes:
   Stefan Grimme, W. Hujo, H. Kruse,             : VdW corrections, initial TS optimization,
                  C. Bannwarth                     DFT functionals, gCP, sTDA/sTD-DF
   Ed Valeev, F. Pavosevic, A. Kumar             : LibInt (2-el integral package), F12 methods
   Garnet Chan, S. Sharma, J. Yang, R. Olivares  : DMRG
   Ulf Ekstrom                                   : XCFun DFT Library
   Mihaly Kallay                                 : mrcc  (arbitrary order and MRCC methods)
   Andreas Klamt, Michael Diedenhofen            : otool_cosmo (COSMO solvation model)
   Jiri Pittner, Ondrej Demel                    : Mk-CCSD
   Frank Weinhold                                : gennbo (NPA and NBO analysis)
   Christopher J. Cramer and Donald G. Truhlar   : smd solvation model
   Lars Goerigk                                  : TD-DFT with DH, B97 family of functionals
   V. Asgeirsson, H. Jonsson                     : NEB implementation
   FAccTs GmbH                                   : IRC, NEB, NEB-TS, Multilevel, MM, QM/MM, CI optimization
   S Lehtola, MJT Oliveira, MAL Marques          : LibXC Library


 Your calculation uses the libint2 library for the computation of 2-el integrals
 For citations please refer to: http://libint.valeyev.net

 Your ORCA version has been built with support for libXC version: 4.2.3
 For citations please refer to: https://tddft.org/programs/libxc/

 This ORCA versions uses:
   CBLAS   interface :  Fast vector & matrix operations
   LAPACKE interface :  Fast linear algebra routines
   SCALAPACK package :  Parallel linear algebra routines




***************************************
The coordinates will be read from file: s_5d3_b.xyz
***************************************


Your calculation utilizes the atom-pairwise dispersion correction
with the Becke-Johnson damping scheme (D3BJ)
Cite in your paper:
S.Grimme, S.Ehrlich, L.Goerigk, J Comput Chem, (2011), 32, 1456–1465 
S.Grimme, J.Antony, S.Ehrlich and H.Krieg, J.Chem.Phys., 132, (2010), 154104 
   

----- Orbital basis set information -----
Your calculation utilizes the basis: def2-SVP
   F. Weigend and R. Ahlrichs, Phys. Chem. Chem. Phys. 7, 3297 (2005).

cite the ECPs for Pd [Def2-ECP] as follows:
Ce-Yb(ecp-28): M. Dolg, H. Stoll, H.Preuss, J. Chem. Phys., 1989, 90, 1730-1734.
Y-Cd(ecp-28), Hf-Hg(ecp-46): D. Andrae,U. Haeussermann, M. Dolg, H. Stoll, H. Preuss, Theor. Chim. Acta, 1990, 77, 123-141.
In-Sb(ecp-28), Tl-Bi(ecp-46): B. Metz, H. Stoll, M. Dolg, J. Chem. Phys., 2000, 113, 2563-2569.
Te-Xe(ecp-28), Po-Rn(ecp-46): K. A. Peterson, D. Figgen, E. Goll, H. Stoll, M. Dolg, J. Chem. Phys., 2003, 119, 11113-11123.
Rb(ecp-28), Cs(ecp-46): T. Leininger, A. Nicklass, W. Kuechle, H. Stoll, M. Dolg, A. Bergner, Chem. Phys. Lett., 1996, 255, 274-280.
Sr(ecp-28), Ba(ecp-46): M. Kaupp, P. V. Schleyer, H. Stoll and H. Preuss, J. Chem. Phys., 1991, 94, 1360-1366.
La(ecp-46): M. Dolg, H. Stoll, A. Savin, H. Preuss, Theor. Chim. Acta, 1989, 75, 173-194.
Lu(ecp-28): X. Cao, M. Dolg, J. Chem. Phys., 2001, 115, 7348-7355.

ECP parameters for Pd [Def2-ECP] have been obtained from:
TURBOMOLE (7.0.2)

================================================================================
                                        WARNINGS
                       Please study these warnings very carefully!
================================================================================


INFO   : the flag for use of LIBINT has been found!

================================================================================
                                       INPUT FILE
================================================================================
NAME = s_5d3_b_PBE0.in
|  1> ! DFT SP RKS PBE0 def2-SVP D3BJ Grid6 NOFINALGRID SlowConv TightSCF printbasis 
|  2> 
|  3> %base "_s_5d3_b_PBE0"
|  4> %maxcore 3000
|  5> %scf
|  6>    MaxIter 2000
|  7> end
|  8> %pal
|  9>    nprocs 32
| 10> end
| 11> 
| 12> * xyzfile 4 1 s_5d3_b.xyz
| 13> 
| 14>                          ****END OF INPUT****
================================================================================

                       ****************************
                       * Single Point Calculation *
                       ****************************

---------------------------------
CARTESIAN COORDINATES (ANGSTROEM)
---------------------------------
  Pd     0.577700    5.593400    0.083800
  Pd     0.348800   -5.239400   -0.160600
  C      7.283400   -1.481500   -0.094000
  C      6.857200   -2.612600   -0.122300
  C      6.396900   -3.943400   -0.155400
  C      7.301500   -4.990800   -0.188300
  C      6.868000   -6.321100   -0.221200
  C      5.531500   -6.625700   -0.221600
  C      4.577300   -5.586400   -0.188600
  C      3.192800   -5.837600   -0.187500
  N      2.296100   -4.875400   -0.157300
  C      2.689100   -3.577000   -0.125300
  C      4.009900   -3.225900   -0.123200
  C      5.002300   -4.227300   -0.155100
  H      8.359200   -4.775100   -0.188500
  H      7.604100   -7.109800   -0.246300
  H      5.201000   -7.651900   -0.247000
  H      2.828300   -6.861700   -0.212600
  H      1.886500   -2.840700   -0.101400
  H      4.312600   -2.191400   -0.097600
  C      7.780900   -0.161500   -0.060500
  C      9.161700    0.064400   -0.058600
  C      9.650600    1.358300   -0.025400
  C      8.785000    2.437500    0.006200
  C      7.403800    2.219700    0.004300
  C      6.902500    0.919300   -0.029000
  H      9.841100   -0.774300   -0.083200
  H     10.717300    1.527000   -0.024000
  H      9.170600    3.445400    0.032100
  H      5.837000    0.752900   -0.030400
  C      6.508800    3.309000    0.035400
  C      5.721300    4.225300    0.061100
  C      4.793900    5.284000    0.089200
  C      5.201700    6.624200    0.125100
  C      4.239100    7.618200    0.150000
  C      2.898300    7.265200    0.138500
  N      2.514400    5.985600    0.104500
  C      3.422200    5.014400    0.080600
  H      6.252700    6.867600    0.132800
  H      4.524400    8.657400    0.177600
  H      2.107700    8.013600    0.156600
  H      3.055700    3.990800    0.053600
  C     -0.049900    2.163300    6.953200
  C     -0.060500    3.322300    6.609300
  C     -0.093400    4.648800    6.136700
  C     -0.373100    5.710900    6.977500
  C     -0.436700    7.020300    6.485900
  C     -0.235100    7.287700    5.156100
  C      0.057900    6.232300    4.266300
  C      0.256700    6.436000    2.886500
  N      0.537400    5.453600    2.058900
  C      0.663100    4.184000    2.524500
  C      0.472500    3.877600    3.840600
  C      0.146300    4.898900    4.756000
  H     -0.549100    5.525800    8.026400
  H     -0.656000    7.824200    7.171900
  H     -0.297300    8.297600    4.782800
  H      0.177900    7.434100    2.465100
  H      0.928600    3.426100    1.786500
  H      0.567600    2.865300    4.198900
  C     -0.038000    0.806000    7.339000
  C     -0.097900    0.452400    8.690600
  C     -0.084300   -0.882300    9.055900
  C     -0.010900   -1.874200    8.094300
  C      0.047100   -1.528500    6.739600
  C      0.032300   -0.187400    6.363200
  H     -0.152900    1.224000    9.443600
  H     -0.130400   -1.151100   10.100800
  H      0.000400   -2.913600    8.384900
  H      0.073900    0.079800    5.319000
  C      0.129400   -2.545500    5.765500
  C      0.207300   -3.416700    4.930900
  C      0.323100   -4.503900    4.043400
  C      0.519800   -5.798300    4.545400
  C      0.646200   -6.852900    3.659700
  C      0.574200   -6.601500    2.299500
  N      0.379400   -5.366700    1.822600
  C      0.255600   -4.337200    2.656500
  H      0.573400   -5.958100    5.610900
  H      0.800400   -7.857800    4.018200
  H      0.675000   -7.404000    1.568900
  H      0.098000   -3.359200    2.211100
  C     -6.429800    2.098100   -0.055700
  C     -6.023600    3.236400   -0.028100
  C     -5.519700    4.551100    0.004200
  C     -6.370100    5.642300    0.017400
  C     -5.866900    6.948500    0.049400
  C     -4.516700    7.185000    0.068700
  C     -3.615200    6.098800    0.056000
  C     -2.219000    6.274100    0.074100
  N     -1.376300    5.262100    0.062200
  C     -1.840200    3.989300    0.031800
  C     -3.177000    3.710700    0.012100
  C     -4.112300    4.764700    0.023600
  H     -7.437700    5.482500    0.002700
  H     -6.561400    7.774500    0.058900
  H     -4.135500    8.193400    0.093300
  H     -1.792400    7.275500    0.098800
  H     -1.085400    3.207600    0.024200
  H     -3.534900    2.694200   -0.012200
  C     -6.891400    0.765100   -0.087700
  C     -8.263100    0.492900   -0.109400
  C     -8.706700   -0.817500   -0.140500
  C     -7.804100   -1.866100   -0.150400
  C     -6.430500   -1.601800   -0.129000
  C     -5.975300   -0.285300   -0.097700
  H     -8.970700    1.308300   -0.101700
  H     -9.766900   -1.022900   -0.157200
  H     -8.155100   -2.886500   -0.174700
  H     -4.916200   -0.081800   -0.081000
  C     -5.509500   -2.669700   -0.139200
  C     -4.711200   -3.577400   -0.147600
  C     -3.835600   -4.679900   -0.159400
  C     -4.338100   -5.989100   -0.179300
  C     -3.451600   -7.050100   -0.191200
  C     -2.089800   -6.791900   -0.183500
  N     -1.613300   -5.544600   -0.164600
  C     -2.448500   -4.506800   -0.152400
  H     -5.404100   -6.154900   -0.185200
  H     -3.809300   -8.066800   -0.206500
  H     -1.361000   -7.598300   -0.192500
  H     -2.002000   -3.513900   -0.136800
  C      0.041300    2.472900   -6.940000
  C      0.031200    3.615700   -6.545400
  C     -0.002600    4.920100   -6.015100
  C     -0.263200    6.019900   -6.812600
  C     -0.328300    7.306700   -6.264500
  C     -0.147400    7.513900   -4.921100
  C      0.125600    6.418600   -4.074200
  C      0.302900    6.560000   -2.683700
  N      0.565300    5.540400   -1.896100
  C      0.692300    4.292000   -2.415300
  C      0.521600    4.045000   -3.746600
  C      0.215500    5.107600   -4.621000
  H     -0.422800    5.882300   -7.871300
  H     -0.532200    8.141300   -6.917700
  H     -0.210700    8.506600   -4.504500
  H      0.222200    7.538900   -2.219800
  H      0.941700    3.500700   -1.707400
  H      0.617500    3.049000   -4.147700
  C      0.051400    1.134100   -7.385900
  C      0.008600    0.841700   -8.752700
  C      0.019500   -0.475300   -9.177300
  C      0.073400   -1.509700   -8.260300
  C      0.114400   -1.225500   -6.890700
  C      0.102400    0.097600   -6.454700
  H     -0.031500    1.646700   -9.471100
  H     -0.013500   -0.696700  -10.233800
  H      0.082500   -2.535200   -8.597000
  H      0.130800    0.317500   -5.399200
  C      0.176900   -2.285700   -5.962400
  C      0.237900   -3.194300   -5.167300
  C      0.335100   -4.321300   -4.328500
  C      0.515500   -5.595000   -4.886500
  C      0.625100   -6.689100   -4.047900
  C      0.553000   -6.496800   -2.678000
  N      0.373300   -5.281800   -2.147700
  C      0.265500   -4.215000   -2.935700
  H      0.570100   -5.708500   -5.957900
  H      0.766700   -7.679300   -4.449900
  H      0.641200   -7.332000   -1.983300
  H      0.119600   -3.255500   -2.448100

----------------------------
CARTESIAN COORDINATES (A.U.)
----------------------------
  NO LB      ZA    FRAG     MASS         X           Y           Z
   0 Pd   18.0000*   0   106.400    1.091695   10.569994    0.158359
   1 Pd   18.0000*   0   106.400    0.659136   -9.901031   -0.303490
   2 C     6.0000    0    12.011   13.763631   -2.799629   -0.177634
   3 C     6.0000    0    12.011   12.958230   -4.937098   -0.231114
   4 C     6.0000    0    12.011   12.088389   -7.451946   -0.293663
   5 C     6.0000    0    12.011   13.797835   -9.431245   -0.355835
   6 C     6.0000    0    12.011   12.978639  -11.945148   -0.418007
   7 C     6.0000    0    12.011   10.453020  -12.520758   -0.418763
   8 C     6.0000    0    12.011    8.649843  -10.556766   -0.356402
   9 C     6.0000    0    12.011    6.033518  -11.031465   -0.354324
  10 N     7.0000    0    14.007    4.339000   -9.213171   -0.297254
  11 C     6.0000    0    12.011    5.081663   -6.759550   -0.236783
  12 C     6.0000    0    12.011    7.577613   -6.096068   -0.232814
  13 C     6.0000    0    12.011    9.452977   -7.988439   -0.293097
  14 H     1.0000    0     1.008   15.796599   -9.023631   -0.356213
  15 H     1.0000    0     1.008   14.369666  -13.435575   -0.465440
  16 H     1.0000    0     1.008    9.828466  -14.459995   -0.466762
  17 H     1.0000    0     1.008    5.344712  -12.966734   -0.401756
  18 H     1.0000    0     1.008    3.564968   -5.368145   -0.191618
  19 H     1.0000    0     1.008    8.149633   -4.141146   -0.184437
  20 C     6.0000    0    12.011   14.703770   -0.305191   -0.114328
  21 C     6.0000    0    12.011   17.313104    0.121698   -0.110738
  22 C     6.0000    0    12.011   18.236991    2.566815   -0.047999
  23 C     6.0000    0    12.011   16.601244    4.606207    0.011716
  24 C     6.0000    0    12.011   13.991154    4.194625    0.008126
  25 C     6.0000    0    12.011   13.043835    1.737225   -0.054802
  26 H     1.0000    0     1.008   18.596984   -1.463215   -0.157225
  27 H     1.0000    0     1.008   20.252762    2.885612   -0.045353
  28 H     1.0000    0     1.008   17.329922    6.510862    0.060660
  29 H     1.0000    0     1.008   11.030331    1.422775   -0.057448
  30 C     6.0000    0    12.011   12.299849    6.253104    0.066896
  31 C     6.0000    0    12.011   10.811690    7.984660    0.115462
  32 C     6.0000    0    12.011    9.059158    9.985313    0.168564
  33 C     6.0000    0    12.011    9.829788   12.517924    0.236405
  34 C     6.0000    0    12.011    8.010738   14.396312    0.283459
  35 C     6.0000    0    12.011    5.476993   13.729238    0.261727
  36 N     7.0000    0    14.007    4.751527   11.311145    0.197476
  37 C     6.0000    0    12.011    6.467021    9.475843    0.152312
  38 H     1.0000    0     1.008   11.815891   12.977883    0.250956
  39 H     1.0000    0     1.008    8.549877   16.360115    0.335615
  40 H     1.0000    0     1.008    3.982976   15.143509    0.295931
  41 H     1.0000    0     1.008    5.774436    7.541519    0.101289
  42 C     6.0000    0    12.011   -0.094297    4.088045   13.139644
  43 C     6.0000    0    12.011   -0.114328    6.278237   12.489767
  44 C     6.0000    0    12.011   -0.176500    8.784959   11.596682
  45 C     6.0000    0    12.011   -0.705057   10.792037   13.185564
  46 C     6.0000    0    12.011   -0.825243   13.266444   12.256575
  47 C     6.0000    0    12.011   -0.444275   13.771757    9.743617
  48 C     6.0000    0    12.011    0.109415   11.777340    8.062139
  49 C     6.0000    0    12.011    0.485093   12.162277    5.454694
  50 N     7.0000    0    14.007    1.015539   10.305810    3.890757
  51 C     6.0000    0    12.011    1.253077    7.906614    4.770614
  52 C     6.0000    0    12.011    0.892896    7.327602    7.257682
  53 C     6.0000    0    12.011    0.276467    9.257579    8.987537
  54 H     1.0000    0     1.008   -1.037649   10.442249   15.167698
  55 H     1.0000    0     1.008   -1.239660   14.785595   13.552927
  56 H     1.0000    0     1.008   -0.561816   15.680192    9.038182
  57 H     1.0000    0     1.008    0.336182   14.048413    4.658364
  58 H     1.0000    0     1.008    1.754800    6.474391    3.375996
  59 H     1.0000    0     1.008    1.072609    5.414632    7.934771
  60 C     6.0000    0    12.011   -0.071810    1.523119   13.868700
  61 C     6.0000    0    12.011   -0.185004    0.854912   16.422854
  62 C     6.0000    0    12.011   -0.159304   -1.667305   17.113171
  63 C     6.0000    0    12.011   -0.020598   -3.541725   15.296010
  64 C     6.0000    0    12.011    0.089006   -2.888446   12.735998
  65 C     6.0000    0    12.011    0.061038   -0.354135   12.024705
  66 H     1.0000    0     1.008   -0.288939    2.313025   17.845818
  67 H     1.0000    0     1.008   -0.246420   -2.175264   19.087746
  68 H     1.0000    0     1.008    0.000756   -5.505906   15.845165
  69 H     1.0000    0     1.008    0.139651    0.150800   10.051453
  70 C     6.0000    0    12.011    0.244531   -4.810298   10.895216
  71 C     6.0000    0    12.011    0.391740   -6.456627    9.318051
  72 C     6.0000    0    12.011    0.610571   -8.511138    7.640919
  73 C     6.0000    0    12.011    0.982280  -10.957199    8.589561
  74 C     6.0000    0    12.011    1.221141  -12.950104    6.915831
  75 C     6.0000    0    12.011    1.085081  -12.475027    4.345425
  76 N     7.0000    0    14.007    0.716962  -10.141593    3.444215
  77 C     6.0000    0    12.011    0.483014   -8.196120    5.020057
  78 H     1.0000    0     1.008    1.083569  -11.259177   10.603064
  79 H     1.0000    0     1.008    1.512537  -14.849090    7.593298
  80 H     1.0000    0     1.008    1.275565  -13.991532    2.964791
  81 H     1.0000    0     1.008    0.185193   -6.347968    4.178373
  82 C     6.0000    0    12.011  -12.150561    3.964834   -0.105258
  83 C     6.0000    0    12.011  -11.382954    6.115910   -0.053101
  84 C     6.0000    0    12.011  -10.430721    8.600333    0.007937
  85 C     6.0000    0    12.011  -12.037744   10.662402    0.032881
  86 C     6.0000    0    12.011  -11.086834   13.130762    0.093352
  87 C     6.0000    0    12.011   -8.535326   13.577682    0.129824
  88 C     6.0000    0    12.011   -6.831738   11.525062    0.105825
  89 C     6.0000    0    12.011   -4.193302   11.856331    0.140029
  90 N     7.0000    0    14.007   -2.600830    9.943928    0.117541
  91 C     6.0000    0    12.011   -3.477474    7.538684    0.060093
  92 C     6.0000    0    12.011   -6.003660    7.012207    0.022866
  93 C     6.0000    0    12.011   -7.771121    9.003978    0.044598
  94 H     1.0000    0     1.008  -14.055216   10.360424    0.005102
  95 H     1.0000    0     1.008  -12.399249   14.691676    0.111305
  96 H     1.0000    0     1.008   -7.814962   15.483282    0.176311
  97 H     1.0000    0     1.008   -3.387145   13.748702    0.186705
  98 H     1.0000    0     1.008   -2.051109    6.061486    0.045731
  99 H     1.0000    0     1.008   -6.679993    5.091300   -0.023055
 100 C     6.0000    0    12.011  -13.022859    1.445829   -0.165729
 101 C     6.0000    0    12.011  -15.614996    0.931446   -0.206736
 102 C     6.0000    0    12.011  -16.453279   -1.544851   -0.265507
 103 C     6.0000    0    12.011  -14.747612   -3.526418   -0.284215
 104 C     6.0000    0    12.011  -12.151884   -3.026963   -0.243775
 105 C     6.0000    0    12.011  -11.291681   -0.539139   -0.184626
 106 H     1.0000    0     1.008  -16.952166    2.472329   -0.192185
 107 H     1.0000    0     1.008  -18.456766   -1.933001   -0.297065
 108 H     1.0000    0     1.008  -15.410906   -5.454694   -0.330135
 109 H     1.0000    0     1.008   -9.290272   -0.154580   -0.153068
 110 C     6.0000    0    12.011  -10.411446   -5.045002   -0.263050
 111 C     6.0000    0    12.011   -8.902878   -6.760306   -0.278924
 112 C     6.0000    0    12.011   -7.248234   -8.843729   -0.301222
 113 C     6.0000    0    12.011   -8.197821  -11.317759   -0.338828
 114 C     6.0000    0    12.011   -6.522579  -13.322758   -0.361316
 115 C     6.0000    0    12.011   -3.949150  -12.834831   -0.346765
 116 N     7.0000    0    14.007   -3.048695  -10.477776   -0.311049
 117 C     6.0000    0    12.011   -4.626994   -8.516618   -0.287994
 118 H     1.0000    0     1.008  -10.212269  -11.631075   -0.349977
 119 H     1.0000    0     1.008   -7.198534  -15.244043   -0.390228
 120 H     1.0000    0     1.008   -2.571917  -14.358706   -0.363772
 121 H     1.0000    0     1.008   -3.783232   -6.640309   -0.258515
 122 C     6.0000    0    12.011    0.078046    4.673104  -13.114699
 123 C     6.0000    0    12.011    0.058959    6.832683  -12.369013
 124 C     6.0000    0    12.011   -0.004913    9.297642  -11.366892
 125 C     6.0000    0    12.011   -0.497376   11.375962  -12.873948
 126 C     6.0000    0    12.011   -0.620397   13.807662  -11.838189
 127 C     6.0000    0    12.011   -0.278546   14.199213   -9.299531
 128 C     6.0000    0    12.011    0.237350   12.129396   -7.699122
 129 C     6.0000    0    12.011    0.572398   12.396603   -5.071458
 130 N     7.0000    0    14.007    1.068262   10.469839   -3.583110
 131 C     6.0000    0    12.011    1.308257    8.110705   -4.564256
 132 C     6.0000    0    12.011    0.985681    7.643942   -7.080048
 133 C     6.0000    0    12.011    0.407236    9.651965   -8.732424
 134 H     1.0000    0     1.008   -0.798976   11.115936  -14.874601
 135 H     1.0000    0     1.008   -1.005712   15.384827  -13.072558
 136 H     1.0000    0     1.008   -0.398165   16.075144   -8.512271
 137 H     1.0000    0     1.008    0.419897   14.246456   -4.194814
 138 H     1.0000    0     1.008    1.779555    6.615364   -3.226518
 139 H     1.0000    0     1.008    1.166906    5.761775   -7.838017
 140 C     6.0000    0    12.011    0.097132    2.143138  -13.957328
 141 C     6.0000    0    12.011    0.016252    1.590582  -16.540206
 142 C     6.0000    0    12.011    0.036850   -0.898187  -17.342584
 143 C     6.0000    0    12.011    0.138706   -2.852920  -15.609705
 144 C     6.0000    0    12.011    0.216185   -2.315859  -13.021536
 145 C     6.0000    0    12.011    0.193508    0.184437  -12.197615
 146 H     1.0000    0     1.008   -0.059526    3.111812  -17.897785
 147 H     1.0000    0     1.008   -0.025511   -1.316572  -19.339079
 148 H     1.0000    0     1.008    0.155902   -4.790834  -16.245976
 149 H     1.0000    0     1.008    0.247176    0.599988  -10.203009
 150 C     6.0000    0    12.011    0.334293   -4.319347  -11.267303
 151 C     6.0000    0    12.011    0.449566   -6.036352   -9.764782
 152 C     6.0000    0    12.011    0.633247   -8.166074   -8.179680
 153 C     6.0000    0    12.011    0.974154  -10.573018   -9.234147
 154 C     6.0000    0    12.011    1.181268  -12.640567   -7.649422
 155 C     6.0000    0    12.011    1.045019  -12.277173   -5.060687
 156 N     7.0000    0    14.007    0.705435   -9.981155   -4.058565
 157 C     6.0000    0    12.011    0.501722   -7.965196   -5.547669
 158 H     1.0000    0     1.008    1.077333  -10.787502  -11.258799
 159 H     1.0000    0     1.008    1.448853  -14.511774   -8.409092
 160 H     1.0000    0     1.008    1.211692  -13.855472   -3.747894
 161 H     1.0000    0     1.008    0.226011   -6.152003   -4.626239
* core charge reduced due to ECP

--------------------------------
INTERNAL COORDINATES (ANGSTROEM)
--------------------------------
 Pd     0   0   0     0.000000000000     0.00000000     0.00000000
 Pd     1   0   0    10.837974091591     0.00000000     0.00000000
 C      2   1   0     7.887643826264    60.33289019     0.00000000
 C      3   2   1     1.209063497092    40.90318619   180.27843217
 C      4   3   2     1.408545469625   178.43353625   180.59638598
 C      5   4   3     1.384351953081   120.12290677   359.38298994
 C      6   5   4     1.399536619742   121.15307671   179.98414711
 C      7   6   5     1.370771158874   120.87894240     0.00000000
 C      8   7   6     1.411287047344   119.70729582     0.00000000
 C      9   8   7     1.407104438199   122.26321215   179.99087007
 N     10   9   8     1.315603196256   122.68976320   180.02206598
 C     11  10   9     1.356950831828   120.19584539     0.00000000
 C     12  11  10     1.366670501621   121.71889218     0.00000000
 C     13  12  11     1.410204712090   119.84430116     0.00000000
 H      6   5   4     1.079470157068   119.28070172     0.00000000
 H      7   6   5     1.079129700268   118.94514587   179.99893277
 H      8   7   6     1.078407089183   120.68170969   180.00010690
 H     10   9   8     1.087322891325   119.86552695     0.00000000
 H     12  11  10     1.089438231383   115.71163863   180.00901798
 H     13  12  11     1.078180365245   121.18868646   180.00296628
 C      3   2   1     1.411038093036   139.10118280     0.30783988
 C     21   3   2     1.399157982502   119.93524596   179.86196688
 C     22  21   3     1.383583268184   119.98299631   180.01749417
 C     23  22  21     1.383811605675   120.58658105     0.00000000
 C     24  23  22     1.398268175280   119.76050167     0.00000000
 C     21   3   2     1.393092764320   120.26468697   359.87467003
 H     22  21   3     1.079632905204   119.70777209     0.00000000
 H     23  22  21     1.079958582539   119.67865595   179.99463032
 H     24  23  22     1.079453834122   120.35000033   179.99673747
 H     26  21   3     1.078416046802   120.21510216     0.00000000
 C     25  24  23     1.410165486743   120.43616564   180.04037233
 C     31  25  24     1.208479387495   178.73009092   178.80948174
 C     32  31  25     1.407730819440   179.45416160   354.18040667
 C     33  32  31     1.401329971848   121.87389855   186.86415781
 C     34  33  32     1.383927299391   119.00994242   179.93073461
 C     35  34  33     1.386537374181   119.31458466     0.00000000
 N     36  35  34     1.336379949715   121.45156308     0.03102487
 C     37  36  35     1.329624567312   120.24656500     0.00000000
 H     34  33  32     1.078843756065   119.96372236   359.94011773
 H     35  34  33     1.078004865481   120.58185837   180.01202948
 H     36  35  34     1.088796826777   121.80537517   180.03365250
 H     38  37  36     1.087569864423   117.24750174   179.98268658
 C      1   2   3     7.703773369590    64.74489109   265.25194254
 C     43   1   2     1.208991550839    47.17449282   184.16744782
 C     44  43   1     1.408557922132   176.80605107    22.04168530
 C     45  44  43     1.383196710522   121.59403776   151.96334973
 C     46  45  44     1.400087097291   120.92219073   181.68955842
 C     47  46  45     1.371318110432   121.07615329     0.55554677
 C     48  47  46     1.411191765849   119.74441637   359.20965566
 C     49  48  47     1.408851720374   122.59476514   179.06498937
 N     50  49  48     1.314847523479   122.58451458   179.59180041
 C     51  50  49     1.358111928377   120.16142294   359.17816928
 C     52  51  50     1.364671583202   121.84277000     1.69243596
 C     53  52  51     1.409757883468   119.72791078   359.46960978
 H     46  45  44     1.079550471261   119.46674940     1.40648424
 H     47  46  45     1.079325576460   118.85775894   180.09071774
 H     48  47  46     1.078480291892   120.64864868   179.26698834
 H     50  49  48     1.086273911129   120.16856034   359.43020885
 H     52  51  50     1.090663403622   116.11436939   181.91922784
 H     53  52  51     1.078041831285   121.26804394   179.54729772
 C     43   1   2     1.411115353187   132.17300431     4.03574655
 C     61  43   1     1.398371742420   120.47198848   176.38187666
 C     62  61  43     1.383854450439   119.90784618   180.05671965
 C     63  62  61     1.383447769162   120.56731575     0.04275886
 C     64  63  62     1.399315754217   119.86669468   359.85119255
 C     65  64  63     1.392998639626   119.93371752     0.07189684
 H     62  61  43     1.079537197136   119.71179614   359.95563027
 H     63  62  61     1.079904931001   119.67411452   179.98064848
 H     64  63  62     1.079318493310   120.25638378   179.93721766
 H     66  65  64     1.078647319563   119.97737028   180.18907673
 C     65  64  63     1.410649885691   119.52644765   179.64449106
 C     71  65  64     1.208972708542   179.65020095   268.32306783
 C     72  71  65     1.408215086555   175.35294404    77.96948160
 C     73  72  71     1.402200502781   119.90705263     5.93774065
 C     74  73  72     1.382975997623   119.17473845   180.70505469
 C     75  74  73     1.385110103927   119.06202639   359.96374262
 N     76  75  74     1.337950555888   121.67547466   359.67813323
 C     77  76  75     1.330633646050   120.27891553     0.34918789
 H     74  73  72     1.078748928157   119.82337102     0.51891658
 H     75  74  73     1.078018506335   120.72592434   179.85865729
 H     76  75  74     1.089928093958   121.32014023   179.62701176
 H     78  77  76     1.086141298359   116.94707651   180.06967043
 C     59  52  51     7.700865886379    92.81425954   271.97145628
 C     83  59  52     1.208919802965    60.73195676    49.66421065
 C     84  83  59     1.408330426427   178.66827459    14.88580675
 C     85  84  83     1.383499851825   121.10288554   180.08842008
 C     86  85  84     1.400140235834   121.00515871   180.00566119
 C     87  86  85     1.370891965109   121.01286297     0.00000000
 C     88  87  86     1.411628130918   119.74320854     0.00000000
 C     89  88  87     1.407278273832   122.52254230   179.97908852
 N     90  89  88     1.316977182794   122.61563741   180.00498445
 C     91  90  89     1.355045095191   120.19390072     0.00000000
 C     92  91  90     1.365664779512   121.80696180     0.02638999
 C     93  92  91     1.409196345439   119.80057512     0.00000000
 H     86  85  84     1.079593391051   119.40426681     0.00000000
 H     87  86  85     1.079211054428   118.87793462   180.00295819
 H     88  87  86     1.078327019044   120.65211502   179.99837676
 H     90  89  88     1.088760584334   120.23850331     0.00000000
 H     92  91  90     1.086662638541   115.97990104   180.03165711
 H     93  92  91     1.077940234892   121.17844225   179.99040512
 C     83  59  52     1.411023585912   118.74601948   229.51313566
 C    101  83  59     1.398615250882   120.33494391   165.17159282
 C    102 101  83     1.383797792309   119.93683197   180.01130552
 C    103 102 101     1.383599194131   120.57838869     0.00000000
 C    104 103 102     1.398960117373   119.81745571     0.00000000
 C    105 104 103     1.393326587703   119.97554213     0.00000000
 H    102 101  83     1.079645409382   119.71525212     0.00000000
 H    103 102 101     1.080042633418   119.67737236   180.00159282
 H    104 103 102     1.079355201034   120.29823972   180.00099785
 H    106 105 104     1.078602776744   119.96081939   179.98741055
 C    105 104 103     1.410232409924   119.87237805   180.00650570
 C    111 105 104     1.208831146190   179.44474415   180.42840101
 C    112 111 105     1.407949164565   177.12450139   179.96467653
 C    113 112 111     1.402464580658   120.54898295   359.03676188
 C    114 113 112     1.382658620195   119.12585054   179.96624678
 C    115 114 113     1.386082887132   119.13908493     0.00000000
 N    116 115 114     1.335352668773   121.64528184     0.00000000
 C    117 116 115     1.332192448560   120.26933934     0.00000000
 H    114 113 112     1.078832911066   119.83988388   359.97264813
 H    115 114 113     1.077897151866   120.74047311   179.99705249
 H    116 115 114     1.086973504737   121.36554476   180.00760002
 H    118 117 116     1.088786489630   116.96472114   179.97859710
 C     99  92  91     7.092906218187   101.05299464   271.23668280
 C    123  99  92     1.209050458004    65.18542144    46.99836445
 C    124 123  99     1.408481412728   176.79773733   353.57705762
 C    125 124 123     1.383285454995   121.58531748   208.14278259
 C    126 125 124     1.400180652630   120.91468124   178.30104060
 C    127 126 125     1.371269561392   121.07940392   359.43424966
 C    128 127 126     1.411187691273   119.74751566     0.79546113
 C    129 128 127     1.408871711690   122.59888238   180.91878667
 N    130 129 128     1.314820018101   122.58105796   180.42488298
 C    131 130 129     1.358013328359   120.16687711     0.81755224
 C    132 131 130     1.364737036942   121.84596436   358.30799805
 C    133 132 131     1.409748676183   119.72218125     0.53860067
 H    126 125 124     1.079468207035   119.46823772   358.57859792
 H    127 126 125     1.079260214221   118.85244058   179.90300108
 H    128 127 126     1.078432074820   120.65023514   180.73569884
 H    130 129 128     1.086260056340   120.17137280     0.58124692
 H    132 131 130     1.090632137799   116.11724193   178.10222561
 H    133 132 131     1.078004647485   121.26871485   180.45531199
 C    123  99  92     1.411139348186   114.18356293   226.95444062
 C    141 123  99     1.398381864871   120.46487880   167.88221139
 C    142 141 123     1.383796578259   119.91215586   179.97772441
 C    143 142 141     1.383393497888   120.56725764   359.95664303
 C    144 143 142     1.399376575479   119.87064176     0.14073787
 C    145 144 143     1.393138044129   119.92931050   359.92562655
 H    142 141 123     1.079690497319   119.70830918     0.05792716
 H    143 142 141     1.079953336955   119.67276463   180.01063878
 H    144 143 142     1.079397957197   120.26165205   180.05114797
 H    146 145 144     1.078537352158   119.97935940   179.80516706
 C    145 144 143     1.410557045993   119.52195473   180.35699038
 C    151 145 144     1.208908172691   179.64685085    87.82622884
 C    152 151 145     1.408247946918   175.35514912   286.05643271
 C    153 152 151     1.402219615467   119.91988845   353.13711719
 C    154 153 152     1.382865477912   119.17931218   179.22936493
 C    155 154 153     1.385208904823   119.06225369     0.02870266
 N    156 155 154     1.337809844485   121.67395160     0.35389707
 C    157 156 155     1.330649119791   120.28209467   359.63342284
 H    154 153 152     1.078777720385   119.82146828   359.43322889
 H    155 154 153     1.078030890095   120.73026729   180.15007481
 H    156 155 154     1.089929525245   121.31517926   180.39253274
 H    158 157 156     1.086131124681   116.95372617   179.92698953

---------------------------
INTERNAL COORDINATES (A.U.)
---------------------------
 Pd     0   0   0     0.000000000000     0.00000000     0.00000000
 Pd     1   0   0    20.480802879641     0.00000000     0.00000000
 C      2   1   0    14.905486673554    60.33289019     0.00000000
 C      3   2   1     2.284798888025    40.90318619   180.27843217
 C      4   3   2     2.661765184766   178.43353625   180.59638598
 C      5   4   3     2.616046064283   120.12290677   359.38298994
 C      6   5   4     2.644740925707   121.15307671   179.98414711
 C      7   6   5     2.590382082549   120.87894240     0.00000000
 C      8   7   6     2.666946015830   119.70729582     0.00000000
 C      9   8   7     2.659042030022   122.26321215   179.99087007
 N     10   9   8     2.486129741836   122.68976320   180.02206598
 C     11  10   9     2.564265449352   120.19584539     0.00000000
 C     12  11  10     2.582632963372   121.71889218     0.00000000
 C     13  12  11     2.664900698615   119.84430116     0.00000000
 H      6   5   4     2.039902966599   119.28070172     0.00000000
 H      7   6   5     2.039259596487   118.94514587   179.99893277
 H      8   7   6     2.037894059435   120.68170969   180.00010690
 H     10   9   8     2.054742483748   119.86552695     0.00000000
 H     12  11  10     2.058739897138   115.71163863   180.00901798
 H     13  12  11     2.037465613284   121.18868646   180.00296628
 C      3   2   1     2.666475560369   139.10118280     0.30783988
 C     21   3   2     2.644025405019   119.93524596   179.86196688
 C     22  21   3     2.614593460344   119.98299631   180.01749417
 C     23  22  21     2.615024955667   120.58658105     0.00000000
 C     24  23  22     2.642343913056   119.76050167     0.00000000
 C     21   3   2     2.632563803712   120.26468697   359.87467003
 H     22  21   3     2.040210516006   119.70777209     0.00000000
 H     23  22  21     2.040825956977   119.67865595   179.99463032
 H     24  23  22     2.039872120701   120.35000033   179.99673747
 H     26  21   3     2.037910986882   120.21510216     0.00000000
 C     25  24  23     2.664826573451   120.43616564   180.04037233
 C     31  25  24     2.283695080854   178.73009092   178.80948174
 C     32  31  25     2.660225719021   179.45416160   354.18040667
 C     33  32  31     2.648129870049   121.87389855   186.86415781
 C     34  33  32     2.615243585106   119.00994242   179.93073461
 C     35  34  33     2.620175911648   119.31458466     0.00000000
 N     36  35  34     2.525392115825   121.45156308     0.03102487
 C     37  36  35     2.512626293153   120.24656500     0.00000000
 H     34  33  32     2.038719240253   119.96372236   359.94011773
 H     35  34  33     2.037133966793   120.58185837   180.01202948
 H     36  35  34     2.057527818091   121.80537517   180.03365250
 H     38  37  36     2.055209195264   117.24750174   179.98268658
 C      1   2   3    14.558021866320    64.74489109   265.25194254
 C     43   1   2     2.284662929310    47.17449282   184.16744782
 C     44  43   1     2.661788716594   176.80605107    22.04168530
 C     45  44  43     2.613862972228   121.59403776   151.96334973
 C     46  45  44     2.645781177516   120.92219073   181.68955842
 C     47  46  45     2.591415671204   121.07615329     0.55554677
 C     48  47  46     2.666765959899   119.74441637   359.20965566
 C     49  48  47     2.662343914810   122.59476514   179.06498937
 N     50  49  48     2.484701727241   122.58451458   179.59180041
 C     51  50  49     2.566459603844   120.16142294   359.17816928
 C     52  51  50     2.578855554997   121.84277000     1.69243596
 C     53  52  51     2.664056314891   119.72791078   359.46960978
 H     46  45  44     2.040054738429   119.46674940     1.40648424
 H     47  46  45     2.039629748845   118.85775894   180.09071774
 H     48  47  46     2.038032392508   120.64864868   179.26698834
 H     50  49  48     2.052760198458   120.16856034   359.43020885
 H     52  51  50     2.061055137136   116.11436939   181.91922784
 H     53  52  51     2.037203822039   121.26804394   179.54729772
 C     43   1   2     2.666621560895   132.17300431     4.03574655
 C     61  43   1     2.642539626589   120.47198848   176.38187666
 C     62  61  43     2.615105920538   119.90784618   180.05671965
 C     63  62  61     2.614337404301   120.56731575     0.04275886
 C     64  63  62     2.644323550352   119.86669468   359.85119255
 C     65  64  63     2.632385933818   119.93371752     0.07189684
 H     62  61  43     2.040029653968   119.71179614   359.95563027
 H     63  62  61     2.040724570263   119.67411452   179.98064848
 H     64  63  62     2.039616363632   120.25638378   179.93721766
 H     66  65  64     2.038348029062   119.97737028   180.18907673
 C     65  64  63     2.665741954803   119.52644765   179.64449106
 C     71  65  64     2.284627322530   179.65020095   268.32306783
 C     72  71  65     2.661140851244   175.35294404    77.96948160
 C     73  72  71     2.649774935103   119.90705263     5.93774065
 C     74  73  72     2.613445885293   119.17473845   180.70505469
 C     75  74  73     2.617478761749   119.06202639   359.96374262
 N     76  75  74     2.528360131355   121.67547466   359.67813323
 C     77  76  75     2.514533175615   120.27891553     0.34918789
 H     74  73  72     2.038540041478   119.82337102     0.51891658
 H     75  74  73     2.037159744271   120.72592434   179.85865729
 H     76  75  74     2.059665603248   121.32014023   179.62701176
 H     78  77  76     2.052509596639   116.94707651   180.06967043
 C     59  52  51    14.552527519314    92.81425954   271.97145628
 C     83  59  52     2.284527345477    60.73195676    49.66421065
 C     84  83  59     2.661358812016   178.66827459    14.88580675
 C     85  84  83     2.614435826270   121.10288554   180.08842008
 C     86  85  84     2.645881594809   121.00515871   180.00566119
 C     87  86  85     2.590610373249   121.01286297     0.00000000
 C     88  87  86     2.667590570375   119.74320854     0.00000000
 C     89  88  87     2.659370531760   122.52254230   179.97908852
 N     90  89  88     2.488726200104   122.61563741   180.00498445
 C     91  90  89     2.560664129023   120.19390072     0.00000000
 C     92  91  90     2.580732424020   121.80696180     0.02638999
 C     93  92  91     2.662995161803   119.80057512     0.00000000
 H     86  85  84     2.040135845077   119.40426681     0.00000000
 H     87  86  85     2.039413333570   118.87793462   180.00295819
 H     88  87  86     2.037742748801   120.65211502   179.99837676
 H     90  89  88     2.057459329800   120.23850331     0.00000000
 H     92  91  90     2.053494786806   115.97990104   180.03165711
 H     93  92  91     2.037011832681   121.17844225   179.99040512
 C     83  59  52     2.666448145877   118.74601948   229.51313566
 C    101  83  59     2.642999790893   120.33494391   165.17159282
 C    102 101  83     2.614998852189   119.93683197   180.01130552
 C    103 102 101     2.614623556022   120.57838869     0.00000000
 C    104 103 102     2.643651494113   119.81745571     0.00000000
 C    105 104 103     2.633005665870   119.97554213     0.00000000
 H    102 101  83     2.040234145478   119.71525212     0.00000000
 H    103 102 101     2.040984790119   119.67737236   180.00159282
 H    104 103 102     2.039685731179   120.29823972   180.00099785
 H    106 105 104     2.038263855333   119.96081939   179.98741055
 C    105 104 103     2.664953039936   119.87237805   180.00650570
 C    111 105 104     2.284359808454   179.44474415   180.42840101
 C    112 111 105     2.660638331512   177.12450139   179.96467653
 C    113 112 111     2.650273969968   120.54898295   359.03676188
 C    114 113 112     2.612846128874   119.12585054   179.96624678
 C    115 114 113     2.619317055594   119.13908493     0.00000000
 N    116 115 114     2.523450836182   121.64528184     0.00000000
 C    117 116 115     2.517478885456   120.26933934     0.00000000
 H    114 113 112     2.038698746177   119.83988388   359.97264813
 H    115 114 113     2.036930417560   120.74047311   179.99705249
 H    116 115 114     2.054082238781   121.36554476   180.00760002
 H    118 117 116     2.057508283713   116.96472114   179.97859710
 C     99  92  91    13.403650245961   101.05299464   271.23668280
 C    123  99  92     2.284774247720    65.18542144    46.99836445
 C    124 123  99     2.661644134774   176.79773733   353.57705762
 C    125 124 123     2.614030674977   121.58531748   208.14278259
 C    126 125 124     2.645957971486   120.91468124   178.30104060
 C    127 126 125     2.591323926813   121.07940392   359.43424966
 C    128 127 126     2.666758260066   119.74751566     0.79546113
 C    129 128 127     2.662381692923   122.59888238   180.91878667
 N    130 129 128     2.484649749609   122.58105796   180.42488298
 C    131 130 129     2.566273276813   120.16687711     0.81755224
 C    132 131 130     2.578979244639   121.84596436   358.30799805
 C    133 132 131     2.664038915644   119.72218125     0.53860067
 H    126 125 124     2.039899281572   119.46823772   358.57859792
 H    127 126 125     2.039506232115   118.85244058   179.90300108
 H    128 127 126     2.037941275446   120.65023514   180.73569884
 H    130 129 128     2.052734016701   120.17137280     0.58124692
 H    132 131 130     2.060996053293   116.11724193   178.10222561
 H    133 132 131     2.037133554842   121.26871485   180.45531199
 C    123  99  92     2.666666904872   114.18356293   226.95444062
 C    141 123  99     2.642558755248   120.46487880   167.88221139
 C    142 141 123     2.614996557966   119.91215586   179.97772441
 C    143 142 141     2.614234846457   120.56725764   359.95664303
 C    144 143 142     2.644438485880   119.87064176     0.14073787
 C    145 144 143     2.632649370151   119.92931050   359.92562655
 H    142 141 123     2.040319349329   119.70830918     0.05792716
 H    143 142 141     2.040816044259   119.67276463   180.01063878
 H    144 143 142     2.039766528615   120.26165205   180.05114797
 H    146 145 144     2.038140220783   119.97935940   179.80516706
 C    145 144 143     2.665566513199   119.52195473   180.35699038
 C    151 145 144     2.284505367446   179.64685085    87.82622884
 C    152 151 145     2.661202948333   175.35514912   286.05643271
 C    153 152 151     2.649811052845   119.91988845   353.13711719
 C    154 153 152     2.613237033307   119.17931218   179.22936493
 C    155 154 153     2.617665468384   119.06225369     0.02870266
 N    156 155 154     2.528094225340   121.67395160     0.35389707
 C    157 156 155     2.514562416748   120.28209467   359.63342284
 H    154 153 152     2.038594450904   119.82146828   359.43322889
 H    155 154 153     2.037183146188   120.73026729   180.15007481
 H    156 155 154     2.059668307987   121.31517926   180.39253274
 H    158 157 156     2.052490371174   116.95372617   179.92698953

---------------------
BASIS SET INFORMATION
---------------------
There are 4 groups of distinct atoms

 Group   1 Type Pd  : 7s6p5d1f contracted to 5s3p2d1f pattern {31111/411/41/1}
 Group   2 Type C   : 7s4p1d contracted to 3s2p1d pattern {511/31/1}
 Group   3 Type N   : 7s4p1d contracted to 3s2p1d pattern {511/31/1}
 Group   4 Type H   : 4s1p contracted to 2s1p pattern {31/1}

Atom   0Pd   basis set group =>   1
Atom   1Pd   basis set group =>   1
Atom   2C    basis set group =>   2
Atom   3C    basis set group =>   2
Atom   4C    basis set group =>   2
Atom   5C    basis set group =>   2
Atom   6C    basis set group =>   2
Atom   7C    basis set group =>   2
Atom   8C    basis set group =>   2
Atom   9C    basis set group =>   2
Atom  10N    basis set group =>   3
Atom  11C    basis set group =>   2
Atom  12C    basis set group =>   2
Atom  13C    basis set group =>   2
Atom  14H    basis set group =>   4
Atom  15H    basis set group =>   4
Atom  16H    basis set group =>   4
Atom  17H    basis set group =>   4
Atom  18H    basis set group =>   4
Atom  19H    basis set group =>   4
Atom  20C    basis set group =>   2
Atom  21C    basis set group =>   2
Atom  22C    basis set group =>   2
Atom  23C    basis set group =>   2
Atom  24C    basis set group =>   2
Atom  25C    basis set group =>   2
Atom  26H    basis set group =>   4
Atom  27H    basis set group =>   4
Atom  28H    basis set group =>   4
Atom  29H    basis set group =>   4
Atom  30C    basis set group =>   2
Atom  31C    basis set group =>   2
Atom  32C    basis set group =>   2
Atom  33C    basis set group =>   2
Atom  34C    basis set group =>   2
Atom  35C    basis set group =>   2
Atom  36N    basis set group =>   3
Atom  37C    basis set group =>   2
Atom  38H    basis set group =>   4
Atom  39H    basis set group =>   4
Atom  40H    basis set group =>   4
Atom  41H    basis set group =>   4
Atom  42C    basis set group =>   2
Atom  43C    basis set group =>   2
Atom  44C    basis set group =>   2
Atom  45C    basis set group =>   2
Atom  46C    basis set group =>   2
Atom  47C    basis set group =>   2
Atom  48C    basis set group =>   2
Atom  49C    basis set group =>   2
Atom  50N    basis set group =>   3
Atom  51C    basis set group =>   2
Atom  52C    basis set group =>   2
Atom  53C    basis set group =>   2
Atom  54H    basis set group =>   4
Atom  55H    basis set group =>   4
Atom  56H    basis set group =>   4
Atom  57H    basis set group =>   4
Atom  58H    basis set group =>   4
Atom  59H    basis set group =>   4
Atom  60C    basis set group =>   2
Atom  61C    basis set group =>   2
Atom  62C    basis set group =>   2
Atom  63C    basis set group =>   2
Atom  64C    basis set group =>   2
Atom  65C    basis set group =>   2
Atom  66H    basis set group =>   4
Atom  67H    basis set group =>   4
Atom  68H    basis set group =>   4
Atom  69H    basis set group =>   4
Atom  70C    basis set group =>   2
Atom  71C    basis set group =>   2
Atom  72C    basis set group =>   2
Atom  73C    basis set group =>   2
Atom  74C    basis set group =>   2
Atom  75C    basis set group =>   2
Atom  76N    basis set group =>   3
Atom  77C    basis set group =>   2
Atom  78H    basis set group =>   4
Atom  79H    basis set group =>   4
Atom  80H    basis set group =>   4
Atom  81H    basis set group =>   4
Atom  82C    basis set group =>   2
Atom  83C    basis set group =>   2
Atom  84C    basis set group =>   2
Atom  85C    basis set group =>   2
Atom  86C    basis set group =>   2
Atom  87C    basis set group =>   2
Atom  88C    basis set group =>   2
Atom  89C    basis set group =>   2
Atom  90N    basis set group =>   3
Atom  91C    basis set group =>   2
Atom  92C    basis set group =>   2
Atom  93C    basis set group =>   2
Atom  94H    basis set group =>   4
Atom  95H    basis set group =>   4
Atom  96H    basis set group =>   4
Atom  97H    basis set group =>   4
Atom  98H    basis set group =>   4
Atom  99H    basis set group =>   4
Atom 100C    basis set group =>   2
Atom 101C    basis set group =>   2
Atom 102C    basis set group =>   2
Atom 103C    basis set group =>   2
Atom 104C    basis set group =>   2
Atom 105C    basis set group =>   2
Atom 106H    basis set group =>   4
Atom 107H    basis set group =>   4
Atom 108H    basis set group =>   4
Atom 109H    basis set group =>   4
Atom 110C    basis set group =>   2
Atom 111C    basis set group =>   2
Atom 112C    basis set group =>   2
Atom 113C    basis set group =>   2
Atom 114C    basis set group =>   2
Atom 115C    basis set group =>   2
Atom 116N    basis set group =>   3
Atom 117C    basis set group =>   2
Atom 118H    basis set group =>   4
Atom 119H    basis set group =>   4
Atom 120H    basis set group =>   4
Atom 121H    basis set group =>   4
Atom 122C    basis set group =>   2
Atom 123C    basis set group =>   2
Atom 124C    basis set group =>   2
Atom 125C    basis set group =>   2
Atom 126C    basis set group =>   2
Atom 127C    basis set group =>   2
Atom 128C    basis set group =>   2
Atom 129C    basis set group =>   2
Atom 130N    basis set group =>   3
Atom 131C    basis set group =>   2
Atom 132C    basis set group =>   2
Atom 133C    basis set group =>   2
Atom 134H    basis set group =>   4
Atom 135H    basis set group =>   4
Atom 136H    basis set group =>   4
Atom 137H    basis set group =>   4
Atom 138H    basis set group =>   4
Atom 139H    basis set group =>   4
Atom 140C    basis set group =>   2
Atom 141C    basis set group =>   2
Atom 142C    basis set group =>   2
Atom 143C    basis set group =>   2
Atom 144C    basis set group =>   2
Atom 145C    basis set group =>   2
Atom 146H    basis set group =>   4
Atom 147H    basis set group =>   4
Atom 148H    basis set group =>   4
Atom 149H    basis set group =>   4
Atom 150C    basis set group =>   2
Atom 151C    basis set group =>   2
Atom 152C    basis set group =>   2
Atom 153C    basis set group =>   2
Atom 154C    basis set group =>   2
Atom 155C    basis set group =>   2
Atom 156N    basis set group =>   3
Atom 157C    basis set group =>   2
Atom 158H    basis set group =>   4
Atom 159H    basis set group =>   4
Atom 160H    basis set group =>   4
Atom 161H    basis set group =>   4

-------------------------
BASIS SET IN INPUT FORMAT
-------------------------

 # Basis set for element : H 
 NewGTO H 
 S 3 
   1      13.0107010000      0.0334854848
   2       1.9622572000      0.2347218709
   3       0.4445379600      0.8137702853
 S 1 
   1       0.1219496200      1.0000000000
 P 1 
   1       0.8000000000      1.0000000000
  end;

 # Basis set for element : C 
 NewGTO C 
 S 5 
   1    1238.4016938000      0.0055173650
   2     186.2900499200      0.0410888285
   3      42.2511763460      0.1822538213
   4      11.6765579320      0.4682845944
   5       3.5930506482      0.4457581734
 S 1 
   1       0.4024514736      1.0000000000
 S 1 
   1       0.1309018267      1.0000000000
 P 3 
   1       9.4680970621      0.0568883320
   2       2.0103545142      0.3129405934
   3       0.5477100471      0.7606501651
 P 1 
   1       0.1526861379      1.0000000000
 D 1 
   1       0.8000000000      1.0000000000
  end;

 # Basis set for element : N 
 NewGTO N 
 S 5 
   1    1712.8415853000     -0.0054477995
   2     257.6481267700     -0.0406271746
   3      58.4582458530     -0.1811196225
   4      16.1983679050     -0.4684397556
   5       5.0052600809     -0.4461684629
 S 1 
   1       0.5873185657      1.0000000000
 S 1 
   1       0.1876459225      1.0000000000
 P 3 
   1      13.5714702330     -0.0588481170
   2       2.9257372874     -0.3202462476
   3       0.7992775075     -0.7532822652
 P 1 
   1       0.2195434803      1.0000000000
 D 1 
   1       1.0000000000      1.0000000000
  end;

 # Basis set for element : Pd
 NewGTO Pd
 S 3 
   1       8.4756400000      2.1727229431
   2       7.1657170000     -2.9039633126
   3       3.1821100000     -0.2310570076
 S 1 
   1       1.3973644196      1.0000000000
 S 1 
   1       0.6053295587      1.0000000000
 S 1 
   1       0.1022951421      1.0000000000
 S 1 
   1       0.0373389729      1.0000000000
 P 4 
   1       4.2460970000     -0.8346018694
   2       3.3925940000      0.8828643810
   3       1.1975891264      0.6438870170
   4       0.5267375059      0.2760105151
 P 1 
   1       0.2060709410      1.0000000000
 P 1 
   1       0.0370000000      1.0000000000
 D 4 
   1       7.3613290985     -0.0186922795
   2       2.6291037258      0.2533662423
   3       1.1292744634      0.4840070353
   4       0.4447165990      0.4270306822
 D 1 
   1       0.1554489384      1.0000000000
 F 1 
   1       1.2462900000      1.0000000000
  end;

-------------------------
ECP PARAMETER INFORMATION
-------------------------

 Group 1, Type Pd ECP Def2-ECP (replacing 28 core electrons, lmax=3)

Atom   0Pd   ECP group =>   1
Atom   1Pd   ECP group =>   1


-------------------------
ECP BASIS IN INPUT FORMAT
-------------------------

 #ECP Def2-ECP
 NewECP Pd
   N_core 28
   lmax f
   s 4
     1      12.4300000000    240.2290403000  2
     2       6.1707594000     35.1719435000  2
     3      13.2700000000     31.9295543000  2
     4       6.6300000000      5.3982169000  2
   p 4
     1      11.0800000000    170.4172760000  2
     2       5.8295541000     28.4721329000  2
     3      13.2700000000     31.9295543000  2
     4       6.6300000000      5.3982169000  2
   d 4
     1       9.5100000000     69.0138449000  2
     2       4.1397811000     11.7508616000  2
     3      13.2700000000     31.9295543000  2
     4       6.6300000000      5.3982169000  2
   f 2
     1      13.2700000000    -31.9295543000  2
     2       6.6300000000     -5.3982169000  2
 End




           ************************************************************
           *        Program running with 32 parallel MPI-processes    *
           *              working on a common directory               *
           ************************************************************
------------------------------------------------------------------------------
                           ORCA GTO INTEGRAL CALCULATION
------------------------------------------------------------------------------

                         BASIS SET STATISTICS AND STARTUP INFO

 # of primitive gaussian shells          ... 1566
 # of primitive gaussian functions       ... 3002
 # of contracted shells                  ...  814
 # of contracted basis functions         ... 1798
 Highest angular momentum                ...    3
 Maximum contraction depth               ...    5
 Integral package used                   ... LIBINT
 Integral threshhold            Thresh   ...  2.500e-11
 Primitive cut-off              TCut     ...  2.500e-12


------------------------------ INTEGRAL EVALUATION ----------------------------


 * One electron integrals 

   ECP integrals                         ... done
 Pre-screening matrix                    ... done
 Shell pair data                         ... done (   0.027 sec)



           ************************************************************
           *        Program running with 32 parallel MPI-processes    *
           *              working on a common directory               *
           ************************************************************
-------------------------------------------------------------------------------
                                 ORCA SCF
-------------------------------------------------------------------------------

------------
SCF SETTINGS
------------
Hamiltonian:
 Density Functional     Method          .... DFT(GTOs)
 Exchange Functional    Exchange        .... PBE
   PBE kappa parameter   XKappa         ....  0.804000
   PBE mue parameter    XMuePBE         ....  0.219520
 Correlation Functional Correlation     .... PBE
   PBE beta parameter  CBetaPBE         ....  0.066725
 LDA part of GGA corr.  LDAOpt          .... PW91-LDA
 Gradients option       PostSCFGGA      .... off
 Hybrid DFT is turned on
   Fraction HF Exchange ScalHFX         ....  0.250000
   Scaling of DF-GGA-X  ScalDFX         ....  0.750000
   Scaling of DF-GGA-C  ScalDFC         ....  1.000000
   Scaling of DF-LDA-C  ScalLDAC        ....  1.000000
   Perturbative correction              ....  0.000000
   Density functional embedding theory  .... OFF
   NL short-range parameter             ....  6.900000


General Settings:
 Integral files         IntName         .... _s_5d3_b_PBE0
 Hartree-Fock type      HFTyp           .... RHF
 Total Charge           Charge          ....    4
 Multiplicity           Mult            ....    1
 Number of Electrons    NEL             ....  720
 Basis Dimension        Dim             .... 1798
 Nuclear Repulsion      ENuc            ....  18867.9170973231 Eh

Convergence Acceleration:
 DIIS                   CNVDIIS         .... on
   Start iteration      DIISMaxIt       ....     0
   Startup error        DIISStart       ....  0.200000
   # of expansion vecs  DIISMaxEq       ....     5
   Bias factor          DIISBfac        ....   1.050
   Max. coefficient     DIISMaxC        ....  10.000
 Newton-Raphson         CNVNR           .... off
 SOSCF                  CNVSOSCF        .... off
 Level Shifting         CNVShift        .... on
   Level shift para.    LevelShift      ....    0.2500
   Turn off err/grad.   ShiftErr        ....    0.0000
 Zerner damping         CNVZerner       .... off
 Static damping         CNVDamp         .... on
   Fraction old density DampFac         ....    0.8500
   Max. Damping (<1)    DampMax         ....    0.9800
   Min. Damping (>=0)   DampMin         ....    0.0000
   Turn off err/grad.   DampErr         ....    0.0300
 Fernandez-Rico         CNVRico         .... off

SCF Procedure:
 Maximum # iterations   MaxIter         ....  2000
 SCF integral mode      SCFMode         .... Direct
   Integral package                     .... LIBINT
 Reset frequency        DirectResetFreq ....    20
 Integral Threshold     Thresh          ....  2.500e-11 Eh
 Primitive CutOff       TCut            ....  2.500e-12 Eh

Convergence Tolerance:
 Convergence Check Mode ConvCheckMode   .... Total+1el-Energy
 Convergence forced     ConvForced      .... 0
 Energy Change          TolE            ....  1.000e-08 Eh
 1-El. energy change                    ....  1.000e-05 Eh
 DIIS Error             TolErr          ....  5.000e-07


Diagonalization of the overlap matrix:
Smallest eigenvalue                        ... 2.470e-04
Time for diagonalization                   ...    0.563 sec
Threshold for overlap eigenvalues          ... 1.000e-08
Number of eigenvalues below threshold      ... 0
Time for construction of square roots      ...    0.366 sec
Total time needed                          ...    0.936 sec

-------------------
DFT GRID GENERATION
-------------------

General Integration Accuracy     IntAcc      ...  5.340
Radial Grid Type                 RadialGrid  ... Gauss-Chebyshev
Angular Grid (max. acc.)         AngularGrid ... Lebedev-590
Angular grid pruning method      GridPruning ... 3 (G Style)
Weight generation scheme         WeightScheme... Becke
Basis function cutoff            BFCut       ...    1.0000e-11
Integration weight cutoff        WCut        ...    1.0000e-14
Grids for H and He will be reduced by one unit

# of grid points (after initial pruning)     ... 2382484 (   0.0 sec)
# of grid points (after weights+screening)   ... 1974568 (  11.5 sec)
nearest neighbour list constructed           ...    0.0 sec
Grid point re-assignment to atoms done       ...    0.3 sec
Grid point division into batches done        ...   20.5 sec
Reduced shell lists constructed in   21.5 sec

Total number of grid points                  ...  1974568
Total number of batches                      ...    30939
Average number of points per batch           ...       63
Average number of grid points per atom       ...    12189
Average number of shells per batch           ...   130.68 (16.05%)
Average number of basis functions per batch  ...   271.31 (15.09%)
Average number of large shells per batch     ...    78.19 (59.83%)
Average number of large basis fcns per batch ...   161.81 (59.64%)
Maximum spatial batch extension              ...   7.38,  3.79,  8.66 au
Average spatial batch extension              ...   0.03,  0.03,  0.03 au

Time for grid setup =   33.713 sec

------------------------------
INITIAL GUESS: MODEL POTENTIAL
------------------------------
Loading Hartree-Fock densities                     ... done
  calling /work/e05/e05/atarzia/orca_4_2_1_linux_x86-64_openmpi314/orca _s_5d3_b_PBE0_atom46.inp > _s_5d3_b_PBE0_atom46.out in order to generate an atomic fitting density for atom 0 (Pd with ECP) on-the-fly... 
    atom 0 (Pd), assumed electronic state with S=3: 1s2 2s2 2p6 3s2 3p6 4s2 3d10 4p6 5s2 4d8           ... done
Calculating cut-offs                               ... done
Setting up the integral package                    ... done
Initializing the effective Hamiltonian             ... done
Starting the Coulomb interaction                   ... done (   0.7 sec)
Reading the grid                                   ... done
Mapping shells                                     ... done
Starting the XC term evaluation                    ... done (   0.9 sec)
  promolecular density results
     # of electrons  =    779.959579416
     EX              =   -837.382370645
     EC              =    -28.007872825
     EX+EC           =   -865.390243471
Transforming the Hamiltonian                       ... done (   0.3 sec)
Diagonalizing the Hamiltonian                      ... done (   0.5 sec)
Back transforming the eigenvectors                 ... done (   0.2 sec)
Now organizing SCF variables                       ... done
                      ------------------
                      INITIAL GUESS DONE (  59.7 sec)
                      ------------------
--------------
SCF ITERATIONS
--------------
ITER       Energy         Delta-E        Max-DP      RMS-DP      [F,P]     Damp
               ***  Starting incremental Fock matrix formation  ***
  0  -4375.2292315024   0.000000000000 0.03282268  0.00038616  0.4576722 0.8500
  1  -4375.5382805626  -0.309049060139 0.02780717  0.00035269  0.3871496 0.8500
                               ***Turning on DIIS***
  2  -4375.7661386872  -0.227858124628 0.02253768  0.00028193  0.3266450 0.8500
  3  -4375.9247362220  -0.158597534821 0.01730222  0.00019311  0.2756453 0.8500
  4  -4376.0431635342  -0.118427312173 0.01381626  0.00014529  0.2333351 0.8500
  5  -4376.1345379196  -0.091374385393 0.01138612  0.00011777  0.1979760 0.8500
  6  -4376.2081632169  -0.073625297271 0.00962697  0.00009876  0.1682273 0.8500
  7  -4376.2690263093  -0.060863092447 0.00825847  0.00008486  0.1430470 0.8500
  8  -4376.3200963759  -0.051070066540 0.00716932  0.00007292  0.1216403 0.8500
  9  -4376.3628738627  -0.042777486866 0.00615034  0.00006208  0.1033750 0.8500
 10  -4376.3986655007  -0.035791637973 0.00519329  0.00005261  0.0878100 0.8500
 11  -4376.4286717834  -0.030006282686 0.00436899  0.00004454  0.0745905 0.8500
 12  -4376.4539044201  -0.025232636712 0.00369868  0.00003777  0.0633809 0.8500
 13  -4376.4751712210  -0.021266800915 0.00315599  0.00003207  0.0538675 0.8500
 14  -4376.4931164196  -0.017945198604 0.00269327  0.00002722  0.0457786 0.8500
 15  -4376.5082722178  -0.015155798206 0.00228577  0.00002309  0.0388967 0.8500
 16  -4376.5210846563  -0.012812438519 0.00193357  0.00001959  0.0330474 0.8500
 17  -4376.5319267227  -0.010842066371 0.01092450  0.00011079  0.0280807 0.0000
 18  -4376.5925841347  -0.060657412028 0.00023937  0.00000247  0.0002164 0.0000
 19  -4376.5925878708  -0.000003736073 0.00013088  0.00000095  0.0001009 0.0000
               *** Restarting incremental Fock matrix formation ***
                                   *** Resetting DIIS ***
 20  -4376.5925876150   0.000000255844 0.00010691  0.00000065  0.0000608 0.0000
 21  -4376.5925874905   0.000000124473 0.00004328  0.00000022  0.0000867 0.0000
 22  -4376.5925876178  -0.000000127297 0.00002159  0.00000016  0.0000275 0.0000
 23  -4376.5925876791  -0.000000061336 0.00001347  0.00000012  0.0000067 0.0000
 24  -4376.5925876820  -0.000000002925 0.00000639  0.00000006  0.0000024 0.0000
                            ***DIIS convergence achieved***

               *****************************************************
               *                     SUCCESS                       *
               *           SCF CONVERGED AFTER  25 CYCLES          *
               *****************************************************


----------------
TOTAL SCF ENERGY
----------------

Total Energy       :        -4376.59258765 Eh         -119093.13889 eV

Components:
Nuclear Repulsion  :        18867.91709732 Eh          513422.12609 eV
Electronic Energy  :       -23244.50968497 Eh         -632515.26498 eV
One Electron Energy:       -43456.97693111 Eh        -1182524.46068 eV
Two Electron Energy:        20212.46724614 Eh          550009.19569 eV

Virial components:
Potential Energy   :        -8553.93238068 Eh         -232764.33359 eV
Kinetic Energy     :         4177.33979303 Eh          113671.19470 eV
Virial Ratio       :            2.04769849


DFT components:
N(Alpha)           :      359.999982333196 electrons
N(Beta)            :      359.999982333196 electrons
N(Total)           :      719.999964666392 electrons
E(X)               :     -443.479924714641 Eh       
E(C)               :      -24.629146925299 Eh       
E(XC)              :     -468.109071639939 Eh       
DFET-embed. en.    :        0.000000000000 Eh       

---------------
SCF CONVERGENCE
---------------

  Last Energy change         ...    3.4914e-08  Tolerance :   1.0000e-08
  Last MAX-Density change    ...    5.6552e-06  Tolerance :   1.0000e-07
  Last RMS-Density change    ...    4.3154e-08  Tolerance :   5.0000e-09
  Last DIIS Error            ...    7.0502e-07  Tolerance :   5.0000e-07

             **** THE GBW FILE WAS UPDATED (_s_5d3_b_PBE0.gbw) ****
             **** DENSITY FILE WAS UPDATED (_s_5d3_b_PBE0.scfp) ****
             **** ENERGY FILE WAS UPDATED (_s_5d3_b_PBE0.en.tmp) ****
             **** THE GBW FILE WAS UPDATED (_s_5d3_b_PBE0.gbw) ****
             **** DENSITY FILE WAS UPDATED (_s_5d3_b_PBE0.scfp) ****
----------------
ORBITAL ENERGIES
----------------

  NO   OCC          E(Eh)            E(eV) 
   0   2.0000     -14.751814      -401.4173 
   1   2.0000     -14.751778      -401.4163 
   2   2.0000     -14.750575      -401.3836 
   3   2.0000     -14.745575      -401.2475 
   4   2.0000     -14.745383      -401.2423 
   5   2.0000     -14.741275      -401.1305 
   6   2.0000     -14.739937      -401.0941 
   7   2.0000     -14.739873      -401.0923 
   8   2.0000     -10.582632      -287.9681 
   9   2.0000     -10.582590      -287.9669 
  10   2.0000     -10.582547      -287.9657 
  11   2.0000     -10.581655      -287.9415 
  12   2.0000     -10.579848      -287.8923 
  13   2.0000     -10.578423      -287.8535 
  14   2.0000     -10.578392      -287.8527 
  15   2.0000     -10.578128      -287.8455 
  16   2.0000     -10.578057      -287.8436 
  17   2.0000     -10.576966      -287.8139 
  18   2.0000     -10.576852      -287.8108 
  19   2.0000     -10.572159      -287.6831 
  20   2.0000     -10.570638      -287.6417 
  21   2.0000     -10.567205      -287.5483 
  22   2.0000     -10.566356      -287.5252 
  23   2.0000     -10.566269      -287.5228 
  24   2.0000     -10.561232      -287.3857 
  25   2.0000     -10.561169      -287.3840 
  26   2.0000     -10.560112      -287.3553 
  27   2.0000     -10.555626      -287.2332 
  28   2.0000     -10.543418      -286.9010 
  29   2.0000     -10.543374      -286.8998 
  30   2.0000     -10.542319      -286.8711 
  31   2.0000     -10.540235      -286.8144 
  32   2.0000     -10.538133      -286.7572 
  33   2.0000     -10.538105      -286.7564 
  34   2.0000     -10.536983      -286.7259 
  35   2.0000     -10.536944      -286.7248 
  36   2.0000     -10.536921      -286.7242 
  37   2.0000     -10.536201      -286.7046 
  38   2.0000     -10.536105      -286.7020 
  39   2.0000     -10.535643      -286.6894 
  40   2.0000     -10.535346      -286.6813 
  41   2.0000     -10.534975      -286.6713 
  42   2.0000     -10.533156      -286.6217 
  43   2.0000     -10.533063      -286.6192 
  44   2.0000     -10.531944      -286.5888 
  45   2.0000     -10.531554      -286.5782 
  46   2.0000     -10.531077      -286.5652 
  47   2.0000     -10.530474      -286.5488 
  48   2.0000     -10.530380      -286.5462 
  49   2.0000     -10.529592      -286.5248 
  50   2.0000     -10.527836      -286.4770 
  51   2.0000     -10.527744      -286.4745 
  52   2.0000     -10.512596      -286.0623 
  53   2.0000     -10.511400      -286.0297 
  54   2.0000     -10.510315      -286.0002 
  55   2.0000     -10.509827      -285.9869 
  56   2.0000     -10.509720      -285.9840 
  57   2.0000     -10.509704      -285.9836 
  58   2.0000     -10.509415      -285.9757 
  59   2.0000     -10.509336      -285.9736 
  60   2.0000     -10.509231      -285.9707 
  61   2.0000     -10.508910      -285.9620 
  62   2.0000     -10.508848      -285.9603 
  63   2.0000     -10.508151      -285.9413 
  64   2.0000     -10.507572      -285.9256 
  65   2.0000     -10.507520      -285.9242 
  66   2.0000     -10.507413      -285.9212 
  67   2.0000     -10.507258      -285.9170 
  68   2.0000     -10.506903      -285.9074 
  69   2.0000     -10.506784      -285.9041 
  70   2.0000     -10.505906      -285.8802 
  71   2.0000     -10.505075      -285.8576 
  72   2.0000     -10.504438      -285.8403 
  73   2.0000     -10.503974      -285.8277 
  74   2.0000     -10.501996      -285.7738 
  75   2.0000     -10.501909      -285.7715 
  76   2.0000     -10.499023      -285.6929 
  77   2.0000     -10.498947      -285.6909 
  78   2.0000     -10.498421      -285.6766 
  79   2.0000     -10.498072      -285.6671 
  80   2.0000     -10.497916      -285.6628 
  81   2.0000     -10.497800      -285.6597 
  82   2.0000     -10.496328      -285.6196 
  83   2.0000     -10.495116      -285.5866 
  84   2.0000     -10.491528      -285.4890 
  85   2.0000     -10.491007      -285.4748 
  86   2.0000     -10.489721      -285.4398 
  87   2.0000     -10.489601      -285.4366 
  88   2.0000     -10.487483      -285.3789 
  89   2.0000     -10.487476      -285.3787 
  90   2.0000     -10.487366      -285.3757 
  91   2.0000     -10.485802      -285.3332 
  92   2.0000     -10.485797      -285.3330 
  93   2.0000     -10.485722      -285.3310 
  94   2.0000     -10.485413      -285.3226 
  95   2.0000     -10.485349      -285.3209 
  96   2.0000     -10.485228      -285.3176 
  97   2.0000     -10.484709      -285.3034 
  98   2.0000     -10.484592      -285.3003 
  99   2.0000     -10.484336      -285.2933 
 100   2.0000     -10.476165      -285.0709 
 101   2.0000     -10.475969      -285.0656 
 102   2.0000     -10.475864      -285.0628 
 103   2.0000     -10.474415      -285.0233 
 104   2.0000      -3.848973      -104.7359 
 105   2.0000      -3.842340      -104.5554 
 106   2.0000      -2.526324       -68.7448 
 107   2.0000      -2.526200       -68.7414 
 108   2.0000      -2.519820       -68.5678 
 109   2.0000      -2.519549       -68.5604 
 110   2.0000      -2.489711       -67.7485 
 111   2.0000      -2.483161       -67.5702 
 112   2.0000      -1.303421       -35.4679 
 113   2.0000      -1.296907       -35.2906 
 114   2.0000      -1.296598       -35.2822 
 115   2.0000      -1.296019       -35.2665 
 116   2.0000      -1.291867       -35.1535 
 117   2.0000      -1.290343       -35.1120 
 118   2.0000      -1.286443       -35.0059 
 119   2.0000      -1.286379       -35.0041 
 120   2.0000      -1.169961       -31.8363 
 121   2.0000      -1.168498       -31.7964 
 122   2.0000      -1.166877       -31.7523 
 123   2.0000      -1.166297       -31.7366 
 124   2.0000      -1.144099       -31.1325 
 125   2.0000      -1.143835       -31.1253 
 126   2.0000      -1.143715       -31.1221 
 127   2.0000      -1.141951       -31.0741 
 128   2.0000      -1.138300       -30.9747 
 129   2.0000      -1.136473       -30.9250 
 130   2.0000      -1.136039       -30.9132 
 131   2.0000      -1.132361       -30.8131 
 132   2.0000      -1.104369       -30.0514 
 133   2.0000      -1.102523       -30.0012 
 134   2.0000      -1.100665       -29.9506 
 135   2.0000      -1.100379       -29.9428 
 136   2.0000      -1.099803       -29.9271 
 137   2.0000      -1.099344       -29.9147 
 138   2.0000      -1.097792       -29.8724 
 139   2.0000      -1.094175       -29.7740 
 140   2.0000      -1.082387       -29.4533 
 141   2.0000      -1.080994       -29.4153 
 142   2.0000      -1.079364       -29.3710 
 143   2.0000      -1.078264       -29.3411 
 144   2.0000      -1.068539       -29.0764 
 145   2.0000      -1.067765       -29.0554 
 146   2.0000      -1.067677       -29.0530 
 147   2.0000      -1.067154       -29.0387 
 148   2.0000      -1.054314       -28.6894 
 149   2.0000      -1.054098       -28.6835 
 150   2.0000      -1.052656       -28.6442 
 151   2.0000      -1.051953       -28.6251 
 152   2.0000      -1.035717       -28.1833 
 153   2.0000      -1.035130       -28.1673 
 154   2.0000      -1.035005       -28.1639 
 155   2.0000      -1.034278       -28.1441 
 156   2.0000      -1.012559       -27.5531 
 157   2.0000      -1.012149       -27.5420 
 158   2.0000      -1.011055       -27.5122 
 159   2.0000      -1.008522       -27.4433 
 160   2.0000      -0.990846       -26.9623 
 161   2.0000      -0.990694       -26.9582 
 162   2.0000      -0.989805       -26.9340 
 163   2.0000      -0.989620       -26.9289 
 164   2.0000      -0.964403       -26.2427 
 165   2.0000      -0.963329       -26.2135 
 166   2.0000      -0.963244       -26.2112 
 167   2.0000      -0.961936       -26.1756 
 168   2.0000      -0.960206       -26.1285 
 169   2.0000      -0.959403       -26.1067 
 170   2.0000      -0.959047       -26.0970 
 171   2.0000      -0.956859       -26.0375 
 172   2.0000      -0.951178       -25.8829 
 173   2.0000      -0.947695       -25.7881 
 174   2.0000      -0.947278       -25.7767 
 175   2.0000      -0.943941       -25.6859 
 176   2.0000      -0.937219       -25.5030 
 177   2.0000      -0.935851       -25.4658 
 178   2.0000      -0.933728       -25.4080 
 179   2.0000      -0.932254       -25.3679 
 180   2.0000      -0.919465       -25.0199 
 181   2.0000      -0.918650       -24.9977 
 182   2.0000      -0.916926       -24.9508 
 183   2.0000      -0.916824       -24.9481 
 184   2.0000      -0.895406       -24.3652 
 185   2.0000      -0.894164       -24.3314 
 186   2.0000      -0.893642       -24.3172 
 187   2.0000      -0.891953       -24.2713 
 188   2.0000      -0.885294       -24.0901 
 189   2.0000      -0.884153       -24.0590 
 190   2.0000      -0.884012       -24.0552 
 191   2.0000      -0.883604       -24.0441 
 192   2.0000      -0.872685       -23.7470 
 193   2.0000      -0.864865       -23.5342 
 194   2.0000      -0.863333       -23.4925 
 195   2.0000      -0.860066       -23.4036 
 196   2.0000      -0.849839       -23.1253 
 197   2.0000      -0.847277       -23.0556 
 198   2.0000      -0.845251       -23.0005 
 199   2.0000      -0.842850       -22.9351 
 200   2.0000      -0.833618       -22.6839 
[...]
 22 C      5.9942     6.0000     0.0058     3.8638     3.8638    -0.0000
 23 C      5.9562     6.0000     0.0438     3.8545     3.8545    -0.0000
 24 C      6.0604     6.0000    -0.0604     3.7355     3.7355    -0.0000
 25 C      5.9726     6.0000     0.0274     3.8630     3.8630    -0.0000
 26 H      0.9507     1.0000     0.0493     0.9903     0.9903    -0.0000
 27 H      0.9335     1.0000     0.0665     0.9819     0.9819    -0.0000
 28 H      0.9531     1.0000     0.0469     0.9904     0.9904    -0.0000
 29 H      1.0061     1.0000    -0.0061     0.9977     0.9977    -0.0000
 30 C      5.9504     6.0000     0.0496     3.6926     3.6926    -0.0000
 31 C      6.0355     6.0000    -0.0355     3.7076     3.7076    -0.0000
 32 C      6.1054     6.0000    -0.1054     3.8438     3.8438    -0.0000
 33 C      5.8866     6.0000     0.1134     3.8686     3.8686    -0.0000
 34 C      6.0215     6.0000    -0.0215     3.9196     3.9196    -0.0000
 35 C      5.8749     6.0000     0.1251     3.8673     3.8673    -0.0000
 36 N      7.2938     7.0000    -0.2938     3.3899     3.3899    -0.0000
 37 C      5.8307     6.0000     0.1693     3.8732     3.8732    -0.0000
 38 H      0.9222     1.0000     0.0778     0.9900     0.9900    -0.0000
 39 H      0.9167     1.0000     0.0833     0.9851     0.9851    -0.0000
 40 H      0.9138     1.0000     0.0862     0.9803     0.9803    -0.0000
 41 H      0.9529     1.0000     0.0471     1.0017     1.0017    -0.0000
 42 C      5.9708     6.0000     0.0292     3.6893     3.6893    -0.0000
 43 C      6.0652     6.0000    -0.0652     3.7083     3.7083    -0.0000
 44 C      6.0093     6.0000    -0.0093     3.7431     3.7431    -0.0000
 45 C      5.9594     6.0000     0.0406     3.8370     3.8370    -0.0000
 46 C      5.9802     6.0000     0.0198     3.8446     3.8446    -0.0000
 47 C      5.9835     6.0000     0.0165     3.8365     3.8365    -0.0000
 48 C      6.0533     6.0000    -0.0533     3.8917     3.8917    -0.0000
 49 C      5.8396     6.0000     0.1604     3.8622     3.8622    -0.0000
 50 N      7.3105     7.0000    -0.3105     3.3650     3.3650    -0.0000
 51 C      5.8680     6.0000     0.1320     3.8419     3.8419    -0.0000
 52 C      5.9901     6.0000     0.0099     3.8969     3.8969    -0.0000
 53 C      5.9400     6.0000     0.0600     3.9532     3.9532    -0.0000
 54 H      0.9390     1.0000     0.0610     0.9904     0.9904    -0.0000
 55 H      0.9255     1.0000     0.0745     0.9815     0.9815    -0.0000
 56 H      0.9585     1.0000     0.0415     0.9912     0.9912    -0.0000
 57 H      0.9430     1.0000     0.0570     0.9986     0.9986    -0.0000
 58 H      0.9500     1.0000     0.0500     0.9867     0.9867    -0.0000
 59 H      0.9651     1.0000     0.0349     1.0144     1.0144    -0.0000
 60 C      6.0517     6.0000    -0.0517     3.7417     3.7417    -0.0000
 61 C      5.9517     6.0000     0.0483     3.8541     3.8541    -0.0000
 62 C      5.9940     6.0000     0.0060     3.8643     3.8643    -0.0000
 63 C      5.9603     6.0000     0.0397     3.8582     3.8582    -0.0000
 64 C      6.0590     6.0000    -0.0590     3.7353     3.7353    -0.0000
 65 C      5.9740     6.0000     0.0260     3.8626     3.8626    -0.0000
 66 H      0.9481     1.0000     0.0519     0.9903     0.9903    -0.0000
 67 H      0.9336     1.0000     0.0664     0.9819     0.9819    -0.0000
 68 H      0.9565     1.0000     0.0435     0.9905     0.9905    -0.0000
 69 H      1.0042     1.0000    -0.0042     0.9975     0.9975    -0.0000
 70 C      5.9432     6.0000     0.0568     3.6935     3.6935    -0.0000
 71 C      6.0478     6.0000    -0.0478     3.7131     3.7131    -0.0000
 72 C      6.1027     6.0000    -0.1027     3.8391     3.8391    -0.0000
 73 C      5.8926     6.0000     0.1074     3.8773     3.8773    -0.0000
 74 C      6.0177     6.0000    -0.0177     3.9257     3.9257    -0.0000
 75 C      5.8779     6.0000     0.1221     3.8671     3.8671    -0.0000
 76 N      7.3000     7.0000    -0.3000     3.3785     3.3785    -0.0000
 77 C      5.8280     6.0000     0.1720     3.8693     3.8693    -0.0000
 78 H      0.9222     1.0000     0.0778     0.9900     0.9900    -0.0000
 79 H      0.9167     1.0000     0.0833     0.9851     0.9851    -0.0000
 80 H      0.9179     1.0000     0.0821     0.9831     0.9831    -0.0000
 81 H      0.9493     1.0000     0.0507     1.0002     1.0002    -0.0000
 82 C      5.9691     6.0000     0.0309     3.6886     3.6886    -0.0000
 83 C      6.0685     6.0000    -0.0685     3.7055     3.7055    -0.0000
 84 C      6.0090     6.0000    -0.0090     3.7383     3.7383    -0.0000
 85 C      5.9610     6.0000     0.0390     3.8397     3.8397    -0.0000
 86 C      5.9800     6.0000     0.0200     3.8445     3.8445    -0.0000
 87 C      5.9869     6.0000     0.0131     3.8356     3.8356    -0.0000
 88 C      6.0451     6.0000    -0.0451     3.8874     3.8874    -0.0000
 89 C      5.8484     6.0000     0.1516     3.8542     3.8542    -0.0000
 90 N      7.3101     7.0000    -0.3101     3.3638     3.3638    -0.0000
 91 C      5.8534     6.0000     0.1466     3.8528     3.8528    -0.0000
 92 C      5.9955     6.0000     0.0045     3.8965     3.8965    -0.0000
 93 C      5.9384     6.0000     0.0616     3.9492     3.9492    -0.0000
 94 H      0.9393     1.0000     0.0607     0.9904     0.9904    -0.0000
 95 H      0.9261     1.0000     0.0739     0.9816     0.9816    -0.0000
 96 H      0.9604     1.0000     0.0396     0.9912     0.9912    -0.0000
 97 H      0.9371     1.0000     0.0629     0.9977     0.9977    -0.0000
 98 H      0.9607     1.0000     0.0393     0.9932     0.9932    -0.0000
 99 H      0.9660     1.0000     0.0340     1.0143     1.0143    -0.0000
100 C      6.0513     6.0000    -0.0513     3.7400     3.7400    -0.0000
101 C      5.9528     6.0000     0.0472     3.8549     3.8549    -0.0000
102 C      5.9943     6.0000     0.0057     3.8641     3.8641    -0.0000
103 C      5.9586     6.0000     0.0414     3.8566     3.8566    -0.0000
104 C      6.0594     6.0000    -0.0594     3.7349     3.7349    -0.0000
105 C      5.9742     6.0000     0.0258     3.8633     3.8633    -0.0000
106 H      0.9491     1.0000     0.0509     0.9903     0.9903    -0.0000
107 H      0.9334     1.0000     0.0666     0.9819     0.9819    -0.0000
108 H      0.9551     1.0000     0.0449     0.9905     0.9905    -0.0000
109 H      1.0044     1.0000    -0.0044     0.9974     0.9974    -0.0000
110 C      5.9464     6.0000     0.0536     3.6931     3.6931    -0.0000
111 C      6.0445     6.0000    -0.0445     3.7118     3.7118    -0.0000
112 C      6.0995     6.0000    -0.0995     3.8360     3.8360    -0.0000
113 C      5.8904     6.0000     0.1096     3.8746     3.8746    -0.0000
114 C      6.0210     6.0000    -0.0210     3.9266     3.9266    -0.0000
115 C      5.8703     6.0000     0.1297     3.8746     3.8746    -0.0000
116 N      7.2983     7.0000    -0.2983     3.3807     3.3807    -0.0000
117 C      5.8372     6.0000     0.1628     3.8627     3.8627    -0.0000
118 H      0.9217     1.0000     0.0783     0.9899     0.9899    -0.0000
119 H      0.9152     1.0000     0.0848     0.9849     0.9849    -0.0000
120 H      0.9260     1.0000     0.0740     0.9871     0.9871    -0.0000
121 H      0.9411     1.0000     0.0589     0.9974     0.9974    -0.0000
122 C      5.9708     6.0000     0.0292     3.6892     3.6892    -0.0000
123 C      6.0653     6.0000    -0.0653     3.7083     3.7083    -0.0000
124 C      6.0093     6.0000    -0.0093     3.7431     3.7431    -0.0000
125 C      5.9593     6.0000     0.0407     3.8370     3.8370    -0.0000
126 C      5.9802     6.0000     0.0198     3.8446     3.8446    -0.0000
127 C      5.9834     6.0000     0.0166     3.8365     3.8365    -0.0000
128 C      6.0532     6.0000    -0.0532     3.8915     3.8915    -0.0000
129 C      5.8398     6.0000     0.1602     3.8623     3.8623    -0.0000
130 N      7.3106     7.0000    -0.3106     3.3646     3.3646    -0.0000
131 C      5.8678     6.0000     0.1322     3.8420     3.8420    -0.0000
132 C      5.9901     6.0000     0.0099     3.8969     3.8969    -0.0000
133 C      5.9400     6.0000     0.0600     3.9532     3.9532    -0.0000
134 H      0.9391     1.0000     0.0609     0.9905     0.9905    -0.0000
135 H      0.9256     1.0000     0.0744     0.9816     0.9816    -0.0000
136 H      0.9585     1.0000     0.0415     0.9912     0.9912    -0.0000
137 H      0.9429     1.0000     0.0571     0.9986     0.9986    -0.0000
138 H      0.9502     1.0000     0.0498     0.9868     0.9868    -0.0000
139 H      0.9652     1.0000     0.0348     1.0144     1.0144    -0.0000
140 C      6.0517     6.0000    -0.0517     3.7417     3.7417    -0.0000
141 C      5.9518     6.0000     0.0482     3.8542     3.8542    -0.0000
142 C      5.9941     6.0000     0.0059     3.8643     3.8643    -0.0000
143 C      5.9603     6.0000     0.0397     3.8582     3.8582    -0.0000
144 C      6.0591     6.0000    -0.0591     3.7353     3.7353    -0.0000
145 C      5.9739     6.0000     0.0261     3.8625     3.8625    -0.0000
146 H      0.9480     1.0000     0.0520     0.9903     0.9903    -0.0000
147 H      0.9336     1.0000     0.0664     0.9819     0.9819    -0.0000
148 H      0.9565     1.0000     0.0435     0.9905     0.9905    -0.0000
149 H      1.0042     1.0000    -0.0042     0.9975     0.9975    -0.0000
150 C      5.9433     6.0000     0.0567     3.6935     3.6935    -0.0000
151 C      6.0476     6.0000    -0.0476     3.7130     3.7130    -0.0000
152 C      6.1026     6.0000    -0.1026     3.8390     3.8390    -0.0000
153 C      5.8926     6.0000     0.1074     3.8773     3.8773    -0.0000
154 C      6.0177     6.0000    -0.0177     3.9256     3.9256    -0.0000
155 C      5.8778     6.0000     0.1222     3.8672     3.8672    -0.0000
156 N      7.3001     7.0000    -0.3001     3.3783     3.3783    -0.0000
157 C      5.8281     6.0000     0.1719     3.8694     3.8694    -0.0000
158 H      0.9222     1.0000     0.0778     0.9900     0.9900    -0.0000
159 H      0.9167     1.0000     0.0833     0.9851     0.9851    -0.0000
160 H      0.9178     1.0000     0.0822     0.9832     0.9832    -0.0000
161 H      0.9494     1.0000     0.0506     1.0003     1.0003    -0.0000

  Mayer bond orders larger than 0.100000
B(  0-Pd, 36-N ) :   0.5457 B(  0-Pd, 50-N ) :   0.5469 B(  0-Pd, 90-N ) :   0.5457 
B(  0-Pd,130-N ) :   0.5464 B(  1-Pd, 10-N ) :   0.5522 B(  1-Pd, 76-N ) :   0.5405 
B(  1-Pd,116-N ) :   0.5418 B(  1-Pd,156-N ) :   0.5403 B(  2-C ,  3-C ) :   2.5998 
B(  2-C , 20-C ) :   0.9972 B(  3-C ,  4-C ) :   1.0006 B(  4-C ,  5-C ) :   1.4352 
B(  4-C , 13-C ) :   1.2325 B(  5-C ,  6-C ) :   1.2716 B(  5-C , 14-H ) :   0.9913 
B(  6-C ,  7-C ) :   1.4685 B(  6-C , 15-H ) :   0.9813 B(  7-C ,  8-C ) :   1.2388 
B(  7-C , 16-H ) :   0.9960 B(  8-C ,  9-C ) :   1.2983 B(  8-C , 13-C ) :   1.2173 
B(  9-C , 10-N ) :   1.4195 B(  9-C , 17-H ) :   0.9545 B( 10-N , 11-C ) :   1.1972 
B( 11-C , 12-C ) :   1.5306 B( 11-C , 18-H ) :   0.9495 B( 12-C , 13-C ) :   1.2948 
B( 12-C , 19-H ) :   0.9564 B( 20-C , 21-C ) :   1.3245 B( 20-C , 25-C ) :   1.3373 
B( 21-C , 22-C ) :   1.3851 B( 21-C , 26-H ) :   0.9954 B( 22-C , 23-C ) :   1.3846 
B( 22-C , 27-H ) :   0.9838 B( 23-C , 24-C ) :   1.3198 B( 23-C , 28-H ) :   0.9964 
B( 24-C , 25-C ) :   1.3289 B( 24-C , 30-C ) :   1.0076 B( 25-C , 29-H ) :   0.9974 
B( 30-C , 31-C ) :   2.5941 B( 31-C , 32-C ) :   1.0227 B( 32-C , 33-C ) :   1.3408 
B( 32-C , 37-C ) :   1.3671 B( 33-C , 34-C ) :   1.4034 B( 33-C , 38-H ) :   0.9865 
B( 34-C , 35-C ) :   1.4199 B( 34-C , 39-H ) :   0.9722 B( 35-C , 36-N ) :   1.3095 
B( 35-C , 40-H ) :   0.9529 B( 36-N , 37-C ) :   1.3379 B( 37-C , 41-H ) :   0.9625 
B( 42-C , 43-C ) :   2.5962 B( 42-C , 60-C ) :   0.9982 B( 43-C , 44-C ) :   1.0033 
B( 44-C , 45-C ) :   1.4311 B( 44-C , 53-C ) :   1.2367 B( 45-C , 46-C ) :   1.2702 
B( 45-C , 54-H ) :   0.9919 B( 46-C , 47-C ) :   1.4708 B( 46-C , 55-H ) :   0.9808 
B( 47-C , 48-C ) :   1.2393 B( 47-C , 56-H ) :   0.9957 B( 48-C , 49-C ) :   1.2883 
B( 48-C , 53-C ) :   1.2240 B( 49-C , 50-N ) :   1.4328 B( 49-C , 57-H ) :   0.9592 
B( 50-N , 51-C ) :   1.1884 B( 51-C , 52-C ) :   1.5370 B( 51-C , 58-H ) :   0.9451 
B( 52-C , 53-C ) :   1.2924 B( 52-C , 59-H ) :   0.9556 B( 60-C , 61-C ) :   1.3260 
B( 60-C , 65-C ) :   1.3374 B( 61-C , 62-C ) :   1.3819 B( 61-C , 66-H ) :   0.9957 
B( 62-C , 63-C ) :   1.3884 B( 62-C , 67-H ) :   0.9839 B( 63-C , 64-C ) :   1.3183 
B( 63-C , 68-H ) :   0.9960 B( 64-C , 65-C ) :   1.3290 B( 64-C , 70-C ) :   1.0099 
B( 65-C , 69-H ) :   0.9974 B( 70-C , 71-C ) :   2.5935 B( 71-C , 72-C ) :   1.0272 
B( 72-C , 73-C ) :   1.3465 B( 72-C , 77-C ) :   1.3546 B( 73-C , 74-C ) :   1.4049 
B( 73-C , 78-H ) :   0.9859 B( 74-C , 75-C ) :   1.4240 B( 74-C , 79-H ) :   0.9721 
B( 75-C , 76-N ) :   1.3012 B( 75-C , 80-H ) :   0.9491 B( 76-N , 77-C ) :   1.3452 
B( 77-C , 81-H ) :   0.9660 B( 82-C , 83-C ) :   2.5966 B( 82-C ,100-C ) :   0.9980 
B( 83-C , 84-C ) :   1.0012 B( 84-C , 85-C ) :   1.4341 B( 84-C , 93-C ) :   1.2330 
B( 85-C , 86-C ) :   1.2692 B( 85-C , 94-H ) :   0.9918 B( 86-C , 87-C ) :   1.4718 
B( 86-C , 95-H ) :   0.9810 B( 87-C , 88-C ) :   1.2368 B( 87-C , 96-H ) :   0.9962 
B( 88-C , 89-C ) :   1.2936 B( 88-C , 93-C ) :   1.2209 B( 89-C , 90-N ) :   1.4175 
B( 89-C , 97-H ) :   0.9557 B( 90-N , 91-C ) :   1.2050 B( 91-C , 92-C ) :   1.5313 
B( 91-C , 98-H ) :   0.9480 B( 92-C , 93-C ) :   1.2960 B( 92-C , 99-H ) :   0.9565 
B(100-C ,101-C ) :   1.3253 B(100-C ,105-C ) :   1.3373 B(101-C ,102-C ) :   1.3830 
B(101-C ,106-H ) :   0.9956 B(102-C ,103-C ) :   1.3871 B(102-C ,107-H ) :   0.9838 
B(103-C ,104-C ) :   1.3183 B(103-C ,108-H ) :   0.9962 B(104-C ,105-C ) :   1.3290 
B(104-C ,110-C ) :   1.0093 B(105-C ,109-H ) :   0.9976 B(110-C ,111-C ) :   2.5940 
B(111-C ,112-C ) :   1.0246 B(112-C ,113-C ) :   1.3418 B(112-C ,117-C ) :   1.3613 
B(113-C ,114-C ) :   1.4078 B(113-C ,118-H ) :   0.9861 B(114-C ,115-C ) :   1.4195 
B(114-C ,119-H ) :   0.9724 B(115-C ,116-N ) :   1.3131 B(115-C ,120-H ) :   0.9545 
B(116-N ,117-C ) :   1.3318 B(117-C ,121-H ) :   0.9619 B(122-C ,123-C ) :   2.5961 
B(122-C ,140-C ) :   0.9982 B(123-C ,124-C ) :   1.0034 B(124-C ,125-C ) :   1.4310 
B(124-C ,133-C ) :   1.2367 B(125-C ,126-C ) :   1.2702 B(125-C ,134-H ) :   0.9919 
B(126-C ,127-C ) :   1.4708 B(126-C ,135-H ) :   0.9808 B(127-C ,128-C ) :   1.2393 
B(127-C ,136-H ) :   0.9957 B(128-C ,129-C ) :   1.2883 B(128-C ,133-C ) :   1.2239 
B(129-C ,130-N ) :   1.4328 B(129-C ,137-H ) :   0.9592 B(130-N ,131-C ) :   1.1886 
B(131-C ,132-C ) :   1.5369 B(131-C ,138-H ) :   0.9451 B(132-C ,133-C ) :   1.2925 
B(132-C ,139-H ) :   0.9557 B(140-C ,141-C ) :   1.3260 B(140-C ,145-C ) :   1.3374 
B(141-C ,142-C ) :   1.3820 B(141-C ,146-H ) :   0.9956 B(142-C ,143-C ) :   1.3884 
B(142-C ,147-H ) :   0.9839 B(143-C ,144-C ) :   1.3183 B(143-C ,148-H ) :   0.9960 
B(144-C ,145-C ) :   1.3288 B(144-C ,150-C ) :   1.0101 B(145-C ,149-H ) :   0.9974 
B(150-C ,151-C ) :   2.5934 B(151-C ,152-C ) :   1.0272 B(152-C ,153-C ) :   1.3464 
B(152-C ,157-C ) :   1.3547 B(153-C ,154-C ) :   1.4051 B(153-C ,158-H ) :   0.9859 
B(154-C ,155-C ) :   1.4238 B(154-C ,159-H ) :   0.9721 B(155-C ,156-N ) :   1.3015 
B(155-C ,160-H ) :   0.9491 B(156-N ,157-C ) :   1.3451 B(157-C ,161-H ) :   0.9660 


-------
TIMINGS
-------

Total SCF time: 0 days 0 hours 13 min 54 sec 

Total time                  ....     834.282 sec
Sum of individual times     ....     828.268 sec  ( 99.3%)

Fock matrix formation       ....     675.766 sec  ( 81.0%)
  XC integration            ....      28.447 sec  (  4.2% of F)
    Basis function eval.    ....       6.656 sec  ( 23.4% of XC)
    Density eval.           ....       9.634 sec  ( 33.9% of XC)
    XC-Functional eval.     ....       0.898 sec  (  3.2% of XC)
    XC-Potential eval.      ....       4.019 sec  ( 14.1% of XC)
Diagonalization             ....      18.469 sec  (  2.2%)
Density matrix formation    ....       1.063 sec  (  0.1%)
Population analysis         ....       4.862 sec  (  0.6%)
Initial guess               ....      25.951 sec  (  3.1%)
Orbital Transformation      ....       0.000 sec  (  0.0%)
Orbital Orthonormalization  ....       0.000 sec  (  0.0%)
DIIS solution               ....      68.443 sec  (  8.2%)
Grid generation             ....      33.713 sec  (  4.0%)


-------------------------------------------------------------------------------
                          DFT DISPERSION CORRECTION                            
                                                                               
                              DFTD3 V3.1  Rev 1                                
                          USING Becke-Johnson damping                          
-------------------------------------------------------------------------------
The PBE0 functional is recognized
Active option DFTDOPT                   ...         4   

molecular C6(AA) [au] = 419969.927953 


            DFT-D V3
 parameters
 s6 scaling factor         :     1.0000 
 a1 scaling factor         :     0.4145 
 s8 scaling factor         :     1.2177 
 a2 scaling factor         :     4.8593 
 ad hoc parameters k1-k3   :    16.0000     1.3333    -4.0000 

 Edisp/kcal,au: -156.358143299447  -0.249172535369 
 E6   /kcal   : -96.433322349 
 E8   /kcal   : -59.924820951 
 % E8         :  38.325359771 

-------------------------   ----------------
Dispersion correction           -0.249172535
-------------------------   ----------------


-------------------------   --------------------
FINAL SINGLE POINT ENERGY     -4376.841760182503
-------------------------   --------------------


                            ***************************************
                            *     ORCA property calculations      *
                            ***************************************

                                    ---------------------
                                    Active property flags
                                    ---------------------
   (+) Dipole Moment


------------------------------------------------------------------------------
                       ORCA ELECTRIC PROPERTIES CALCULATION
------------------------------------------------------------------------------

Dipole Moment Calculation                       ... on
Quadrupole Moment Calculation                   ... off
Polarizability Calculation                      ... off
GBWName                                         ... _s_5d3_b_PBE0.gbw
Electron density file                           ... _s_5d3_b_PBE0.scfp
The origin for moment calculation is the CENTER OF MASS  = ( 0.638132,  0.936328 -0.078822)

-------------
DIPOLE MOMENT
-------------
                                X             Y             Z
Electronic contribution:     17.74486     -43.08995       0.52962
Nuclear contribution   :    -17.75861      41.66040      -0.56370
                        -----------------------------------------
Total Dipole Moment    :     -0.01376      -1.42955      -0.03408
                        -----------------------------------------
Magnitude (a.u.)       :      1.43003
Magnitude (Debye)      :      3.63484



--------------------
Rotational spectrum 
--------------------
 
Rotational constants in cm-1:     0.000410     0.000304     0.000303 
Rotational constants in MHz :    12.298352     9.106254     9.074545 

 Dipole components along the rotational axes: 
x,y,z [a.u.] :    -1.416752     0.056945    -0.185868 
x,y,z [Debye]:    -3.601097     0.144743    -0.472439 

 

Timings for individual modules:

Sum of individual times         ...      859.639 sec (=  14.327 min)
GTO integral calculation        ...       16.601 sec (=   0.277 min)   1.9 %
SCF iterations                  ...      843.038 sec (=  14.051 min)  98.1 %
                             ****ORCA TERMINATED NORMALLY****
TOTAL RUN TIME: 0 days 0 hours 14 minutes 32 seconds 630 msec
