Job execution start: Tue Jun 22 09:35:23 BST 2021
Shared library path: /work/e05/e05/atarzia/orca_4_2_1_linux_x86-64_openmpi314:/work/e05/e05/atarzia/openmpi-3.1.4/lib:/opt/cray/pe/papi/6.0.0.4/lib64:/opt/cray/libfabric/1.11.0.0.233/lib64
Slurm Job ID is: 344293
Slurm Job name is: s_5d3_c_PBE0
nid001904

                                 *****************
                                 * O   R   C   A *
                                 *****************

           --- An Ab Initio, DFT and Semiempirical electronic structure package ---

                  #######################################################
                  #                        -***-                        #
                  #          Department of theory and spectroscopy      #
                  #               Directorship: Frank Neese             #
                  #        Max Planck Institute fuer Kohlenforschung    #
                  #                Kaiser Wilhelm Platz 1               #
                  #                 D-45470 Muelheim/Ruhr               #
                  #                      Germany                        #
                  #                                                     #
                  #                  All rights reserved                #
                  #                        -***-                        #
                  #######################################################


                         Program Version 4.2.1 -  RELEASE  -


 With contributions from (in alphabetic order):
   Daniel Aravena         : Magnetic Suceptibility
   Michael Atanasov       : Ab Initio Ligand Field Theory (pilot matlab implementation)
   Alexander A. Auer      : GIAO ZORA, VPT2
   Ute Becker             : Parallelization
   Giovanni Bistoni       : ED, misc. LED, open-shell LED, HFLD
   Martin Brehm           : Molecular dynamics
   Dmytro Bykov           : SCF Hessian
   Vijay G. Chilkuri      : MRCI spin determinant printing, contributions to CSF-ICE
   Dipayan Datta          : RHF DLPNO-CCSD density
   Achintya Kumar Dutta   : EOM-CC, STEOM-CC
   Dmitry Ganyushin       : Spin-Orbit,Spin-Spin,Magnetic field MRCI
   Miquel Garcia          : C-PCM Hessian, Gaussian charge scheme
   Yang Guo               : DLPNO-NEVPT2, CIM, IAO-localization
   Andreas Hansen         : Spin unrestricted coupled pair/coupled cluster methods
   Benjamin Helmich-Paris : CASSCF linear response (MC-RPA)
   Lee Huntington         : MR-EOM, pCC
   Robert Izsak           : Overlap fitted RIJCOSX, COSX-SCS-MP3, EOM
   Christian Kollmar      : KDIIS, OOCD, Brueckner-CCSD(T), CCSD density
   Simone Kossmann        : Meta GGA functionals, TD-DFT gradient, OOMP2, MP2 Hessian
   Martin Krupicka        : AUTO-CI
   Lucas Lang             : DCDCAS
   Dagmar Lenk            : GEPOL surface, SMD
   Dimitrios Liakos       : Extrapolation schemes; Compound Job, initial MDCI parallelization
   Dimitrios Manganas     : Further ROCIS development; embedding schemes
   Dimitrios Pantazis     : SARC Basis sets
   Taras Petrenko         : DFT Hessian,TD-DFT gradient, ASA, ECA, R-Raman, ABS, FL, XAS/XES, NRVS
   Peter Pinski           : DLPNO-MP2, DLPNO-MP2 Gradient
   Christoph Reimann      : Effective Core Potentials
   Marius Retegan         : Local ZFS, SOC
   Christoph Riplinger    : Optimizer, TS searches, QM/MM, DLPNO-CCSD(T), (RO)-DLPNO pert. Triples
   Tobias Risthaus        : Range-separated hybrids, TD-DFT gradient, RPA, STAB
   Michael Roemelt        : Original ROCIS implementation
   Masaaki Saitow         : Open-shell DLPNO-CCSD energy and density
   Barbara Sandhoefer     : DKH picture change effects
   Avijit Sen             : IP-ROCIS
   Kantharuban Sivalingam : CASSCF convergence, NEVPT2, FIC-MRCI
   Bernardo de Souza      : ESD, SOC TD-DFT
   Georgi Stoychev        : AutoAux, RI-MP2 NMR
   Willem Van den Heuvel  : Paramagnetic NMR
   Boris Wezisla          : Elementary symmetry handling
   Frank Wennmohs         : Technical directorship


 We gratefully acknowledge several colleagues who have allowed us to
 interface, adapt or use parts of their codes:
   Stefan Grimme, W. Hujo, H. Kruse,             : VdW corrections, initial TS optimization,
                  C. Bannwarth                     DFT functionals, gCP, sTDA/sTD-DF
   Ed Valeev, F. Pavosevic, A. Kumar             : LibInt (2-el integral package), F12 methods
   Garnet Chan, S. Sharma, J. Yang, R. Olivares  : DMRG
   Ulf Ekstrom                                   : XCFun DFT Library
   Mihaly Kallay                                 : mrcc  (arbitrary order and MRCC methods)
   Andreas Klamt, Michael Diedenhofen            : otool_cosmo (COSMO solvation model)
   Jiri Pittner, Ondrej Demel                    : Mk-CCSD
   Frank Weinhold                                : gennbo (NPA and NBO analysis)
   Christopher J. Cramer and Donald G. Truhlar   : smd solvation model
   Lars Goerigk                                  : TD-DFT with DH, B97 family of functionals
   V. Asgeirsson, H. Jonsson                     : NEB implementation
   FAccTs GmbH                                   : IRC, NEB, NEB-TS, Multilevel, MM, QM/MM, CI optimization
   S Lehtola, MJT Oliveira, MAL Marques          : LibXC Library


 Your calculation uses the libint2 library for the computation of 2-el integrals
 For citations please refer to: http://libint.valeyev.net

 Your ORCA version has been built with support for libXC version: 4.2.3
 For citations please refer to: https://tddft.org/programs/libxc/

 This ORCA versions uses:
   CBLAS   interface :  Fast vector & matrix operations
   LAPACKE interface :  Fast linear algebra routines
   SCALAPACK package :  Parallel linear algebra routines




***************************************
The coordinates will be read from file: s_5d3_c.xyz
***************************************


Your calculation utilizes the atom-pairwise dispersion correction
with the Becke-Johnson damping scheme (D3BJ)
Cite in your paper:
S.Grimme, S.Ehrlich, L.Goerigk, J Comput Chem, (2011), 32, 1456–1465 
S.Grimme, J.Antony, S.Ehrlich and H.Krieg, J.Chem.Phys., 132, (2010), 154104 
   

----- Orbital basis set information -----
Your calculation utilizes the basis: def2-SVP
   F. Weigend and R. Ahlrichs, Phys. Chem. Chem. Phys. 7, 3297 (2005).

cite the ECPs for Pd [Def2-ECP] as follows:
Ce-Yb(ecp-28): M. Dolg, H. Stoll, H.Preuss, J. Chem. Phys., 1989, 90, 1730-1734.
Y-Cd(ecp-28), Hf-Hg(ecp-46): D. Andrae,U. Haeussermann, M. Dolg, H. Stoll, H. Preuss, Theor. Chim. Acta, 1990, 77, 123-141.
In-Sb(ecp-28), Tl-Bi(ecp-46): B. Metz, H. Stoll, M. Dolg, J. Chem. Phys., 2000, 113, 2563-2569.
Te-Xe(ecp-28), Po-Rn(ecp-46): K. A. Peterson, D. Figgen, E. Goll, H. Stoll, M. Dolg, J. Chem. Phys., 2003, 119, 11113-11123.
Rb(ecp-28), Cs(ecp-46): T. Leininger, A. Nicklass, W. Kuechle, H. Stoll, M. Dolg, A. Bergner, Chem. Phys. Lett., 1996, 255, 274-280.
Sr(ecp-28), Ba(ecp-46): M. Kaupp, P. V. Schleyer, H. Stoll and H. Preuss, J. Chem. Phys., 1991, 94, 1360-1366.
La(ecp-46): M. Dolg, H. Stoll, A. Savin, H. Preuss, Theor. Chim. Acta, 1989, 75, 173-194.
Lu(ecp-28): X. Cao, M. Dolg, J. Chem. Phys., 2001, 115, 7348-7355.

ECP parameters for Pd [Def2-ECP] have been obtained from:
TURBOMOLE (7.0.2)

================================================================================
                                        WARNINGS
                       Please study these warnings very carefully!
================================================================================


INFO   : the flag for use of LIBINT has been found!

================================================================================
                                       INPUT FILE
================================================================================
NAME = s_5d3_c_PBE0.in
|  1> ! DFT SP RKS PBE0 def2-SVP D3BJ Grid6 NOFINALGRID SlowConv TightSCF printbasis 
|  2> 
|  3> %base "_s_5d3_c_PBE0"
|  4> %maxcore 3000
|  5> %scf
|  6>    MaxIter 2000
|  7> end
|  8> %pal
|  9>    nprocs 32
| 10> end
| 11> 
| 12> * xyzfile 4 1 s_5d3_c.xyz
| 13> 
| 14>                          ****END OF INPUT****
================================================================================

                       ****************************
                       * Single Point Calculation *
                       ****************************

---------------------------------
CARTESIAN COORDINATES (ANGSTROEM)
---------------------------------
  Pd    -0.072000    5.481600   -0.295400
  Pd     0.174200   -5.409300   -0.569200
  C      6.955300   -1.498900   -0.039000
  C      6.590300   -2.651400   -0.040800
  C      6.162700   -3.993200   -0.018500
  C      7.067400   -5.018200    0.196300
  C      6.648900   -6.353200    0.243300
  C      5.328000   -6.684000    0.084700
  C      4.374300   -5.668100   -0.140500
  C      3.003400   -5.942700   -0.300200
  N      2.111100   -4.999800   -0.517300
  C      2.497000   -3.702700   -0.605500
  C      3.801900   -3.328600   -0.452700
  C      4.786700   -4.306400   -0.204200
  H      8.111900   -4.782000    0.332700
  H      7.384300   -7.124800    0.411900
  H      5.009600   -7.713300    0.129100
  H      2.642500   -6.967500   -0.244700
  H      1.704400   -2.985000   -0.807400
  H      4.097700   -2.294000   -0.519900
  C      7.376300   -0.152100   -0.034600
  C      8.739700    0.156900    0.016200
  C      9.148800    1.478700    0.021800
  C      8.219900    2.503200   -0.023200
  C      6.854900    2.202100   -0.072400
  C      6.433900    0.873500   -0.077300
  H      9.467900   -0.639400    0.050000
  H     10.202600    1.712200    0.060900
  H      8.543600    3.532900   -0.019300
  H      5.381200    0.642000   -0.113400
  C      5.903500    3.241800   -0.124600
  C      5.076700    4.121900   -0.177000
  C      4.140600    5.170000   -0.262400
  C      4.555500    6.498600   -0.430400
  C      3.600100    7.493800   -0.531600
  C      2.258300    7.152200   -0.466400
  N      1.866500    5.886100   -0.298200
  C      2.768300    4.912600   -0.195500
  H      5.607800    6.730700   -0.482500
  H      3.890600    8.523500   -0.663200
  H      1.474300    7.902000   -0.550200
  H      2.391500    3.901500   -0.054900
  C      0.190900   -1.811700    6.402900
  C      0.259900   -2.944200    5.985500
  C      0.365100   -4.261600    5.498400
  C      0.583200   -5.318400    6.364800
  C      0.713000   -6.628300    5.888400
  C      0.634700   -6.901700    4.547400
  C      0.408800   -5.852200    3.631100
  C      0.329200   -6.067200    2.242700
  N      0.111800   -5.093000    1.384700
  C     -0.056100   -3.821300    1.824900
  C      0.015200   -3.504000    3.151700
  C      0.261200   -4.516000    4.101800
  H      0.657400   -5.127000    7.424700
  H      0.881500   -7.426200    6.595200
  H      0.742800   -7.911500    4.184700
  H      0.450400   -7.069900    1.838300
  H     -0.252800   -3.075900    1.056900
  H     -0.115000   -2.489000    3.490900
  C      0.113800   -0.488200    6.886100
  C      0.087300   -0.244500    8.263300
  C      0.013500    1.054600    8.733900
  C     -0.035200    2.120500    7.853000
  C     -0.007300    1.884900    6.474600
  C      0.067800    0.579600    5.991900
  H      0.123600   -1.073400    8.954100
  H     -0.006900    1.237600    9.798100
  H     -0.093100    3.132300    8.224500
  H      0.091000    0.398700    4.929000
  C     -0.063100    2.966700    5.571600
  C     -0.117600    3.883000    4.785300
  C     -0.208000    4.970400    3.895700
  C     -0.453200    6.269300    4.363000
  C     -0.557000    7.303800    3.450600
  C     -0.418200    7.029800    2.098800
  N     -0.176400    5.792300    1.657500
  C     -0.069600    4.782100    2.517500
  H     -0.561600    6.448400    5.421300
  H     -0.747100    8.311900    3.781600
  H     -0.501300    7.812000    1.347100
  H      0.132600    3.797100    2.101600
  C     -6.856800    1.569600   -0.770800
  C     -6.491800    2.722100   -0.773000
  C     -6.064600    4.064000   -0.799900
  C     -6.971600    5.088600   -1.006700
  C     -6.553800    6.423600   -1.058800
  C     -5.231500    6.754700   -0.913100
  C     -4.275500    5.739300   -0.696100
  C     -2.903300    6.014300   -0.549000
  N     -2.008800    5.071800   -0.339200
  C     -2.393600    3.774600   -0.246900
  C     -3.699800    3.400100   -0.387500
  C     -4.687000    4.377500   -0.627500
  H     -8.017300    4.852100   -1.133000
  H     -7.290800    7.195000   -1.221000
  H     -4.913600    7.784000   -0.961400
  H     -2.543100    7.039200   -0.608500
  H     -1.599000    3.057100   -0.052100
  H     -3.994700    2.365500   -0.316900
  C     -7.277600    0.222700   -0.771400
  C     -8.641500   -0.086500   -0.803800
  C     -9.050500   -1.408400   -0.806000
  C     -8.120800   -2.432800   -0.775900
  C     -6.755300   -2.131400   -0.745000
  C     -6.334600   -0.802800   -0.743400
  H     -9.370300    0.709700   -0.825900
  H    -10.104600   -1.642000   -0.830900
  H     -8.444400   -3.462500   -0.777200
  H     -5.281500   -0.571100   -0.721700
  C     -5.803200   -3.171100   -0.707100
  C     -4.975500   -4.050900   -0.666600
  C     -4.038600   -5.099200   -0.593100
  C     -4.452300   -6.429000   -0.431000
  C     -3.496100   -7.424300   -0.339400
  C     -2.154600   -7.081600   -0.407800
  N     -1.764000   -5.814500   -0.570800
  C     -2.666700   -4.840900   -0.664700
  H     -5.504200   -6.661800   -0.375600
  H     -3.785600   -8.454900   -0.212500
  H     -1.370100   -7.831600   -0.330700
  H     -2.290900   -3.829000   -0.801800
  C     -0.062600    1.887500   -7.270200
  C     -0.139000    3.019200   -6.852100
  C     -0.252300    4.335700   -6.364200
  C     -0.472200    5.392300   -7.230400
  C     -0.609100    6.701100   -6.753200
  C     -0.536100    6.973700   -5.411700
  C     -0.308600    5.924300   -4.495700
  C     -0.233300    6.138500   -3.106900
  N     -0.014100    5.164500   -2.249100
  C      0.159100    3.893700   -2.689800
  C      0.092500    3.577200   -4.017000
  C     -0.154300    4.589200   -4.967000
  H     -0.542000    5.201600   -8.290600
  H     -0.779000    7.499000   -7.459700
  H     -0.649600    7.982700   -5.048400
  H     -0.359200    7.140500   -2.702100
  H      0.356000    3.148300   -1.921800
  H      0.227200    2.562900   -4.356700
  C      0.023900    0.564300   -7.752600
  C      0.066200    0.320300   -9.129400
  C      0.149600   -0.978700   -9.598700
  C      0.192400   -2.044200   -8.717000
  C      0.148800   -1.808300   -7.339000
  C      0.063900   -0.503200   -6.857700
  H      0.034400    1.148900   -9.820800
  H      0.182200   -1.161800  -10.662500
  H      0.258000   -3.055800   -9.087600
  H      0.028400   -0.322100   -5.795100
  C      0.198300   -2.889800   -6.435300
  C      0.247200   -3.805900   -5.648500
  C      0.332300   -4.893800   -4.758900
  C      0.582000   -6.192000   -5.225900
  C      0.680500   -7.227400   -4.314000
  C      0.532400   -6.954900   -2.962900
  N      0.286200   -5.718100   -2.521900
  C      0.184000   -4.707100   -3.381600
  H      0.697900   -6.369800   -6.283700
  H      0.873900   -8.234900   -4.644800
  H      0.611500   -7.737900   -2.211500
  H     -0.022300   -3.722900   -2.966000

----------------------------
CARTESIAN COORDINATES (A.U.)
----------------------------
  NO LB      ZA    FRAG     MASS         X           Y           Z
   0 Pd   18.0000*   0   106.400   -0.136060   10.358723   -0.558225
   1 Pd   18.0000*   0   106.400    0.329190  -10.222096   -1.075632
   2 C     6.0000    0    12.011   13.143612   -2.832511   -0.073699
   3 C     6.0000    0    12.011   12.453862   -5.010420   -0.077101
   4 C     6.0000    0    12.011   11.645815   -7.546054   -0.034960
   5 C     6.0000    0    12.011   13.355450   -9.483024    0.370953
   6 C     6.0000    0    12.011   12.564600  -12.005808    0.459770
   7 C     6.0000    0    12.011   10.068461  -12.630929    0.160060
   8 C     6.0000    0    12.011    8.266229  -10.711157   -0.265507
   9 C     6.0000    0    12.011    5.675603  -11.230075   -0.567296
  10 N     7.0000    0    14.007    3.989401   -9.448253   -0.977555
  11 C     6.0000    0    12.011    4.718646   -6.997089   -1.144229
  12 C     6.0000    0    12.011    7.184550   -6.290142   -0.855479
  13 C     6.0000    0    12.011    9.045552   -8.137917   -0.385882
  14 H     1.0000    0     1.008   15.329269   -9.036670    0.628712
  15 H     1.0000    0     1.008   13.954305  -13.463921    0.778378
  16 H     1.0000    0     1.008    9.466772  -14.576025    0.243964
  17 H     1.0000    0     1.008    4.993601  -13.166667   -0.462416
  18 H     1.0000    0     1.008    3.220849   -5.640833   -1.525765
  19 H     1.0000    0     1.008    7.743531   -4.335032   -0.982469
  20 C     6.0000    0    12.011   13.939187   -0.287427   -0.065385
  21 C     6.0000    0    12.011   16.515639    0.296498    0.030614
  22 C     6.0000    0    12.011   17.288726    2.794338    0.041196
  23 C     6.0000    0    12.011   15.533360    4.730362   -0.043842
  24 C     6.0000    0    12.011   12.953884    4.161366   -0.136816
  25 C     6.0000    0    12.011   12.158309    1.650676   -0.146076
  26 H     1.0000    0     1.008   17.891738   -1.208291    0.094486
  27 H     1.0000    0     1.008   19.280120    3.235589    0.115084
  28 H     1.0000    0     1.008   16.145064    6.676213   -0.036472
  29 H     1.0000    0     1.008   10.168994    1.213204   -0.214295
  30 C     6.0000    0    12.011   11.155998    6.126114   -0.235460
  31 C     6.0000    0    12.011    9.593573    7.789262   -0.334482
  32 C     6.0000    0    12.011    7.824600    9.769884   -0.495864
  33 C     6.0000    0    12.011    8.608647   12.280574   -0.813338
  34 C     6.0000    0    12.011    6.803203   14.161230   -1.004578
  35 C     6.0000    0    12.011    4.267569   13.515699   -0.881368
  36 N     7.0000    0    14.007    3.527174   11.123117   -0.563516
  37 C     6.0000    0    12.011    5.231329    9.283469   -0.369441
  38 H     1.0000    0     1.008   10.597206   12.719180   -0.911793
  39 H     1.0000    0     1.008    7.352168   16.107081   -1.253266
  40 H     1.0000    0     1.008    2.786023   14.932616   -1.039727
  41 H     1.0000    0     1.008    4.519280    7.372767   -0.103746
  42 C     6.0000    0    12.011    0.360749   -3.423617   12.099727
  43 C     6.0000    0    12.011    0.491140   -5.563732   11.310956
  44 C     6.0000    0    12.011    0.689939   -8.053257   10.390470
  45 C     6.0000    0    12.011    1.102088  -10.050319   12.027729
  46 C     6.0000    0    12.011    1.347375  -12.525672   11.127463
  47 C     6.0000    0    12.011    1.199409  -13.042323    8.593341
  48 C     6.0000    0    12.011    0.772520  -11.059055    6.861785
  49 C     6.0000    0    12.011    0.622098  -11.465346    4.238089
  50 N     7.0000    0    14.007    0.211271   -9.624375    2.616704
  51 C     6.0000    0    12.011   -0.106014   -7.221210    3.448561
  52 C     6.0000    0    12.011    0.028724   -6.621600    5.955850
  53 C     6.0000    0    12.011    0.493596   -8.534003    7.751279
  54 H     1.0000    0     1.008    1.242306   -9.688626   14.030650
  55 H     1.0000    0     1.008    1.665794  -14.033484   12.463122
  56 H     1.0000    0     1.008    1.403689  -14.950568    7.907937
  57 H     1.0000    0     1.008    0.851133  -13.360175    3.473884
  58 H     1.0000    0     1.008   -0.477723   -5.812609    1.997252
  59 H     1.0000    0     1.008   -0.217319   -4.703528    6.596845
  60 C     6.0000    0    12.011    0.215051   -0.922564   13.012843
  61 C     6.0000    0    12.011    0.164973   -0.462038   15.615374
  62 C     6.0000    0    12.011    0.025511    1.992905   16.504679
  63 C     6.0000    0    12.011   -0.066518    4.007164   14.840019
  64 C     6.0000    0    12.011   -0.013795    3.561945   12.235221
  65 C     6.0000    0    12.011    0.128123    1.095285   11.323050
  66 H     1.0000    0     1.008    0.233570   -2.028432   16.920797
  67 H     1.0000    0     1.008   -0.013039    2.338725   18.515726
  68 H     1.0000    0     1.008   -0.175934    5.919189   15.542053
  69 H     1.0000    0     1.008    0.171965    0.753434    9.314460
  70 C     6.0000    0    12.011   -0.119242    5.606251   10.528798
  71 C     6.0000    0    12.011   -0.222232    7.337807    9.042906
  72 C     6.0000    0    12.011   -0.393063    9.392695    7.361806
  73 C     6.0000    0    12.011   -0.856424   11.847260    8.244875
  74 C     6.0000    0    12.011   -1.052577   13.802182    6.520689
  75 C     6.0000    0    12.011   -0.790283   13.284397    3.966157
  76 N     7.0000    0    14.007   -0.333348   10.945861    3.132221
  77 C     6.0000    0    12.011   -0.131525    9.036859    4.757386
  78 H     1.0000    0     1.008   -1.061270   12.185710   10.244772
  79 H     1.0000    0     1.008   -1.411814   15.707215    7.146188
  80 H     1.0000    0     1.008   -0.947320   14.762541    2.545650
  81 H     1.0000    0     1.008    0.250578    7.175479    3.971448
  82 C     6.0000    0    12.011  -12.957474    2.966114   -1.456601
  83 C     6.0000    0    12.011  -12.267724    5.144024   -1.460758
  84 C     6.0000    0    12.011  -11.460433    7.679847   -1.511592
  85 C     6.0000    0    12.011  -13.174415    9.616060   -1.902387
  86 C     6.0000    0    12.011  -12.384887   12.138845   -2.000842
  87 C     6.0000    0    12.011   -9.886102   12.764533   -1.725509
  88 C     6.0000    0    12.011   -8.079524   10.845705   -1.315438
  89 C     6.0000    0    12.011   -5.486442   11.365380   -1.037460
  90 N     7.0000    0    14.007   -3.796082    9.584313   -0.640995
  91 C     6.0000    0    12.011   -4.523248    7.132960   -0.466573
  92 C     6.0000    0    12.011   -6.991609    6.425258   -0.732269
  93 C     6.0000    0    12.011   -8.857146    8.272276   -1.185803
  94 H     1.0000    0     1.008  -15.150501    9.169140   -2.141060
  95 H     1.0000    0     1.008  -13.777615   13.596580   -2.307356
  96 H     1.0000    0     1.008   -9.285358   14.709628   -1.816783
  97 H     1.0000    0     1.008   -4.805763   13.302160   -1.149898
  98 H     1.0000    0     1.008   -3.021672    5.777082   -0.098455
  99 H     1.0000    0     1.008   -7.548889    4.470147   -0.598854
 100 C     6.0000    0    12.011  -13.752671    0.420842   -1.457735
 101 C     6.0000    0    12.011  -16.330068   -0.163461   -1.518962
 102 C     6.0000    0    12.011  -17.102966   -2.661490   -1.523119
 103 C     6.0000    0    12.011  -15.346088   -4.597326   -1.466239
 104 C     6.0000    0    12.011  -12.765667   -4.027762   -1.407846
 105 C     6.0000    0    12.011  -11.970659   -1.517072   -1.404822
 106 H     1.0000    0     1.008  -17.707301    1.341139   -1.560725
 107 H     1.0000    0     1.008  -19.094927   -3.102930   -1.570173
 108 H     1.0000    0     1.008  -15.957603   -6.543177   -1.468695
 109 H     1.0000    0     1.008   -9.980589   -1.079223   -1.363815
 110 C     6.0000    0    12.011  -10.966459   -5.992511   -1.336225
 111 C     6.0000    0    12.011   -9.402332   -7.655092   -1.259691
 112 C     6.0000    0    12.011   -7.631848   -9.636092   -1.120797
 113 C     6.0000    0    12.011   -8.413628  -12.149049   -0.814472
 114 C     6.0000    0    12.011   -6.606672  -14.029894   -0.641373
 115 C     6.0000    0    12.011   -4.071604  -13.382285   -0.770630
 116 N     7.0000    0    14.007   -3.333477  -10.987813   -1.078656
 117 C     6.0000    0    12.011   -5.039333   -9.147975   -1.256101
 118 H     1.0000    0     1.008  -10.401431  -12.588978   -0.709781
 119 H     1.0000    0     1.008   -7.153747  -15.977445   -0.401567
 120 H     1.0000    0     1.008   -2.589114  -14.799579   -0.624932
 121 H     1.0000    0     1.008   -4.329174   -7.235761   -1.515182
 122 C     6.0000    0    12.011   -0.118297    3.566858  -13.738687
 123 C     6.0000    0    12.011   -0.262672    5.705461  -12.948592
 124 C     6.0000    0    12.011   -0.476778    8.193286  -12.026595
 125 C     6.0000    0    12.011   -0.892329   10.189970  -13.663476
 126 C     6.0000    0    12.011   -1.151032   12.663244  -12.761699
 127 C     6.0000    0    12.011   -1.013082   13.178383  -10.226631
 128 C     6.0000    0    12.011   -0.583169   11.195305   -8.495642
 129 C     6.0000    0    12.011   -0.440873   11.600084   -5.871190
 130 N     7.0000    0    14.007   -0.026645    9.759491   -4.250183
 131 C     6.0000    0    12.011    0.300655    7.358027   -5.082985
 132 C     6.0000    0    12.011    0.174800    6.759928   -7.591030
 133 C     6.0000    0    12.011   -0.291585    8.672331   -9.386270
 134 H     1.0000    0     1.008   -1.024232    9.829599  -15.666963
 135 H     1.0000    0     1.008   -1.472097   14.171056  -14.096790
 136 H     1.0000    0     1.008   -1.227566   15.085117   -9.540093
 137 H     1.0000    0     1.008   -0.678790   13.493589   -5.106229
 138 H     1.0000    0     1.008    0.672743    5.949425   -3.631676
 139 H     1.0000    0     1.008    0.429346    4.843179   -8.232970
 140 C     6.0000    0    12.011    0.045164    1.066372  -14.650291
 141 C     6.0000    0    12.011    0.125100    0.605279  -17.252066
 142 C     6.0000    0    12.011    0.282703   -1.849475  -18.138914
 143 C     6.0000    0    12.011    0.363583   -3.862978  -16.472743
 144 C     6.0000    0    12.011    0.281191   -3.417192  -13.868700
 145 C     6.0000    0    12.011    0.120753   -0.950910  -12.959175
 146 H     1.0000    0     1.008    0.065007    2.171106  -18.558622
 147 H     1.0000    0     1.008    0.344308   -2.195484  -20.149205
 148 H     1.0000    0     1.008    0.487549   -5.774625  -17.173075
 149 H     1.0000    0     1.008    0.053668   -0.608681  -10.951152
 150 C     6.0000    0    12.011    0.374733   -5.460931  -12.160955
 151 C     6.0000    0    12.011    0.467140   -7.192109  -10.674118
 152 C     6.0000    0    12.011    0.627956   -9.247942   -8.993018
 153 C     6.0000    0    12.011    1.099821  -11.701184   -9.875520
 154 C     6.0000    0    12.011    1.285959  -13.657807   -8.152279
 155 C     6.0000    0    12.011    1.006090  -13.142856   -5.599070
 156 N     7.0000    0    14.007    0.540840  -10.805643   -4.765700
 157 C     6.0000    0    12.011    0.347710   -8.895130   -6.390298
 158 H     1.0000    0     1.008    1.318840  -12.037178  -11.874472
 159 H     1.0000    0     1.008    1.651432  -15.561706   -8.777400
 160 H     1.0000    0     1.008    1.155568  -14.622512   -4.179129
 161 H     1.0000    0     1.008   -0.042141   -7.035261   -5.604928
* core charge reduced due to ECP

--------------------------------
INTERNAL COORDINATES (ANGSTROEM)
--------------------------------
 Pd     0   0   0     0.000000000000     0.00000000     0.00000000
 Pd     1   0   0    10.897122725289     0.00000000     0.00000000
 C      2   1   0     7.845741355028    61.29522776     0.00000000
 C      3   2   1     1.208918727624    42.59097346   176.38119708
 C      4   3   2     1.408462385014   179.00219576   270.27033487
 C      5   4   3     1.383924177836   120.63617759   273.93928461
 C      6   5   4     1.399848652534   121.07174000   178.88424556
 C      7   6   5     1.370897301040   120.95045757   359.65476033
 C      8   7   6     1.411492663814   119.72322071     0.53073255
 C      9   8   7     1.407222818178   122.40413647   180.52158442
 N     10   9   8     1.316203673449   122.64031729   180.36298006
 C     11  10   9     1.356158714900   120.19866860     0.48663068
 C     12  11  10     1.366039040438   121.76757477   358.90329806
 C     13  12  11     1.409849683477   119.80392085     0.39070224
 H      6   5   4     1.079525659723   119.34506279   359.07972885
 H      7   6   5     1.079168976574   118.90708509   179.93891462
 H      8   7   6     1.078335944871   120.66826196   180.46143431
 H     10   9   8     1.087908130312   120.07954654     0.45001278
 H     12  11  10     1.088150568626   115.82584552   178.73908874
 H     13  12  11     1.078151492138   121.19165369   180.30185140
 C      3   2   1     1.411074271610   137.20483936   356.54892088
 C     21   3   2     1.398899996426   120.11402833   183.21249211
 C     22  21   3     1.383672435947   119.95482217   180.06887245
 C     23  22  21     1.383647520144   120.57746254   359.96636946
 C     24  23  22     1.398680395945   119.79663792     0.11502550
 C     21   3   2     1.393483552110   120.03989281     3.38286603
 H     22  21   3     1.079588518835   119.70998117     0.12229241
 H     23  22  21     1.080067359011   119.67907942   180.01258061
 H     24  23  22     1.079388248037   120.32483297   180.04059680
 H     26  21   3     1.078458506388   120.21032455     0.02461915
 C     25  24  23     1.410270502421   120.06430875   180.29082873
 C     31  25  24     1.208685240251   179.16647805   155.23373216
 C     32  31  25     1.407867174133   178.25071688   240.45801320
 C     33  32  31     1.401978591135   121.06378972   331.39829777
 C     34  33  32     1.383276414893   119.08874195   178.93678038
 C     35  34  33     1.386134495639   119.19902640   359.90446990
 N     36  35  34     1.335966949441   121.55826629     0.50614445
 C     37  36  35     1.330974372405   120.27677541   359.63715630
 H     34  33  32     1.078851291884   119.88882538   359.16068962
 H     35  34  33     1.077956817317   120.66670735   180.12268108
 H     36  35  34     1.088061799715   121.60447020   180.53560035
 H     38  37  36     1.088149718559   117.06364625   179.71484620
 C     19  12  11     7.460277557169    94.13897915    89.89758984
 C     43  19  12     1.208941690074    60.48843103   310.16237848
 C     44  43  19     1.408501405750   178.98681112    75.04362116
 C     45  44  43     1.383850718105   120.63238164    85.34780547
 C     46  45  44     1.399872497765   121.07316034   181.14937685
 C     47  46  45     1.370824368765   120.94666166     0.34435391
 C     48  47  46     1.411413033098   119.73068212   359.45850008
 C     49  48  47     1.407201378624   122.41031074   179.47845337
 N     50  49  48     1.316241771104   122.64329083   179.63722517
 C     51  50  49     1.356166413092   120.19212050   359.50522338
 C     52  51  50     1.366075115065   121.77616532     1.10817959
 C     53  52  51     1.409734021012   119.79832521   359.60578296
 H     46  45  44     1.079596040193   119.34713601     0.94517162
 H     47  46  45     1.079167688545   118.90986322   180.05641099
 H     48  47  46     1.078393685071   120.66692690   179.53301392
 H     50  49  48     1.087950407877   120.08297503   359.54434117
 H     52  51  50     1.088180155121   115.82517572   181.27223241
 H     53  52  51     1.078069422625   121.19618353   179.69852712
 C     43  19  12     1.411055952115   119.31189263   130.04582634
 C     61  43  19     1.398846589158   120.10455535   192.23205198
 C     62  61  43     1.383680458054   119.96166801   179.91203267
 C     63  62  61     1.383654331833   120.57133304     0.02826268
 C     64  63  62     1.398668055687   119.79888930   359.88592061
 C     61  43  19     1.393523046096   120.05159160    12.04514421
 H     62  61  43     1.079628426821   119.70638059   359.84751926
 H     63  62  61     1.080012407336   119.68428062   179.98745814
 H     64  63  62     1.079399786919   120.32323329   179.97700030
 H     66  61  43     1.078433799545   120.21161731     0.00000000
 C     65  64  63     1.410253126215   120.06805526   179.69667953
 C     71  65  64     1.208653643522   179.15757121   204.74136906
 C     72  71  65     1.407834890887   178.26413114   118.69035393
 C     73  72  71     1.402010534910   121.07785557    29.61763465
 C     74  73  72     1.383270924295   119.08714252   181.10669517
 C     75  74  73     1.386255632991   119.20062444     0.10158585
 N     76  75  74     1.335896395683   121.55714177   359.47628743
 C     77  76  75     1.330980946520   120.27582045     0.37384622
 H     74  73  72     1.078807795671   119.89098144     0.87708585
 H     75  74  73     1.077944627520   120.67061136   179.87515060
 H     76  75  74     1.088023593494   121.59884610   179.45603952
 H     78  77  76     1.088155618466   117.06426387   180.28713710
 C      1   2   3     7.846225857060    61.29601129   180.45746440
 C     83   1   2     1.208919389372    42.58419659   183.68168772
 C     84  83   1     1.408516616870   179.00623478    90.28891034
 C     85  84  83     1.383914881776   120.62546390    85.61822262
 C     86  85  84     1.399820077724   121.06635878   181.14327947
 C     87  86  85     1.370887664982   120.94875530     0.33558924
 C     88  87  86     1.411404321943   119.73018452   359.46486488
 C     89  88  87     1.407194460620   122.40999103   179.51408958
 N     90  89  88     1.316226629422   122.64417785   179.61810172
 C     91  90  89     1.356214647466   120.19398983   359.53410760
 C     92  91  90     1.366080909024   121.76941533     1.06909572
 C     93  92  91     1.409778209507   119.80276169   359.61871713
 H     86  85  84     1.079524168326   119.34963414     0.93294442
 H     87  86  85     1.079136599324   118.91326097   180.05102562
 H     88  87  86     1.078356059008   120.67227984   179.53710736
 H     90  89  88     1.087981755362   120.08043249   359.53579032
 H     92  91  90     1.088183095807   115.82762763   181.22821704
 H     93  92  91     1.078122224054   121.18992234   179.71293429
 C     83   1   2     1.411103330731   137.20506945     3.46307604
 C    101  83   1     1.398884416240   120.11485227   176.42990762
 C    102 101  83     1.383728820976   119.95897722   179.91817428
 C    103 102 101     1.383706421175   120.57192166     0.00000000
 C    104 103 102     1.398709054807   119.79442346   359.90282223
 C    101  83   1     1.393442948240   120.04269883   356.25394265
 H    102 101  83     1.079616732920   119.71181029   359.85149156
 H    103 102 101     1.079961008555   119.68134736   179.98941504
 H    104 103 102     1.079352000044   120.31863914   179.96671528
 H    106 101  83     1.078506091777   120.20510432   359.96970379
 C    105 104 103     1.410286109270   120.05394979   179.66478731
 C    111 105 104     1.208625492036   179.14099100   205.72008390
 C    112 111 105     1.407876681389   178.18633898   117.45896692
 C    113 112 111     1.402067095399   121.05742007    30.25963583
 C    114 113 112     1.383232117181   119.08739560   181.16208474
 C    115 114 113     1.386269851075   119.19659636     0.11158016
 N    116 115 114     1.335919073148   121.56301275   359.45440763
 C    117 116 115     1.331007685928   120.27200254     0.37983596
 H    114 113 112     1.078776441159   119.88941067     0.91739331
 H    115 114 113     1.077984331983   120.66820850   179.87708729
 H    116 115 114     1.088064639624   121.58899985   179.41739848
 H    118 117 116     1.088100942009   117.05878992   180.30895101
 C     99  92  91     7.471911183225    94.61303313   270.60057041
 C    123  99  92     1.208879423268    60.41965163    49.60236029
 C    124 123  99     1.408565067720   179.00808353   284.96056411
 C    125 124 123     1.383857655252   120.63616407   274.53136175
 C    126 125 124     1.399792445329   121.06712330   178.89320652
 C    127 126 125     1.370861776402   120.95232835   359.66083684
 C    128 127 126     1.411400938784   119.72468479     0.53570406
 C    129 128 127     1.407237424886   122.40832425   180.47825874
 N    130 129 128     1.316261934419   122.64503436   180.38019524
 C    131 130 129     1.356151676620   120.19168167     0.44955611
 C    132 131 130     1.366040866885   121.77648109   358.94547674
 C    133 132 131     1.409806454802   119.79588496     0.38606257
 H    126 125 124     1.079473283597   119.35027630   359.08313909
 H    127 126 125     1.079190747736   118.91481131   179.95583864
 H    128 127 126     1.078401659865   120.67201452   180.46278341
 H    130 129 128     1.087987982470   120.07805650     0.45120354
 H    132 131 130     1.088216325002   115.82551678   178.78558412
 H    133 132 131     1.078120897673   121.19894297   180.28241505
 C    123  99  92     1.411045800107   119.31784473   229.66805887
 C    141 123  99     1.398893680735   120.12531725   168.32368649
 C    142 141 123     1.383690373602   119.95893132   180.06824011
 C    143 142 141     1.383660717083   120.57507057   359.97258604
 C    144 143 142     1.398725766546   119.79797360     0.10919953
 C    141 123  99     1.393557411806   120.03666594   348.49017675
 H    142 141 123     1.079640291949   119.70453221     0.12443310
 H    143 142 141     1.079934632281   119.67553039   180.01368204
 H    144 143 142     1.079343448583   120.31889272   180.03365415
 H    146 141 123     1.078506476568   120.20693773     0.03346482
 C    145 144 143     1.410236217802   120.05863522   180.29269675
 C    151 145 144     1.208587878476   179.16604719   155.13075274
 C    152 151 145     1.407890826733   178.20395966   241.31077582
 C    153 152 151     1.402056464626   121.04953848   330.26069177
 C    154 153 152     1.383227031257   119.09032625   178.88923783
 C    155 154 153     1.386239903480   119.19556388   359.88290757
 N    156 155 154     1.335952723714   121.56110921     0.54660203
 C    157 156 155     1.331033406793   120.27346503   359.62171786
 H    154 153 152     1.078882055648   119.88748418   359.11924871
 H    155 154 153     1.077909295813   120.67063435   180.12723944
 H    156 155 154     1.088093640272   121.58999116   180.56925313
 H    158 157 156     1.088086710699   117.05833483   179.70171239

---------------------------
INTERNAL COORDINATES (A.U.)
---------------------------
 Pd     0   0   0     0.000000000000     0.00000000     0.00000000
 Pd     1   0   0    20.592577598525     0.00000000     0.00000000
 C      2   1   0    14.826302478584    61.29522776     0.00000000
 C      3   2   1     2.284525313378    42.59097346   176.38119708
 C      4   3   2     2.661608177606   179.00219576   270.27033487
 C      5   4   3     2.615237686223   120.63617759   273.93928461
 C      6   5   4     2.645330582227   121.07174000   178.88424556
 C      7   6   5     2.590620456698   120.95045757   359.65476033
 C      8   7   6     2.667334574647   119.72322071     0.53073255
 C      9   8   7     2.659265735761   122.40413647   180.52158442
 N     10   9   8     2.487264479279   122.64031729   180.36298006
 C     11  10   9     2.562768565292   120.19866860     0.48663068
 C     12  11  10     2.581439674672   121.76757477   358.90329806
 C     13  12  11     2.664229791767   119.80392085     0.39070224
 H      6   5   4     2.040007851417   119.34506279   359.07972885
 H      7   6   5     2.039333817949   118.90708509   179.93891462
 H      8   7   6     2.037759616169   120.66826196   180.46143431
 H     10   9   8     2.055848425157   120.07954654     0.45001278
 H     12  11  10     2.056306567173   115.82584552   178.73908874
 H     13  12  11     2.037411051020   121.19165369   180.30185140
 C      3   2   1     2.666543927966   137.20483936   356.54892088
 C     21   3   2     2.643537881988   120.11402833   183.21249211
 C     22  21   3     2.614761962996   119.95482217   180.06887245
 C     23  22  21     2.614714878951   120.57746254   359.96636946
 C     24  23  22     2.643122897220   119.79663792     0.11502550
 C     21   3   2     2.633302285611   120.03989281     3.38286603
 H     22  21   3     2.040126637924   119.70998117     0.12229241
 H     23  22  21     2.041031514718   119.67907942   180.01258061
 H     24  23  22     2.039748180963   120.32483297   180.04059680
 H     26  21   3     2.037991223871   120.21032455     0.02461915
 C     25  24  23     2.665025024324   120.06430875   180.29082873
 C     31  25  24     2.284084086187   179.16647805   155.23373216
 C     32  31  25     2.660483392048   178.25071688   240.45801320
 C     33  32  31     2.649355582865   121.06378972   331.39829777
 C     34  33  32     2.614013591661   119.08874195   178.93678038
 C     35  34  33     2.619414581539   119.19902640   359.90446990
 N     36  35  34     2.524611658415   121.55826629     0.50614445
 C     37  36  35     2.515177055114   120.27677541   359.63715630
 H     34  33  32     2.038733480888   119.88882538   359.16068962
 H     35  34  33     2.037043168922   120.66670735   180.12268108
 H     36  35  34     2.056138818244   121.60447020   180.53560035
 H     38  37  36     2.056304960780   117.06364625   179.71484620
 C     19  12  11    14.097881466089    94.13897915    89.89758984
 C     43  19  12     2.284568706121    60.48843103   310.16237848
 C     44  43  19     2.661681916111   178.98681112    75.04362116
 C     45  44  43     2.615098867449   120.63238164    85.34780547
 C     46  45  44     2.645375643185   121.07316034   181.14937685
 C     47  46  45     2.590482634671   120.94666166     0.34435391
 C     48  47  46     2.667184094403   119.73068212   359.45850008
 C     49  48  47     2.659225220875   122.41031074   179.47845337
 N     50  49  48     2.487336473415   122.64329083   179.63722517
 C     51  50  49     2.562783112767   120.19212050   359.50522338
 C     52  51  50     2.581507845838   121.77616532     1.10817959
 C     53  52  51     2.664011221385   119.79832521   359.60578296
 H     46  45  44     2.040140851230   119.34713601     0.94517162
 H     47  46  45     2.039331383927   118.90986322   180.05641099
 H     48  47  46     2.037868729333   120.66692690   179.53301392
 H     50  49  48     2.055928318176   120.08297503   359.54434117
 H     52  51  50     2.056362477547   115.82517572   181.27223241
 H     53  52  51     2.037255962117   121.19618353   179.69852712
 C     43  19  12     2.666509309137   119.31189263   130.04582634
 C     61  43  19     2.643436956879   120.10455535   192.23205198
 C     62  61  43     2.614777122580   119.96166801   179.91203267
 C     63  62  61     2.614727751178   120.57133304     0.02826268
 C     64  63  62     2.643099577513   119.79888930   359.88592061
 C     61  43  19     2.633376918429   120.05159160    12.04514421
 H     62  61  43     2.040202053088   119.70638059   359.84751926
 H     63  62  61     2.040927671102   119.68428062   179.98745814
 H     64  63  62     2.039769986289   120.32323329   179.97700030
 H     66  61  43     2.037944534703   120.21161731     0.00000000
 C     65  64  63     2.664992188053   120.06805526   179.69667953
 C     71  65  64     2.284024377023   179.15757121   204.74136906
 C     72  71  65     2.660422385556   178.26413114   118.69035393
 C     73  72  71     2.649415947853   121.07785557    29.61763465
 C     74  73  72     2.614003215934   119.08714252   181.10669517
 C     75  74  73     2.619643497959   119.20062444     0.10158585
 N     76  75  74     2.524478331134   121.55714177   359.47628743
 C     77  76  75     2.515189478391   120.27582045     0.37384622
 H     74  73  72     2.038651284957   119.89098144     0.87708585
 H     75  74  73     2.037020133545   120.67061136   179.87515060
 H     76  75  74     2.056066618949   121.59884610   179.45603952
 H     78  77  76     2.056316109989   117.06426387   180.28713710
 C      1   2   3    14.827218054735    61.29601129   180.45746440
 C     83   1   2     2.284526563901    42.58419659   183.68168772
 C     84  83   1     2.661710660962   179.00623478    90.28891034
 C     85  84  83     2.615220119214   120.62546390    85.61822262
 C     86  85  84     2.645276583663   121.06635878   181.14327947
 C     87  86  85     2.590602247187   120.94875530     0.33558924
 C     88  87  86     2.667167632706   119.73018452   359.46486488
 C     89  88  87     2.659212147743   122.40999103   179.51408958
 N     90  89  88     2.487307859782   122.64417785   179.61810172
 C     91  90  89     2.562874262522   120.19398983   359.53410760
 C     92  91  90     2.581518794834   121.76941533     1.06909572
 C     93  92  91     2.664094725538   119.80276169   359.61871713
 H     86  85  84     2.040005033085   119.34963414     0.93294442
 H     87  86  85     2.039272633813   118.91326097   180.05102562
 H     88  87  86     2.037797626380   120.67227984   179.53710736
 H     90  89  88     2.055987556337   120.08043249   359.53579032
 H     92  91  90     2.056368034638   115.82762763   181.22821704
 H     93  92  91     2.037355742357   121.18992234   179.71293429
 C     83   1   2     2.666598841746   137.20506945     3.46307604
 C    101  83   1     2.643508439704   120.11485227   176.42990762
 C    102 101  83     2.614868515259   119.95897722   179.91817428
 C    103 102 101     2.614826185768   120.57192166     0.00000000
 C    104 103 102     2.643177054622   119.79442346   359.90282223
 C    101  83   1     2.633225555418   120.04269883   356.25394265
 H    102 101  83     2.040179954817   119.71181029   359.85149156
 H    103 102 101     2.040830541483   119.68134736   179.98941504
 H    104 103 102     2.039679682184   120.31863914   179.96671528
 H    106 101  83     2.038081147224   120.20510432   359.96970379
 C    105 104 103     2.665054516994   120.05394979   179.66478731
 C    111 105 104     2.283971178424   179.14099100   205.72008390
 C    112 111 105     2.660501358160   178.18633898   117.45896692
 C    113 112 111     2.649522831686   121.05742007    30.25963583
 C    114 113 112     2.613929881115   119.08739560   181.16208474
 C    115 114 113     2.619670366244   119.19659636     0.11158016
 N    116 115 114     2.524521185331   121.56301275   359.45440763
 C    117 116 115     2.515240008549   120.27200254     0.37983596
 H    114 113 112     2.038592033517   119.88941067     0.91739331
 H    115 114 113     2.037095164105   120.66820850   179.87708729
 H    116 115 114     2.056144184893   121.58899985   179.41739848
 H    118 117 116     2.056212786458   117.05878992   180.30895101
 C     99  92  91    14.119865833278    94.61303313   270.60057041
 C    123  99  92     2.284451038909    60.41965163    49.60236029
 C    124 123  99     2.661802219798   179.00808353   284.96056411
 C    125 124 123     2.615111976757   120.63616407   274.53136175
 C    126 125 124     2.645224366004   121.06712330   178.89320652
 C    127 126 125     2.590553324861   120.95232835   359.66083684
 C    128 127 126     2.667161239461   119.72468479     0.53570406
 C    129 128 127     2.659293338439   122.40832425   180.47825874
 N    130 129 128     2.487374576557   122.64503436   180.38019524
 C    131 130 129     2.562755264870   120.19168167     0.44955611
 C    132 131 130     2.581443126157   121.77648109   358.94547674
 C    133 132 131     2.664148101409   119.79588496     0.38606257
 H    126 125 124     2.039908874883   119.35027630   359.08313909
 H    127 126 125     2.039374959484   118.91481131   179.95583864
 H    128 127 126     2.037883799511   120.67201452   180.46278341
 H    130 129 128     2.055999323867   120.07805650     0.45120354
 H    132 131 130     2.056430828715   115.82551678   178.78558412
 H    133 132 131     2.037353235860   121.19894297   180.28241505
 C    123  99  92     2.666490124622   119.31784473   229.66805887
 C    141 123  99     2.643525947062   120.12531725   168.32368649
 C    142 141 123     2.614795860252   119.95893132   180.06824011
 C    143 142 141     2.614739817553   120.57507057   359.97258604
 C    144 143 142     2.643208635231   119.79797360     0.10919953
 C    141 123  99     2.633441860210   120.03666594   348.49017675
 H    142 141 123     2.040224474931   119.70453221     0.12443310
 H    143 142 141     2.040780697548   119.67553039   180.01368204
 H    144 143 142     2.039663522265   120.31889272   180.03365415
 H    146 141 123     2.038081874375   120.20693773     0.03346482
 C    145 144 143     2.664960235782   120.05863522   180.29269675
 C    151 145 144     2.283900099097   179.16604719   155.13075274
 C    152 151 145     2.660528088986   178.20395966   241.31077582
 C    153 152 151     2.649502742437   121.04953848   330.26069177
 C    154 153 152     2.613920270113   119.09032625   178.88923783
 C    155 154 153     2.619613773490   119.19556388   359.88290757
 N    156 155 154     2.524584775686   121.56110921     0.54660203
 C    157 156 155     2.515288613940   120.27346503   359.62171786
 H    154 153 152     2.038791615977   119.88748418   359.11924871
 H    155 154 153     2.036953366294   120.67063435   180.12723944
 H    156 155 154     2.056198988175   121.58999116   180.56925313
 H    158 157 156     2.056185893181   117.05833483   179.70171239

---------------------
BASIS SET INFORMATION
---------------------
There are 4 groups of distinct atoms

 Group   1 Type Pd  : 7s6p5d1f contracted to 5s3p2d1f pattern {31111/411/41/1}
 Group   2 Type C   : 7s4p1d contracted to 3s2p1d pattern {511/31/1}
 Group   3 Type N   : 7s4p1d contracted to 3s2p1d pattern {511/31/1}
 Group   4 Type H   : 4s1p contracted to 2s1p pattern {31/1}

Atom   0Pd   basis set group =>   1
Atom   1Pd   basis set group =>   1
Atom   2C    basis set group =>   2
Atom   3C    basis set group =>   2
Atom   4C    basis set group =>   2
Atom   5C    basis set group =>   2
Atom   6C    basis set group =>   2
Atom   7C    basis set group =>   2
Atom   8C    basis set group =>   2
Atom   9C    basis set group =>   2
Atom  10N    basis set group =>   3
Atom  11C    basis set group =>   2
Atom  12C    basis set group =>   2
Atom  13C    basis set group =>   2
Atom  14H    basis set group =>   4
Atom  15H    basis set group =>   4
Atom  16H    basis set group =>   4
Atom  17H    basis set group =>   4
Atom  18H    basis set group =>   4
Atom  19H    basis set group =>   4
Atom  20C    basis set group =>   2
Atom  21C    basis set group =>   2
Atom  22C    basis set group =>   2
Atom  23C    basis set group =>   2
Atom  24C    basis set group =>   2
Atom  25C    basis set group =>   2
Atom  26H    basis set group =>   4
Atom  27H    basis set group =>   4
Atom  28H    basis set group =>   4
Atom  29H    basis set group =>   4
Atom  30C    basis set group =>   2
Atom  31C    basis set group =>   2
Atom  32C    basis set group =>   2
Atom  33C    basis set group =>   2
Atom  34C    basis set group =>   2
Atom  35C    basis set group =>   2
Atom  36N    basis set group =>   3
Atom  37C    basis set group =>   2
Atom  38H    basis set group =>   4
Atom  39H    basis set group =>   4
Atom  40H    basis set group =>   4
Atom  41H    basis set group =>   4
Atom  42C    basis set group =>   2
Atom  43C    basis set group =>   2
Atom  44C    basis set group =>   2
Atom  45C    basis set group =>   2
Atom  46C    basis set group =>   2
Atom  47C    basis set group =>   2
Atom  48C    basis set group =>   2
Atom  49C    basis set group =>   2
Atom  50N    basis set group =>   3
Atom  51C    basis set group =>   2
Atom  52C    basis set group =>   2
Atom  53C    basis set group =>   2
Atom  54H    basis set group =>   4
Atom  55H    basis set group =>   4
Atom  56H    basis set group =>   4
Atom  57H    basis set group =>   4
Atom  58H    basis set group =>   4
Atom  59H    basis set group =>   4
Atom  60C    basis set group =>   2
Atom  61C    basis set group =>   2
Atom  62C    basis set group =>   2
Atom  63C    basis set group =>   2
Atom  64C    basis set group =>   2
Atom  65C    basis set group =>   2
Atom  66H    basis set group =>   4
Atom  67H    basis set group =>   4
Atom  68H    basis set group =>   4
Atom  69H    basis set group =>   4
Atom  70C    basis set group =>   2
Atom  71C    basis set group =>   2
Atom  72C    basis set group =>   2
Atom  73C    basis set group =>   2
Atom  74C    basis set group =>   2
Atom  75C    basis set group =>   2
Atom  76N    basis set group =>   3
Atom  77C    basis set group =>   2
Atom  78H    basis set group =>   4
Atom  79H    basis set group =>   4
Atom  80H    basis set group =>   4
Atom  81H    basis set group =>   4
Atom  82C    basis set group =>   2
Atom  83C    basis set group =>   2
Atom  84C    basis set group =>   2
Atom  85C    basis set group =>   2
Atom  86C    basis set group =>   2
Atom  87C    basis set group =>   2
Atom  88C    basis set group =>   2
Atom  89C    basis set group =>   2
Atom  90N    basis set group =>   3
Atom  91C    basis set group =>   2
Atom  92C    basis set group =>   2
Atom  93C    basis set group =>   2
Atom  94H    basis set group =>   4
Atom  95H    basis set group =>   4
Atom  96H    basis set group =>   4
Atom  97H    basis set group =>   4
Atom  98H    basis set group =>   4
Atom  99H    basis set group =>   4
Atom 100C    basis set group =>   2
Atom 101C    basis set group =>   2
Atom 102C    basis set group =>   2
Atom 103C    basis set group =>   2
Atom 104C    basis set group =>   2
Atom 105C    basis set group =>   2
Atom 106H    basis set group =>   4
Atom 107H    basis set group =>   4
Atom 108H    basis set group =>   4
Atom 109H    basis set group =>   4
Atom 110C    basis set group =>   2
Atom 111C    basis set group =>   2
Atom 112C    basis set group =>   2
Atom 113C    basis set group =>   2
Atom 114C    basis set group =>   2
Atom 115C    basis set group =>   2
Atom 116N    basis set group =>   3
Atom 117C    basis set group =>   2
Atom 118H    basis set group =>   4
Atom 119H    basis set group =>   4
Atom 120H    basis set group =>   4
Atom 121H    basis set group =>   4
Atom 122C    basis set group =>   2
Atom 123C    basis set group =>   2
Atom 124C    basis set group =>   2
Atom 125C    basis set group =>   2
Atom 126C    basis set group =>   2
Atom 127C    basis set group =>   2
Atom 128C    basis set group =>   2
Atom 129C    basis set group =>   2
Atom 130N    basis set group =>   3
Atom 131C    basis set group =>   2
Atom 132C    basis set group =>   2
Atom 133C    basis set group =>   2
Atom 134H    basis set group =>   4
Atom 135H    basis set group =>   4
Atom 136H    basis set group =>   4
Atom 137H    basis set group =>   4
Atom 138H    basis set group =>   4
Atom 139H    basis set group =>   4
Atom 140C    basis set group =>   2
Atom 141C    basis set group =>   2
Atom 142C    basis set group =>   2
Atom 143C    basis set group =>   2
Atom 144C    basis set group =>   2
Atom 145C    basis set group =>   2
Atom 146H    basis set group =>   4
Atom 147H    basis set group =>   4
Atom 148H    basis set group =>   4
Atom 149H    basis set group =>   4
Atom 150C    basis set group =>   2
Atom 151C    basis set group =>   2
Atom 152C    basis set group =>   2
Atom 153C    basis set group =>   2
Atom 154C    basis set group =>   2
Atom 155C    basis set group =>   2
Atom 156N    basis set group =>   3
Atom 157C    basis set group =>   2
Atom 158H    basis set group =>   4
Atom 159H    basis set group =>   4
Atom 160H    basis set group =>   4
Atom 161H    basis set group =>   4

-------------------------
BASIS SET IN INPUT FORMAT
-------------------------

 # Basis set for element : H 
 NewGTO H 
 S 3 
   1      13.0107010000      0.0334854848
   2       1.9622572000      0.2347218709
   3       0.4445379600      0.8137702853
 S 1 
   1       0.1219496200      1.0000000000
 P 1 
   1       0.8000000000      1.0000000000
  end;

 # Basis set for element : C 
 NewGTO C 
 S 5 
   1    1238.4016938000      0.0055173650
   2     186.2900499200      0.0410888285
   3      42.2511763460      0.1822538213
   4      11.6765579320      0.4682845944
   5       3.5930506482      0.4457581734
 S 1 
   1       0.4024514736      1.0000000000
 S 1 
   1       0.1309018267      1.0000000000
 P 3 
   1       9.4680970621      0.0568883320
   2       2.0103545142      0.3129405934
   3       0.5477100471      0.7606501651
 P 1 
   1       0.1526861379      1.0000000000
 D 1 
   1       0.8000000000      1.0000000000
  end;

 # Basis set for element : N 
 NewGTO N 
 S 5 
   1    1712.8415853000     -0.0054477995
   2     257.6481267700     -0.0406271746
   3      58.4582458530     -0.1811196225
   4      16.1983679050     -0.4684397556
   5       5.0052600809     -0.4461684629
 S 1 
   1       0.5873185657      1.0000000000
 S 1 
   1       0.1876459225      1.0000000000
 P 3 
   1      13.5714702330     -0.0588481170
   2       2.9257372874     -0.3202462476
   3       0.7992775075     -0.7532822652
 P 1 
   1       0.2195434803      1.0000000000
 D 1 
   1       1.0000000000      1.0000000000
  end;

 # Basis set for element : Pd
 NewGTO Pd
 S 3 
   1       8.4756400000      2.1727229431
   2       7.1657170000     -2.9039633126
   3       3.1821100000     -0.2310570076
 S 1 
   1       1.3973644196      1.0000000000
 S 1 
   1       0.6053295587      1.0000000000
 S 1 
   1       0.1022951421      1.0000000000
 S 1 
   1       0.0373389729      1.0000000000
 P 4 
   1       4.2460970000     -0.8346018694
   2       3.3925940000      0.8828643810
   3       1.1975891264      0.6438870170
   4       0.5267375059      0.2760105151
 P 1 
   1       0.2060709410      1.0000000000
 P 1 
   1       0.0370000000      1.0000000000
 D 4 
   1       7.3613290985     -0.0186922795
   2       2.6291037258      0.2533662423
   3       1.1292744634      0.4840070353
   4       0.4447165990      0.4270306822
 D 1 
   1       0.1554489384      1.0000000000
 F 1 
   1       1.2462900000      1.0000000000
  end;

-------------------------
ECP PARAMETER INFORMATION
-------------------------

 Group 1, Type Pd ECP Def2-ECP (replacing 28 core electrons, lmax=3)

Atom   0Pd   ECP group =>   1
Atom   1Pd   ECP group =>   1


-------------------------
ECP BASIS IN INPUT FORMAT
-------------------------

 #ECP Def2-ECP
 NewECP Pd
   N_core 28
   lmax f
   s 4
     1      12.4300000000    240.2290403000  2
     2       6.1707594000     35.1719435000  2
     3      13.2700000000     31.9295543000  2
     4       6.6300000000      5.3982169000  2
   p 4
     1      11.0800000000    170.4172760000  2
     2       5.8295541000     28.4721329000  2
     3      13.2700000000     31.9295543000  2
     4       6.6300000000      5.3982169000  2
   d 4
     1       9.5100000000     69.0138449000  2
     2       4.1397811000     11.7508616000  2
     3      13.2700000000     31.9295543000  2
     4       6.6300000000      5.3982169000  2
   f 2
     1      13.2700000000    -31.9295543000  2
     2       6.6300000000     -5.3982169000  2
 End




           ************************************************************
           *        Program running with 32 parallel MPI-processes    *
           *              working on a common directory               *
           ************************************************************
------------------------------------------------------------------------------
                           ORCA GTO INTEGRAL CALCULATION
------------------------------------------------------------------------------

                         BASIS SET STATISTICS AND STARTUP INFO

 # of primitive gaussian shells          ... 1566
 # of primitive gaussian functions       ... 3002
 # of contracted shells                  ...  814
 # of contracted basis functions         ... 1798
 Highest angular momentum                ...    3
 Maximum contraction depth               ...    5
 Integral package used                   ... LIBINT
 Integral threshhold            Thresh   ...  2.500e-11
 Primitive cut-off              TCut     ...  2.500e-12


------------------------------ INTEGRAL EVALUATION ----------------------------


 * One electron integrals 

   ECP integrals                         ... done
 Pre-screening matrix                    ... done
 Shell pair data                         ... done (   0.030 sec)



           ************************************************************
           *        Program running with 32 parallel MPI-processes    *
           *              working on a common directory               *
           ************************************************************
-------------------------------------------------------------------------------
                                 ORCA SCF
-------------------------------------------------------------------------------

------------
SCF SETTINGS
------------
Hamiltonian:
 Density Functional     Method          .... DFT(GTOs)
 Exchange Functional    Exchange        .... PBE
   PBE kappa parameter   XKappa         ....  0.804000
   PBE mue parameter    XMuePBE         ....  0.219520
 Correlation Functional Correlation     .... PBE
   PBE beta parameter  CBetaPBE         ....  0.066725
 LDA part of GGA corr.  LDAOpt          .... PW91-LDA
 Gradients option       PostSCFGGA      .... off
 Hybrid DFT is turned on
   Fraction HF Exchange ScalHFX         ....  0.250000
   Scaling of DF-GGA-X  ScalDFX         ....  0.750000
   Scaling of DF-GGA-C  ScalDFC         ....  1.000000
   Scaling of DF-LDA-C  ScalLDAC        ....  1.000000
   Perturbative correction              ....  0.000000
   Density functional embedding theory  .... OFF
   NL short-range parameter             ....  6.900000


General Settings:
 Integral files         IntName         .... _s_5d3_c_PBE0
 Hartree-Fock type      HFTyp           .... RHF
 Total Charge           Charge          ....    4
 Multiplicity           Mult            ....    1
 Number of Electrons    NEL             ....  720
 Basis Dimension        Dim             .... 1798
 Nuclear Repulsion      ENuc            ....  18875.3761284827 Eh

Convergence Acceleration:
 DIIS                   CNVDIIS         .... on
   Start iteration      DIISMaxIt       ....     0
   Startup error        DIISStart       ....  0.200000
   # of expansion vecs  DIISMaxEq       ....     5
   Bias factor          DIISBfac        ....   1.050
   Max. coefficient     DIISMaxC        ....  10.000
 Newton-Raphson         CNVNR           .... off
 SOSCF                  CNVSOSCF        .... off
 Level Shifting         CNVShift        .... on
   Level shift para.    LevelShift      ....    0.2500
   Turn off err/grad.   ShiftErr        ....    0.0000
 Zerner damping         CNVZerner       .... off
 Static damping         CNVDamp         .... on
   Fraction old density DampFac         ....    0.8500
   Max. Damping (<1)    DampMax         ....    0.9800
   Min. Damping (>=0)   DampMin         ....    0.0000
   Turn off err/grad.   DampErr         ....    0.0300
 Fernandez-Rico         CNVRico         .... off

SCF Procedure:
 Maximum # iterations   MaxIter         ....  2000
 SCF integral mode      SCFMode         .... Direct
   Integral package                     .... LIBINT
 Reset frequency        DirectResetFreq ....    20
 Integral Threshold     Thresh          ....  2.500e-11 Eh
 Primitive CutOff       TCut            ....  2.500e-12 Eh

Convergence Tolerance:
 Convergence Check Mode ConvCheckMode   .... Total+1el-Energy
 Convergence forced     ConvForced      .... 0
 Energy Change          TolE            ....  1.000e-08 Eh
 1-El. energy change                    ....  1.000e-05 Eh
 DIIS Error             TolErr          ....  5.000e-07


Diagonalization of the overlap matrix:
Smallest eigenvalue                        ... 2.473e-04
Time for diagonalization                   ...    0.558 sec
Threshold for overlap eigenvalues          ... 1.000e-08
Number of eigenvalues below threshold      ... 0
Time for construction of square roots      ...    0.358 sec
Total time needed                          ...    0.923 sec

-------------------
DFT GRID GENERATION
-------------------

General Integration Accuracy     IntAcc      ...  5.340
Radial Grid Type                 RadialGrid  ... Gauss-Chebyshev
Angular Grid (max. acc.)         AngularGrid ... Lebedev-590
Angular grid pruning method      GridPruning ... 3 (G Style)
Weight generation scheme         WeightScheme... Becke
Basis function cutoff            BFCut       ...    1.0000e-11
Integration weight cutoff        WCut        ...    1.0000e-14
Grids for H and He will be reduced by one unit

# of grid points (after initial pruning)     ... 2382484 (   0.0 sec)
# of grid points (after weights+screening)   ... 1974625 (  11.4 sec)
nearest neighbour list constructed           ...    0.0 sec
Grid point re-assignment to atoms done       ...    0.3 sec
Grid point division into batches done        ...   20.7 sec
Reduced shell lists constructed in   21.7 sec

Total number of grid points                  ...  1974625
Total number of batches                      ...    30941
Average number of points per batch           ...       63
Average number of grid points per atom       ...    12189
Average number of shells per batch           ...   132.08 (16.23%)
Average number of basis functions per batch  ...   273.82 (15.23%)
Average number of large shells per batch     ...    78.49 (59.42%)
Average number of large basis fcns per batch ...   162.39 (59.31%)
Maximum spatial batch extension              ...   6.85,  4.05, 13.36 au
Average spatial batch extension              ...   0.03,  0.03,  0.03 au

Time for grid setup =   33.640 sec

------------------------------
INITIAL GUESS: MODEL POTENTIAL
------------------------------
Loading Hartree-Fock densities                     ... done
  calling /work/e05/e05/atarzia/orca_4_2_1_linux_x86-64_openmpi314/orca _s_5d3_c_PBE0_atom46.inp > _s_5d3_c_PBE0_atom46.out in order to generate an atomic fitting density for atom 0 (Pd with ECP) on-the-fly... 
    atom 0 (Pd), assumed electronic state with S=3: 1s2 2s2 2p6 3s2 3p6 4s2 3d10 4p6 5s2 4d8           ... done
Calculating cut-offs                               ... done
Setting up the integral package                    ... done
Initializing the effective Hamiltonian             ... done
Starting the Coulomb interaction                   ... done (   0.7 sec)
Reading the grid                                   ... done
Mapping shells                                     ... done
Starting the XC term evaluation                    ... done (   0.9 sec)
  promolecular density results
     # of electrons  =    779.959837876
     EX              =   -837.384976035
     EC              =    -28.007481320
     EX+EC           =   -865.392457355
Transforming the Hamiltonian                       ... done (   0.3 sec)
Diagonalizing the Hamiltonian                      ... done (   0.5 sec)
Back transforming the eigenvectors                 ... done (   0.2 sec)
Now organizing SCF variables                       ... done
                      ------------------
                      INITIAL GUESS DONE (  59.7 sec)
                      ------------------
--------------
SCF ITERATIONS
--------------
ITER       Energy         Delta-E        Max-DP      RMS-DP      [F,P]     Damp
               ***  Starting incremental Fock matrix formation  ***
  0  -4375.2335676994   0.000000000000 0.03277303  0.00038630  0.4573609 0.8500
  1  -4375.5424664974  -0.308898797997 0.02776682  0.00035260  0.3869047 0.8500
                               ***Turning on DIIS***
  2  -4375.7702650595  -0.227798562079 0.02251695  0.00028179  0.3264559 0.8500
  3  -4375.9288667861  -0.158601726594 0.01723047  0.00019293  0.2754961 0.8500
  4  -4376.0473036972  -0.118436911143 0.01377115  0.00014510  0.2332058 0.8500
  5  -4376.1386885753  -0.091384878098 0.01137103  0.00011762  0.1978649 0.8500
  6  -4376.2123216412  -0.073633065913 0.00961886  0.00009864  0.1681346 0.8500
  7  -4376.2731891134  -0.060867472203 0.00825397  0.00008478  0.1429699 0.8500
  8  -4376.3242608050  -0.051071691589 0.00715433  0.00007285  0.1215761 0.8500
  9  -4376.3670389784  -0.042778173320 0.00613318  0.00006202  0.1033195 0.8500
 10  -4376.4028311104  -0.035792132076 0.00518243  0.00005255  0.0877614 0.8500
 11  -4376.4328377004  -0.030006589983 0.00436338  0.00004449  0.0745489 0.8500
 12  -4376.4580703583  -0.025232657899 0.00369429  0.00003773  0.0633461 0.8500
 13  -4376.4793369804  -0.021266622058 0.00315033  0.00003204  0.0538384 0.8500
 14  -4376.4972819140  -0.017944933668 0.00268729  0.00002719  0.0457538 0.8500
 15  -4376.5124374269  -0.015155512850 0.00228113  0.00002307  0.0388754 0.8500
 16  -4376.5252495813  -0.012812154408 0.00193037  0.00001957  0.0330292 0.8500
 17  -4376.5360913617  -0.010841780422 0.01090693  0.00011066  0.0280654 0.0000
 18  -4376.5967464577  -0.060655096022 0.00022585  0.00000246  0.0002148 0.0000
 19  -4376.5967501979  -0.000003740173 0.00011682  0.00000094  0.0000939 0.0000
               *** Restarting incremental Fock matrix formation ***
                                   *** Resetting DIIS ***
 20  -4376.5967499652   0.000000232685 0.00008792  0.00000063  0.0000571 0.0000
 21  -4376.5967498383   0.000000126944 0.00003672  0.00000022  0.0000809 0.0000
 22  -4376.5967499691  -0.000000130840 0.00002105  0.00000016  0.0000259 0.0000
 23  -4376.5967500327  -0.000000063530 0.00001382  0.00000012  0.0000060 0.0000
 24  -4376.5967500365  -0.000000003824 0.00000602  0.00000006  0.0000021 0.0000
                            ***DIIS convergence achieved***

               *****************************************************
               *                     SUCCESS                       *
               *           SCF CONVERGED AFTER  25 CYCLES          *
               *****************************************************


----------------
TOTAL SCF ENERGY
----------------

Total Energy       :        -4376.59675000 Eh         -119093.25215 eV

Components:
Nuclear Repulsion  :        18875.37612848 Eh          513625.09665 eV
Electronic Energy  :       -23251.97287849 Eh         -632718.34880 eV
One Electron Energy:       -43471.81643064 Eh        -1182928.26399 eV
Two Electron Energy:        20219.84355216 Eh          550209.91519 eV

Virial components:
Potential Energy   :        -8553.94926671 Eh         -232764.79308 eV
Kinetic Energy     :         4177.35251671 Eh          113671.54093 eV
Virial Ratio       :            2.04769629


DFT components:
N(Alpha)           :      360.000055031574 electrons
N(Beta)            :      360.000055031574 electrons
N(Total)           :      720.000110063147 electrons
E(X)               :     -443.483117534141 Eh       
E(C)               :      -24.629190896867 Eh       
E(XC)              :     -468.112308431008 Eh       
DFET-embed. en.    :        0.000000000000 Eh       

---------------
SCF CONVERGENCE
---------------

  Last Energy change         ...    3.3840e-08  Tolerance :   1.0000e-08
  Last MAX-Density change    ...    5.7516e-06  Tolerance :   1.0000e-07
  Last RMS-Density change    ...    4.2799e-08  Tolerance :   5.0000e-09
  Last DIIS Error            ...    6.0576e-07  Tolerance :   5.0000e-07

             **** THE GBW FILE WAS UPDATED (_s_5d3_c_PBE0.gbw) ****
             **** DENSITY FILE WAS UPDATED (_s_5d3_c_PBE0.scfp) ****
             **** ENERGY FILE WAS UPDATED (_s_5d3_c_PBE0.en.tmp) ****
             **** THE GBW FILE WAS UPDATED (_s_5d3_c_PBE0.gbw) ****
             **** DENSITY FILE WAS UPDATED (_s_5d3_c_PBE0.scfp) ****
----------------
ORBITAL ENERGIES
----------------

  NO   OCC          E(Eh)            E(eV) 
   0   2.0000     -14.748265      -401.3207 
   1   2.0000     -14.748238      -401.3200 
   2   2.0000     -14.748213      -401.3193 
   3   2.0000     -14.748187      -401.3186 
   4   2.0000     -14.743145      -401.1814 
   5   2.0000     -14.743133      -401.1811 
   6   2.0000     -14.743071      -401.1794 
   7   2.0000     -14.743061      -401.1791 
   8   2.0000     -10.581160      -287.9280 
   9   2.0000     -10.581142      -287.9275 
  10   2.0000     -10.581118      -287.9268 
  11   2.0000     -10.581102      -287.9264 
  12   2.0000     -10.579552      -287.8842 
  13   2.0000     -10.579537      -287.8838 
  14   2.0000     -10.579485      -287.8824 
  15   2.0000     -10.579474      -287.8821 
  16   2.0000     -10.574945      -287.7589 
  17   2.0000     -10.574922      -287.7582 
  18   2.0000     -10.574917      -287.7581 
  19   2.0000     -10.574895      -287.7575 
  20   2.0000     -10.568904      -287.5945 
  21   2.0000     -10.568865      -287.5934 
  22   2.0000     -10.568860      -287.5933 
  23   2.0000     -10.568825      -287.5923 
  24   2.0000     -10.558184      -287.3028 
  25   2.0000     -10.558180      -287.3027 
  26   2.0000     -10.558138      -287.3015 
  27   2.0000     -10.558129      -287.3013 
  28   2.0000     -10.540565      -286.8234 
  29   2.0000     -10.540557      -286.8231 
  30   2.0000     -10.540511      -286.8219 
  31   2.0000     -10.540508      -286.8218 
  32   2.0000     -10.539145      -286.7847 
  33   2.0000     -10.539126      -286.7842 
  34   2.0000     -10.539067      -286.7826 
  35   2.0000     -10.539061      -286.7824 
  36   2.0000     -10.535895      -286.6963 
  37   2.0000     -10.535876      -286.6958 
  38   2.0000     -10.535821      -286.6943 
  39   2.0000     -10.535817      -286.6941 
  40   2.0000     -10.533988      -286.6444 
  41   2.0000     -10.533985      -286.6443 
  42   2.0000     -10.533948      -286.6433 
  43   2.0000     -10.533934      -286.6429 
  44   2.0000     -10.533561      -286.6328 
  45   2.0000     -10.533555      -286.6326 
  46   2.0000     -10.533516      -286.6315 
  47   2.0000     -10.533505      -286.6312 
  48   2.0000     -10.530315      -286.5444 
  49   2.0000     -10.530299      -286.5440 
  50   2.0000     -10.530240      -286.5424 
  51   2.0000     -10.530232      -286.5422 
  52   2.0000     -10.511982      -286.0456 
  53   2.0000     -10.511978      -286.0455 
  54   2.0000     -10.511912      -286.0437 
  55   2.0000     -10.511904      -286.0435 
  56   2.0000     -10.509795      -285.9861 
  57   2.0000     -10.509775      -285.9855 
  58   2.0000     -10.509715      -285.9839 
  59   2.0000     -10.509690      -285.9832 
  60   2.0000     -10.508794      -285.9588 
  61   2.0000     -10.508788      -285.9587 
  62   2.0000     -10.508718      -285.9568 
  63   2.0000     -10.508699      -285.9562 
  64   2.0000     -10.506685      -285.9014 
  65   2.0000     -10.506673      -285.9011 
  66   2.0000     -10.506606      -285.8993 
  67   2.0000     -10.506592      -285.8989 
  68   2.0000     -10.506554      -285.8979 
  69   2.0000     -10.506547      -285.8977 
  70   2.0000     -10.506481      -285.8959 
  71   2.0000     -10.506463      -285.8954 
  72   2.0000     -10.504511      -285.8423 
  73   2.0000     -10.504499      -285.8419 
  74   2.0000     -10.504435      -285.8402 
  75   2.0000     -10.504425      -285.8399 
  76   2.0000     -10.497305      -285.6462 
  77   2.0000     -10.497291      -285.6458 
  78   2.0000     -10.497217      -285.6438 
  79   2.0000     -10.497211      -285.6436 
  80   2.0000     -10.496997      -285.6378 
  81   2.0000     -10.496991      -285.6376 
  82   2.0000     -10.496922      -285.6358 
  83   2.0000     -10.496909      -285.6354 
  84   2.0000     -10.491280      -285.4823 
  85   2.0000     -10.491257      -285.4816 
  86   2.0000     -10.491194      -285.4799 
  87   2.0000     -10.491168      -285.4792 
  88   2.0000     -10.486580      -285.3544 
  89   2.0000     -10.486572      -285.3541 
  90   2.0000     -10.486513      -285.3525 
  91   2.0000     -10.486495      -285.3520 
  92   2.0000     -10.485828      -285.3339 
  93   2.0000     -10.485800      -285.3331 
  94   2.0000     -10.485738      -285.3314 
  95   2.0000     -10.485716      -285.3308 
  96   2.0000     -10.485136      -285.3151 
  97   2.0000     -10.485124      -285.3147 
  98   2.0000     -10.485065      -285.3131 
  99   2.0000     -10.485049      -285.3127 
 100   2.0000     -10.475418      -285.0506 
 101   2.0000     -10.475407      -285.0503 
 102   2.0000     -10.475344      -285.0486 
 103   2.0000     -10.475318      -285.0479 
 104   2.0000      -3.845757      -104.6484 
 105   2.0000      -3.845753      -104.6483 
 106   2.0000      -2.523223       -68.6604 
 107   2.0000      -2.523217       -68.6602 
 108   2.0000      -2.522943       -68.6528 
 109   2.0000      -2.522941       -68.6527 
 110   2.0000      -2.486521       -67.6617 
 111   2.0000      -2.486517       -67.6616 
 112   2.0000      -1.300192       -35.3800 
 113   2.0000      -1.300161       -35.3792 
 114   2.0000      -1.294091       -35.2140 
 115   2.0000      -1.294055       -35.2130 
 116   2.0000      -1.291505       -35.1436 
 117   2.0000      -1.291468       -35.1426 
 118   2.0000      -1.288789       -35.0697 
 119   2.0000      -1.288770       -35.0692 
 120   2.0000      -1.169451       -31.8224 
 121   2.0000      -1.169392       -31.8208 
 122   2.0000      -1.168787       -31.8043 
 123   2.0000      -1.168734       -31.8029 
 124   2.0000      -1.143103       -31.1054 
 125   2.0000      -1.143004       -31.1027 
 126   2.0000      -1.142991       -31.1024 
 127   2.0000      -1.142914       -31.1003 
 128   2.0000      -1.135260       -30.8920 
 129   2.0000      -1.135158       -30.8892 
 130   2.0000      -1.134096       -30.8603 
 131   2.0000      -1.134037       -30.8587 
 132   2.0000      -1.103771       -30.0351 
 133   2.0000      -1.103705       -30.0334 
 134   2.0000      -1.102666       -30.0051 
 135   2.0000      -1.102584       -30.0028 
 136   2.0000      -1.097208       -29.8566 
 137   2.0000      -1.097142       -29.8548 
 138   2.0000      -1.096022       -29.8243 
 139   2.0000      -1.095886       -29.8206 
 140   2.0000      -1.081966       -29.4418 
 141   2.0000      -1.081872       -29.4392 
 142   2.0000      -1.081021       -29.4161 
 143   2.0000      -1.080917       -29.4132 
 144   2.0000      -1.068164       -29.0662 
 145   2.0000      -1.068045       -29.0630 
 146   2.0000      -1.067775       -29.0556 
 147   2.0000      -1.067257       -29.0415 
 148   2.0000      -1.054763       -28.7016 
 149   2.0000      -1.054390       -28.6914 
 150   2.0000      -1.053684       -28.6722 
 151   2.0000      -1.053053       -28.6550 
 152   2.0000      -1.035320       -28.1725 
 153   2.0000      -1.035067       -28.1656 
 154   2.0000      -1.035019       -28.1643 
 155   2.0000      -1.034710       -28.1559 
 156   2.0000      -1.010746       -27.5038 
 157   2.0000      -1.010657       -27.5014 
 158   2.0000      -1.009840       -27.4791 
 159   2.0000      -1.009724       -27.4760 
 160   2.0000      -0.991006       -26.9667 
 161   2.0000      -0.990844       -26.9622 
 162   2.0000      -0.990738       -26.9594 
 163   2.0000      -0.990402       -26.9502 
 164   2.0000      -0.963780       -26.2258 
 165   2.0000      -0.963231       -26.2109 
 166   2.0000      -0.962098       -26.1800 
 167   2.0000      -0.961350       -26.1597 
 168   2.0000      -0.960924       -26.1481 
 169   2.0000      -0.960883       -26.1470 
 170   2.0000      -0.958726       -26.0883 
 171   2.0000      -0.957703       -26.0604 
 172   2.0000      -0.947075       -25.7712 
 173   2.0000      -0.946965       -25.7682 
 174   2.0000      -0.945468       -25.7275 
 175   2.0000      -0.945403       -25.7257 
 176   2.0000      -0.936785       -25.4912 
 177   2.0000      -0.936705       -25.4890 
 178   2.0000      -0.935590       -25.4587 
 179   2.0000      -0.935526       -25.4570 
 180   2.0000      -0.919341       -25.0165 
 181   2.0000      -0.919236       -25.0137 
 182   2.0000      -0.918614       -24.9968 
 183   2.0000      -0.918516       -24.9941 
 184   2.0000      -0.893974       -24.3263 
 185   2.0000      -0.893323       -24.3086 
 186   2.0000      -0.893107       -24.3027 
 187   2.0000      -0.892854       -24.2958 
 188   2.0000      -0.885479       -24.0951 
 189   2.0000      -0.884539       -24.0695 
 190   2.0000      -0.884359       -24.0646 
 191   2.0000      -0.884014       -24.0552 
 192   2.0000      -0.868286       -23.6273 
 193   2.0000      -0.867146       -23.5962 
 194   2.0000      -0.862606       -23.4727 
 195   2.0000      -0.861849       -23.4521 
 196   2.0000      -0.848977       -23.1018 
 197   2.0000      -0.846662       -23.0388 
 198   2.0000      -0.846079       -23.0230 
 199   2.0000      -0.845295       -23.0017 
 200   2.0000      -0.833843       -22.6900 
[...]
 22 C      5.9943     6.0000     0.0057     3.8640     3.8640    -0.0000
 23 C      5.9576     6.0000     0.0424     3.8560     3.8560    -0.0000
 24 C      6.0605     6.0000    -0.0605     3.7353     3.7353    -0.0000
 25 C      5.9725     6.0000     0.0275     3.8624     3.8624    -0.0000
 26 H      0.9498     1.0000     0.0502     0.9903     0.9903    -0.0000
 27 H      0.9334     1.0000     0.0666     0.9819     0.9819    -0.0000
 28 H      0.9543     1.0000     0.0457     0.9905     0.9905    -0.0000
 29 H      1.0052     1.0000    -0.0052     0.9976     0.9976    -0.0000
 30 C      5.9483     6.0000     0.0517     3.6932     3.6932    -0.0000
 31 C      6.0403     6.0000    -0.0403     3.7098     3.7098    -0.0000
 32 C      6.1023     6.0000    -0.1023     3.8387     3.8387    -0.0000
 33 C      5.8891     6.0000     0.1109     3.8728     3.8728    -0.0000
 34 C      6.0207     6.0000    -0.0207     3.9226     3.9226    -0.0000
 35 C      5.8738     6.0000     0.1262     3.8706     3.8706    -0.0000
 36 N      7.2967     7.0000    -0.2967     3.3840     3.3840    -0.0000
 37 C      5.8330     6.0000     0.1670     3.8676     3.8676    -0.0000
 38 H      0.9219     1.0000     0.0781     0.9899     0.9899    -0.0000
 39 H      0.9160     1.0000     0.0840     0.9850     0.9850    -0.0000
 40 H      0.9206     1.0000     0.0794     0.9839     0.9839    -0.0000
 41 H      0.9462     1.0000     0.0538     0.9994     0.9994    -0.0000
 42 C      5.9662     6.0000     0.0338     3.6901     3.6901    -0.0000
 43 C      6.0730     6.0000    -0.0730     3.7046     3.7046    -0.0000
 44 C      6.0100     6.0000    -0.0100     3.7388     3.7388    -0.0000
 45 C      5.9608     6.0000     0.0392     3.8421     3.8421    -0.0000
 46 C      5.9792     6.0000     0.0208     3.8446     3.8446    -0.0000
 47 C      5.9860     6.0000     0.0140     3.8358     3.8358    -0.0000
 48 C      6.0477     6.0000    -0.0477     3.8920     3.8920    -0.0000
 49 C      5.8430     6.0000     0.1570     3.8561     3.8561    -0.0000
 50 N      7.3096     7.0000    -0.3096     3.3664     3.3664    -0.0000
 51 C      5.8637     6.0000     0.1363     3.8488     3.8488    -0.0000
 52 C      5.9938     6.0000     0.0062     3.8935     3.8935    -0.0000
 53 C      5.9366     6.0000     0.0634     3.9461     3.9461    -0.0000
 54 H      0.9391     1.0000     0.0609     0.9904     0.9904    -0.0000
 55 H      0.9255     1.0000     0.0745     0.9815     0.9815    -0.0000
 56 H      0.9594     1.0000     0.0406     0.9912     0.9912    -0.0000
 57 H      0.9416     1.0000     0.0584     0.9994     0.9994    -0.0000
 58 H      0.9536     1.0000     0.0464     0.9888     0.9888    -0.0000
 59 H      0.9633     1.0000     0.0367     1.0133     1.0133    -0.0000
 60 C      6.0524     6.0000    -0.0524     3.7388     3.7388    -0.0000
 61 C      5.9536     6.0000     0.0464     3.8560     3.8560    -0.0000
 62 C      5.9942     6.0000     0.0058     3.8640     3.8640    -0.0000
 63 C      5.9576     6.0000     0.0424     3.8560     3.8560    -0.0000
 64 C      6.0605     6.0000    -0.0605     3.7353     3.7353    -0.0000
 65 C      5.9725     6.0000     0.0275     3.8623     3.8623    -0.0000
 66 H      0.9498     1.0000     0.0502     0.9903     0.9903    -0.0000
 67 H      0.9335     1.0000     0.0665     0.9819     0.9819    -0.0000
 68 H      0.9542     1.0000     0.0458     0.9905     0.9905    -0.0000
 69 H      1.0052     1.0000    -0.0052     0.9976     0.9976    -0.0000
 70 C      5.9483     6.0000     0.0517     3.6931     3.6931    -0.0000
 71 C      6.0403     6.0000    -0.0403     3.7097     3.7097    -0.0000
 72 C      6.1023     6.0000    -0.1023     3.8387     3.8387    -0.0000
 73 C      5.8891     6.0000     0.1109     3.8727     3.8727    -0.0000
 74 C      6.0207     6.0000    -0.0207     3.9226     3.9226    -0.0000
 75 C      5.8738     6.0000     0.1262     3.8706     3.8706    -0.0000
 76 N      7.2967     7.0000    -0.2967     3.3840     3.3840    -0.0000
 77 C      5.8330     6.0000     0.1670     3.8677     3.8677    -0.0000
 78 H      0.9220     1.0000     0.0780     0.9899     0.9899    -0.0000
 79 H      0.9160     1.0000     0.0840     0.9850     0.9850    -0.0000
 80 H      0.9205     1.0000     0.0795     0.9839     0.9839    -0.0000
 81 H      0.9463     1.0000     0.0537     0.9994     0.9994    -0.0000
 82 C      5.9662     6.0000     0.0338     3.6902     3.6902    -0.0000
 83 C      6.0730     6.0000    -0.0730     3.7047     3.7047    -0.0000
 84 C      6.0101     6.0000    -0.0101     3.7389     3.7389    -0.0000
 85 C      5.9606     6.0000     0.0394     3.8421     3.8421    -0.0000
 86 C      5.9791     6.0000     0.0209     3.8445     3.8445    -0.0000
 87 C      5.9859     6.0000     0.0141     3.8358     3.8358    -0.0000
 88 C      6.0477     6.0000    -0.0477     3.8920     3.8920    -0.0000
 89 C      5.8430     6.0000     0.1570     3.8561     3.8561    -0.0000
 90 N      7.3096     7.0000    -0.3096     3.3667     3.3667    -0.0000
 91 C      5.8638     6.0000     0.1362     3.8488     3.8488    -0.0000
 92 C      5.9937     6.0000     0.0063     3.8935     3.8935    -0.0000
 93 C      5.9366     6.0000     0.0634     3.9462     3.9462    -0.0000
 94 H      0.9391     1.0000     0.0609     0.9904     0.9904    -0.0000
 95 H      0.9255     1.0000     0.0745     0.9815     0.9815    -0.0000
 96 H      0.9595     1.0000     0.0405     0.9912     0.9912    -0.0000
 97 H      0.9416     1.0000     0.0584     0.9994     0.9994    -0.0000
 98 H      0.9536     1.0000     0.0464     0.9888     0.9888    -0.0000
 99 H      0.9632     1.0000     0.0368     1.0133     1.0133    -0.0000
100 C      6.0525     6.0000    -0.0525     3.7389     3.7389    -0.0000
101 C      5.9535     6.0000     0.0465     3.8559     3.8559    -0.0000
102 C      5.9942     6.0000     0.0058     3.8640     3.8640    -0.0000
103 C      5.9576     6.0000     0.0424     3.8560     3.8560    -0.0000
104 C      6.0604     6.0000    -0.0604     3.7353     3.7353    -0.0000
105 C      5.9725     6.0000     0.0275     3.8624     3.8624    -0.0000
106 H      0.9498     1.0000     0.0502     0.9903     0.9903    -0.0000
107 H      0.9335     1.0000     0.0665     0.9819     0.9819    -0.0000
108 H      0.9543     1.0000     0.0457     0.9905     0.9905    -0.0000
109 H      1.0052     1.0000    -0.0052     0.9976     0.9976    -0.0000
110 C      5.9482     6.0000     0.0518     3.6933     3.6933    -0.0000
111 C      6.0405     6.0000    -0.0405     3.7100     3.7100    -0.0000
112 C      6.1023     6.0000    -0.1023     3.8387     3.8387    -0.0000
113 C      5.8890     6.0000     0.1110     3.8728     3.8728    -0.0000
114 C      6.0207     6.0000    -0.0207     3.9227     3.9227    -0.0000
115 C      5.8739     6.0000     0.1261     3.8705     3.8705    -0.0000
116 N      7.2966     7.0000    -0.2966     3.3843     3.3843    -0.0000
117 C      5.8328     6.0000     0.1672     3.8675     3.8675    -0.0000
118 H      0.9220     1.0000     0.0780     0.9900     0.9900    -0.0000
119 H      0.9160     1.0000     0.0840     0.9850     0.9850    -0.0000
120 H      0.9206     1.0000     0.0794     0.9839     0.9839    -0.0000
121 H      0.9462     1.0000     0.0538     0.9993     0.9993    -0.0000
122 C      5.9662     6.0000     0.0338     3.6902     3.6902    -0.0000
123 C      6.0729     6.0000    -0.0729     3.7047     3.7047    -0.0000
124 C      6.0100     6.0000    -0.0100     3.7389     3.7389    -0.0000
125 C      5.9606     6.0000     0.0394     3.8420     3.8420    -0.0000
126 C      5.9792     6.0000     0.0208     3.8445     3.8445    -0.0000
127 C      5.9860     6.0000     0.0140     3.8358     3.8358    -0.0000
128 C      6.0477     6.0000    -0.0477     3.8921     3.8921    -0.0000
129 C      5.8430     6.0000     0.1570     3.8561     3.8561    -0.0000
130 N      7.3095     7.0000    -0.3095     3.3667     3.3667    -0.0000
131 C      5.8638     6.0000     0.1362     3.8488     3.8488    -0.0000
132 C      5.9937     6.0000     0.0063     3.8935     3.8935    -0.0000
133 C      5.9366     6.0000     0.0634     3.9462     3.9462    -0.0000
134 H      0.9392     1.0000     0.0608     0.9904     0.9904    -0.0000
135 H      0.9255     1.0000     0.0745     0.9815     0.9815    -0.0000
136 H      0.9594     1.0000     0.0406     0.9912     0.9912    -0.0000
137 H      0.9416     1.0000     0.0584     0.9994     0.9994    -0.0000
138 H      0.9536     1.0000     0.0464     0.9888     0.9888    -0.0000
139 H      0.9632     1.0000     0.0368     1.0133     1.0133    -0.0000
140 C      6.0525     6.0000    -0.0525     3.7389     3.7389    -0.0000
141 C      5.9535     6.0000     0.0465     3.8559     3.8559    -0.0000
142 C      5.9942     6.0000     0.0058     3.8640     3.8640    -0.0000
143 C      5.9576     6.0000     0.0424     3.8560     3.8560    -0.0000
144 C      6.0604     6.0000    -0.0604     3.7352     3.7352    -0.0000
145 C      5.9726     6.0000     0.0274     3.8624     3.8624    -0.0000
146 H      0.9498     1.0000     0.0502     0.9903     0.9903    -0.0000
147 H      0.9335     1.0000     0.0665     0.9819     0.9819    -0.0000
148 H      0.9543     1.0000     0.0457     0.9905     0.9905    -0.0000
149 H      1.0052     1.0000    -0.0052     0.9976     0.9976    -0.0000
150 C      5.9482     6.0000     0.0518     3.6932     3.6932    -0.0000
151 C      6.0404     6.0000    -0.0404     3.7100     3.7100    -0.0000
152 C      6.1023     6.0000    -0.1023     3.8387     3.8387    -0.0000
153 C      5.8891     6.0000     0.1109     3.8728     3.8728    -0.0000
154 C      6.0207     6.0000    -0.0207     3.9227     3.9227    -0.0000
155 C      5.8739     6.0000     0.1261     3.8705     3.8705    -0.0000
156 N      7.2967     7.0000    -0.2967     3.3843     3.3843    -0.0000
157 C      5.8328     6.0000     0.1672     3.8674     3.8674    -0.0000
158 H      0.9219     1.0000     0.0781     0.9899     0.9899    -0.0000
159 H      0.9160     1.0000     0.0840     0.9850     0.9850    -0.0000
160 H      0.9206     1.0000     0.0794     0.9839     0.9839    -0.0000
161 H      0.9462     1.0000     0.0538     0.9993     0.9993    -0.0000

  Mayer bond orders larger than 0.100000
B(  0-Pd, 36-N ) :   0.5435 B(  0-Pd, 76-N ) :   0.5435 B(  0-Pd, 90-N ) :   0.5508 
B(  0-Pd,130-N ) :   0.5508 B(  1-Pd, 10-N ) :   0.5507 B(  1-Pd, 50-N ) :   0.5507 
B(  1-Pd,116-N ) :   0.5438 B(  1-Pd,156-N ) :   0.5438 B(  2-C ,  3-C ) :   2.5988 
B(  2-C , 20-C ) :   0.9972 B(  3-C ,  4-C ) :   1.0002 B(  4-C ,  5-C ) :   1.4348 
B(  4-C , 13-C ) :   1.2332 B(  5-C ,  6-C ) :   1.2704 B(  5-C , 14-H ) :   0.9915 
B(  6-C ,  7-C ) :   1.4702 B(  6-C , 15-H ) :   0.9811 B(  7-C ,  8-C ) :   1.2378 
B(  7-C , 16-H ) :   0.9961 B(  8-C ,  9-C ) :   1.2953 B(  8-C , 13-C ) :   1.2193 
B(  9-C , 10-N ) :   1.4186 B(  9-C , 17-H ) :   0.9554 B( 10-N , 11-C ) :   1.1997 
B( 11-C , 12-C ) :   1.5310 B( 11-C , 18-H ) :   0.9500 B( 12-C , 13-C ) :   1.2949 
B( 12-C , 19-H ) :   0.9566 B( 20-C , 21-C ) :   1.3251 B( 20-C , 25-C ) :   1.3374 
B( 21-C , 22-C ) :   1.3839 B( 21-C , 26-H ) :   0.9955 B( 22-C , 23-C ) :   1.3860 
B( 22-C , 27-H ) :   0.9838 B( 23-C , 24-C ) :   1.3194 B( 23-C , 28-H ) :   0.9962 
B( 24-C , 25-C ) :   1.3286 B( 24-C , 30-C ) :   1.0083 B( 25-C , 29-H ) :   0.9975 
B( 30-C , 31-C ) :   2.5948 B( 31-C , 32-C ) :   1.0230 B( 32-C , 33-C ) :   1.3421 
B( 32-C , 37-C ) :   1.3632 B( 33-C , 34-C ) :   1.4057 B( 33-C , 38-H ) :   0.9863 
B( 34-C , 35-C ) :   1.4194 B( 34-C , 39-H ) :   0.9724 B( 35-C , 36-N ) :   1.3104 
B( 35-C , 40-H ) :   0.9543 B( 36-N , 37-C ) :   1.3352 B( 37-C , 41-H ) :   0.9625 
B( 42-C , 43-C ) :   2.5988 B( 42-C , 60-C ) :   0.9972 B( 43-C , 44-C ) :   1.0002 
B( 44-C , 45-C ) :   1.4349 B( 44-C , 53-C ) :   1.2331 B( 45-C , 46-C ) :   1.2703 
B( 45-C , 54-H ) :   0.9915 B( 46-C , 47-C ) :   1.4702 B( 46-C , 55-H ) :   0.9811 
B( 47-C , 48-C ) :   1.2379 B( 47-C , 56-H ) :   0.9961 B( 48-C , 49-C ) :   1.2954 
B( 48-C , 53-C ) :   1.2191 B( 49-C , 50-N ) :   1.4185 B( 49-C , 57-H ) :   0.9553 
B( 50-N , 51-C ) :   1.1997 B( 51-C , 52-C ) :   1.5309 B( 51-C , 58-H ) :   0.9500 
B( 52-C , 53-C ) :   1.2951 B( 52-C , 59-H ) :   0.9566 B( 60-C , 61-C ) :   1.3252 
B( 60-C , 65-C ) :   1.3373 B( 61-C , 62-C ) :   1.3839 B( 61-C , 66-H ) :   0.9955 
B( 62-C , 63-C ) :   1.3860 B( 62-C , 67-H ) :   0.9838 B( 63-C , 64-C ) :   1.3194 
B( 63-C , 68-H ) :   0.9962 B( 64-C , 65-C ) :   1.3286 B( 64-C , 70-C ) :   1.0083 
B( 65-C , 69-H ) :   0.9975 B( 70-C , 71-C ) :   2.5948 B( 71-C , 72-C ) :   1.0230 
B( 72-C , 73-C ) :   1.3420 B( 72-C , 77-C ) :   1.3633 B( 73-C , 74-C ) :   1.4058 
B( 73-C , 78-H ) :   0.9863 B( 74-C , 75-C ) :   1.4193 B( 74-C , 79-H ) :   0.9724 
B( 75-C , 76-N ) :   1.3105 B( 75-C , 80-H ) :   0.9543 B( 76-N , 77-C ) :   1.3351 
B( 77-C , 81-H ) :   0.9625 B( 82-C , 83-C ) :   2.5989 B( 82-C ,100-C ) :   0.9972 
B( 83-C , 84-C ) :   1.0002 B( 84-C , 85-C ) :   1.4348 B( 84-C , 93-C ) :   1.2333 
B( 85-C , 86-C ) :   1.2704 B( 85-C , 94-H ) :   0.9915 B( 86-C , 87-C ) :   1.4701 
B( 86-C , 95-H ) :   0.9811 B( 87-C , 88-C ) :   1.2380 B( 87-C , 96-H ) :   0.9961 
B( 88-C , 89-C ) :   1.2953 B( 88-C , 93-C ) :   1.2191 B( 89-C , 90-N ) :   1.4186 
B( 89-C , 97-H ) :   0.9554 B( 90-N , 91-C ) :   1.1996 B( 91-C , 92-C ) :   1.5310 
B( 91-C , 98-H ) :   0.9500 B( 92-C , 93-C ) :   1.2950 B( 92-C , 99-H ) :   0.9566 
B(100-C ,101-C ) :   1.3251 B(100-C ,105-C ) :   1.3374 B(101-C ,102-C ) :   1.3839 
B(101-C ,106-H ) :   0.9955 B(102-C ,103-C ) :   1.3860 B(102-C ,107-H ) :   0.9838 
B(103-C ,104-C ) :   1.3193 B(103-C ,108-H ) :   0.9962 B(104-C ,105-C ) :   1.3287 
B(104-C ,110-C ) :   1.0083 B(105-C ,109-H ) :   0.9975 B(110-C ,111-C ) :   2.5949 
B(111-C ,112-C ) :   1.0231 B(112-C ,113-C ) :   1.3419 B(112-C ,117-C ) :   1.3632 
B(113-C ,114-C ) :   1.4059 B(113-C ,118-H ) :   0.9863 B(114-C ,115-C ) :   1.4193 
B(114-C ,119-H ) :   0.9724 B(115-C ,116-N ) :   1.3104 B(115-C ,120-H ) :   0.9543 
B(116-N ,117-C ) :   1.3351 B(117-C ,121-H ) :   0.9625 B(122-C ,123-C ) :   2.5989 
B(122-C ,140-C ) :   0.9972 B(123-C ,124-C ) :   1.0001 B(124-C ,125-C ) :   1.4349 
B(124-C ,133-C ) :   1.2331 B(125-C ,126-C ) :   1.2703 B(125-C ,134-H ) :   0.9916 
B(126-C ,127-C ) :   1.4702 B(126-C ,135-H ) :   0.9811 B(127-C ,128-C ) :   1.2380 
B(127-C ,136-H ) :   0.9960 B(128-C ,129-C ) :   1.2953 B(128-C ,133-C ) :   1.2192 
B(129-C ,130-N ) :   1.4185 B(129-C ,137-H ) :   0.9554 B(130-N ,131-C ) :   1.1997 
B(131-C ,132-C ) :   1.5310 B(131-C ,138-H ) :   0.9499 B(132-C ,133-C ) :   1.2950 
B(132-C ,139-H ) :   0.9566 B(140-C ,141-C ) :   1.3252 B(140-C ,145-C ) :   1.3373 
B(141-C ,142-C ) :   1.3838 B(141-C ,146-H ) :   0.9955 B(142-C ,143-C ) :   1.3861 
B(142-C ,147-H ) :   0.9838 B(143-C ,144-C ) :   1.3193 B(143-C ,148-H ) :   0.9962 
B(144-C ,145-C ) :   1.3288 B(144-C ,150-C ) :   1.0083 B(145-C ,149-H ) :   0.9974 
B(150-C ,151-C ) :   2.5949 B(151-C ,152-C ) :   1.0231 B(152-C ,153-C ) :   1.3420 
B(152-C ,157-C ) :   1.3633 B(153-C ,154-C ) :   1.4059 B(153-C ,158-H ) :   0.9862 
B(154-C ,155-C ) :   1.4193 B(154-C ,159-H ) :   0.9724 B(155-C ,156-N ) :   1.3104 
B(155-C ,160-H ) :   0.9543 B(156-N ,157-C ) :   1.3351 B(157-C ,161-H ) :   0.9625 


-------
TIMINGS
-------

Total SCF time: 0 days 0 hours 13 min 57 sec 

Total time                  ....     837.229 sec
Sum of individual times     ....     831.357 sec  ( 99.3%)

Fock matrix formation       ....     678.837 sec  ( 81.1%)
  XC integration            ....      28.570 sec  (  4.2% of F)
    Basis function eval.    ....       6.688 sec  ( 23.4% of XC)
    Density eval.           ....       9.721 sec  ( 34.0% of XC)
    XC-Functional eval.     ....       0.885 sec  (  3.1% of XC)
    XC-Potential eval.      ....       4.039 sec  ( 14.1% of XC)
Diagonalization             ....      18.457 sec  (  2.2%)
Density matrix formation    ....       1.025 sec  (  0.1%)
Population analysis         ....       4.869 sec  (  0.6%)
Initial guess               ....      26.032 sec  (  3.1%)
Orbital Transformation      ....       0.000 sec  (  0.0%)
Orbital Orthonormalization  ....       0.000 sec  (  0.0%)
DIIS solution               ....      68.498 sec  (  8.2%)
Grid generation             ....      33.640 sec  (  4.0%)


-------------------------------------------------------------------------------
                          DFT DISPERSION CORRECTION                            
                                                                               
                              DFTD3 V3.1  Rev 1                                
                          USING Becke-Johnson damping                          
-------------------------------------------------------------------------------
The PBE0 functional is recognized
Active option DFTDOPT                   ...         4   

molecular C6(AA) [au] = 419992.960944 


            DFT-D V3
 parameters
 s6 scaling factor         :     1.0000 
 a1 scaling factor         :     0.4145 
 s8 scaling factor         :     1.2177 
 a2 scaling factor         :     4.8593 
 ad hoc parameters k1-k3   :    16.0000     1.3333    -4.0000 

 Edisp/kcal,au: -156.331737185981  -0.249130454553 
 E6   /kcal   : -96.419806940 
 E8   /kcal   : -59.911930246 
 % E8         :  38.323587599 

-------------------------   ----------------
Dispersion correction           -0.249130455
-------------------------   ----------------


-------------------------   --------------------
FINAL SINGLE POINT ENERGY     -4376.845880457196
-------------------------   --------------------


                            ***************************************
                            *     ORCA property calculations      *
                            ***************************************

                                    ---------------------
                                    Active property flags
                                    ---------------------
   (+) Dipole Moment


------------------------------------------------------------------------------
                       ORCA ELECTRIC PROPERTIES CALCULATION
------------------------------------------------------------------------------

Dipole Moment Calculation                       ... on
Quadrupole Moment Calculation                   ... off
Polarizability Calculation                      ... off
GBWName                                         ... _s_5d3_c_PBE0.gbw
Electron density file                           ... _s_5d3_c_PBE0.scfp
The origin for moment calculation is the CENTER OF MASS  = ( 0.103366,  0.068691 -0.804046)

-------------
DIPOLE MOMENT
-------------
                                X             Y             Z
Electronic contribution:     -0.52711      -0.02194      -0.98227
Nuclear contribution   :      0.53012       0.02342       0.98385
                        -----------------------------------------
Total Dipole Moment    :      0.00301       0.00148       0.00158
                        -----------------------------------------
Magnitude (a.u.)       :      0.00370
Magnitude (Debye)      :      0.00941



--------------------
Rotational spectrum 
--------------------
 
Rotational constants in cm-1:     0.000415     0.000307     0.000297 
Rotational constants in MHz :    12.430026     9.209581     8.911988 

 Dipole components along the rotational axes: 
x,y,z [a.u.] :    -0.000755     0.003444    -0.001135 
x,y,z [Debye]:    -0.001920     0.008753    -0.002884 

 

Timings for individual modules:

Sum of individual times         ...      862.545 sec (=  14.376 min)
GTO integral calculation        ...       16.641 sec (=   0.277 min)   1.9 %
SCF iterations                  ...      845.904 sec (=  14.098 min)  98.1 %
                             ****ORCA TERMINATED NORMALLY****
TOTAL RUN TIME: 0 days 0 hours 14 minutes 32 seconds 648 msec
