 Entering Gaussian System, Link 0=g16
 Initial command:
 /apps/gaussian/g16-c01-avx/g16/l1.exe "/rds/general/ephemeral/user/atarzia/ephemeral/unsymm/single_point_dft/s_4b1_d/Gau-1990558.inp" -scrdir="/rds/general/ephemeral/user/atarzia/ephemeral/unsymm/single_point_dft/s_4b1_d/"
 Entering Link 1 = /apps/gaussian/g16-c01-avx/g16/l1.exe PID=   1990559.
  
 Copyright (c) 1988-2019, Gaussian, Inc.  All Rights Reserved.
  
 This is part of the Gaussian(R) 16 program.  It is based on
 the Gaussian(R) 09 system (copyright 2009, Gaussian, Inc.),
 the Gaussian(R) 03 system (copyright 2003, Gaussian, Inc.),
 the Gaussian(R) 98 system (copyright 1998, Gaussian, Inc.),
 the Gaussian(R) 94 system (copyright 1995, Gaussian, Inc.),
 the Gaussian 92(TM) system (copyright 1992, Gaussian, Inc.),
 the Gaussian 90(TM) system (copyright 1990, Gaussian, Inc.),
 the Gaussian 88(TM) system (copyright 1988, Gaussian, Inc.),
 the Gaussian 86(TM) system (copyright 1986, Carnegie Mellon
 University), and the Gaussian 82(TM) system (copyright 1983,
 Carnegie Mellon University). Gaussian is a federally registered
 trademark of Gaussian, Inc.
  
 This software contains proprietary and confidential information,
 including trade secrets, belonging to Gaussian, Inc.
  
 This software is provided under written license and may be
 used, copied, transmitted, or stored only in accord with that
 written license.
  
 The following legend is applicable only to US Government
 contracts under FAR:
  
                    RESTRICTED RIGHTS LEGEND
  
 Use, reproduction and disclosure by the US Government is
 subject to restrictions as set forth in subparagraphs (a)
 and (c) of the Commercial Computer Software - Restricted
 Rights clause in FAR 52.227-19.
  
 Gaussian, Inc.
 340 Quinnipiac St., Bldg. 40, Wallingford CT 06492
  
  
 ---------------------------------------------------------------
 Warning -- This program may not be used in any manner that
 competes with the business of Gaussian, Inc. or will provide
 assistance to any competitor of Gaussian, Inc.  The licensee
 of this program is prohibited from giving any competitor of
 Gaussian, Inc. access to this program.  By using this program,
 the user acknowledges that Gaussian, Inc. is engaged in the
 business of creating and licensing software in the field of
 computational chemistry and represents and warrants to the
 licensee that it is not a competitor of Gaussian, Inc. and that
 it will not use this program in any manner prohibited above.
 ---------------------------------------------------------------
  

 Cite this work as:
 Gaussian 16, Revision C.01,
 M. J. Frisch, G. W. Trucks, H. B. Schlegel, G. E. Scuseria, 
 M. A. Robb, J. R. Cheeseman, G. Scalmani, V. Barone, 
 G. A. Petersson, H. Nakatsuji, X. Li, M. Caricato, A. V. Marenich, 
 J. Bloino, B. G. Janesko, R. Gomperts, B. Mennucci, H. P. Hratchian, 
 J. V. Ortiz, A. F. Izmaylov, J. L. Sonnenberg, D. Williams-Young, 
 F. Ding, F. Lipparini, F. Egidi, J. Goings, B. Peng, A. Petrone, 
 T. Henderson, D. Ranasinghe, V. G. Zakrzewski, J. Gao, N. Rega, 
 G. Zheng, W. Liang, M. Hada, M. Ehara, K. Toyota, R. Fukuda, 
 J. Hasegawa, M. Ishida, T. Nakajima, Y. Honda, O. Kitao, H. Nakai, 
 T. Vreven, K. Throssell, J. A. Montgomery, Jr., J. E. Peralta, 
 F. Ogliaro, M. J. Bearpark, J. J. Heyd, E. N. Brothers, K. N. Kudin, 
 V. N. Staroverov, T. A. Keith, R. Kobayashi, J. Normand, 
 K. Raghavachari, A. P. Rendell, J. C. Burant, S. S. Iyengar, 
 J. Tomasi, M. Cossi, J. M. Millam, M. Klene, C. Adamo, R. Cammi, 
 J. W. Ochterski, R. L. Martin, K. Morokuma, O. Farkas, 
 J. B. Foresman, and D. J. Fox, Gaussian, Inc., Wallingford CT, 2019.
 
 ******************************************
 Gaussian 16:  ES64L-G16RevC.01  3-Jul-2019
                26-Feb-2021 
 ******************************************
 %chk=_s_4b1_d.chk
 %mem=60000mb
 %nprocshared=32
 Will use up to   32 processors via shared memory.
 ----------------------------------------------------------------------
 #P PBE1PBE/Def2SVP SP SCF=(YQC,MaxCycle=900) int=(Grid=Superfinegrid) 
 EmpiricalDispersion=GD3BJ SCRF=(PCM,Solvent=DiMethylSulfoxide)
 ----------------------------------------------------------------------
 1/38=1,172=1/1;
 2/12=2,17=6,18=5,40=1/2;
 3/5=43,7=101,11=2,25=1,30=1,70=2201,72=21,74=-13,75=-7,124=41/1,2,3;
 4//1;
 5/5=2,7=900,8=4,13=1,38=1,53=21/8,2,8;
 6/7=2,8=2,9=2,10=2,28=1/1;
 99/5=1,9=1/99;
 Leave Link    1 at Fri Feb 26 10:24:25 2021, MaxMem=  7864320000 cpu:               3.4 elap:               0.1
 (Enter /apps/gaussian/g16-c01-avx/g16/l101.exe)
 --------
 _s_4b1_d
 --------
 Symbolic Z-matrix:
 Charge =  4 Multiplicity = 1
 Pd                    1.097     6.339    -0.8433 
 Pd                    0.5625   -4.9277   -0.6882 
 C                     5.6063   -1.2288   -1.3336 
 C                     5.6923   -2.4347   -1.3759 
 C                     5.8966   -3.827    -1.4394 
 C                     7.1706   -4.3179   -1.6622 
 C                     7.4149   -5.6936   -1.7197 
 C                     6.3945   -6.5978   -1.56 
 C                     5.0818   -6.1438   -1.34 
 C                     3.9888   -7.0256   -1.1771 
 C                     2.7351   -6.5251   -0.9789 
 N                     2.4964   -5.1896   -0.9314 
 C                     3.4876   -4.3353   -1.0702 
 C                     4.8157   -4.7448   -1.2775 
 H                     7.9893   -3.6259   -1.7879 
 H                     8.4224   -6.0406   -1.8913 
 H                     6.5849   -7.6586   -1.6032 
 H                     4.1597   -8.0898   -1.2145 
 H                     1.8737   -7.1871   -0.8505 
 H                     3.2421   -3.2797   -1.0193 
 C                     5.4258    0.169    -1.2822 
 C                     6.1041    1.0086   -2.1703 
 C                     5.879     2.3703   -2.1443 
 C                     4.9702    2.9213   -1.2396 
 C                     4.3217    2.0819   -0.3303 
 C                     4.5463    0.7225   -0.3468 
 H                     6.7947    0.5861   -2.8839 
 H                     6.3868    3.0059   -2.8532 
 H                     3.6619    2.503     0.4112 
 H                     4.0536    0.0786    0.3631 
 C                     4.6687    4.3596   -1.2545 
 C                     5.6554    5.3366   -1.4259 
 C                     5.2985    6.6738   -1.4268 
 C                     3.9664    7.0204   -1.2579 
 N                     3.0276    6.0908   -1.104 
 C                     3.354     4.7967   -1.1032 
 H                     6.6888    5.0473   -1.5381 
 H                     6.0431    7.4431   -1.5519 
 H                     3.6402    8.0541   -1.2468 
 H                     2.5319    4.0809   -0.9965 
 C                     1.5259    2.4392    4.0696 
 C                     1.6562    3.6354    4.1943 
 C                     1.8222    5.0118    4.4425 
 C                     2.0939    5.4432    5.7286 
 C                     2.2533    6.8024    6.0162 
 C                     2.1478    7.749     5.0277 
 C                     1.881     7.3556    3.7041 
 C                     1.7692    8.2826    2.6425 
 C                     1.5219    7.8393    1.376 
 N                     1.3776    6.5191    1.0948 
 C                     1.4656    5.6246    2.056 
 C                     1.7155    5.9742    3.3939 
 H                     2.1781    4.7173    6.5228 
 H                     2.4608    7.1026    7.0319 
 H                     2.2693    8.7971    5.2515 
 H                     1.8841    9.3351    2.8472 
 H                     1.431     8.537     0.5383 
 H                     1.3373    4.584     1.7772 
 C                     1.375     1.0552    3.8442 
 C                     0.4153    0.5988    2.9356 
 C                     0.3041   -0.748     2.6669 
 C                     1.1406   -1.6712    3.2994 
 C                     2.0689   -1.216     4.2371 
 C                     2.1898    0.1324    4.5064 
 H                    -0.2387    1.3076    2.4547 
 H                    -0.4557   -1.0933    1.9842 
 H                     2.7221   -1.9171    4.7331 
 H                     2.9216    0.4801    5.2191 
 C                     1.0566   -3.0965    2.9514 
 C                     1.1426   -4.1139    3.9079 
 C                     1.0536   -5.4359    3.5076 
 C                     0.8814   -5.7271    2.1628 
 N                     0.8088   -4.7597    1.2528 
 C                     0.8946   -3.4798    1.6213 
 H                     1.2593   -3.8663    4.9515 
 H                     1.1118   -6.2353    4.2283 
 H                     0.8017   -6.7465    1.8028 
 H                     0.8519   -2.7325    0.8218 
 C                    -4.1082   -0.7519   -0.154 
 C                    -4.308    -1.9426   -0.0795 
 C                    -4.6432   -3.3071    0.021 
 C                    -5.958    -3.669     0.2534 
 C                    -6.3314   -5.0134    0.3476 
 C                    -5.4011   -6.0141    0.2156 
 C                    -4.0512   -5.6925   -0.013 
 C                    -3.0465   -6.6778   -0.1487 
 C                    -1.7511   -6.3038   -0.3572 
 N                    -1.3871   -4.9986   -0.4407 
 C                    -2.293    -4.0509   -0.3279 
 C                    -3.654    -4.3271   -0.1128 
 H                    -6.7076   -2.8995    0.3577 
 H                    -7.3672   -5.2587    0.5256 
 H                    -5.691    -7.0505    0.2872 
 H                    -3.3173   -7.7196   -0.0825 
 H                    -0.9562   -7.0476   -0.4652 
 H                    -1.9488   -3.025    -0.4069 
 C                    -3.7961    0.6206   -0.2428 
 C                    -2.8694    1.0629   -1.1917 
 C                    -2.5171    2.394    -1.2447 
 C                    -3.0819    3.3153   -0.3591 
 C                    -4.0374    2.8774    0.5592 
 C                    -4.3905    1.5443    0.6217 
 H                    -2.4409    0.3563   -1.8835 
 H                    -1.8214    2.7305   -1.9965 
 H                    -4.4817    3.5771    1.25 
 H                    -5.1169    1.2086    1.3456 
 C                    -2.6454    4.7184   -0.3829 
 C                    -3.535     5.7887   -0.239 
 C                    -3.0531    7.0857   -0.274 
 C                    -1.6945    7.2999   -0.4508 
 N                    -0.8481    6.2818   -0.5784 
 C                    -1.2955    5.0249   -0.5445 
 H                    -4.591     5.6017   -0.1201 
 H                    -3.7214    7.9251   -0.1706 
 H                    -1.2719    8.2973   -0.4896 
 H                    -0.5451    4.2318   -0.6308 
 C                     0.2944    2.3638   -5.6482 
 C                     0.2779    3.563    -5.8057 
 C                     0.2426    4.9417   -6.0917 
 C                     0.0113    5.3614   -7.3895 
 C                    -0.0191    6.7212   -7.7145 
 C                     0.1769    7.6803   -6.7522 
 C                     0.407     7.2999   -5.4179 
 C                     0.6074    8.2409   -4.382 
 C                     0.8131    7.8111   -3.1035 
 N                     0.8322    6.4914   -2.786 
 C                     0.6587    5.5833   -3.7224 
 C                     0.4414    5.9181   -5.0698 
 H                    -0.1424    4.6253   -8.1636 
 H                    -0.1986    7.0118   -8.7383 
 H                     0.1548    8.7287   -7.0048 
 H                     0.5923    9.2936   -4.6157 
 H                     0.9707    8.5198   -2.2852 
 H                     0.6884    4.5432   -3.4149 
 C                     0.3139    0.9784   -5.3847 
 C                    -0.5852    0.119    -6.0225 
 C                    -0.5921   -1.227    -5.716 
 C                     0.29     -1.7419   -4.7648 
 C                     1.2108   -0.885    -4.1567 
 C                     1.2272    0.4585   -4.4625 
 H                    -1.2817    0.5145   -6.7456 
 H                    -1.3093   -1.8765   -6.1936 
 H                     1.9352   -1.2816   -3.4636 
 H                     1.9458    1.1152   -4.0003 
 C                     0.2393   -3.1586   -4.3776 
 C                     0.0566   -4.1894   -5.3059 
 C                     0.021    -5.5023   -4.8692 
 C                     0.1663   -5.7714   -3.5167 
 N                     0.3308   -4.7904   -2.6336 
 C                     0.3657   -3.5188   -3.0372 
 H                    -0.0372   -3.9607   -6.3561 
 H                    -0.1132   -6.3122   -5.5678 
 H                     0.1498   -6.7834   -3.1287 
 H                     0.4796   -2.7571   -2.2585 
 
 ITRead=  0  0  0  0  0  0  0  0  0  0  0  0  0  0  0  0  0  0  0  0
 ITRead=  0  0  0  0  0  0  0  0  0  0  0  0  0  0  0  0  0  0  0  0
 ITRead=  0  0  0  0  0  0  0  0  0  0  0  0  0  0  0  0  0  0  0  0
 ITRead=  0  0  0  0  0  0  0  0  0  0  0  0  0  0  0  0  0  0  0  0
 ITRead=  0  0  0  0  0  0  0  0  0  0  0  0  0  0  0  0  0  0  0  0
 ITRead=  0  0  0  0  0  0  0  0  0  0  0  0  0  0  0  0  0  0  0  0
 ITRead=  0  0  0  0  0  0  0  0  0  0  0  0  0  0  0  0  0  0  0  0
 ITRead=  0  0  0  0  0  0  0  0  0  0  0  0  0  0
 MicOpt= -1 -1 -1 -1 -1 -1 -1 -1 -1 -1 -1 -1 -1 -1 -1 -1 -1 -1 -1 -1
 MicOpt= -1 -1 -1 -1 -1 -1 -1 -1 -1 -1 -1 -1 -1 -1 -1 -1 -1 -1 -1 -1
 MicOpt= -1 -1 -1 -1 -1 -1 -1 -1 -1 -1 -1 -1 -1 -1 -1 -1 -1 -1 -1 -1
 MicOpt= -1 -1 -1 -1 -1 -1 -1 -1 -1 -1 -1 -1 -1 -1 -1 -1 -1 -1 -1 -1
 MicOpt= -1 -1 -1 -1 -1 -1 -1 -1 -1 -1 -1 -1 -1 -1 -1 -1 -1 -1 -1 -1
 MicOpt= -1 -1 -1 -1 -1 -1 -1 -1 -1 -1 -1 -1 -1 -1 -1 -1 -1 -1 -1 -1
 MicOpt= -1 -1 -1 -1 -1 -1 -1 -1 -1 -1 -1 -1 -1 -1 -1 -1 -1 -1 -1 -1
 MicOpt= -1 -1 -1 -1 -1 -1 -1 -1 -1 -1 -1 -1 -1 -1
 NAtoms=    154 NQM=      154 NQMF=       0 NMMI=      0 NMMIF=      0
                NMic=       0 NMicF=      0.
                    Isotopes and Nuclear Properties:
 (Nuclear quadrupole moments (NQMom) in fm**2, nuclear magnetic moments (NMagM)
  in nuclear magnetons)

  Atom         1           2           3           4           5           6           7           8           9          10
 IAtWgt=         106         106          12          12          12          12          12          12          12          12
 AtmWgt= 105.9032000 105.9032000  12.0000000  12.0000000  12.0000000  12.0000000  12.0000000  12.0000000  12.0000000  12.0000000
 NucSpn=           0           0           0           0           0           0           0           0           0           0
 AtZEff=  -0.0000000  -0.0000000  -0.0000000  -0.0000000  -0.0000000  -0.0000000  -0.0000000  -0.0000000  -0.0000000  -0.0000000
 NQMom=    0.0000000   0.0000000   0.0000000   0.0000000   0.0000000   0.0000000   0.0000000   0.0000000   0.0000000   0.0000000
 NMagM=    0.0000000   0.0000000   0.0000000   0.0000000   0.0000000   0.0000000   0.0000000   0.0000000   0.0000000   0.0000000
 AtZNuc=  46.0000000  46.0000000   6.0000000   6.0000000   6.0000000   6.0000000   6.0000000   6.0000000   6.0000000   6.0000000

  Atom        11          12          13          14          15          16          17          18          19          20
 IAtWgt=          12          14          12          12           1           1           1           1           1           1
 AtmWgt=  12.0000000  14.0030740  12.0000000  12.0000000   1.0078250   1.0078250   1.0078250   1.0078250   1.0078250   1.0078250
 NucSpn=           0           2           0           0           1           1           1           1           1           1
 AtZEff=  -0.0000000  -0.0000000  -0.0000000  -0.0000000  -0.0000000  -0.0000000  -0.0000000  -0.0000000  -0.0000000  -0.0000000
 NQMom=    0.0000000   2.0440000   0.0000000   0.0000000   0.0000000   0.0000000   0.0000000   0.0000000   0.0000000   0.0000000
 NMagM=    0.0000000   0.4037610   0.0000000   0.0000000   2.7928460   2.7928460   2.7928460   2.7928460   2.7928460   2.7928460
 AtZNuc=   6.0000000   7.0000000   6.0000000   6.0000000   1.0000000   1.0000000   1.0000000   1.0000000   1.0000000   1.0000000

  Atom        21          22          23          24          25          26          27          28          29          30
 IAtWgt=          12          12          12          12          12          12           1           1           1           1
 AtmWgt=  12.0000000  12.0000000  12.0000000  12.0000000  12.0000000  12.0000000   1.0078250   1.0078250   1.0078250   1.0078250
 NucSpn=           0           0           0           0           0           0           1           1           1           1
 AtZEff=  -0.0000000  -0.0000000  -0.0000000  -0.0000000  -0.0000000  -0.0000000  -0.0000000  -0.0000000  -0.0000000  -0.0000000
 NQMom=    0.0000000   0.0000000   0.0000000   0.0000000   0.0000000   0.0000000   0.0000000   0.0000000   0.0000000   0.0000000
 NMagM=    0.0000000   0.0000000   0.0000000   0.0000000   0.0000000   0.0000000   2.7928460   2.7928460   2.7928460   2.7928460
 AtZNuc=   6.0000000   6.0000000   6.0000000   6.0000000   6.0000000   6.0000000   1.0000000   1.0000000   1.0000000   1.0000000

  Atom        31          32          33          34          35          36          37          38          39          40
 IAtWgt=          12          12          12          12          14          12           1           1           1           1
 AtmWgt=  12.0000000  12.0000000  12.0000000  12.0000000  14.0030740  12.0000000   1.0078250   1.0078250   1.0078250   1.0078250
 NucSpn=           0           0           0           0           2           0           1           1           1           1
 AtZEff=  -0.0000000  -0.0000000  -0.0000000  -0.0000000  -0.0000000  -0.0000000  -0.0000000  -0.0000000  -0.0000000  -0.0000000
 NQMom=    0.0000000   0.0000000   0.0000000   0.0000000   2.0440000   0.0000000   0.0000000   0.0000000   0.0000000   0.0000000
 NMagM=    0.0000000   0.0000000   0.0000000   0.0000000   0.4037610   0.0000000   2.7928460   2.7928460   2.7928460   2.7928460
 AtZNuc=   6.0000000   6.0000000   6.0000000   6.0000000   7.0000000   6.0000000   1.0000000   1.0000000   1.0000000   1.0000000

  Atom        41          42          43          44          45          46          47          48          49          50
 IAtWgt=          12          12          12          12          12          12          12          12          12          14
 AtmWgt=  12.0000000  12.0000000  12.0000000  12.0000000  12.0000000  12.0000000  12.0000000  12.0000000  12.0000000  14.0030740
 NucSpn=           0           0           0           0           0           0           0           0           0           2
 AtZEff=  -0.0000000  -0.0000000  -0.0000000  -0.0000000  -0.0000000  -0.0000000  -0.0000000  -0.0000000  -0.0000000  -0.0000000
 NQMom=    0.0000000   0.0000000   0.0000000   0.0000000   0.0000000   0.0000000   0.0000000   0.0000000   0.0000000   2.0440000
 NMagM=    0.0000000   0.0000000   0.0000000   0.0000000   0.0000000   0.0000000   0.0000000   0.0000000   0.0000000   0.4037610
 AtZNuc=   6.0000000   6.0000000   6.0000000   6.0000000   6.0000000   6.0000000   6.0000000   6.0000000   6.0000000   7.0000000

  Atom        51          52          53          54          55          56          57          58          59          60
 IAtWgt=          12          12           1           1           1           1           1           1          12          12
 AtmWgt=  12.0000000  12.0000000   1.0078250   1.0078250   1.0078250   1.0078250   1.0078250   1.0078250  12.0000000  12.0000000
 NucSpn=           0           0           1           1           1           1           1           1           0           0
 AtZEff=  -0.0000000  -0.0000000  -0.0000000  -0.0000000  -0.0000000  -0.0000000  -0.0000000  -0.0000000  -0.0000000  -0.0000000
 NQMom=    0.0000000   0.0000000   0.0000000   0.0000000   0.0000000   0.0000000   0.0000000   0.0000000   0.0000000   0.0000000
 NMagM=    0.0000000   0.0000000   2.7928460   2.7928460   2.7928460   2.7928460   2.7928460   2.7928460   0.0000000   0.0000000
 AtZNuc=   6.0000000   6.0000000   1.0000000   1.0000000   1.0000000   1.0000000   1.0000000   1.0000000   6.0000000   6.0000000

  Atom        61          62          63          64          65          66          67          68          69          70
 IAtWgt=          12          12          12          12           1           1           1           1          12          12
 AtmWgt=  12.0000000  12.0000000  12.0000000  12.0000000   1.0078250   1.0078250   1.0078250   1.0078250  12.0000000  12.0000000
 NucSpn=           0           0           0           0           1           1           1           1           0           0
 AtZEff=  -0.0000000  -0.0000000  -0.0000000  -0.0000000  -0.0000000  -0.0000000  -0.0000000  -0.0000000  -0.0000000  -0.0000000
 NQMom=    0.0000000   0.0000000   0.0000000   0.0000000   0.0000000   0.0000000   0.0000000   0.0000000   0.0000000   0.0000000
 NMagM=    0.0000000   0.0000000   0.0000000   0.0000000   2.7928460   2.7928460   2.7928460   2.7928460   0.0000000   0.0000000
 AtZNuc=   6.0000000   6.0000000   6.0000000   6.0000000   1.0000000   1.0000000   1.0000000   1.0000000   6.0000000   6.0000000

  Atom        71          72          73          74          75          76          77          78          79          80
 IAtWgt=          12          12          14          12           1           1           1           1          12          12
 AtmWgt=  12.0000000  12.0000000  14.0030740  12.0000000   1.0078250   1.0078250   1.0078250   1.0078250  12.0000000  12.0000000
 NucSpn=           0           0           2           0           1           1           1           1           0           0
 AtZEff=  -0.0000000  -0.0000000  -0.0000000  -0.0000000  -0.0000000  -0.0000000  -0.0000000  -0.0000000  -0.0000000  -0.0000000
 NQMom=    0.0000000   0.0000000   2.0440000   0.0000000   0.0000000   0.0000000   0.0000000   0.0000000   0.0000000   0.0000000
 NMagM=    0.0000000   0.0000000   0.4037610   0.0000000   2.7928460   2.7928460   2.7928460   2.7928460   0.0000000   0.0000000
 AtZNuc=   6.0000000   6.0000000   7.0000000   6.0000000   1.0000000   1.0000000   1.0000000   1.0000000   6.0000000   6.0000000

  Atom        81          82          83          84          85          86          87          88          89          90
 IAtWgt=          12          12          12          12          12          12          12          14          12          12
 AtmWgt=  12.0000000  12.0000000  12.0000000  12.0000000  12.0000000  12.0000000  12.0000000  14.0030740  12.0000000  12.0000000
 NucSpn=           0           0           0           0           0           0           0           2           0           0
 AtZEff=  -0.0000000  -0.0000000  -0.0000000  -0.0000000  -0.0000000  -0.0000000  -0.0000000  -0.0000000  -0.0000000  -0.0000000
 NQMom=    0.0000000   0.0000000   0.0000000   0.0000000   0.0000000   0.0000000   0.0000000   2.0440000   0.0000000   0.0000000
 NMagM=    0.0000000   0.0000000   0.0000000   0.0000000   0.0000000   0.0000000   0.0000000   0.4037610   0.0000000   0.0000000
 AtZNuc=   6.0000000   6.0000000   6.0000000   6.0000000   6.0000000   6.0000000   6.0000000   7.0000000   6.0000000   6.0000000

  Atom        91          92          93          94          95          96          97          98          99         100
 IAtWgt=           1           1           1           1           1           1          12          12          12          12
 AtmWgt=   1.0078250   1.0078250   1.0078250   1.0078250   1.0078250   1.0078250  12.0000000  12.0000000  12.0000000  12.0000000
 NucSpn=           1           1           1           1           1           1           0           0           0           0
 AtZEff=  -0.0000000  -0.0000000  -0.0000000  -0.0000000  -0.0000000  -0.0000000  -0.0000000  -0.0000000  -0.0000000  -0.0000000
 NQMom=    0.0000000   0.0000000   0.0000000   0.0000000   0.0000000   0.0000000   0.0000000   0.0000000   0.0000000   0.0000000
 NMagM=    2.7928460   2.7928460   2.7928460   2.7928460   2.7928460   2.7928460   0.0000000   0.0000000   0.0000000   0.0000000
 AtZNuc=   1.0000000   1.0000000   1.0000000   1.0000000   1.0000000   1.0000000   6.0000000   6.0000000   6.0000000   6.0000000

  Atom       101         102         103         104         105         106         107         108         109         110
 IAtWgt=          12          12           1           1           1           1          12          12          12          12
 AtmWgt=  12.0000000  12.0000000   1.0078250   1.0078250   1.0078250   1.0078250  12.0000000  12.0000000  12.0000000  12.0000000
 NucSpn=           0           0           1           1           1           1           0           0           0           0
 AtZEff=  -0.0000000  -0.0000000  -0.0000000  -0.0000000  -0.0000000  -0.0000000  -0.0000000  -0.0000000  -0.0000000  -0.0000000
 NQMom=    0.0000000   0.0000000   0.0000000   0.0000000   0.0000000   0.0000000   0.0000000   0.0000000   0.0000000   0.0000000
 NMagM=    0.0000000   0.0000000   2.7928460   2.7928460   2.7928460   2.7928460   0.0000000   0.0000000   0.0000000   0.0000000
 AtZNuc=   6.0000000   6.0000000   1.0000000   1.0000000   1.0000000   1.0000000   6.0000000   6.0000000   6.0000000   6.0000000

  Atom       111         112         113         114         115         116         117         118         119         120
 IAtWgt=          14          12           1           1           1           1          12          12          12          12
 AtmWgt=  14.0030740  12.0000000   1.0078250   1.0078250   1.0078250   1.0078250  12.0000000  12.0000000  12.0000000  12.0000000
 NucSpn=           2           0           1           1           1           1           0           0           0           0
 AtZEff=  -0.0000000  -0.0000000  -0.0000000  -0.0000000  -0.0000000  -0.0000000  -0.0000000  -0.0000000  -0.0000000  -0.0000000
 NQMom=    2.0440000   0.0000000   0.0000000   0.0000000   0.0000000   0.0000000   0.0000000   0.0000000   0.0000000   0.0000000
 NMagM=    0.4037610   0.0000000   2.7928460   2.7928460   2.7928460   2.7928460   0.0000000   0.0000000   0.0000000   0.0000000
 AtZNuc=   7.0000000   6.0000000   1.0000000   1.0000000   1.0000000   1.0000000   6.0000000   6.0000000   6.0000000   6.0000000

  Atom       121         122         123         124         125         126         127         128         129         130
 IAtWgt=          12          12          12          12          12          14          12          12           1           1
 AtmWgt=  12.0000000  12.0000000  12.0000000  12.0000000  12.0000000  14.0030740  12.0000000  12.0000000   1.0078250   1.0078250
 NucSpn=           0           0           0           0           0           2           0           0           1           1
 AtZEff=  -0.0000000  -0.0000000  -0.0000000  -0.0000000  -0.0000000  -0.0000000  -0.0000000  -0.0000000  -0.0000000  -0.0000000
 NQMom=    0.0000000   0.0000000   0.0000000   0.0000000   0.0000000   2.0440000   0.0000000   0.0000000   0.0000000   0.0000000
 NMagM=    0.0000000   0.0000000   0.0000000   0.0000000   0.0000000   0.4037610   0.0000000   0.0000000   2.7928460   2.7928460
 AtZNuc=   6.0000000   6.0000000   6.0000000   6.0000000   6.0000000   7.0000000   6.0000000   6.0000000   1.0000000   1.0000000

  Atom       131         132         133         134         135         136         137         138         139         140
 IAtWgt=           1           1           1           1          12          12          12          12          12          12
 AtmWgt=   1.0078250   1.0078250   1.0078250   1.0078250  12.0000000  12.0000000  12.0000000  12.0000000  12.0000000  12.0000000
 NucSpn=           1           1           1           1           0           0           0           0           0           0
 AtZEff=  -0.0000000  -0.0000000  -0.0000000  -0.0000000  -0.0000000  -0.0000000  -0.0000000  -0.0000000  -0.0000000  -0.0000000
 NQMom=    0.0000000   0.0000000   0.0000000   0.0000000   0.0000000   0.0000000   0.0000000   0.0000000   0.0000000   0.0000000
 NMagM=    2.7928460   2.7928460   2.7928460   2.7928460   0.0000000   0.0000000   0.0000000   0.0000000   0.0000000   0.0000000
 AtZNuc=   1.0000000   1.0000000   1.0000000   1.0000000   6.0000000   6.0000000   6.0000000   6.0000000   6.0000000   6.0000000

  Atom       141         142         143         144         145         146         147         148         149         150
 IAtWgt=           1           1           1           1          12          12          12          12          14          12
 AtmWgt=   1.0078250   1.0078250   1.0078250   1.0078250  12.0000000  12.0000000  12.0000000  12.0000000  14.0030740  12.0000000
 NucSpn=           1           1           1           1           0           0           0           0           2           0
 AtZEff=  -0.0000000  -0.0000000  -0.0000000  -0.0000000  -0.0000000  -0.0000000  -0.0000000  -0.0000000  -0.0000000  -0.0000000
 NQMom=    0.0000000   0.0000000   0.0000000   0.0000000   0.0000000   0.0000000   0.0000000   0.0000000   2.0440000   0.0000000
 NMagM=    2.7928460   2.7928460   2.7928460   2.7928460   0.0000000   0.0000000   0.0000000   0.0000000   0.4037610   0.0000000
 AtZNuc=   1.0000000   1.0000000   1.0000000   1.0000000   6.0000000   6.0000000   6.0000000   6.0000000   7.0000000   6.0000000

  Atom       151         152         153         154
 IAtWgt=           1           1           1           1
 AtmWgt=   1.0078250   1.0078250   1.0078250   1.0078250
 NucSpn=           1           1           1           1
 AtZEff=  -0.0000000  -0.0000000  -0.0000000  -0.0000000
 NQMom=    0.0000000   0.0000000   0.0000000   0.0000000
 NMagM=    2.7928460   2.7928460   2.7928460   2.7928460
 AtZNuc=   1.0000000   1.0000000   1.0000000   1.0000000
 Leave Link  101 at Fri Feb 26 10:24:25 2021, MaxMem=  7864320000 cpu:               5.7 elap:               0.2
 (Enter /apps/gaussian/g16-c01-avx/g16/l202.exe)
 Stoichiometry    C88H56N8Pd2(4+)
 Framework group  C1[X(C88H56N8Pd2)]
 Deg. of freedom   456
 Full point group                 C1      NOp   1
 Largest Abelian subgroup         C1      NOp   1
 Largest concise Abelian subgroup C1      NOp   1
                         Standard orientation:                         
 ---------------------------------------------------------------------
 Center     Atomic      Atomic             Coordinates (Angstroms)
 Number     Number       Type             X           Y           Z
 ---------------------------------------------------------------------
      1         46           0       -5.640472    0.000240    0.000139
      2         46           0        5.639965   -0.000880   -0.000889
      3          6           0        1.697664   -3.540091    3.385933
      4          6           0        2.897443   -3.619527    3.518598
      5          6           0        4.277498   -3.786487    3.746287
      6          6           0        4.704369   -4.687133    4.705619
      7          6           0        6.066029   -4.889200    4.951765
      8          6           0        7.019679   -4.195286    4.249387
      9          6           0        6.631459   -3.263095    3.270611
     10          6           0        7.566221   -2.512336    2.521386
     11          6           0        7.128464   -1.612913    1.593510
     12          7           0        5.806553   -1.410536    1.360297
     13          6           0        4.904412   -2.095090    2.030446
     14          6           0        5.247628   -3.045884    3.006512
     15          1           0        3.972687   -5.246337    5.268527
     16          1           0        6.362507   -5.602968    5.705123
     17          1           0        8.069573   -4.353398    4.439487
     18          1           0        8.620514   -2.658419    2.695318
     19          1           0        7.832244   -1.020262    1.001732
     20          1           0        3.862429   -1.897653    1.801443
     21          6           0        0.310822   -3.384765    3.181944
     22          6           0       -0.572006   -3.370554    4.265528
     23          6           0       -1.921023   -3.165401    4.056630
     24          6           0       -2.415949   -2.963645    2.767311
     25          6           0       -1.534445   -3.014394    1.684562
     26          6           0       -0.187572   -3.224769    1.885464
     27          1           0       -0.192477   -3.508340    5.266344
     28          1           0       -2.589576   -3.128176    4.902821
     29          1           0       -1.913655   -2.918008    0.679877
     30          1           0        0.488569   -3.274924    1.047827
     31          6           0       -3.838408   -2.670573    2.542475
     32          6           0       -4.863330   -3.328341    3.231213
     33          6           0       -6.181994   -3.002338    2.966019
     34          6           0       -6.462721   -2.027217    2.020778
     35          7           0       -5.487650   -1.395884    1.372825
     36          6           0       -4.210588   -1.696136    1.618171
     37          1           0       -4.624901   -4.096694    3.950229
     38          1           0       -6.987361   -3.500302    3.481109
     39          1           0       -7.479547   -1.742018    1.776255
     40          1           0       -3.455232   -1.123540    1.069377
     41          6           0       -1.698853   -3.401990   -3.523703
     42          6           0       -2.898076   -3.545284   -3.592646
     43          6           0       -4.277291   -3.785747   -3.746206
     44          6           0       -4.703534   -4.760652   -4.630432
     45          6           0       -6.064720   -5.019947   -4.818808
     46          6           0       -7.018627   -4.315206   -4.127637
     47          6           0       -6.631080   -3.320627   -3.211950
     48          6           0       -7.566108   -2.567644   -2.465249
     49          6           0       -7.128869   -1.624358   -1.581660
     50          7           0       -5.807264   -1.379818   -1.390913
     51          6           0       -4.904936   -2.052649   -2.072736
     52          6           0       -5.247740   -3.043576   -3.008255
     53          1           0       -3.971694   -5.325386   -5.187444
     54          1           0       -6.360561   -5.785426   -5.519766
     55          1           0       -8.068163   -4.515234   -4.275366
     56          1           0       -8.619986   -2.750818   -2.601804
     57          1           0       -7.832818   -1.029049   -0.992718
     58          1           0       -3.863317   -1.814012   -1.885332
     59          6           0       -0.312453   -3.187493   -3.379071
     60          6           0        0.176516   -1.888907   -3.207425
     61          6           0        1.523290   -1.679133   -3.005853
     62          6           0        2.414322   -2.754889   -2.975886
     63          6           0        1.928436   -4.045815   -3.189556
     64          6           0        0.579613   -4.263662   -3.385872
     65          1           0       -0.506965   -1.056387   -3.241238
     66          1           0        1.894894   -0.672506   -2.899929
     67          1           0        2.604470   -4.886509   -3.168613
     68          1           0        0.207348   -5.265781   -3.532650
     69          6           0        3.837131   -2.521722   -2.691476
     70          6           0        4.862240   -3.193802   -3.365903
     71          6           0        6.181399   -2.922228   -3.046667
     72          6           0        6.462096   -1.987602   -2.061466
     73          7           0        5.486924   -1.355588   -1.414294
     74          6           0        4.209532   -1.606810   -1.708328
     75          1           0        4.623620   -3.904903   -4.141417
     76          1           0        6.986881   -3.424322   -3.557487
     77          1           0        7.479132   -1.738586   -1.780827
     78          1           0        3.454279   -1.071473   -1.123103
     79          6           0        1.697951    3.541172   -3.385042
     80          6           0        2.897688    3.620927   -3.517354
     81          6           0        4.277787    3.788275   -3.744603
     82          6           0        4.704742    4.690392   -4.702503
     83          6           0        6.066491    4.892680   -4.948335
     84          6           0        7.020072    4.197477   -4.247152
     85          6           0        6.631755    3.263795   -3.269725
     86          6           0        7.566377    2.511732   -2.521705
     87          6           0        7.128581    1.611184   -1.595013
     88          7           0        5.806576    1.408840   -1.361828
     89          6           0        4.904512    2.094438   -2.030969
     90          6           0        5.247827    3.046442   -3.006006
     91          1           0        3.973136    5.250696   -5.264394
     92          1           0        6.363021    5.607601   -5.700463
     93          1           0        8.069929    4.355669   -4.437071
     94          1           0        8.620648    2.657713   -2.695669
     95          1           0        7.832320    1.017613   -1.004088
     96          1           0        3.862467    1.896915   -1.802249
     97          6           0        0.311116    3.385540   -3.181286
     98          6           0       -0.187500    3.225552   -1.884907
     99          6           0       -1.534403    3.015073   -1.684154
    100          6           0       -2.415746    2.964040   -2.767071
    101          6           0       -1.920577    3.165534   -4.056341
    102          6           0       -0.571509    3.370903   -4.265100
    103          1           0        0.488506    3.275972   -1.047078
    104          1           0       -1.913712    2.918718   -0.679527
    105          1           0       -2.588955    3.128151   -4.902545
    106          1           0       -0.191923    3.508560   -5.265774
    107          6           0       -3.838156    2.670840   -2.542187
    108          6           0       -4.863020    3.328422   -3.231301
    109          6           0       -6.181764    3.002439   -2.966138
    110          6           0       -6.462519    2.027565   -2.020764
    111          7           0       -5.487522    1.396345   -1.372579
    112          6           0       -4.210480    1.696576   -1.617811
    113          1           0       -4.624566    4.096646   -3.950477
    114          1           0       -6.987051    3.500309   -3.481449
    115          1           0       -7.479268    1.742377   -1.776239
    116          1           0       -3.455095    1.124146   -1.068926
    117          6           0       -1.697490    3.402015    3.523527
    118          6           0       -2.896592    3.545313    3.592644
    119          6           0       -4.275835    3.785977    3.746351
    120          6           0       -4.701731    4.760939    4.630656
    121          6           0       -6.062860    5.020478    4.819261
    122          6           0       -7.016981    4.315833    4.128292
    123          6           0       -6.629783    3.321140    3.212502
    124          6           0       -7.565033    2.568349    2.465947
    125          6           0       -7.128098    1.625132    1.582187
    126          7           0       -5.806587    1.380323    1.391255
    127          6           0       -4.904118    2.052970    2.072935
    128          6           0       -5.246556    3.043908    3.008658
    129          1           0       -3.969781    5.325656    5.187470
    130          1           0       -6.358538    5.786019    5.520230
    131          1           0       -8.066497    4.516080    4.276128
    132          1           0       -8.618918    2.751802    2.602667
    133          1           0       -7.832264    1.030002    0.993392
    134          1           0       -3.862505    1.814005    1.885361
    135          6           0       -0.311112    3.187271    3.378651
    136          6           0        0.581181    4.263145    3.385546
    137          6           0        1.930043    4.044945    3.188911
    138          6           0        2.415451    2.753978    2.974931
    139          6           0        1.524221    1.678456    3.004886
    140          6           0        0.177415    1.888559    3.206738
    141          1           0        0.209336    5.265405    3.532552
    142          1           0        2.606250    4.885562    3.168044
    143          1           0        1.895434    0.671806    2.898623
    144          1           0       -0.506259    1.056261    3.240490
    145          6           0        3.838102    2.520382    2.690276
    146          6           0        4.863668    3.191881    3.364792
    147          6           0        6.182605    2.919647    3.045454
    148          6           0        6.462906    1.985229    2.060022
    149          7           0        5.487326    1.353883    1.412771
    150          6           0        4.210124    1.605619    1.706812
    151          1           0        4.625393    3.902812    4.140566
    152          1           0        6.988368    3.421337    3.556378
    153          1           0        7.479740    1.735853    1.779271
    154          1           0        3.454555    1.070758    1.121514
 ---------------------------------------------------------------------
 Rotational constants (GHZ):           0.0212206           0.0106702           0.0106418
 Leave Link  202 at Fri Feb 26 10:24:25 2021, MaxMem=  7864320000 cpu:               1.4 elap:               0.1
 (Enter /apps/gaussian/g16-c01-avx/g16/l301.exe)
 Standard basis: def2SVP (5D, 7F)
 Ernie: Thresh=  0.10000D-02 Tol=  0.10000D-05 Strict=F.
 There are  1792 symmetry adapted cartesian basis functions of A   symmetry.
 There are  1686 symmetry adapted basis functions of A   symmetry.
  1686 basis functions,  2922 primitive gaussians,  1792 cartesian basis functions
   336 alpha electrons      336 beta electrons
       nuclear repulsion energy     18153.3427338087 Hartrees.
 IExCor= 1009 DFT=T Ex+Corr=PBE1PBE ExCW=0 ScaHFX=  0.250000
 ScaDFX=  0.750000  0.750000  1.000000  1.000000 ScalE2=  1.000000  1.000000
 IRadAn=      7 IRanWt=     -1 IRanGd=            0 ICorTp=0 IEmpDi=141
 NAtoms=  154 NActive=  154 NUniq=  154 SFac= 1.00D+00 NAtFMM=   60 NAOKFM=T Big=T
 Integral buffers will be    131072 words long.
 Raffenetti 2 integral format.
 Two-electron integral symmetry is turned on.
 R6Disp:  Grimme-D3(BJ) Dispersion energy=       -0.2532117362 Hartrees.
 Nuclear repulsion after empirical dispersion term =    18153.0895220725 Hartrees.
 ------------------------------------------------------------------------------
 Polarizable Continuum Model (PCM)
 =================================
 Model                : PCM.
 Atomic radii         : UFF (Universal Force Field).
 Polarization charges : Total charges.
 Charge compensation  : None.
 Solution method      : On-the-fly selection.
 Cavity type          : Scaled VdW (van der Waals Surface) (Alpha=1.100).
 Cavity algorithm     : GePol (No added spheres)
                        Default sphere list used, NSphG=  154.
                        Lebedev-Laikov grids with approx.  5.0 points / Ang**2.
                        Smoothing algorithm: York/Karplus (Gamma=1.0000).
                        Polarization charges: spherical gaussians, with
                                              point-specific exponents (IZeta= 3).
                        Self-potential: point-specific (ISelfS= 7).
                        Self-field    : sphere-specific E.n sum rule (ISelfD= 2).
 Solvent              : DiMethylSulfoxide, Eps=  46.826000 Eps(inf)=   2.007889
 ------------------------------------------------------------------------------
 GePol: Number of generator spheres                  =     154
 GePol: Total number of spheres                      =     154
 GePol: Number of exposed spheres                    =     154 (100.00%)
 GePol: Number of points                             =   11055
 GePol: Average weight of points                     =       0.13
 GePol: Minimum weight of points                     =   0.28D-11
 GePol: Maximum weight of points                     =    0.20577
 GePol: Number of points with low weight             =     851
 GePol: Fraction of low-weight points (<1% of avg)   =       7.70%
 GePol: Cavity surface area                          =   1385.408 Ang**2
 GePol: Cavity volume                                =   1680.054 Ang**3
 Leave Link  301 at Fri Feb 26 10:24:26 2021, MaxMem=  7864320000 cpu:               4.3 elap:               0.2
 (Enter /apps/gaussian/g16-c01-avx/g16/l302.exe)
 NPDir=0 NMtPBC=     1 NCelOv=     1 NCel=       1 NClECP=     1 NCelD=      1
         NCelK=      1 NCelE2=     1 NClLst=     1 CellRange=     0.0.
 One-electron integrals computed using PRISM.
 One-electron integral symmetry used in STVInt
   1 Symmetry operations used in ECPInt.
 ECPInt:  NShTT=  293761 NPrTT= 1082631 LenC2=  176026 LenP2D=  370795.
 LDataN:  DoStor=T MaxTD1= 7 Len=  274
 NBasis=  1686 RedAO= T EigKep=  2.46D-04  NBF=  1686
 NBsUse=  1686 1.00D-06 EigRej= -1.00D+00 NBFU=  1686
 Precomputing XC quadrature grid using
 IXCGrd= 4 IRadAn=           7 IRanWt=          -1 IRanGd=           0 AccXCQ= 0.00D+00.
 Generated NRdTot=       0 NPtTot=           0 NUsed=           0 NTot=          32
 NSgBfM=  1483  1462  1469  1477  1483 MxSgAt=   154 MxSgA2=   154.
 Leave Link  302 at Fri Feb 26 10:24:40 2021, MaxMem=  7864320000 cpu:             450.9 elap:              14.3
 (Enter /apps/gaussian/g16-c01-avx/g16/l303.exe)
 DipDrv:  MaxL=1.
 Leave Link  303 at Fri Feb 26 10:24:41 2021, MaxMem=  7864320000 cpu:              18.2 elap:               0.7
 (Enter /apps/gaussian/g16-c01-avx/g16/l401.exe)
 ExpMin= 3.70D-02 ExpMax= 1.71D+03 ExpMxC= 2.58D+02 IAcc=3 IRadAn=         7 AccDes= 0.00D+00
 Harris functional with IExCor= 1009 and IRadAn=       7 diagonalized for initial guess.
 HarFok:  IExCor= 1009 AccDes= 0.00D+00 IRadAn=         7 IDoV= 1 UseB2=F ITyADJ=14
 ICtDFT=  3500011 ScaDFX=  1.000000  1.000000  1.000000  1.000000
 FoFCou: FMM=F IPFlag=           0 FMFlag=      100000 FMFlg1=        2001
         NFxFlg=           0 DoJE=T BraDBF=F KetDBF=T FulRan=T
         wScrn=  0.000000 ICntrl=       500 IOpCl=  0 I1Cent=   200000004 NGrid=           0
         NMat0=    1 NMatS0=      1 NMatT0=    0 NMatD0=    1 NMtDS0=    0 NMtDT0=    0
 Petite list used in FoFCou.
 Harris En= -4075.11739219979    
 JPrj=0 DoOrth=F DoCkMO=F.
 Leave Link  401 at Fri Feb 26 10:25:11 2021, MaxMem=  7864320000 cpu:             953.1 elap:              30.1
 (Enter /apps/gaussian/g16-c01-avx/g16/l508.exe)
 Integral symmetry usage will be decided dynamically.
 Tight linear equation convergence will be used.
 RPBE1PBE wavefunction.
 Linear searches until partial convergence.
 Full line searches.
 Fock matrices will be formed incrementally for  20 cycles.
 Inv3:  Mode=1 IEnd=   366639075.
 Iteration    1 A*A^-1 deviation from unit magnitude is 1.11D-12 for   3289.
 Iteration    1 A*A^-1 deviation from orthogonality  is 1.38D-12 for   3940    141.
 Iteration    1 A^-1*A deviation from unit magnitude is 5.14D-13 for   2654.
 Iteration    1 A^-1*A deviation from orthogonality  is 8.26D-09 for  10470  10457.
 Iteration    2 A*A^-1 deviation from unit magnitude is 1.10D-10 for   2654.
 Iteration    2 A*A^-1 deviation from orthogonality  is 1.12D-10 for   2654   2213.
 Iteration    2 A^-1*A deviation from unit magnitude is 5.18D-11 for   2213.
 Iteration    2 A^-1*A deviation from orthogonality  is 5.10D-11 for   3289   2213.
 Iteration    3 A*A^-1 deviation from unit magnitude is 2.13D-13 for   3943.
 Iteration    3 A*A^-1 deviation from orthogonality  is 2.74D-13 for   3289   2654.
 Iteration    3 A^-1*A deviation from unit magnitude is 5.18D-11 for   2213.
 Iteration    3 A^-1*A deviation from orthogonality  is 5.10D-11 for   3289   2213.
 FoFJK:  IHMeth= 1 ICntrl=       0 DoSepK=F KAlg= 0 I1Cent=           0 FoldK=F
 IRaf= 600000000 NMat=       1 IRICut=       1 DoRegI=T DoRafI=F ISym2E= 1 IDoP0=0 IntGTp=1.
 Iteration   1 EE= -4046.47414469758                                    Grad=5.895D+00 Max rot=   46.3191 deg.
 Gradient too large for Newton-Raphson -- use scaled steepest descent instead.
 Alpha Gap=     0.150 HL deriv= 9.46D-03
     ILin= 1 X=0.000D+00 Y=-4.046474144698D+03 DE= 0.00D+00 F= -9.69D+01
 RMSU=  2.39D-03    CP:  9.72D-01
     ILin= 2 X=2.000D-01 Y=-4.059990570052D+03 DE=-1.35D+01 F= -3.07D+01 OKLS=F
 RMSU=  2.44D-04    CP:  9.68D-01  1.15D+00
     ILin= 3 X=2.291D-01 Y=-4.060740885379D+03 DE=-1.43D+01 F= -2.11D+01
 RMSU=  6.02D-04    CP:  9.56D-01  1.48D+00  3.00D+00
     ILin= 4 X=3.240D-01 Y=-4.061568741409D+03 DE=-1.51D+01 F=  1.21D+00
     Note:  rotation exceeds Pi/2.
 RMSU=  9.27D-04    CP:  9.41D-01  1.54D+00  3.00D+00  3.00D+00
     ILin= 5 X=4.582D-01 Y=-4.060535363865D+03 DE=-1.41D+01 F=  1.04D+01
     An  expanding polynomial of degree  5 produced  0.3144
     Minimum is close to point  4 DX= -9.60D-03 DF= -8.43D-03 DXR=  3.05D-02 DFR=  5.58D-04 which will be used.
 Iteration   2 EE= -4061.56874140891     Delta-E=      -15.094596711329 Grad=3.731D+00 Max rot=   40.1179 deg.
 Gradient too large for Newton-Raphson -- use scaled steepest descent instead.
 Alpha Gap=     0.504 HL deriv= 4.07D-04
     ILin= 1 X=0.000D+00 Y=-4.061568741409D+03 DE= 0.00D+00 F= -4.51D+01
 RMSU=  1.86D-03    CP:  9.41D-01  1.20D+00  3.00D+00  8.66D-01  5.08D-01
     ILin= 2 X=3.000D-01 Y=-4.066940670080D+03 DE=-5.37D+00 F=  6.88D-01 OKLS=F
 RMSU=  5.68D-04    CP:  9.36D-01  1.12D+00  2.97D+00  1.02D+00  6.05D-01
                    CP:  1.22D+00
     ILin= 3 X=4.000D-01 Y=-4.066703461314D+03 DE=-5.13D+00 F=  3.16D+00
     An  expanding polynomial of degree  3 produced  0.3266
     Minimum is close to point  2 DX=  2.66D-02 DF= -3.59D-02 DXR=  8.15D-02 DFR=  6.68D-03 which will be used.
 Iteration   3 EE= -4066.94067008017     Delta-E=       -5.371928671262 Grad=1.804D+00 Max rot=   23.5675 deg.
 Gradient too large for Newton-Raphson -- use scaled steepest descent instead.
 Alpha Gap=     0.557 HL deriv= 3.39D-04
     ILin= 1 X=0.000D+00 Y=-4.066940670080D+03 DE= 0.00D+00 F= -1.94D+01
 RMSU=  1.36D-03    CP:  9.29D-01  8.68D-01  1.25D+00  1.31D+00  7.18D-01
                    CP:  9.86D-01  2.32D-01
     ILin= 2 X=3.000D-01 Y=-4.069454148447D+03 DE=-2.51D+00 F= -1.03D+00 OKLS=F
 RMSU=  3.33D-04    CP:  9.26D-01  7.78D-01  1.70D+00  1.29D+00  6.56D-01
                    CP:  9.43D-01  2.67D-01  1.24D+00
     ILin= 3 X=4.000D-01 Y=-4.069437112344D+03 DE=-2.50D+00 F=  1.30D+00
     An  expanding polynomial of degree  3 produced  0.3460
 RMSU=  9.91D-06    CP:  9.28D-01  8.22D-01  1.40D+00  1.32D+00  7.00D-01
                    CP:  9.68D-01  2.52D-01  1.13D+00  4.14D-01
 Iteration   4 EE= -4069.47497110228     Delta-E=       -2.534301022104 Grad=1.280D+00 Max rot=    6.2103 deg.
 Gradient too large for Newton-Raphson -- use scaled steepest descent instead.
 Alpha Gap=     0.242 HL deriv= 8.75D-04
     ILin= 1 X=0.000D+00 Y=-4.069474971102D+03 DE= 0.00D+00 F= -6.53D+00
 RMSU=  7.38D-04    CP:  9.25D-01  6.56D-01  5.33D-01  1.14D+00  5.53D-01
                    CP:  8.05D-01  2.12D-01  1.05D+00  3.98D-01 -3.00D+00
     ILin= 2 X=3.000D-01 Y=-4.070420949831D+03 DE=-9.46D-01 F=  5.16D-02 OKLS=F
 RMSU=  1.97D-04    CP:  9.22D-01  5.57D-01  2.31D-01  9.93D-01  4.50D-01
                    CP:  6.84D-01  2.95D-01  9.50D-01  4.93D-01 -3.00D+00
                    CP:  1.55D+00
     ILin= 3 X=5.000D-01 Y=-4.070072692490D+03 DE=-5.98D-01 F=  3.20D+00
     An  expanding polynomial of degree  3 produced  0.3111
     Minimum is close to point  2 DX=  1.11D-02 DF= -1.20D-03 DXR=  3.56D-02 DFR=  1.27D-03 which will be used.
 Iteration   5 EE= -4070.42094983121     Delta-E=       -0.945978728934 Grad=1.124D+00 Max rot=   12.4308 deg.
 Gradient too large for Newton-Raphson -- use scaled steepest descent instead.
 Alpha Gap=     0.373 HL deriv= 2.26D-04
     ILin= 1 X=0.000D+00 Y=-4.070420949831D+03 DE= 0.00D+00 F= -1.09D+01
 RMSU=  1.02D-03    CP:  9.18D-01  6.29D-01  1.32D-01  9.94D-01  4.51D-01
                    CP:  6.77D-01  6.66D-01  1.04D+00  4.21D-01 -3.00D+00
                    CP:  7.78D-01  1.39D+00
     ILin= 2 X=3.000D-01 Y=-4.071132004205D+03 DE=-7.11D-01 F=  5.14D-01 OKLS=F
 RMSU=  6.64D-04    CP:  9.16D-01  6.11D-01  5.04D-01  8.12D-01  3.64D-01
                    CP:  6.37D-01  1.07D+00  9.05D-01  5.19D-01 -3.00D+00
                    CP:  6.92D-01  2.57D+00  1.15D+00
     ILin= 3 X=5.000D-01 Y=-4.070780153473D+03 DE=-3.59D-01 F=  4.46D+00
     An  expanding polynomial of degree  3 produced  0.2935
     Minimum is close to point  2 DX= -6.51D-03 DF= -3.50D-04 DXR=  2.22D-02 DFR=  4.92D-04 which will be used.
 Iteration   6 EE= -4071.13200420531     Delta-E=       -0.711054374100 Grad=1.061D+00 Max rot=    8.5820 deg.
 Gradient too large for Newton-Raphson -- use scaled steepest descent instead.
 Alpha Gap=     0.247 HL deriv= 6.23D-04
     ILin= 1 X=0.000D+00 Y=-4.071132004205D+03 DE= 0.00D+00 F= -5.25D+00
 RMSU=  5.88D-04    CP:  9.16D-01  5.21D-01 -2.15D-01  8.69D-01  3.73D-01
                    CP:  5.70D-01  5.89D-01  9.50D-01  3.84D-01 -3.00D+00
                    CP:  1.16D+00  1.76D+00  8.75D-01 -6.81D-02
     ILin= 2 X=3.000D-01 Y=-4.071928022470D+03 DE=-7.96D-01 F=  1.68D-01 OKLS=F
 RMSU=  9.18D-05    CP:  9.16D-01  4.87D-01 -2.61D-01  8.16D-01  3.43D-01
                    CP:  5.37D-01  5.64D-01  9.03D-01  4.31D-01 -3.00D+00
                    CP:  1.25D+00  2.03D+00  8.17D-01 -8.72D-02  1.29D+00
     ILin= 3 X=4.000D-01 Y=-4.071817947087D+03 DE=-6.86D-01 F=  2.01D+00
     An  expanding polynomial of degree  3 produced  0.2914
     Minimum is close to point  2 DX= -8.64D-03 DF= -7.01D-04 DXR=  2.97D-02 DFR=  8.81D-04 which will be used.
 Iteration   7 EE= -4071.92802247022     Delta-E=       -0.796018264908 Grad=7.002D-01 Max rot=    5.7477 deg.
 Gradient too large for Newton-Raphson -- use scaled steepest descent instead.
 Alpha Gap=     0.327 HL deriv= 1.46D-04
     ILin= 1 X=0.000D+00 Y=-4.071928022470D+03 DE= 0.00D+00 F= -2.58D+00
 RMSU=  4.38D-04    CP:  9.14D-01  4.72D-01 -3.67D-01  8.01D-01  3.43D-01
                    CP:  5.91D-01  2.59D-01  9.36D-01  4.56D-01 -3.00D+00
                    CP:  1.20D+00  1.69D+00  8.37D-01 -3.63D-02  7.91D-01
                    CP:  6.30D-03
     ILin= 2 X=3.000D-01 Y=-4.072298104673D+03 DE=-3.70D-01 F= -2.20D-01 OKLS=F
 RMSU=  5.69D-05    CP:  9.14D-01  4.54D-01 -3.66D-01  7.79D-01  3.37D-01
                    CP:  5.99D-01  2.06D-01  9.23D-01  4.76D-01 -3.00D+00
                    CP:  1.21D+00  1.69D+00  8.05D-01  3.25D-02  7.23D-01
                    CP:  1.03D-02  1.31D+00
     ILin= 3 X=4.000D-01 Y=-4.072296624773D+03 DE=-3.69D-01 F=  2.39D-01
     An  expanding polynomial of degree  3 produced  0.3476
 RMSU=  8.28D-07    CP:  9.14D-01  4.64D-01 -3.70D-01  7.90D-01  3.40D-01
                    CP:  5.95D-01  2.29D-01  9.30D-01  4.66D-01 -3.00D+00
                    CP:  1.21D+00  1.69D+00  8.22D-01 -6.96D-03  7.58D-01
                    CP:  7.32D-03  1.15D+00  4.20D-01
 Iteration   8 EE= -4072.30310082922     Delta-E=       -0.375078359004 Grad=4.193D-01 Max rot=    2.8283 deg.
 Gradient too large for Newton-Raphson -- use scaled steepest descent instead.
 Alpha Gap=     0.340 HL deriv= 2.47D-04
     ILin= 1 X=0.000D+00 Y=-4.072303100829D+03 DE= 0.00D+00 F= -7.89D-01
 RMSU=  1.99D-04    CP:  9.13D-01  4.31D-01 -4.36D-01  7.33D-01  3.05D-01
                    CP:  5.49D-01  2.40D-01  8.97D-01  4.71D-01 -3.00D+00
                    CP:  1.28D+00  1.82D+00  8.12D-01 -4.73D-02  9.39D-01
                    CP:  5.40D-01  1.14D+00  1.66D-01 -3.00D+00
     ILin= 2 X=3.000D-01 Y=-4.072485378637D+03 DE=-1.82D-01 F= -4.09D-01 OKLS=F
 Restarting incremental Fock formation.
     ILin= 3 X=5.000D-01 Y=-4.072537430886D+03 DE=-2.34D-01 F= -1.06D-01
 RMSU=  9.11D-05    CP:  9.99D-01
     ILin= 4 X=6.000D-01 Y=-4.072540031139D+03 DE=-2.37D-01 F=  5.51D-02
     Accept linear search using points  3 and  4.
     An  expanding polynomial of degree  4 produced  0.5444
 RMSU=  9.36D-07    CP:  1.00D+00  4.44D-01
 Iteration   9 EE= -4072.54057713824     Delta-E=       -0.237476309016 Grad=3.784D-01 Max rot=    2.4900 deg.
 Gradient too large for Newton-Raphson -- use scaled steepest descent instead.
 Alpha Gap=     0.382 HL deriv= 1.17D-04
     ILin= 1 X=0.000D+00 Y=-4.072540577138D+03 DE= 0.00D+00 F= -6.25D-01
 RMSU=  3.11D-04    CP:  9.98D-01  6.49D-01 -3.00D+00
     ILin= 2 X=4.000D-01 Y=-4.072657502522D+03 DE=-1.17D-01 F=  2.98D-02 OKLS=T
     Accept linear search using points  1 and  2.
     An  expanding polynomial of degree  2 produced  0.2307
 RMSU=  1.39D-05    CP:  9.99D-01  5.61D-01 -3.00D+00  5.76D-01
 Iteration  10 EE= -4072.64010010975     Delta-E=       -0.099522971512 Grad=2.107D-01 Max rot=    2.2116 deg.
 Gradient too large for Newton-Raphson -- use scaled steepest descent instead.
 Alpha Gap=     0.343 HL deriv= 1.36D-04
     ILin= 1 X=0.000D+00 Y=-4.072640100110D+03 DE= 0.00D+00 F= -2.52D-01
 RMSU=  1.23D-04    CP:  9.97D-01  2.43D+00 -3.00D+00  1.01D+00 -1.90D+00
     ILin= 2 X=5.000D-01 Y=-4.072755352381D+03 DE=-1.15D-01 F= -2.04D-01 OKLS=F
 RMSU=  6.21D-05    CP:  9.95D-01  3.00D+00 -3.00D+00  1.23D+00 -3.00D+00
                    CP:  1.66D+00
     ILin= 3 X=8.000D-01 Y=-4.072810032097D+03 DE=-1.70D-01 F= -1.59D-01
 RMSU=  9.98D-06    CP:  9.94D-01  3.00D+00 -3.00D+00  1.42D+00 -3.00D+00
                    CP:  2.29D+00  2.87D+00
     ILin= 4 X=1.100D+00 Y=-4.072849791113D+03 DE=-2.10D-01 F= -1.04D-01
 RMSU=  1.64D-04    CP:  9.91D-01  3.00D+00 -3.00D+00  1.58D+00 -3.00D+00
                    CP:  3.00D+00  3.00D+00  1.10D-01
     ILin= 5 X=1.500D+00 Y=-4.072874358803D+03 DE=-2.34D-01 F= -1.55D-02
 RMSU=  1.38D-04    CP:  9.87D-01  3.00D+00 -3.00D+00  1.61D+00 -3.00D+00
                    CP:  3.00D+00  3.00D+00 -3.00D+00  2.93D+00
     ILin= 6 X=2.200D+00 Y=-4.072817912401D+03 DE=-1.78D-01 F=  1.87D-01
     An  expanding polynomial of degree  6 produced  1.5626
     Minimum is close to point  5 DX=  6.26D-02 DF= -4.89D-04 DXR=  4.00D-02 DFR=  2.09D-03 which will be used.
 Iteration  11 EE= -4072.87435880344     Delta-E=       -0.234258693687 Grad=1.494D-01 Max rot=    1.5517 deg.
 Gradient too large for Newton-Raphson -- use scaled steepest descent instead.
 Alpha Gap=     0.345 HL deriv= 2.85D-05
     ILin= 1 X=0.000D+00 Y=-4.072874358803D+03 DE= 0.00D+00 F= -9.87D-02
 RMSU=  1.57D-04    CP:  9.91D-01  3.00D+00 -3.00D+00  1.75D+00 -3.00D+00
                    CP:  3.00D+00  3.00D+00 -3.00D+00  9.67D-01  2.05D-01
     ILin= 2 X=6.000D-01 Y=-4.072898585880D+03 DE=-2.42D-02 F=  1.64D-02 OKLS=T
     Accept linear search using points  1 and  2.
     An  expanding polynomial of degree  2 produced  0.4047
 RMSU=  1.02D-05    CP:  9.91D-01  3.00D+00 -3.00D+00  1.69D+00 -3.00D+00
                    CP:  3.00D+00  3.00D+00 -3.00D+00  9.73D-01  1.39D-01
                    CP:  6.64D-01
 Iteration  12 EE= -4072.89826256513     Delta-E=       -0.023903761696 Grad=1.134D-01 Max rot=    1.2525 deg.
 Gradient too large for Newton-Raphson -- use scaled steepest descent instead.
 Alpha Gap=     0.312 HL deriv= 2.38D-05
     ILin= 1 X=0.000D+00 Y=-4.072898262565D+03 DE= 0.00D+00 F= -5.34D-02
 RMSU=  1.08D-04    CP:  9.91D-01  3.00D+00 -3.00D+00  1.45D+00 -3.00D+00
                    CP:  3.00D+00  3.00D+00 -6.80D-01  1.25D+00  3.69D-01
                    CP:  1.13D+00  3.00D+00
     ILin= 2 X=8.000D-01 Y=-4.072917158050D+03 DE=-1.89D-02 F=  5.73D-03 OKLS=T
     Accept linear search using points  1 and  2.
     An  expanding polynomial of degree  2 produced  0.6716
 RMSU=  1.96D-06    CP:  9.91D-01  3.00D+00 -3.00D+00  1.49D+00 -3.00D+00
                    CP:  3.00D+00  3.00D+00 -1.13D+00  1.20D+00  3.34D-01
                    CP:  1.05D+00  2.87D+00  8.41D-01
 Iteration  13 EE= -4072.91729794529     Delta-E=       -0.019035380159 Grad=1.247D-01 Max rot=    1.9216 deg.
 Gradient too large for Newton-Raphson -- use scaled steepest descent instead.
 Alpha Gap=     0.344 HL deriv= 5.92D-06
     ILin= 1 X=0.000D+00 Y=-4.072917297945D+03 DE= 0.00D+00 F= -7.21D-02
 RMSU=  7.30D-05    CP:  9.91D-01  3.00D+00 -3.00D+00  1.69D+00 -3.00D+00
                    CP:  3.00D+00  3.00D+00 -3.00D+00  1.23D+00  4.88D-01
                    CP:  1.57D+00  1.53D+00  7.08D-01 -3.00D+00
     ILin= 2 X=5.000D-01 Y=-4.072925480067D+03 DE=-8.18D-03 F=  3.80D-02 OKLS=T
     Accept linear search using points  1 and  2.
     An  expanding polynomial of degree  2 produced  0.2677
 RMSU=  3.83D-06    CP:  9.91D-01  3.00D+00 -3.00D+00  1.60D+00 -3.00D+00
                    CP:  3.00D+00  3.00D+00 -2.97D+00  1.21D+00  4.19D-01
                    CP:  1.33D+00  2.95D+00  7.72D-01 -3.00D+00  5.35D-01
 Iteration  14 EE= -4072.92853923935     Delta-E=       -0.011241294058 Grad=7.170D-02 Max rot=    1.3306 deg.
 Gradient too large for Newton-Raphson -- use scaled steepest descent instead.
 Alpha Gap=     0.323 HL deriv= 1.02D-05
     ILin= 1 X=0.000D+00 Y=-4.072928539239D+03 DE= 0.00D+00 F= -4.44D-02
 RMSU=  1.35D-04    CP:  9.90D-01  3.00D+00 -3.00D+00  1.47D+00 -3.00D+00
                    CP:  3.00D+00  3.00D+00 -1.96D+00  1.41D+00  4.31D-01
                    CP:  1.72D+00  3.00D+00  1.24D+00 -3.00D+00  1.33D+00
                    CP: -2.69D+00
     ILin= 2 X=7.000D-01 Y=-4.072955576277D+03 DE=-2.70D-02 F= -3.09D-02 OKLS=F
 RMSU=  1.23D-05    CP:  9.90D-01  3.00D+00 -3.00D+00  1.43D+00 -3.00D+00
                    CP:  3.00D+00  3.00D+00 -1.63D+00  1.47D+00  4.25D-01
                    CP:  1.83D+00  2.83D+00  1.36D+00 -3.00D+00  1.56D+00
                    CP: -3.00D+00  1.27D+00
     ILin= 3 X=9.000D-01 Y=-4.072961191850D+03 DE=-3.27D-02 F= -2.51D-02
 RMSU=  1.49D-05    CP:  9.90D-01  3.00D+00 -3.00D+00  1.35D+00 -3.00D+00
                    CP:  3.00D+00  3.00D+00 -9.43D-01  1.60D+00  3.98D-01
                    CP:  2.04D+00  2.08D+00  1.55D+00 -3.00D+00  2.00D+00
                    CP: -3.00D+00  1.79D+00  3.00D+00
     ILin= 4 X=1.300D+00 Y=-4.072968703579D+03 DE=-4.02D-02 F= -1.22D-02
 RMSU=  5.48D-05    CP:  9.89D-01  3.00D+00 -3.00D+00  1.22D+00 -3.00D+00
                    CP:  2.67D+00  3.00D+00  1.01D-01  1.79D+00  5.01D-01
                    CP:  2.29D+00  9.03D-01  1.87D+00 -3.00D+00  2.48D+00
                    CP: -3.00D+00  2.41D+00  3.00D+00  3.00D+00
     ILin= 5 X=1.900D+00 Y=-4.072970119585D+03 DE=-4.16D-02 F=  7.03D-03
     Accept linear search using points  4 and  5.
     An  expanding polynomial of degree  5 produced  1.6266
 Restarting incremental Fock formation.
 Iteration  15 EE= -4072.97091289258     Delta-E=       -0.042373653225 Grad=1.602D-01 Max rot=    1.1781 deg.
 Gradient too large for Newton-Raphson -- use scaled steepest descent instead.
 Alpha Gap=     0.345 HL deriv= 1.54D-07
     ILin= 1 X=0.000D+00 Y=-4.072970912893D+03 DE= 0.00D+00 F= -1.05D-01
 RMSU=  2.53D-04    CP:  1.00D+00
     ILin= 2 X=7.000D-01 Y=-4.072963270376D+03 DE= 7.64D-03 F=  1.18D-01 OKLS=T
     Reject lnstep IMin12=  1  2 Big=F Turn=F Min= 3.236D-01 FVal=-4.072995136283D+03 Lims=  0.00D+00  7.00D-01
 RMSU=  1.00D-05    CP:  1.00D+00  4.28D-01
     ILin= 3 X=3.000D-01 Y=-4.072986973013D+03 DE=-1.61D-02 F= -2.89D-03
     A contracting polynomial of degree  3 produced  0.3161
     Minimum is close to point  3 DX=  1.61D-02 DF= -4.19D-05 DXR=  5.10D-02 DFR=  2.61D-03 which will be used.
 Iteration  16 EE= -4072.98697301260     Delta-E=       -0.016060120026 Grad=8.158D-02 Max rot=    1.0111 deg.
 Gradient too large for Newton-Raphson -- use scaled steepest descent instead.
 Alpha Gap=     0.323 HL deriv= 1.82D-06
     ILin= 1 X=0.000D+00 Y=-4.072986973013D+03 DE= 0.00D+00 F= -4.60D-02
 RMSU=  1.72D-04    CP:  1.00D+00  4.23D-01 -8.46D-01
     ILin= 2 X=7.000D-01 Y=-4.073001945838D+03 DE=-1.50D-02 F=  1.40D-03 OKLS=T
     Accept linear search using points  1 and  2.
     An  expanding polynomial of degree  2 produced  0.6262
 RMSU=  2.58D-06    CP:  1.00D+00  4.23D-01 -5.24D-01  8.96D-01
 Iteration  17 EE= -4073.00188940513     Delta-E=       -0.014916392527 Grad=1.543D-01 Max rot=    2.0842 deg.
 Gradient too large for Newton-Raphson -- use scaled steepest descent instead.
 Alpha Gap=     0.326 HL deriv= 1.75D-06
     ILin= 1 X=0.000D+00 Y=-4.073001889405D+03 DE= 0.00D+00 F= -1.01D-01
 RMSU=  7.35D-05    CP:  9.99D-01  8.54D-01 -1.21D+00  9.19D-01 -4.08D-01
     ILin= 2 X=4.000D-01 Y=-4.073020686827D+03 DE=-1.88D-02 F=  7.86D-03 OKLS=T
     Accept linear search using points  1 and  2.
     An  expanding polynomial of degree  2 produced  0.2282
 RMSU=  1.75D-06    CP:  1.00D+00  6.69D-01 -6.71D-01  9.12D-01  3.86D-01
                    CP:  5.72D-01
 Iteration  18 EE= -4073.01797588681     Delta-E=       -0.016086481683 Grad=8.061D-02 Max rot=    2.0234 deg.
 Gradient too large for Newton-Raphson -- use scaled steepest descent instead.
 Alpha Gap=     0.319 HL deriv= 1.48D-06
     ILin= 1 X=0.000D+00 Y=-4.073017975887D+03 DE= 0.00D+00 F= -4.77D-02
 RMSU=  4.38D-05    CP:  9.99D-01  8.22D-01 -3.00D+00  1.54D+00 -3.00D+00
                    CP:  1.51D+00 -1.74D+00
     ILin= 2 X=6.000D-01 Y=-4.073049215720D+03 DE=-3.12D-02 F= -5.54D-02 OKLS=F
 RMSU=  2.09D-05    CP:  9.99D-01  8.95D-01 -3.00D+00  1.80D+00 -3.00D+00
                    CP:  1.94D+00 -3.00D+00  1.89D+00
     ILin= 3 X=9.000D-01 Y=-4.073066094797D+03 DE=-4.81D-02 F= -5.68D-02
 RMSU=  1.43D-05    CP:  9.98D-01  9.86D-01 -3.00D+00  2.09D+00 -3.00D+00
                    CP:  2.44D+00 -3.00D+00  3.00D+00  2.90D+00
     ILin= 4 X=1.300D+00 Y=-4.073088678934D+03 DE=-7.07D-02 F= -5.55D-02
 RMSU=  8.68D-05    CP:  9.98D-01  1.08D+00 -3.00D+00  2.31D+00 -3.00D+00
                    CP:  2.93D+00 -3.00D+00  3.00D+00  3.00D+00  3.00D+00
     ILin= 5 X=1.800D+00 Y=-4.073114914323D+03 DE=-9.69D-02 F= -4.84D-02
 RMSU=  4.31D-05    CP:  9.97D-01  1.19D+00 -3.00D+00  2.35D+00 -3.00D+00
                    CP:  3.00D+00 -3.00D+00  3.00D+00  3.00D+00  3.00D+00
                    CP:  2.87D+00
     ILin= 6 X=2.500D+00 Y=-4.073142242420D+03 DE=-1.24D-01 F= -2.77D-02
 RMSU=  2.30D-04    CP:  9.96D-01  1.26D+00 -3.00D+00  1.81D+00 -3.00D+00
                    CP:  2.95D+00 -3.00D+00  3.00D+00  3.00D+00  3.00D+00
                    CP:  3.00D+00  2.36D+00
     ILin= 7 X=3.600D+00 Y=-4.073145474985D+03 DE=-1.27D-01 F=  2.47D-02
     Accept linear search using points  6 and  7.
     An  expanding polynomial of degree  7 produced  3.1352
 RMSU=  1.10D-05    CP:  9.96D-01  1.24D+00 -3.00D+00  2.12D+00 -3.00D+00
                    CP:  3.00D+00 -3.00D+00  3.00D+00  3.00D+00  3.00D+00
                    CP:  3.00D+00  1.84D+00  5.81D-01
 Iteration  19 EE= -4073.15126464170     Delta-E=       -0.133288754885 Grad=2.010D-01 Max rot=    4.3130 deg.
 Gradient too large for Newton-Raphson -- use scaled steepest descent instead.
 Alpha Gap=     0.257 HL deriv= 2.33D-05
     ILin= 1 X=0.000D+00 Y=-4.073151264642D+03 DE= 0.00D+00 F= -3.33D-01
 RMSU=  5.10D-04    CP:  9.94D-01  8.38D-01 -3.00D+00  1.70D+00 -3.00D+00
                    CP:  2.28D+00 -3.00D+00  3.00D+00  3.00D+00  3.00D+00
                    CP:  3.00D+00  1.18D+00  4.56D-01  1.03D+00
     ILin= 2 X=8.000D-01 Y=-4.073301904831D+03 DE=-1.51D-01 F=  1.34D-03 OKLS=T
     Accept linear search using points  1 and  2.
     An  expanding polynomial of degree  2 produced  0.7957
     Minimum is close to point  2 DX= -4.32D-03 DF= -3.63D-06 DXR=  5.43D-03 DFR=  2.41D-05 which will be used.
 Iteration  20 EE= -4073.30190483094     Delta-E=       -0.150640189244 Grad=1.352D-01 Max rot=    2.0937 deg.
 Gradient too large for Newton-Raphson -- use scaled steepest descent instead.
 Alpha Gap=     0.285 HL deriv= 1.71D-05
     ILin= 1 X=0.000D+00 Y=-4.073301904831D+03 DE= 0.00D+00 F= -7.91D-02
 RMSU=  3.34D-04    CP:  9.94D-01  1.00D+00 -3.00D+00  5.81D-01 -3.00D+00
                    CP:  2.60D+00 -3.00D+00  3.00D+00  3.00D+00  3.00D+00
                    CP:  3.00D+00  1.57D+00  7.32D-01  5.13D-01  8.26D-01
     ILin= 2 X=1.600D+00 Y=-4.073277075398D+03 DE= 2.48D-02 F=  1.00D-01 OKLS=T
     Reject lnstep IMin12=  1  2 Big=F Turn=F Min= 5.324D-01 FVal=-4.073314463831D+03 Lims=  0.00D+00  1.60D+00
 RMSU=  1.69D-05    CP:  9.94D-01  9.11D-01 -3.00D+00  1.36D+00 -3.00D+00
                    CP:  2.49D+00 -3.00D+00  3.00D+00  3.00D+00  3.00D+00
                    CP:  3.00D+00  1.40D+00  5.72D-01  1.48D+00  9.71D-01
                    CP:  3.14D-01
     ILin= 3 X=5.000D-01 Y=-4.073325650315D+03 DE=-2.37D-02 F= -1.67D-02
     A contracting polynomial of degree  3 produced  0.6645
 RMSU=  4.12D-07    CP:  9.94D-01  9.31D-01 -3.00D+00  1.24D+00 -3.00D+00
                    CP:  2.54D+00 -3.00D+00  3.00D+00  3.00D+00  3.00D+00
                    CP:  3.00D+00  1.45D+00  6.05D-01  1.50D+00  9.56D-01
                    CP:  4.18D-01  1.13D+00
 Iteration  21 EE= -4073.32680837988     Delta-E=       -0.024903548940 Grad=1.068D-01 Max rot=    0.6104 deg.
 Gradient too large for Newton-Raphson -- use scaled steepest descent instead.
 Alpha Gap=     0.249 HL deriv= 5.38D-06
     ILin= 1 X=0.000D+00 Y=-4.073326808380D+03 DE= 0.00D+00 F= -3.66D-02
 RMSU=  9.69D-05    CP:  9.94D-01  7.72D-01 -3.00D+00  1.18D+00 -3.00D+00
                    CP:  2.40D+00 -3.00D+00  3.00D+00  3.00D+00  3.00D+00
                    CP:  3.00D+00  1.61D+00  6.43D-01  4.55D-01  1.01D+00
                    CP:  4.54D-01  7.01D-01  3.00D+00
     ILin= 2 X=7.000D-01 Y=-4.073332799721D+03 DE=-5.99D-03 F=  2.01D-02 OKLS=T
     Accept linear search using points  1 and  2.
     An  expanding polynomial of degree  2 produced  0.4118
 RMSU=  9.18D-07    CP:  9.94D-01  8.37D-01 -3.00D+00  1.20D+00 -3.00D+00
                    CP:  2.46D+00 -3.00D+00  3.00D+00  3.00D+00  3.00D+00
                    CP:  3.00D+00  1.55D+00  6.29D-01  9.01D-01  9.88D-01
                    CP:  4.39D-01  9.06D-01  3.00D+00  5.86D-01
 Iteration  22 EE= -4073.33514704862     Delta-E=       -0.008338668737 Grad=3.630D-02 Max rot=    0.5936 deg.
 Gradient too large for Newton-Raphson -- use scaled steepest descent instead.
 Alpha Gap=     0.271 HL deriv= 9.26D-06
     ILin= 1 X=0.000D+00 Y=-4.073335147049D+03 DE= 0.00D+00 F= -6.67D-03
 Restarting incremental Fock formation.
     ILin= 2 X=5.000D-01 Y=-4.073337709439D+03 DE=-2.56D-03 F= -3.60D-03 OKLS=F
 RMSU=  2.98D-05    CP:  1.00D+00
     ILin= 3 X=9.000D-01 Y=-4.073338670901D+03 DE=-3.52D-03 F= -1.22D-03
 RMSU=  3.84D-06    CP:  1.00D+00  2.74D+00
     ILin= 4 X=1.600D+00 Y=-4.073338112526D+03 DE=-2.97D-03 F=  2.78D-03
     An  expanding polynomial of degree  4 produced  1.1096
 RMSU=  7.17D-09    CP:  1.00D+00  1.52D+00  1.66D-01
 Iteration  23 EE= -4073.33879865760     Delta-E=       -0.003651608982 Grad=3.927D-02 Max rot=    0.2049 deg.
 Gradient too large for Newton-Raphson -- use scaled steepest descent instead.
 Alpha Gap=     0.264 HL deriv= 6.39D-07
     ILin= 1 X=0.000D+00 Y=-4.073338798658D+03 DE= 0.00D+00 F= -4.63D-03
 RMSU=  3.68D-05    CP:  1.00D+00  1.61D+00  4.83D-01  3.00D+00
     ILin= 2 X=7.000D-01 Y=-4.073338998539D+03 DE=-2.00D-04 F=  4.08D-03 OKLS=T
     Accept linear search using points  1 and  2.
     An  expanding polynomial of degree  2 produced  0.3630
 RMSU=  7.71D-08    CP:  1.00D+00  1.57D+00  3.17D-01  3.00D+00  5.19D-01
 Iteration  24 EE= -4073.33966341447     Delta-E=       -0.000864756872 Grad=8.612D-03 Max rot=    0.1206 deg.
 SCF Done:  E(RPBE1PBE) =  -4073.33966341     a.u. after   24 cycles
            Convg  =    0.8612D-02                    66 Fock formations.
              S**2 =  0.0000                  -V/T =  2.0508
 Leave Link  508 at Fri Feb 26 12:14:47 2021, MaxMem=  7864320000 cpu:          206895.6 elap:            6576.4
 (Enter /apps/gaussian/g16-c01-avx/g16/l502.exe)
 Integral symmetry usage will be decided dynamically.
 Closed shell SCF:
 Using DIIS extrapolation, IDIIS=  1040.
 NGot=  7864320000 LenX=  7857818442 LenY=  7854605386
 Requested convergence on RMS density matrix=1.00D-08 within 128 cycles.
 Requested convergence on MAX density matrix=1.00D-06.
 Requested convergence on             energy=1.00D-06.
 No special actions if energy rises.
 Fock matrices will be formed incrementally for  20 cycles.

 Cycle   1  Pass 1  IDiag  1:
 FoFJK:  IHMeth= 1 ICntrl=       0 DoSepK=F KAlg= 0 I1Cent=           0 FoldK=F
 IRaf= 600000000 NMat=       1 IRICut=       1 DoRegI=T DoRafI=F ISym2E= 0 IDoP0=0 IntGTp=1.
 FoFCou: FMM=T IPFlag=           0 FMFlag=      100000 FMFlg1=        2001
         NFxFlg=           0 DoJE=F BraDBF=F KetDBF=F FulRan=T
         wScrn=  0.000000 ICntrl=         0 IOpCl=  0 I1Cent=           0 NGrid=           0
         NMat0=    1 NMatS0=      1 NMatT0=    0 NMatD0=    1 NMtDS0=    0 NMtDT0=    0
 Symmetry not used in FoFCou.
 FMM levels:  10  Number of levels for PrismC:   9
 E= -4073.33966341461    
 DIIS: error= 3.16D-04 at cycle   1 NSaved=   1.
 NSaved= 1 IEnMin= 1 EnMin= -4073.33966341461     IErMin= 1 ErrMin= 3.16D-04
 ErrMax= 3.16D-04  0.00D+00 EMaxC= 1.00D-01 BMatC= 3.71D-05 BMatP= 3.71D-05
 IDIUse=3 WtCom= 9.97D-01 WtEn= 3.16D-03
 Coeff-Com:  0.100D+01
 Coeff-En:   0.100D+01
 Coeff:      0.100D+01
 Gap=     0.270 Goal=   None    Shift=    0.000
 RMSDP=2.54D-05 MaxDP=3.83D-03              OVMax= 2.19D-02

 Cycle   2  Pass 1  IDiag  1:
 RMSU=  2.54D-05    CP:  1.00D+00
 E= -4073.33992795630     Delta-E=       -0.000264541690 Rises=F Damp=F
 DIIS: error= 1.08D-04 at cycle   2 NSaved=   2.
 NSaved= 2 IEnMin= 2 EnMin= -4073.33992795630     IErMin= 2 ErrMin= 1.08D-04
 ErrMax= 1.08D-04  0.00D+00 EMaxC= 1.00D-01 BMatC= 2.83D-05 BMatP= 3.71D-05
 IDIUse=3 WtCom= 9.99D-01 WtEn= 1.08D-03
 Coeff-Com:  0.447D+00 0.553D+00
 Coeff-En:   0.000D+00 0.100D+01
 Coeff:      0.446D+00 0.554D+00
 Gap=     0.142 Goal=   None    Shift=    0.000
 RMSDP=5.72D-06 MaxDP=1.05D-03 DE=-2.65D-04 OVMax= 1.97D-03

 Cycle   3  Pass 1  IDiag  1:
 RMSU=  5.66D-06    CP:  1.00D+00  1.03D+00
 E= -4073.33994575794     Delta-E=       -0.000017801642 Rises=F Damp=F
 DIIS: error= 8.80D-05 at cycle   3 NSaved=   3.
 NSaved= 3 IEnMin= 3 EnMin= -4073.33994575794     IErMin= 3 ErrMin= 8.80D-05
 ErrMax= 8.80D-05  0.00D+00 EMaxC= 1.00D-01 BMatC= 1.63D-05 BMatP= 2.83D-05
 IDIUse=1 WtCom= 1.00D+00 WtEn= 0.00D+00
 Coeff-Com: -0.962D-01 0.447D+00 0.649D+00
 Coeff:     -0.962D-01 0.447D+00 0.649D+00
 Gap=     0.142 Goal=   None    Shift=    0.000
 RMSDP=3.51D-06 MaxDP=6.13D-04 DE=-1.78D-05 OVMax= 2.29D-03

 Cycle   4  Pass 1  IDiag  1:
 RMSU=  1.91D-06    CP:  1.00D+00  1.13D+00  7.10D-01
 E= -4073.33996477531     Delta-E=       -0.000019017367 Rises=F Damp=F
 DIIS: error= 1.04D-05 at cycle   4 NSaved=   4.
 NSaved= 4 IEnMin= 4 EnMin= -4073.33996477531     IErMin= 4 ErrMin= 1.04D-05
 ErrMax= 1.04D-05  0.00D+00 EMaxC= 1.00D-01 BMatC= 3.86D-07 BMatP= 1.63D-05
 IDIUse=1 WtCom= 1.00D+00 WtEn= 0.00D+00
 Coeff-Com: -0.555D-01 0.204D+00 0.316D+00 0.535D+00
 Coeff:     -0.555D-01 0.204D+00 0.316D+00 0.535D+00
 Gap=     0.142 Goal=   None    Shift=    0.000
 RMSDP=6.35D-07 MaxDP=9.24D-05 DE=-1.90D-05 OVMax= 2.29D-04

 Cycle   5  Pass 1  IDiag  1:
 RMSU=  6.11D-07    CP:  1.00D+00  1.13D+00  7.29D-01  9.99D-01
 E= -4073.33996512991     Delta-E=       -0.000000354605 Rises=F Damp=F
 DIIS: error= 6.64D-06 at cycle   5 NSaved=   5.
 NSaved= 5 IEnMin= 5 EnMin= -4073.33996512991     IErMin= 5 ErrMin= 6.64D-06
 ErrMax= 6.64D-06  0.00D+00 EMaxC= 1.00D-01 BMatC= 1.14D-07 BMatP= 3.86D-07
 IDIUse=1 WtCom= 1.00D+00 WtEn= 0.00D+00
 Coeff-Com:  0.158D-02-0.345D-01-0.392D-01 0.354D+00 0.719D+00
 Coeff:      0.158D-02-0.345D-01-0.392D-01 0.354D+00 0.719D+00
 Gap=     0.142 Goal=   None    Shift=    0.000
 RMSDP=3.52D-07 MaxDP=6.27D-05 DE=-3.55D-07 OVMax= 2.00D-04

 Cycle   6  Pass 1  IDiag  1:
 RMSU=  1.80D-07    CP:  1.00D+00  1.14D+00  7.42D-01  1.13D+00  8.02D-01
 E= -4073.33996526653     Delta-E=       -0.000000136621 Rises=F Damp=F
 DIIS: error= 2.87D-06 at cycle   6 NSaved=   6.
 NSaved= 6 IEnMin= 6 EnMin= -4073.33996526653     IErMin= 6 ErrMin= 2.87D-06
 ErrMax= 2.87D-06  0.00D+00 EMaxC= 1.00D-01 BMatC= 9.67D-09 BMatP= 1.14D-07
 IDIUse=1 WtCom= 1.00D+00 WtEn= 0.00D+00
 Coeff-Com:  0.422D-02-0.335D-01-0.433D-01 0.167D+00 0.401D+00 0.504D+00
 Coeff:      0.422D-02-0.335D-01-0.433D-01 0.167D+00 0.401D+00 0.504D+00
 Gap=     0.142 Goal=   None    Shift=    0.000
 RMSDP=9.65D-08 MaxDP=1.96D-05 DE=-1.37D-07 OVMax= 3.29D-05

 Cycle   7  Pass 1  IDiag  1:
 RMSU=  7.72D-08    CP:  1.00D+00  1.14D+00  7.42D-01  1.14D+00  8.52D-01
                    CP:  8.11D-01
 E= -4073.33996527551     Delta-E=       -0.000000008975 Rises=F Damp=F
 DIIS: error= 1.37D-06 at cycle   7 NSaved=   7.
 NSaved= 7 IEnMin= 7 EnMin= -4073.33996527551     IErMin= 7 ErrMin= 1.37D-06
 ErrMax= 1.37D-06  0.00D+00 EMaxC= 1.00D-01 BMatC= 1.37D-09 BMatP= 9.67D-09
 IDIUse=1 WtCom= 1.00D+00 WtEn= 0.00D+00
 Coeff-Com:  0.210D-02-0.138D-01-0.184D-01 0.379D-01 0.109D+00 0.293D+00
 Coeff-Com:  0.590D+00
 Coeff:      0.210D-02-0.138D-01-0.184D-01 0.379D-01 0.109D+00 0.293D+00
 Coeff:      0.590D+00
 Gap=     0.142 Goal=   None    Shift=    0.000
 RMSDP=4.36D-08 MaxDP=8.89D-06 DE=-8.97D-09 OVMax= 1.40D-05

 Cycle   8  Pass 1  IDiag  1:
 RMSU=  3.65D-08    CP:  1.00D+00  1.14D+00  7.43D-01  1.15D+00  8.49D-01
                    CP:  8.97D-01  8.58D-01
 E= -4073.33996527736     Delta-E=       -0.000000001855 Rises=F Damp=F
 DIIS: error= 4.35D-07 at cycle   8 NSaved=   8.
 NSaved= 8 IEnMin= 8 EnMin= -4073.33996527736     IErMin= 8 ErrMin= 4.35D-07
 ErrMax= 4.35D-07  0.00D+00 EMaxC= 1.00D-01 BMatC= 2.60D-10 BMatP= 1.37D-09
 IDIUse=1 WtCom= 1.00D+00 WtEn= 0.00D+00
 Coeff-Com:  0.273D-03-0.394D-03-0.751D-03-0.147D-01-0.272D-01 0.564D-01
 Coeff-Com:  0.347D+00 0.640D+00
 Coeff:      0.273D-03-0.394D-03-0.751D-03-0.147D-01-0.272D-01 0.564D-01
 Coeff:      0.347D+00 0.640D+00
 Gap=     0.142 Goal=   None    Shift=    0.000
 RMSDP=1.92D-08 MaxDP=4.79D-06 DE=-1.86D-09 OVMax= 7.57D-06

 Cycle   9  Pass 1  IDiag  1:
 RMSU=  1.16D-08    CP:  1.00D+00  1.14D+00  7.43D-01  1.15D+00  8.56D-01
                    CP:  9.47D-01  9.91D-01  8.57D-01
 E= -4073.33996527774     Delta-E=       -0.000000000375 Rises=F Damp=F
 DIIS: error= 9.63D-08 at cycle   9 NSaved=   9.
 NSaved= 9 IEnMin= 9 EnMin= -4073.33996527774     IErMin= 9 ErrMin= 9.63D-08
 ErrMax= 9.63D-08  0.00D+00 EMaxC= 1.00D-01 BMatC= 3.16D-11 BMatP= 2.60D-10
 IDIUse=1 WtCom= 1.00D+00 WtEn= 0.00D+00
 Coeff-Com: -0.165D-03 0.175D-02 0.223D-02-0.134D-01-0.304D-01-0.103D-01
 Coeff-Com:  0.105D+00 0.328D+00 0.618D+00
 Coeff:     -0.165D-03 0.175D-02 0.223D-02-0.134D-01-0.304D-01-0.103D-01
 Coeff:      0.105D+00 0.328D+00 0.618D+00
 Gap=     0.142 Goal=   None    Shift=    0.000
 RMSDP=6.80D-09 MaxDP=1.76D-06 DE=-3.75D-10 OVMax= 3.21D-06

 Cycle  10  Pass 1  IDiag  1:
 RMSU=  4.90D-09    CP:  1.00D+00  1.14D+00  7.43D-01  1.15D+00  8.56D-01
                    CP:  9.61D-01  1.02D+00  9.26D-01  8.64D-01
 E= -4073.33996527756     Delta-E=        0.000000000178 Rises=F Damp=F
 DIIS: error= 4.40D-08 at cycle  10 NSaved=  10.
 NSaved=10 IEnMin= 9 EnMin= -4073.33996527774     IErMin=10 ErrMin= 4.40D-08
 ErrMax= 4.40D-08  0.00D+00 EMaxC= 1.00D-01 BMatC= 5.68D-12 BMatP= 3.16D-11
 IDIUse=1 WtCom= 1.00D+00 WtEn= 0.00D+00
 Coeff-Com: -0.144D-03 0.116D-02 0.152D-02-0.521D-02-0.129D-01-0.151D-01
 Coeff-Com:  0.392D-02 0.732D-01 0.339D+00 0.615D+00
 Coeff:     -0.144D-03 0.116D-02 0.152D-02-0.521D-02-0.129D-01-0.151D-01
 Coeff:      0.392D-02 0.732D-01 0.339D+00 0.615D+00
 Gap=     0.142 Goal=   None    Shift=    0.000
 RMSDP=2.79D-09 MaxDP=5.98D-07 DE= 1.78D-10 OVMax= 1.38D-06

 Error on total polarization charges =  0.03568
 SCF Done:  E(RPBE1PBE) =  -4073.33996528     A.U. after   10 cycles
[...]
 Alpha virt. eigenvalues --    1.90102   1.90686   1.91958   1.92011   1.92330
 Alpha virt. eigenvalues --    1.92386   1.92479   1.92831   1.92972   1.93022
 Alpha virt. eigenvalues --    1.93217   1.93453   1.93629   1.93712   1.93949
 Alpha virt. eigenvalues --    1.94302   1.94367   1.94432   1.94645   1.94681
 Alpha virt. eigenvalues --    1.94841   1.95442   1.95454   1.95743   1.95888
 Alpha virt. eigenvalues --    1.96040   1.96280   1.96496   1.96739   1.97204
 Alpha virt. eigenvalues --    1.97355   1.97479   1.97678   1.97733   1.97769
 Alpha virt. eigenvalues --    1.97800   1.97966   1.98227   1.98319   1.98446
 Alpha virt. eigenvalues --    1.98926   1.99005   1.99104   1.99425   1.99484
 Alpha virt. eigenvalues --    1.99601   1.99609   2.00006   2.00251   2.00357
 Alpha virt. eigenvalues --    2.00457   2.00532   2.00907   2.01130   2.01146
 Alpha virt. eigenvalues --    2.01276   2.01451   2.02302   2.02691   2.02912
 Alpha virt. eigenvalues --    2.02947   2.03167   2.03507   2.03545   2.03824
 Alpha virt. eigenvalues --    2.03856   2.04228   2.04273   2.04443   2.04833
 Alpha virt. eigenvalues --    2.05390   2.06148   2.06210   2.06566   2.06682
 Alpha virt. eigenvalues --    2.06891   2.07216   2.07397   2.07642   2.08211
 Alpha virt. eigenvalues --    2.08229   2.08479   2.08505   2.08863   2.09287
 Alpha virt. eigenvalues --    2.09825   2.10188   2.10413   2.10560   2.10593
 Alpha virt. eigenvalues --    2.11182   2.11343   2.11767   2.12172   2.12175
 Alpha virt. eigenvalues --    2.12342   2.12530   2.12704   2.12844   2.12943
 Alpha virt. eigenvalues --    2.13011   2.13247   2.13359   2.13407   2.13454
 Alpha virt. eigenvalues --    2.13722   2.13974   2.13984   2.15018   2.15191
 Alpha virt. eigenvalues --    2.15525   2.16201   2.16612   2.16963   2.17254
 Alpha virt. eigenvalues --    2.17326   2.17541   2.17808   2.18004   2.18712
 Alpha virt. eigenvalues --    2.18758   2.18828   2.19091   2.19900   2.20649
 Alpha virt. eigenvalues --    2.21042   2.21255   2.21551   2.22276   2.22461
 Alpha virt. eigenvalues --    2.22640   2.22651   2.22775   2.23199   2.23225
 Alpha virt. eigenvalues --    2.23875   2.23945   2.24346   2.24570   2.24658
 Alpha virt. eigenvalues --    2.24715   2.25004   2.25030   2.25343   2.25390
 Alpha virt. eigenvalues --    2.25739   2.25986   2.26357   2.26606   2.26890
 Alpha virt. eigenvalues --    2.27097   2.27465   2.27733   2.27902   2.28075
 Alpha virt. eigenvalues --    2.28321   2.28500   2.28769   2.28793   2.28801
 Alpha virt. eigenvalues --    2.29042   2.29268   2.29315   2.29613   2.29826
 Alpha virt. eigenvalues --    2.29949   2.29960   2.30328   2.30704   2.30791
 Alpha virt. eigenvalues --    2.30924   2.30960   2.31056   2.31795   2.32654
 Alpha virt. eigenvalues --    2.32820   2.33181   2.33395   2.33710   2.34216
 Alpha virt. eigenvalues --    2.34471   2.34604   2.34625   2.34810   2.35068
 Alpha virt. eigenvalues --    2.35469   2.35524   2.35553   2.35645   2.35817
 Alpha virt. eigenvalues --    2.35826   2.36153   2.36358   2.36752   2.36905
 Alpha virt. eigenvalues --    2.37044   2.37165   2.37234   2.37796   2.38394
 Alpha virt. eigenvalues --    2.38438   2.38957   2.39020   2.39164   2.39244
 Alpha virt. eigenvalues --    2.39319   2.39426   2.39487   2.39687   2.39846
 Alpha virt. eigenvalues --    2.39885   2.39973   2.40313   2.40770   2.41883
 Alpha virt. eigenvalues --    2.42256   2.42620   2.43348   2.43591   2.43810
 Alpha virt. eigenvalues --    2.44548   2.45233   2.45259   2.46315   2.46409
 Alpha virt. eigenvalues --    2.46479   2.47135   2.47344   2.47912   2.48303
 Alpha virt. eigenvalues --    2.48709   2.48746   2.49614   2.50110   2.50988
 Alpha virt. eigenvalues --    2.51430   2.51862   2.52351   2.53164   2.53631
 Alpha virt. eigenvalues --    2.54022   2.54750   2.54815   2.55287   2.55375
 Alpha virt. eigenvalues --    2.56040   2.56229   2.56255   2.56849   2.57150
 Alpha virt. eigenvalues --    2.57678   2.57789   2.58482   2.58770   2.59489
 Alpha virt. eigenvalues --    2.59673   2.59858   2.60113   2.60665   2.60906
 Alpha virt. eigenvalues --    2.60924   2.60962   2.61133   2.61549   2.61586
 Alpha virt. eigenvalues --    2.62279   2.63903   2.64036   2.64158   2.64380
 Alpha virt. eigenvalues --    2.64448   2.64508   2.64694   2.64726   2.65049
 Alpha virt. eigenvalues --    2.65169   2.65466   2.65786   2.65833   2.66386
 Alpha virt. eigenvalues --    2.66546   2.66595   2.66812   2.66896   2.67231
 Alpha virt. eigenvalues --    2.67792   2.68340   2.68537   2.68909   2.69258
 Alpha virt. eigenvalues --    2.70195   2.71216   2.71907   2.71958   2.72288
 Alpha virt. eigenvalues --    2.72834   2.72909   2.72972   2.73430   2.73681
 Alpha virt. eigenvalues --    2.74052   2.74340   2.74788   2.74804   2.75019
 Alpha virt. eigenvalues --    2.75717   2.75778   2.75816   2.75820   2.76414
 Alpha virt. eigenvalues --    2.76517   2.76635   2.76711   2.76716   2.76915
 Alpha virt. eigenvalues --    2.76965   2.77166   2.77221   2.77288   2.77559
 Alpha virt. eigenvalues --    2.77711   2.77910   2.78248   2.78354   2.78562
 Alpha virt. eigenvalues --    2.78617   2.79363   2.79856   2.81268   2.81820
 Alpha virt. eigenvalues --    2.81941   2.82442   2.82915   2.82993   2.83296
 Alpha virt. eigenvalues --    2.83371   2.86690   2.87161   2.87177   2.87257
 Alpha virt. eigenvalues --    2.88396   2.88445   2.88578   2.88700   2.89616
 Alpha virt. eigenvalues --    2.90532   2.90599   2.90694   2.90731   2.90859
 Alpha virt. eigenvalues --    2.91564   2.92274   2.93335   2.94401   2.94640
 Alpha virt. eigenvalues --    2.95610   2.96712   2.96912   2.96958   2.97142
 Alpha virt. eigenvalues --    2.97830   2.98236   2.98546   2.98640   2.99030
 Alpha virt. eigenvalues --    2.99513   2.99860   3.00419   3.00574   3.00699
 Alpha virt. eigenvalues --    3.00769   3.02010   3.02076   3.02814   3.03290
 Alpha virt. eigenvalues --    3.04383   3.06200   3.06454   3.06508   3.06770
 Alpha virt. eigenvalues --    3.08039   3.08375   3.08488   3.09330   3.10853
 Alpha virt. eigenvalues --    3.11339   3.11437   3.11464   3.12635   3.12687
 Alpha virt. eigenvalues --    3.13628   3.13834   3.14164   3.14749   3.14807
 Alpha virt. eigenvalues --    3.15042   3.15542   3.16159   3.16496   3.16537
 Alpha virt. eigenvalues --    3.17044   3.17634   3.19661   3.19743   3.20125
 Alpha virt. eigenvalues --    3.21302   3.24993   3.26185   3.26284   3.28075
 Alpha virt. eigenvalues --    3.31703   3.32373   3.32466   3.33652   3.38828
 Alpha virt. eigenvalues --    3.38959   3.39014   3.39215   3.48264   3.48374
 Alpha virt. eigenvalues --    3.48446   3.48564   3.56393   3.56525   3.56897
 Alpha virt. eigenvalues --    3.57096   3.62585   3.62618   3.62801   3.63006
 Alpha virt. eigenvalues --    3.67722   3.67842   3.67928   3.68112   3.80282
 Alpha virt. eigenvalues --    3.80374   3.80447   3.80632  51.69494  51.73325
          Condensed to atoms (all electrons):
 Mulliken charges:
               1
     1  Pd   0.421964
     2  Pd   0.593220
     3  C    0.003396
     4  C   -0.055938
     5  C   -0.016256
     6  C    0.003683
     7  C    0.011532
     8  C    0.005073
     9  C    0.028571
    10  C   -0.013381
    11  C    0.139589
    12  N   -0.333850
    13  C    0.169527
    14  C   -0.013093
    15  H    0.039355
    16  H    0.053307
    17  H    0.039269
    18  H    0.047840
    19  H    0.162587
    20  H    0.072711
    21  C   -0.073932
    22  C    0.016425
    23  C   -0.014053
    24  C    0.019537
    25  C   -0.024311
    26  C    0.013941
    27  H    0.037495
    28  H    0.039858
    29  H    0.038204
    30  H    0.033191
    31  C   -0.029968
    32  C    0.075428
    33  C   -0.038267
    34  C    0.152850
    35  N   -0.309745
    36  C    0.147563
    37  H    0.064742
    38  H    0.071239
    39  H    0.090489
    40  H    0.112798
    41  C    0.008755
    42  C   -0.060867
    43  C   -0.011790
    44  C    0.009522
    45  C    0.016599
    46  C    0.008703
    47  C    0.027946
    48  C   -0.009653
    49  C    0.140087
    50  N   -0.322797
    51  C    0.186997
    52  C   -0.013606
    53  H    0.043599
    54  H    0.057612
    55  H    0.043274
    56  H    0.056981
    57  H    0.090888
    58  H    0.080493
    59  C   -0.076232
    60  C    0.013306
    61  C   -0.025198
    62  C    0.021710
    63  C   -0.015616
    64  C    0.016565
    65  H    0.031810
    66  H    0.037751
    67  H    0.038691
    68  H    0.036630
    69  C   -0.031373
    70  C    0.067439
    71  C   -0.036042
    72  C    0.158449
    73  N   -0.330615
    74  C    0.131417
    75  H    0.058031
    76  H    0.063659
    77  H    0.109263
    78  H    0.102683
    79  C    0.003413
    80  C   -0.055937
    81  C   -0.016251
    82  C    0.003696
    83  C    0.011573
    84  C    0.005154
    85  C    0.028525
    86  C   -0.013158
    87  C    0.139228
    88  N   -0.333715
    89  C    0.169607
    90  C   -0.013186
    91  H    0.039359
    92  H    0.053271
    93  H    0.039245
    94  H    0.047842
    95  H    0.162579
    96  H    0.072734
    97  C   -0.073969
    98  C    0.013901
    99  C   -0.024336
   100  C    0.019531
   101  C   -0.014009
   102  C    0.016494
   103  H    0.033265
   104  H    0.038195
   105  H    0.039785
   106  H    0.037412
   107  C   -0.029997
   108  C    0.075366
   109  C   -0.038207
   110  C    0.153020
   111  N   -0.310083
   112  C    0.147675
   113  H    0.064742
   114  H    0.071209
   115  H    0.090679
   116  H    0.112748
   117  C    0.008718
   118  C   -0.061032
   119  C   -0.011718
   120  C    0.009461
   121  C    0.016591
   122  C    0.008625
   123  C    0.027918
   124  C   -0.009714
   125  C    0.140105
   126  N   -0.322729
   127  C    0.186883
   128  C   -0.013629
   129  H    0.043560
   130  H    0.057595
   131  H    0.043264
   132  H    0.057006
   133  H    0.090875
   134  H    0.080524
   135  C   -0.076264
   136  C    0.016414
   137  C   -0.015918
   138  C    0.021961
   139  C   -0.025423
   140  C    0.013198
   141  H    0.036514
   142  H    0.038555
   143  H    0.037526
   144  H    0.031645
   145  C   -0.031822
   146  C    0.067021
   147  C   -0.034598
   148  C    0.160626
   149  N   -0.337152
   150  C    0.132816
   151  H    0.057347
   152  H    0.062803
   153  H    0.115345
   154  H    0.102039
 Sum of Mulliken charges =   4.00000
 Mulliken charges with hydrogens summed into heavy atoms:
               1
     1  Pd   0.421964
     2  Pd   0.593220
     3  C    0.003396
     4  C   -0.055938
     5  C   -0.016256
     6  C    0.043038
     7  C    0.064839
     8  C    0.044343
     9  C    0.028571
    10  C    0.034459
    11  C    0.302177
    12  N   -0.333850
    13  C    0.242238
    14  C   -0.013093
    21  C   -0.073932
    22  C    0.053920
    23  C    0.025805
    24  C    0.019537
    25  C    0.013893
    26  C    0.047131
    31  C   -0.029968
    32  C    0.140170
    33  C    0.032972
    34  C    0.243339
    35  N   -0.309745
    36  C    0.260361
    41  C    0.008755
    42  C   -0.060867
    43  C   -0.011790
    44  C    0.053121
    45  C    0.074211
    46  C    0.051977
    47  C    0.027946
    48  C    0.047327
    49  C    0.230975
    50  N   -0.322797
    51  C    0.267490
    52  C   -0.013606
    59  C   -0.076232
    60  C    0.045116
    61  C    0.012553
    62  C    0.021710
    63  C    0.023075
    64  C    0.053195
    69  C   -0.031373
    70  C    0.125470
    71  C    0.027617
    72  C    0.267711
    73  N   -0.330615
    74  C    0.234100
    79  C    0.003413
    80  C   -0.055937
    81  C   -0.016251
    82  C    0.043055
    83  C    0.064844
    84  C    0.044399
    85  C    0.028525
    86  C    0.034684
    87  C    0.301806
    88  N   -0.333715
    89  C    0.242341
    90  C   -0.013186
    97  C   -0.073969
    98  C    0.047165
    99  C    0.013859
   100  C    0.019531
   101  C    0.025777
   102  C    0.053906
   107  C   -0.029997
   108  C    0.140109
   109  C    0.033002
   110  C    0.243699
   111  N   -0.310083
   112  C    0.260423
   117  C    0.008718
   118  C   -0.061032
   119  C   -0.011718
   120  C    0.053022
   121  C    0.074187
   122  C    0.051888
   123  C    0.027918
   124  C    0.047293
   125  C    0.230980
   126  N   -0.322729
   127  C    0.267406
   128  C   -0.013629
   135  C   -0.076264
   136  C    0.052928
   137  C    0.022637
   138  C    0.021961
   139  C    0.012103
   140  C    0.044843
   145  C   -0.031822
   146  C    0.124369
   147  C    0.028205
   148  C    0.275971
   149  N   -0.337152
   150  C    0.234854
 Electronic spatial extent (au):  <R**2>=         103832.6492
 Charge=              4.0000 electrons
 Dipole moment (field-independent basis, Debye):
    X=              4.2372    Y=              0.0183    Z=              0.0127  Tot=              4.2373
 Quadrupole moment (field-independent basis, Debye-Ang):
   XX=            187.1020   YY=           -384.3570   ZZ=           -386.4530
   XY=              0.3804   XZ=              0.4033   YZ=              4.4409
 Traceless Quadrupole moment (field-independent basis, Debye-Ang):
   XX=            381.6714   YY=           -189.7877   ZZ=           -191.8837
   XY=              0.3804   XZ=              0.4033   YZ=              4.4409
 Octapole moment (field-independent basis, Debye-Ang**2):
  XXX=            290.5141  YYY=             -0.5746  ZZZ=             -0.5714  XYY=            -71.7852
  XXY=              2.7916  XXZ=              2.5493  XZZ=            -63.6449  YZZ=             -1.1556
  YYZ=             -1.1727  XYZ=           -335.7628
 Hexadecapole moment (field-independent basis, Debye-Ang**3):
 XXXX=         -41331.7624 YYYY=         -28716.2035 ZZZZ=         -28520.1943 XXXY=             24.1155
 XXXZ=             25.6446 YYYX=             -0.0321 YYYZ=            748.6193 ZZZX=             -0.6434
 ZZZY=           -497.9276 XXYY=         -12175.6737 XXZZ=         -12252.3813 YYZZ=          -6213.2705
 XXYZ=            205.3474 YYXZ=             -4.7282 ZZXY=             -3.9255
 N-N= 1.815308952207D+04 E-N=-4.549039087238D+04  KE= 3.876346566976D+03
 Leave Link  601 at Fri Feb 26 12:30:01 2021, MaxMem=  7864320000 cpu:              52.1 elap:               1.9
 (Enter /apps/gaussian/g16-c01-avx/g16/l9999.exe)
 Unable to Open any file for archive entry.
 1\1\GINC-CX3-2-28\SP\RPBE1PBE\def2SVP\C88H56N8Pd2(4+)\ATARZIA\26-Feb-2
 021\0\\#P PBE1PBE/Def2SVP SP SCF=(YQC,MaxCycle=900) int=(Grid=Superfin
 egrid) EmpiricalDispersion=GD3BJ SCRF=(PCM,Solvent=DiMethylSulfoxide)\
 \_s_4b1_d\\4,1\Pd,0,1.097,6.339,-0.8433\Pd,0,0.5625,-4.9277,-0.6882\C,
 0,5.6063,-1.2288,-1.3336\C,0,5.6923,-2.4347,-1.3759\C,0,5.8966,-3.827,
 -1.4394\C,0,7.1706,-4.3179,-1.6622\C,0,7.4149,-5.6936,-1.7197\C,0,6.39
 45,-6.5978,-1.56\C,0,5.0818,-6.1438,-1.34\C,0,3.9888,-7.0256,-1.1771\C
 ,0,2.7351,-6.5251,-0.9789\N,0,2.4964,-5.1896,-0.9314\C,0,3.4876,-4.335
 3,-1.0702\C,0,4.8157,-4.7448,-1.2775\H,0,7.9893,-3.6259,-1.7879\H,0,8.
 4224,-6.0406,-1.8913\H,0,6.5849,-7.6586,-1.6032\H,0,4.1597,-8.0898,-1.
 2145\H,0,1.8737,-7.1871,-0.8505\H,0,3.2421,-3.2797,-1.0193\C,0,5.4258,
 0.169,-1.2822\C,0,6.1041,1.0086,-2.1703\C,0,5.879,2.3703,-2.1443\C,0,4
 .9702,2.9213,-1.2396\C,0,4.3217,2.0819,-0.3303\C,0,4.5463,0.7225,-0.34
 68\H,0,6.7947,0.5861,-2.8839\H,0,6.3868,3.0059,-2.8532\H,0,3.6619,2.50
 3,0.4112\H,0,4.0536,0.0786,0.3631\C,0,4.6687,4.3596,-1.2545\C,0,5.6554
 ,5.3366,-1.4259\C,0,5.2985,6.6738,-1.4268\C,0,3.9664,7.0204,-1.2579\N,
 0,3.0276,6.0908,-1.104\C,0,3.354,4.7967,-1.1032\H,0,6.6888,5.0473,-1.5
 381\H,0,6.0431,7.4431,-1.5519\H,0,3.6402,8.0541,-1.2468\H,0,2.5319,4.0
 809,-0.9965\C,0,1.5259,2.4392,4.0696\C,0,1.6562,3.6354,4.1943\C,0,1.82
 22,5.0118,4.4425\C,0,2.0939,5.4432,5.7286\C,0,2.2533,6.8024,6.0162\C,0
 ,2.1478,7.749,5.0277\C,0,1.881,7.3556,3.7041\C,0,1.7692,8.2826,2.6425\
 C,0,1.5219,7.8393,1.376\N,0,1.3776,6.5191,1.0948\C,0,1.4656,5.6246,2.0
 56\C,0,1.7155,5.9742,3.3939\H,0,2.1781,4.7173,6.5228\H,0,2.4608,7.1026
 ,7.0319\H,0,2.2693,8.7971,5.2515\H,0,1.8841,9.3351,2.8472\H,0,1.431,8.
 537,0.5383\H,0,1.3373,4.584,1.7772\C,0,1.375,1.0552,3.8442\C,0,0.4153,
 0.5988,2.9356\C,0,0.3041,-0.748,2.6669\C,0,1.1406,-1.6712,3.2994\C,0,2
 .0689,-1.216,4.2371\C,0,2.1898,0.1324,4.5064\H,0,-0.2387,1.3076,2.4547
 \H,0,-0.4557,-1.0933,1.9842\H,0,2.7221,-1.9171,4.7331\H,0,2.9216,0.480
 1,5.2191\C,0,1.0566,-3.0965,2.9514\C,0,1.1426,-4.1139,3.9079\C,0,1.053
 6,-5.4359,3.5076\C,0,0.8814,-5.7271,2.1628\N,0,0.8088,-4.7597,1.2528\C
 ,0,0.8946,-3.4798,1.6213\H,0,1.2593,-3.8663,4.9515\H,0,1.1118,-6.2353,
 4.2283\H,0,0.8017,-6.7465,1.8028\H,0,0.8519,-2.7325,0.8218\C,0,-4.1082
 ,-0.7519,-0.154\C,0,-4.308,-1.9426,-0.0795\C,0,-4.6432,-3.3071,0.021\C
 ,0,-5.958,-3.669,0.2534\C,0,-6.3314,-5.0134,0.3476\C,0,-5.4011,-6.0141
 ,0.2156\C,0,-4.0512,-5.6925,-0.013\C,0,-3.0465,-6.6778,-0.1487\C,0,-1.
 7511,-6.3038,-0.3572\N,0,-1.3871,-4.9986,-0.4407\C,0,-2.293,-4.0509,-0
 .3279\C,0,-3.654,-4.3271,-0.1128\H,0,-6.7076,-2.8995,0.3577\H,0,-7.367
 2,-5.2587,0.5256\H,0,-5.691,-7.0505,0.2872\H,0,-3.3173,-7.7196,-0.0825
 \H,0,-0.9562,-7.0476,-0.4652\H,0,-1.9488,-3.025,-0.4069\C,0,-3.7961,0.
 6206,-0.2428\C,0,-2.8694,1.0629,-1.1917\C,0,-2.5171,2.394,-1.2447\C,0,
 -3.0819,3.3153,-0.3591\C,0,-4.0374,2.8774,0.5592\C,0,-4.3905,1.5443,0.
 6217\H,0,-2.4409,0.3563,-1.8835\H,0,-1.8214,2.7305,-1.9965\H,0,-4.4817
 ,3.5771,1.25\H,0,-5.1169,1.2086,1.3456\C,0,-2.6454,4.7184,-0.3829\C,0,
 -3.535,5.7887,-0.239\C,0,-3.0531,7.0857,-0.274\C,0,-1.6945,7.2999,-0.4
 508\N,0,-0.8481,6.2818,-0.5784\C,0,-1.2955,5.0249,-0.5445\H,0,-4.591,5
 .6017,-0.1201\H,0,-3.7214,7.9251,-0.1706\H,0,-1.2719,8.2973,-0.4896\H,
 0,-0.5451,4.2318,-0.6308\C,0,0.2944,2.3638,-5.6482\C,0,0.2779,3.563,-5
 .8057\C,0,0.2426,4.9417,-6.0917\C,0,0.0113,5.3614,-7.3895\C,0,-0.0191,
 6.7212,-7.7145\C,0,0.1769,7.6803,-6.7522\C,0,0.407,7.2999,-5.4179\C,0,
 0.6074,8.2409,-4.382\C,0,0.8131,7.8111,-3.1035\N,0,0.8322,6.4914,-2.78
 6\C,0,0.6587,5.5833,-3.7224\C,0,0.4414,5.9181,-5.0698\H,0,-0.1424,4.62
 53,-8.1636\H,0,-0.1986,7.0118,-8.7383\H,0,0.1548,8.7287,-7.0048\H,0,0.
 5923,9.2936,-4.6157\H,0,0.9707,8.5198,-2.2852\H,0,0.6884,4.5432,-3.414
 9\C,0,0.3139,0.9784,-5.3847\C,0,-0.5852,0.119,-6.0225\C,0,-0.5921,-1.2
 27,-5.716\C,0,0.29,-1.7419,-4.7648\C,0,1.2108,-0.885,-4.1567\C,0,1.227
 2,0.4585,-4.4625\H,0,-1.2817,0.5145,-6.7456\H,0,-1.3093,-1.8765,-6.193
 6\H,0,1.9352,-1.2816,-3.4636\H,0,1.9458,1.1152,-4.0003\C,0,0.2393,-3.1
 586,-4.3776\C,0,0.0566,-4.1894,-5.3059\C,0,0.021,-5.5023,-4.8692\C,0,0
 .1663,-5.7714,-3.5167\N,0,0.3308,-4.7904,-2.6336\C,0,0.3657,-3.5188,-3
 .0372\H,0,-0.0372,-3.9607,-6.3561\H,0,-0.1132,-6.3122,-5.5678\H,0,0.14
 98,-6.7834,-3.1287\H,0,0.4796,-2.7571,-2.2585\\Version=ES64L-G16RevC.0
 1\State=1-A\HF=-4073.3399653\RMSD=2.793e-09\Dipole=-0.0818153,-1.66499
 34,0.0143702\Quadrupole=-143.8591701,282.7261754,-138.8670052,20.36393
 02,1.4233887,-5.4195544\PG=C01 [X(C88H56N8Pd2)]\\@
 The archive entry for this job was punched.


 FROM WHENCE IT HAPPENS, THAT THEY WHICH TRUST TO BOOKS, DO AS THEY THAT CAST UP MANY LITTLE SUMMS INTO GREATER,
 WITHOUT CONSIDERING WETHER THOSE LITTLE SUMMES WERE RIGHTLY CAST UP OR NOT...
 AND AT LAST FINDING THE ERROUR VISIBLE, AND NOT MISTRUSTING THEIR FIRST GROUNDS,
 KNOW NOT WHICH WAY TO CLEERE THEMSELVES...
 BUT SPEND TIME IN FLUTTERING OVER THEIR BOOKES....
 AS BIRDS THAT ENTERING BY THE CHIMNEY, AND FINDING THEMSELVES INCLOSED IN A CHAMBER,
 FLUTTER AT THE FALSE LIGHT OF A GLASSE WINDOW,
 FOR WANT OF WIT TO CONSIDER WHICH WAY THEY CAME IN....
           LEVIATHAN
 Job cpu time:       2 days 17 hours 52 minutes 17.0 seconds.
 Elapsed time:       0 days  2 hours  5 minutes 36.0 seconds.
 File lengths (MBytes):  RWF=   3662 Int=      0 D2E=      0 Chk=    169 Scr=      2
 Normal termination of Gaussian 16 at Fri Feb 26 12:30:01 2021.
