 Entering Gaussian System, Link 0=g16
 Input=m3_lb_FINAL.com
 Output=m3_lb_FINAL.log
 Initial command:
 /apps/gaussian/g16-c01-avx/g16/l1.exe "/rds/general/user/vposligu/home/work/Pd2L4_cages/New_Cages/opt/PBE0-def2svp-solvent/SP_FINAL/m3_lb/Gau-1800325.inp" -scrdir="/rds/general/user/vposligu/home/work/Pd2L4_cages/New_Cages/opt/PBE0-def2svp-solvent/SP_FINAL/m3_lb/"
 Entering Link 1 = /apps/gaussian/g16-c01-avx/g16/l1.exe PID=   1800326.
  
 Copyright (c) 1988-2019, Gaussian, Inc.  All Rights Reserved.
  
 This is part of the Gaussian(R) 16 program.  It is based on
 the Gaussian(R) 09 system (copyright 2009, Gaussian, Inc.),
 the Gaussian(R) 03 system (copyright 2003, Gaussian, Inc.),
 the Gaussian(R) 98 system (copyright 1998, Gaussian, Inc.),
 the Gaussian(R) 94 system (copyright 1995, Gaussian, Inc.),
 the Gaussian 92(TM) system (copyright 1992, Gaussian, Inc.),
 the Gaussian 90(TM) system (copyright 1990, Gaussian, Inc.),
 the Gaussian 88(TM) system (copyright 1988, Gaussian, Inc.),
 the Gaussian 86(TM) system (copyright 1986, Carnegie Mellon
 University), and the Gaussian 82(TM) system (copyright 1983,
 Carnegie Mellon University). Gaussian is a federally registered
 trademark of Gaussian, Inc.
  
 This software contains proprietary and confidential information,
 including trade secrets, belonging to Gaussian, Inc.
  
 This software is provided under written license and may be
 used, copied, transmitted, or stored only in accord with that
 written license.
  
 The following legend is applicable only to US Government
 contracts under FAR:
  
                    RESTRICTED RIGHTS LEGEND
  
 Use, reproduction and disclosure by the US Government is
 subject to restrictions as set forth in subparagraphs (a)
 and (c) of the Commercial Computer Software - Restricted
 Rights clause in FAR 52.227-19.
  
 Gaussian, Inc.
 340 Quinnipiac St., Bldg. 40, Wallingford CT 06492
  
  
 ---------------------------------------------------------------
 Warning -- This program may not be used in any manner that
 competes with the business of Gaussian, Inc. or will provide
 assistance to any competitor of Gaussian, Inc.  The licensee
 of this program is prohibited from giving any competitor of
 Gaussian, Inc. access to this program.  By using this program,
 the user acknowledges that Gaussian, Inc. is engaged in the
 business of creating and licensing software in the field of
 computational chemistry and represents and warrants to the
 licensee that it is not a competitor of Gaussian, Inc. and that
 it will not use this program in any manner prohibited above.
 ---------------------------------------------------------------
  

 Cite this work as:
 Gaussian 16, Revision C.01,
 M. J. Frisch, G. W. Trucks, H. B. Schlegel, G. E. Scuseria, 
 M. A. Robb, J. R. Cheeseman, G. Scalmani, V. Barone, 
 G. A. Petersson, H. Nakatsuji, X. Li, M. Caricato, A. V. Marenich, 
 J. Bloino, B. G. Janesko, R. Gomperts, B. Mennucci, H. P. Hratchian, 
 J. V. Ortiz, A. F. Izmaylov, J. L. Sonnenberg, D. Williams-Young, 
 F. Ding, F. Lipparini, F. Egidi, J. Goings, B. Peng, A. Petrone, 
 T. Henderson, D. Ranasinghe, V. G. Zakrzewski, J. Gao, N. Rega, 
 G. Zheng, W. Liang, M. Hada, M. Ehara, K. Toyota, R. Fukuda, 
 J. Hasegawa, M. Ishida, T. Nakajima, Y. Honda, O. Kitao, H. Nakai, 
 T. Vreven, K. Throssell, J. A. Montgomery, Jr., J. E. Peralta, 
 F. Ogliaro, M. J. Bearpark, J. J. Heyd, E. N. Brothers, K. N. Kudin, 
 V. N. Staroverov, T. A. Keith, R. Kobayashi, J. Normand, 
 K. Raghavachari, A. P. Rendell, J. C. Burant, S. S. Iyengar, 
 J. Tomasi, M. Cossi, J. M. Millam, M. Klene, C. Adamo, R. Cammi, 
 J. W. Ochterski, R. L. Martin, K. Morokuma, O. Farkas, 
 J. B. Foresman, and D. J. Fox, Gaussian, Inc., Wallingford CT, 2019.
 
 ******************************************
 Gaussian 16:  ES64L-G16RevC.01  3-Jul-2019
                 2-Jun-2023 
 ******************************************
 %chk=m3_lb_FINAL.chk
 %nprocshared=48
 Will use up to   48 processors via shared memory.
 %mem=120GB
 ------------------------------------------------------------------
 # SP PBE1PBE/def2svp empiricaldispersion=GD3BJ scrf=(solvent=dmso)
 ------------------------------------------------------------------
 1/38=1,172=1/1;
 2/12=2,17=6,18=5,40=1/2;
 3/5=43,7=101,11=2,25=1,30=1,70=2201,72=21,74=-13,124=41/1,2,3;
 4//1;
 5/5=2,38=5,53=21/2;
 6/7=2,8=2,9=2,10=2,28=1/1;
 99/5=1,9=1/99;
 -----
 m3_lb
 -----
 Symbolic Z-matrix:
 Charge =  6 Multiplicity = 1
 Pd                   -7.0891   -4.2376    0.6425 
 Pd                   -5.2841    4.5501   -0.2221 
 Pd                    11.5701  -1.4145   -2.0109 
 C                    -6.9639   -5.8165   -3.2926 
 C                    -7.3542   -5.2331   -2.1185 
 N                    -6.4555   -4.9699   -1.1308 
 C                    -5.1722   -5.2384   -1.2943 
 C                    -4.6598   -5.7943   -2.4865 
 C                    -3.265    -6.0503   -2.685 
 C                    -2.2281   -5.6438   -1.7116 
 C                    -2.1606   -4.334    -1.208 
 C                    -1.1367   -3.9526   -0.3501 
 C                    -0.1523   -4.8805    0.0349 
 C                     0.8728   -4.525     0.9593 
 C                     1.7249   -4.257     1.7867 
 C                     2.7304   -3.9512    2.7597 
 N                     3.5476   -2.9345    2.4721 
 C                     4.5006   -2.607     3.3522 
 C                     5.3574   -1.5316    2.9513 
 C                     6.0561   -0.6511    2.4832 
 C                     6.873     0.3129    1.8265 
 C                     8.2194    0.0162    1.5503 
 C                     8.9778    0.8726    0.7676 
 C                     8.4236    2.0439    0.2189 
 C                     9.1726    2.9104   -0.7187 
 C                     9.068     4.2891   -0.6502 
 C                     9.8164    5.1333   -1.4985 
 C                     10.7091   4.6212   -2.4129 
 C                     10.8475   3.2189   -2.5379 
 C                     11.7634   2.608    -3.4341 
 C                     11.8873   1.243    -3.4768 
 N                     11.0847   0.4423   -2.7253 
 C                     10.1711   0.9819   -1.9346 
 C                     10.0443   2.3661   -1.7212 
 C                     7.1149    2.3817    0.5937 
 C                     6.3418    1.5328    1.3739 
 C                     4.6737   -3.2832    4.5691 
 C                     3.8225   -4.3443    4.8588 
 C                     2.8326   -4.6934    3.9474 
 C                    -0.2119   -6.1897   -0.4734 
 C                    -1.2322   -6.5589   -1.338 
 C                    -2.8787   -6.6805   -3.8556 
 C                    -3.8119   -7.031    -4.8537 
 C                    -5.1496   -6.7495   -4.6992 
 C                    -5.5997   -6.1298   -3.5101 
 H                    -7.7047   -6.0404   -4.0622 
 H                    -8.3923   -4.9648   -1.9158 
 H                    -4.5165   -5.025    -0.4478 
 H                    -2.8995   -3.5925   -1.5199 
 H                    -1.0895   -2.9283    0.0261 
 H                     8.6625   -0.9035    1.9383 
 H                     10.0244   0.6235    0.5937 
 H                     8.4254    4.742     0.1068 
 H                     9.7034    6.2153   -1.3957 
 H                     11.3166   5.2773   -3.04 
 H                     12.396    3.2297   -4.0705 
 H                     12.6277   0.7427   -4.103 
 H                     9.5256    0.2938   -1.3916 
 H                     6.6752    3.3083    0.2281 
 H                     5.3086    1.7989    1.6072 
 H                     5.461    -2.9766    5.2592 
 H                     3.9283   -4.8959    5.7956 
 H                     2.1443   -5.5176    4.1394 
 H                     0.5478   -6.9164   -0.1792 
 H                    -1.2695   -7.5813   -1.7206 
 H                    -1.8183   -6.8766   -4.028 
 H                    -3.4552   -7.5123   -5.7674 
 H                    -5.8743   -6.9959   -5.478 
 C                    -9.3063   -0.8023   -0.6971 
 C                    -8.8458   -1.8964   -0.0163 
 N                    -7.6589   -2.4954   -0.3155 
 C                    -6.9336   -2.0232   -1.3185 
 C                    -7.3333   -0.9209   -2.1076 
 C                    -6.5336   -0.4204   -3.1838 
 C                    -5.2847   -1.1016   -3.5914 
 C                    -4.066    -0.4119   -3.5476 
 C                    -2.8742   -1.0514   -3.8636 
 C                    -2.881    -2.4012   -4.2511 
 C                    -1.6633   -3.1212   -4.4112 
 C                    -0.6472   -3.7917   -4.4249 
 C                     0.5009   -4.6455   -4.408 
 N                     1.4463   -4.387    -3.4948 
 C                     2.5147   -5.1913   -3.4522 
 C                     3.5474   -4.9145   -2.501 
 C                     4.5148   -4.7667   -1.7751 
 C                     5.7109   -4.6913   -1.0058 
 C                     6.8849   -5.2645   -1.5298 
 C                     8.0549   -5.2658   -0.7862 
 C                     8.0823   -4.7236    0.5096 
 C                     9.3152   -4.8475    1.3197 
 C                     9.3047   -5.5079    2.5338 
 C                     10.5032  -5.7641    3.2379 
 C                     11.7249  -5.3803    2.732 
 C                     11.7797  -4.6596    1.516 
 C                     12.9857  -4.1939    0.9345 
 C                     12.9527  -3.4141   -0.1905 
 N                     11.7775  -3.0366   -0.7691 
 C                     10.6388  -3.5106   -0.2914 
 C                     10.5672  -4.361     0.8296 
 C                     6.9171   -4.1369    1.0211 
 C                     5.7476   -4.1019    0.2688 
 C                     2.6803   -6.2894   -4.317 
 C                     1.6916   -6.5495   -5.257 
 C                     0.5793   -5.7184   -5.3121 
 C                    -4.1108   -3.0718   -4.3745 
 C                    -5.2946   -2.4341   -4.0311 
 C                    -6.9488    0.7265   -3.8329 
 C                    -8.1549    1.3762   -3.486 
 C                    -8.9581    0.8878   -2.4819 
 C                    -8.5541   -0.265    -1.7673 
 H                    -10.2566  -0.3489   -0.4096 
 H                    -9.4246   -2.3173    0.8015 
 H                    -5.9779   -2.511    -1.5115 
 H                    -4.053     0.63     -3.2232 
 H                    -1.9256   -0.5176   -3.7867 
 H                     6.8647   -5.7215   -2.5205 
 H                     8.9539   -5.7291   -1.1998 
 H                     8.3579   -5.8794    2.9329 
 H                     10.4531  -6.3048    4.1861 
 H                     12.6528  -5.6124    3.2594 
 H                     13.9459  -4.4403    1.3919 
 H                     13.8694  -3.0453   -0.6494 
 H                     9.7179   -3.1797   -0.7713 
 H                     6.9304   -3.6968    2.0208 
 H                     4.8501   -3.6297    0.6748 
 H                     3.5713   -6.9141   -4.2394 
 H                     1.7877   -7.3936   -5.9436 
 H                    -0.2207   -5.8812   -6.036 
 H                    -4.1244   -4.1048   -4.7229 
 H                    -6.241    -2.9762   -4.1046 
 H                    -6.3455    1.1192   -4.6538 
 H                    -8.4568    2.2677   -4.0399 
 H                    -9.9077    1.365    -2.2299 
 C                    -7.3778   -8.3057    1.7137 
 C                    -7.5306   -7.0645    1.1601 
 N                    -6.668    -6.0498    1.4474 
 C                    -5.6425   -6.2507    2.2521 
 C                    -5.396    -7.4929    2.879 
 C                    -4.3206   -7.6901    3.8049 
 C                    -3.3481   -6.6195    4.1185 
 C                    -2.6441   -5.9521    3.1035 
 C                    -1.7275   -4.9603    3.4162 
 C                    -1.4788   -4.608     4.757 
 C                    -0.5326   -3.573     5.0051 
 C                     0.2927   -2.6776    5.0536 
 C                     1.2345   -1.62      4.8408 
 N                     1.2199   -1.1374    3.5937 
 C                     2.0821   -0.1734    3.2569 
 C                     1.9235    0.2987    1.9169 
 C                     1.5374    0.6598    0.8193 
 C                     0.8388    1.0856   -0.3445 
 C                    -0.4564    0.5722   -0.546 
 C                    -1.2568    1.0711   -1.5604 
 C                    -0.7695    2.0491   -2.4428 
 C                    -1.5934    2.4674   -3.5997 
 C                    -1.1225    2.2477   -4.8812 
 C                    -1.9262    2.4919   -6.0159 
 C                    -3.2173    2.9463   -5.8812 
 C                    -3.7304    3.22     -4.592 
 C                    -5.0494    3.6898   -4.3814 
 C                    -5.4785    3.976    -3.1148 
 N                    -4.6553    3.8614   -2.0363 
 C                    -3.4307    3.3859   -2.1847 
 C                    -2.9079    3.0102   -3.4433 
 C                     0.5319    2.5361   -2.2589 
 C                     1.3222    2.079    -1.2097 
 C                     3.0057    0.3637    4.1664 
 C                     3.0063   -0.1321    5.4662 
 C                     2.1148   -1.1405    5.8228 
 C                    -2.1697   -5.2832    5.7762 
 C                    -3.0901   -6.2739    5.4545 
 C                    -4.2178   -8.9182    4.4336 
 C                    -5.1163   -9.9706    4.1563 
 C                    -6.1424   -9.8046    3.2557 
 C                    -6.3101   -8.557     2.6108 
 H                    -8.0895   -9.0983    1.4757 
 H                    -8.3471   -6.8294    0.4755 
 H                    -4.9854   -5.4012    2.4352 
 H                    -2.7967   -6.2276    2.0568 
 H                    -1.1813   -4.4501    2.6225 
 H                    -0.8405   -0.1953    0.1284 
 H                    -2.2692    0.6833   -1.6829 
 H                    -0.1211    1.8318   -5.015 
 H                    -1.5186    2.2873   -7.0088 
 H                    -3.8561    3.1052   -6.7527 
 H                    -5.7271    3.8205   -5.2271 
 H                    -6.4949    4.3192   -2.9236 
 H                    -2.8116    3.3153   -1.2874 
 H                     0.9217    3.3019   -2.9339 
 H                     2.3112    2.5083   -1.0448 
 H                     3.6879    1.1565    3.857 
 H                     3.7073    0.2655    6.2035 
 H                     2.0963   -1.5565    6.8312 
 H                    -1.9882   -5.0219    6.8206 
 H                    -3.634    -6.7823    6.2541 
 H                    -3.4064   -9.0849    5.1456 
 H                    -4.9842   -10.9285   4.6649 
 H                    -6.8399   -10.6157   3.0359 
 C                    -7.2121   -3.4327    4.8356 
 C                    -6.7981   -3.5268    3.5327 
 N                    -7.6879   -3.6685    2.5094 
 C                    -8.9808   -3.6372    2.7621 
 C                    -9.5097   -3.4339    4.0529 
 C                    -10.9087  -3.2215    4.2633 
 C                    -11.7281  -2.9103    3.0617 
 C                    -11.9121  -1.5522    2.7631 
 C                    -12.3889  -1.1573    1.5228 
 C                    -12.6965  -2.12      0.5437 
 C                    -12.9766  -1.6661   -0.7775 
 C                    -13.0829  -1.1655   -1.8831 
 C                    -13.1043  -0.488    -3.1446 
 N                    -12.5143   0.7144   -3.1599 
 C                    -12.4784   1.3966   -4.3098 
 C                    -11.8196   2.6706   -4.2588 
 C                    -11.2311   3.7301   -4.139 
 C                    -10.4957   4.9339   -3.9212 
 C                    -11.0157   5.9531   -3.1042 
 C                    -10.2473   7.0721   -2.8014 
 C                    -8.9409    7.1917   -3.2901 
 C                    -8.0575    8.3075   -2.8755 
 C                    -8.3147    9.6215   -3.2099 
 C                    -7.4098    10.6518  -2.8637 
 C                    -6.2393    10.3797  -2.1923 
 C                    -5.949     9.0506   -1.802 
 C                    -4.777     8.6838   -1.0924 
 C                    -4.5853    7.3828   -0.7088 
 N                    -5.5165    6.4222   -0.9647 
 C                    -6.6126    6.7207   -1.6335 
 C                    -6.8771    8.0171   -2.1232 
 C                    -8.4418    6.1964   -4.1444 
 C                    -9.2086    5.0857   -4.4669 
 C                    -13.0358   0.9058   -5.5011 
 C                    -13.6494  -0.3421   -5.4759 
 C                    -13.6901  -1.0593   -4.2855 
 C                    -12.6057  -3.483     0.8744 
 C                    -12.124   -3.8704    2.1221 
 C                    -11.3621  -3.0943    5.5584 
 C                    -10.4653  -3.1622    6.6525 
 C                    -9.1079   -3.2835    6.4598 
 C                    -8.5963   -3.3981    5.1444 
 H                    -6.4701   -3.3611    5.6334 
 H                    -5.7413   -3.503     3.266 
 H                    -9.6519   -3.8029    1.9194 
 H                    -11.6165  -0.7968    3.4951 
 H                    -12.4818  -0.0961    1.2828 
 H                    -12.0196   5.8495   -2.6874 
 H                    -10.6511   7.8448   -2.1428 
 H                    -9.2159    9.8654   -3.7774 
 H                    -7.6417    11.6788  -3.1563 
 H                    -5.5312    11.1748  -1.9487 
 H                    -4.0261    9.4373   -0.8469 
 H                    -3.6944    7.0636   -0.1648 
 H                    -7.3393    5.9195   -1.7781 
 H                    -7.4317    6.2912   -4.5504 
 H                    -8.8058    4.3154   -5.1277 
 H                    -12.9835   1.4977   -6.4163 
 H                    -14.0951  -0.7554   -6.3835 
 H                    -14.1612  -2.0417   -4.2268 
 H                    -12.8677  -4.2385    0.1309 
 H                    -12.0015  -4.9327    2.3474 
 H                    -12.4223  -2.907     5.7436 
 H                    -10.8629  -3.0728    7.6664 
 H                    -8.4156   -3.2759    7.3048 
 C                    -5.7488    0.454     0.7255 
 C                    -5.9414    1.7336    0.2855 
 N                    -5.038     2.7106    0.5639 
 C                    -3.9585    2.4515    1.2801 
 C                    -3.6272    1.1481    1.7129 
 C                    -2.4122    0.8399    2.4073 
 C                    -1.3589    1.833     2.7228 
 C                    -0.878     2.7543    1.7775 
 C                     0.263     3.5042    2.0285 
 C                     0.9529    3.3634    3.2442 
 C                     2.2005    4.0273    3.4343 
 C                     3.2789    4.5837    3.5398 
 C                     4.4868    5.3496    3.6452 
 N                     5.6468    4.7433    3.3633 
 C                     6.7698    5.4707    3.4323 
 C                     8.0157    4.8271    3.1378 
 C                     9.1134    4.3617    2.8858 
 C                     10.3887   3.8586    2.4969 
 C                     10.7743   2.5362    2.7726 
 C                     11.9805   2.0411    2.2909 
 C                     12.8348   2.8511    1.5289 
 C                     14.1295   2.3617    0.9996 
 C                     15.289    3.0455    1.3192 
 C                     16.5477   2.6504    0.8184 
 C                     16.6604   1.5772   -0.0334 
 C                     15.5006   0.8628   -0.4134 
 C                     15.547   -0.2102   -1.3366 
 C                     14.3934  -0.8425   -1.7076 
 N                     13.184   -0.4796   -1.194 
 C                     13.0974   0.5123   -0.3265 
 C                     14.2268   1.2406    0.1134 
 C                     12.4646   4.1837    1.2893 
 C                     11.2613   4.6837    1.764 
 C                     6.7763    6.8349    3.7727 
 C                     5.5683    7.4509    4.0716 
 C                     4.3994    6.7029    4.0135 
 C                     0.4218    2.5191    4.2332 
 C                    -0.7127    1.7656    3.9691 
 C                    -2.185    -0.4841    2.7548 
 C                    -3.1141   -1.5053    2.4633 
 C                    -4.291    -1.2235    1.8098 
 C                    -4.5639    0.108     1.4184 
 H                    -6.5063   -0.3042    0.5392 
 H                    -6.8187    2.0269   -0.2944 
 H                    -3.3204    3.3029    1.521 
 H                    -1.3424    2.8298    0.7938 
 H                     0.6658    4.1624    1.2564 
 H                     10.113    1.893     3.3554 
 H                     12.2653   1.0102    2.5148 
 H                     15.2287   3.9068    1.9884 
 H                     17.4372   3.2123    1.1129 
 H                     17.6288   1.2705   -0.4343 
 H                     16.5006  -0.5208   -1.7672 
 H                     14.3874  -1.6596   -2.4318 
 H                     12.0999   0.7733    0.0288 
 H                     13.1215   4.8275    0.7 
 H                     10.974    5.7145    1.5485 
 H                     7.7189    7.3835    3.8042 
 H                     5.5372    8.5081    4.3446 
 H                     3.4269    7.1451    4.2351 
 H                     0.928     2.4266    5.1956 
 H                    -1.0938    1.0873    4.7355 
 H                    -1.2338   -0.7559    3.22 
 H                    -2.8782   -2.5321    2.7523 
 H                    -5.0136   -2.0078    1.5704 
 C                    -7.4928    5.6511    3.2579 
 C                    -7.1379    5.1777    2.0223 
 N                    -5.8527    5.2534    1.5824 
 C                    -4.9203    5.8133    2.3276 
 C                    -5.1902    6.3698    3.5952 
 C                    -4.168     6.989     4.382 
 C                    -2.8069    7.1418    3.8204 
 C                    -1.7007    6.5573    4.4506 
 C                    -0.4473    6.5876    3.8512 
 C                    -0.2736    7.2086    2.6018 
 C                     0.9768    7.1139    1.9225 
 C                     2.0241    6.9396    1.3273 
 C                     3.2589    6.6688    0.6518 
 N                     3.3582    5.483     0.0377 
 C                     4.507     5.1874   -0.5821 
 C                     4.6305    3.9078   -1.2096 
 C                     4.8672    2.8141   -1.6918 
 C                     5.2453    1.5504   -2.2265 
 C                     6.3348    1.4807   -3.1143 
 C                     6.7486    0.2575   -3.6205 
 C                     6.0899   -0.9301   -3.2614 
 C                     6.4996   -2.2232   -3.8541 
 C                     5.568    -3.0179   -4.4959 
 C                     5.9401   -4.2182   -5.1404 
 C                     7.2502   -4.6376   -5.1566 
 C                     8.2357   -3.8746   -4.4867 
 C                     9.5967   -4.2636   -4.4264 
 C                     10.4968  -3.5117   -3.7211 
 N                     10.1142  -2.3903   -3.0458 
 C                     8.8567   -1.9915   -3.0872 
 C                     7.8588   -2.6727   -3.8162 
 C                     5.0048   -0.8577   -2.3745 
 C                     4.5882    0.3629   -1.8564 
 C                     5.605     6.0662   -0.6116 
 C                     5.4931    7.2903    0.035 
 C                     4.3025    7.6071    0.6785 
 C                    -1.3667    7.8558    2.0007 
 C                    -2.6146    7.8212    2.6068 
 C                    -4.4902    7.4126    5.6563 
 C                    -5.8051    7.2838    6.1588 
 C                    -6.81      6.7317    5.3971 
 C                    -6.5209    6.255     4.0962 
 H                    -8.526     5.5592    3.5981 
 H                    -7.8569    4.712     1.3462 
 H                    -3.9082    5.8177    1.9202 
 H                    -1.8338    6.0337    5.4003 
 H                     0.4019    6.0996    4.3329 
 H                     6.8496    2.3977   -3.4081 
 H                     7.5811    0.2262   -4.3275 
 H                     4.5258   -2.6939   -4.5329 
 H                     5.1701   -4.8081   -5.6434 
 H                     7.5442   -5.5559   -5.6695 
 H                     9.9298   -5.1691   -4.9369 
 H                     11.5511  -3.7838   -3.6512 
 H                     8.592    -1.108    -2.5072 
 H                     4.4888   -1.7742   -2.0772 
 H                     3.7548    0.4005   -1.1523 
 H                     6.5194    5.7775   -1.1317 
 H                     6.3296    7.9928    0.0385 
 H                     4.1699    8.5559    1.2002 
 H                    -1.235     8.3649    1.0437 
 H                    -3.4617    8.3123    2.1217 
 H                    -3.7214    7.8795    6.2764 
 H                    -6.0232    7.6446    7.1669 
 H                    -7.8288    6.6485    5.7818 
 
 Stoichiometry    C234H138N18Pd3(6+)
 Framework group  C1[X(C234H138N18Pd3)]
 Deg. of freedom  1173
 Full point group                 C1      NOp   1
 Largest Abelian subgroup         C1      NOp   1
 Largest concise Abelian subgroup C1      NOp   1
                         Standard orientation:                         
 ---------------------------------------------------------------------
 Center     Atomic      Atomic             Coordinates (Angstroms)
 Number     Number       Type             X           Y           Z
 ---------------------------------------------------------------------
      1         46           0       -7.089099   -4.237596    0.642502
      2         46           0       -5.284098    4.550103   -0.222098
      3         46           0       11.570101   -1.414499   -2.010898
      4          6           0       -6.963899   -5.816496   -3.292598
      5          6           0       -7.354199   -5.233096   -2.118498
      6          7           0       -6.455499   -4.969897   -1.130798
      7          6           0       -5.172199   -5.238397   -1.294298
      8          6           0       -4.659799   -5.794297   -2.486498
      9          6           0       -3.264999   -6.050297   -2.684998
     10          6           0       -2.228099   -5.643797   -1.711598
     11          6           0       -2.160599   -4.333997   -1.207998
     12          6           0       -1.136699   -3.952597   -0.350098
     13          6           0       -0.152299   -4.880497    0.034902
     14          6           0        0.872801   -4.524998    0.959302
     15          6           0        1.724901   -4.256998    1.786702
     16          6           0        2.730401   -3.951198    2.759702
     17          7           0        3.547601   -2.934498    2.472102
     18          6           0        4.500601   -2.606998    3.352202
     19          6           0        5.357401   -1.531598    2.951302
     20          6           0        6.056102   -0.651098    2.483202
     21          6           0        6.873002    0.312901    1.826502
     22          6           0        8.219402    0.016201    1.550302
     23          6           0        8.977802    0.872601    0.767602
     24          6           0        8.423602    2.043901    0.218902
     25          6           0        9.172602    2.910401   -0.718698
     26          6           0        9.068002    4.289101   -0.650198
     27          6           0        9.816402    5.133301   -1.498498
     28          6           0       10.709102    4.621201   -2.412898
     29          6           0       10.847502    3.218901   -2.537898
     30          6           0       11.763402    2.608001   -3.434098
     31          6           0       11.887302    1.243001   -3.476798
     32          7           0       11.084702    0.442301   -2.725298
     33          6           0       10.171102    0.981901   -1.934598
     34          6           0       10.044302    2.366101   -1.721198
     35          6           0        7.114902    2.381701    0.593702
     36          6           0        6.341802    1.532802    1.373902
     37          6           0        4.673701   -3.283198    4.569102
     38          6           0        3.822501   -4.344298    4.858802
     39          6           0        2.832601   -4.693398    3.947402
     40          6           0       -0.211899   -6.189697   -0.473398
     41          6           0       -1.232199   -6.558897   -1.337998
     42          6           0       -2.878699   -6.680497   -3.855598
     43          6           0       -3.811899   -7.030997   -4.853698
     44          6           0       -5.149599   -6.749497   -4.699198
     45          6           0       -5.599699   -6.129797   -3.510098
     46          1           0       -7.704699   -6.040396   -4.062198
     47          1           0       -8.392299   -4.964796   -1.915798
     48          1           0       -4.516499   -5.024997   -0.447798
     49          1           0       -2.899499   -3.592497   -1.519898
     50          1           0       -1.089499   -2.928297    0.026102
     51          1           0        8.662501   -0.903499    1.938302
     52          1           0       10.024402    0.623501    0.593702
     53          1           0        8.425402    4.742001    0.106802
     54          1           0        9.703403    6.215301   -1.395698
     55          1           0       11.316602    5.277301   -3.039998
     56          1           0       12.396002    3.229701   -4.070498
     57          1           0       12.627702    0.742701   -4.102998
     58          1           0        9.525602    0.293801   -1.391598
     59          1           0        6.675202    3.308301    0.228102
     60          1           0        5.308602    1.798902    1.607202
     61          1           0        5.461001   -2.976598    5.259202
     62          1           0        3.928301   -4.895898    5.795602
     63          1           0        2.144301   -5.517598    4.139402
     64          1           0        0.547801   -6.916398   -0.179198
     65          1           0       -1.269500   -7.581297   -1.720598
     66          1           0       -1.818299   -6.876597   -4.027998
     67          1           0       -3.455200   -7.512297   -5.767398
     68          1           0       -5.874299   -6.995897   -5.477998
     69          6           0       -9.306299   -0.802296   -0.697098
     70          6           0       -8.845799   -1.896396   -0.016298
     71          7           0       -7.658899   -2.495396   -0.315498
     72          6           0       -6.933599   -2.023196   -1.318498
     73          6           0       -7.333299   -0.920896   -2.107598
     74          6           0       -6.533598   -0.420396   -3.183798
     75          6           0       -5.284699   -1.101597   -3.591398
     76          6           0       -4.065998   -0.411897   -3.547598
     77          6           0       -2.874199   -1.051397   -3.863598
     78          6           0       -2.880999   -2.401197   -4.251098
     79          6           0       -1.663299   -3.121197   -4.411198
     80          6           0       -0.647199   -3.791697   -4.424898
     81          6           0        0.500901   -4.645498   -4.407998
     82          7           0        1.446301   -4.386998   -3.494798
     83          6           0        2.514701   -5.191298   -3.452198
     84          6           0        3.547401   -4.914498   -2.500998
     85          6           0        4.514801   -4.766698   -1.775098
     86          6           0        5.710901   -4.691298   -1.005798
     87          6           0        6.884901   -5.264499   -1.529798
     88          6           0        8.054901   -5.265799   -0.786198
     89          6           0        8.082301   -4.723599    0.509602
     90          6           0        9.315201   -4.847499    1.319702
     91          6           0        9.304701   -5.507899    2.533802
     92          6           0       10.503201   -5.764099    3.237902
     93          6           0       11.724901   -5.380299    2.732002
     94          6           0       11.779701   -4.659599    1.516002
     95          6           0       12.985701   -4.193900    0.934502
     96          6           0       12.952701   -3.414100   -0.190498
     97          7           0       11.777501   -3.036599   -0.769098
     98          6           0       10.638801   -3.510599   -0.291398
     99          6           0       10.567201   -4.360999    0.829602
    100          6           0        6.917101   -4.136899    1.021102
    101          6           0        5.747601   -4.101898    0.268802
    102          6           0        2.680301   -6.289398   -4.316998
    103          6           0        1.691601   -6.549498   -5.256998
    104          6           0        0.579301   -5.718398   -5.312098
    105          6           0       -4.110799   -3.071797   -4.374498
    106          6           0       -5.294599   -2.434097   -4.031098
    107          6           0       -6.948798    0.726504   -3.832898
    108          6           0       -8.154898    1.376204   -3.485998
    109          6           0       -8.958098    0.887804   -2.481898
    110          6           0       -8.554098   -0.264996   -1.767298
    111          1           0      -10.256598   -0.348896   -0.409598
    112          1           0       -9.424599   -2.317296    0.801502
    113          1           0       -5.977899   -2.510997   -1.511498
    114          1           0       -4.052998    0.630003   -3.223198
    115          1           0       -1.925598   -0.517597   -3.786698
    116          1           0        6.864701   -5.721499   -2.520498
    117          1           0        8.953901   -5.729099   -1.199798
    118          1           0        8.357901   -5.879399    2.932902
    119          1           0       10.453101   -6.304799    4.186102
    120          1           0       12.652801   -5.612399    3.259402
    121          1           0       13.945901   -4.440300    1.391902
    122          1           0       13.869401   -3.045300   -0.649398
    123          1           0        9.717901   -3.179699   -0.771298
    124          1           0        6.930401   -3.696799    2.020802
    125          1           0        4.850101   -3.629698    0.674802
    126          1           0        3.571301   -6.914098   -4.239398
    127          1           0        1.787700   -7.393598   -5.943598
    128          1           0       -0.220699   -5.881197   -6.035998
    129          1           0       -4.124399   -4.104797   -4.722898
    130          1           0       -6.240999   -2.976197   -4.104598
    131          1           0       -6.345498    1.119203   -4.653798
    132          1           0       -8.456798    2.267704   -4.039898
    133          1           0       -9.907698    1.365004   -2.229898
    134          6           0       -7.377800   -8.305696    1.713702
    135          6           0       -7.530599   -7.064496    1.160102
    136          7           0       -6.667999   -6.049796    1.447402
    137          6           0       -5.642499   -6.250697    2.252102
    138          6           0       -5.396000   -7.492897    2.879002
    139          6           0       -4.320600   -7.690097    3.804902
    140          6           0       -3.348099   -6.619497    4.118502
    141          6           0       -2.644099   -5.952097    3.103502
    142          6           0       -1.727499   -4.960297    3.416202
    143          6           0       -1.478799   -4.607997    4.757002
    144          6           0       -0.532599   -3.572997    5.005102
    145          6           0        0.292701   -2.677598    5.053602
    146          6           0        1.234501   -1.619998    4.840802
    147          7           0        1.219901   -1.137398    3.593702
    148          6           0        2.082102   -0.173398    3.256902
    149          6           0        1.923502    0.298702    1.916902
    150          6           0        1.537402    0.659802    0.819302
    151          6           0        0.838802    1.085602   -0.344498
    152          6           0       -0.456398    0.572203   -0.545998
    153          6           0       -1.256798    1.071103   -1.560398
    154          6           0       -0.769498    2.049103   -2.442798
    155          6           0       -1.593398    2.467403   -3.599698
    156          6           0       -1.122498    2.247703   -4.881198
    157          6           0       -1.926198    2.491903   -6.015898
    158          6           0       -3.217298    2.946303   -5.881198
    159          6           0       -3.730398    3.220003   -4.591998
    160          6           0       -5.049398    3.689803   -4.381398
    161          6           0       -5.478498    3.976003   -3.114798
    162          7           0       -4.655298    3.861403   -2.036298
    163          6           0       -3.430698    3.385903   -2.184698
    164          6           0       -2.907898    3.010203   -3.443298
    165          6           0        0.531902    2.536102   -2.258898
    166          6           0        1.322202    2.079002   -1.209698
    167          6           0        3.005702    0.363702    4.166402
    168          6           0        3.006302   -0.132098    5.466202
    169          6           0        2.114801   -1.140498    5.822802
    170          6           0       -2.169699   -5.283197    5.776202
    171          6           0       -3.090099   -6.273897    5.454502
    172          6           0       -4.217800   -8.918197    4.433602
    173          6           0       -5.116300   -9.970597    4.156302
    174          6           0       -6.142400   -9.804597    3.255702
    175          6           0       -6.310100   -8.556997    2.610802
    176          1           0       -8.089500   -9.098296    1.475702
    177          1           0       -8.347099   -6.829396    0.475502
    178          1           0       -4.985399   -5.401197    2.435202
    179          1           0       -2.796699   -6.227597    2.056802
    180          1           0       -1.181299   -4.450097    2.622502
    181          1           0       -0.840498   -0.195297    0.128402
    182          1           0       -2.269198    0.683303   -1.682898
    183          1           0       -0.121098    1.831803   -5.014998
    184          1           0       -1.518598    2.287303   -7.008798
    185          1           0       -3.856098    3.105203   -6.752698
    186          1           0       -5.727098    3.820503   -5.227098
    187          1           0       -6.494898    4.319203   -2.923598
    188          1           0       -2.811598    3.315303   -1.287398
    189          1           0        0.921702    3.301902   -2.933898
    190          1           0        2.311202    2.508302   -1.044798
    191          1           0        3.687902    1.156502    3.857002
    192          1           0        3.707302    0.265502    6.203502
    193          1           0        2.096301   -1.556498    6.831202
    194          1           0       -1.988199   -5.021897    6.820602
    195          1           0       -3.633999   -6.782297    6.254102
    196          1           0       -3.406400   -9.084897    5.145602
    197          1           0       -4.984200  -10.928497    4.664902
    198          1           0       -6.839900  -10.615696    3.035902
    199          6           0       -7.212099   -3.432696    4.835602
    200          6           0       -6.798099   -3.526796    3.532702
    201          7           0       -7.687899   -3.668496    2.509402
    202          6           0       -8.980799   -3.637196    2.762102
    203          6           0       -9.509699   -3.433896    4.052902
    204          6           0      -10.908699   -3.221496    4.263302
    205          6           0      -11.728099   -2.910296    3.061702
    206          6           0      -11.912099   -1.552196    2.763102
    207          6           0      -12.388899   -1.157296    1.522802
    208          6           0      -12.696499   -2.119996    0.543702
    209          6           0      -12.976599   -1.666095   -0.777498
    210          6           0      -13.082899   -1.165495   -1.883098
    211          6           0      -13.104298   -0.487995   -3.144598
    212          7           0      -12.514298    0.714404   -3.159898
    213          6           0      -12.478398    1.396604   -4.309798
    214          6           0      -11.819598    2.670604   -4.258798
    215          6           0      -11.231098    3.730104   -4.138998
    216          6           0      -10.495698    4.933904   -3.921198
    217          6           0      -11.015697    5.953104   -3.104198
    218          6           0      -10.247297    7.072104   -2.801398
    219          6           0       -8.940897    7.191704   -3.290098
    220          6           0       -8.057497    8.307504   -2.875498
    221          6           0       -8.314697    9.621504   -3.209898
    222          6           0       -7.409797   10.651804   -2.863698
    223          6           0       -6.239297   10.379703   -2.192298
    224          6           0       -5.948997    9.050603   -1.801998
    225          6           0       -4.776997    8.683803   -1.092398
    226          6           0       -4.585297    7.382803   -0.708798
    227          7           0       -5.516497    6.422203   -0.964698
    228          6           0       -6.612597    6.720704   -1.633498
    229          6           0       -6.877097    8.017104   -2.123198
    230          6           0       -8.441797    6.196404   -4.144398
    231          6           0       -9.208598    5.085704   -4.466898
    232          6           0      -13.035798    0.905805   -5.501098
    233          6           0      -13.649398   -0.342095   -5.475898
    234          6           0      -13.690099   -1.059295   -4.285498
    235          6           0      -12.605699   -3.482996    0.874402
    236          6           0      -12.123999   -3.870396    2.122102
    237          6           0      -11.362099   -3.094296    5.558402
    238          6           0      -10.465299   -3.162196    6.652502
    239          6           0       -9.107899   -3.283496    6.459802
    240          6           0       -8.596299   -3.398096    5.144402
    241          1           0       -6.470099   -3.361097    5.633402
    242          1           0       -5.741299   -3.502997    3.266002
    243          1           0       -9.651899   -3.802896    1.919402
    244          1           0      -11.616499   -0.796796    3.495102
    245          1           0      -12.481798   -0.096096    1.282802
    246          1           0      -12.019597    5.849504   -2.687398
    247          1           0      -10.651097    7.844804   -2.142798
    248          1           0       -9.215897    9.865404   -3.777398
    249          1           0       -7.641697   11.678804   -3.156298
    250          1           0       -5.531197   11.174803   -1.948698
    251          1           0       -4.026097    9.437303   -0.846898
    252          1           0       -3.694397    7.063603   -0.164798
    253          1           0       -7.339297    5.919504   -1.778098
    254          1           0       -7.431697    6.291204   -4.550398
    255          1           0       -8.805798    4.315404   -5.127698
    256          1           0      -12.983498    1.497705   -6.416298
    257          1           0      -14.095099   -0.755395   -6.383498
    258          1           0      -14.161199   -2.041695   -4.226798
    259          1           0      -12.867699   -4.238496    0.130902
    260          1           0      -12.001499   -4.932696    2.347402
    261          1           0      -12.422299   -2.906996    5.743602
    262          1           0      -10.862899   -3.072796    7.666402
    263          1           0       -8.415599   -3.275896    7.304802
    264          6           0       -5.748798    0.454003    0.725502
    265          6           0       -5.941398    1.733603    0.285502
    266          7           0       -5.037998    2.710603    0.563902
    267          6           0       -3.958498    2.451503    1.280102
    268          6           0       -3.627198    1.148103    1.712902
    269          6           0       -2.412198    0.839903    2.407302
    270          6           0       -1.358898    1.833003    2.722802
    271          6           0       -0.877998    2.754303    1.777502
    272          6           0        0.263002    3.504202    2.028502
    273          6           0        0.952902    3.363402    3.244202
    274          6           0        2.200502    4.027302    3.434302
    275          6           0        3.278902    4.583702    3.539802
    276          6           0        4.486802    5.349602    3.645202
    277          7           0        5.646802    4.743302    3.363302
    278          6           0        6.769802    5.470701    3.432302
    279          6           0        8.015702    4.827101    3.137802
    280          6           0        9.113402    4.361701    2.885802
    281          6           0       10.388702    3.858601    2.496902
    282          6           0       10.774302    2.536201    2.772602
    283          6           0       11.980502    2.041101    2.290902
    284          6           0       12.834802    2.851100    1.528902
    285          6           0       14.129502    2.361700    0.999602
    286          6           0       15.289002    3.045500    1.319202
    287          6           0       16.547702    2.650400    0.818402
    288          6           0       16.660402    1.577200   -0.033398
    289          6           0       15.500602    0.862800   -0.413398
    290          6           0       15.547002   -0.210200   -1.336598
    291          6           0       14.393401   -0.842500   -1.707598
    292          7           0       13.184002   -0.479600   -1.193998
    293          6           0       13.097402    0.512300   -0.326498
    294          6           0       14.226802    1.240600    0.113402
    295          6           0       12.464602    4.183701    1.289302
    296          6           0       11.261302    4.683701    1.764002
    297          6           0        6.776303    6.834901    3.772702
    298          6           0        5.568303    7.450902    4.071602
    299          6           0        4.399403    6.702902    4.013502
    300          6           0        0.421802    2.519102    4.233202
    301          6           0       -0.712698    1.765603    3.969102
    302          6           0       -2.184998   -0.484097    2.754802
    303          6           0       -3.114099   -1.505297    2.463302
    304          6           0       -4.290999   -1.223497    1.809802
    305          6           0       -4.563898    0.108003    1.418402
    306          1           0       -6.506298   -0.304196    0.539202
    307          1           0       -6.818698    2.026904   -0.294398
    308          1           0       -3.320398    3.302903    1.521002
    309          1           0       -1.342398    2.829803    0.793802
    310          1           0        0.665802    4.162402    1.256402
    311          1           0       10.113002    1.893001    3.355402
    312          1           0       12.265302    1.010201    2.514802
    313          1           0       15.228702    3.906800    1.988402
    314          1           0       17.437202    3.212300    1.112902
    315          1           0       17.628802    1.270500   -0.434298
    316          1           0       16.500602   -0.520800   -1.767198
    317          1           0       14.387401   -1.659600   -2.431798
    318          1           0       12.099902    0.773301    0.028802
    319          1           0       13.121502    4.827500    0.700002
    320          1           0       10.974002    5.714501    1.548502
    321          1           0        7.718903    7.383501    3.804202
    322          1           0        5.537203    8.508102    4.344602
    323          1           0        3.426903    7.145102    4.235102
    324          1           0        0.928002    2.426602    5.195602
    325          1           0       -1.093798    1.087303    4.735502
    326          1           0       -1.233799   -0.755897    3.220002
    327          1           0       -2.878199   -2.532097    2.752302
    328          1           0       -5.013599   -2.007797    1.570402
    329          6           0       -7.492798    5.651104    3.257902
    330          6           0       -7.137898    5.177704    2.022302
    331          7           0       -5.852698    5.253403    1.582402
    332          6           0       -4.920297    5.813303    2.327602
    333          6           0       -5.190197    6.369803    3.595202
    334          6           0       -4.167997    6.989003    4.382002
    335          6           0       -2.806897    7.141803    3.820402
    336          6           0       -1.700697    6.557303    4.450602
    337          6           0       -0.447297    6.587603    3.851202
    338          6           0       -0.273597    7.208603    2.601802
    339          6           0        0.976803    7.113902    1.922502
    340          6           0        2.024103    6.939602    1.327302
    341          6           0        3.258903    6.668802    0.651802
    342          7           0        3.358202    5.483002    0.037702
    343          6           0        4.507002    5.187402   -0.582098
    344          6           0        4.630502    3.907802   -1.209598
    345          6           0        4.867202    2.814102   -1.691798
    346          6           0        5.245302    1.550402   -2.226498
    347          6           0        6.334802    1.480702   -3.114298
    348          6           0        6.748602    0.257501   -3.620498
    349          6           0        6.089901   -0.930098   -3.261398
    350          6           0        6.499601   -2.223199   -3.854098
    351          6           0        5.568001   -3.017898   -4.495898
    352          6           0        5.940101   -4.218198   -5.140398
    353          6           0        7.250201   -4.637599   -5.156598
    354          6           0        8.235701   -3.874599   -4.486698
    355          6           0        9.596701   -4.263599   -4.426398
    356          6           0       10.496801   -3.511699   -3.721098
    357          7           0       10.114201   -2.390299   -3.045798
    358          6           0        8.856701   -1.991499   -3.087198
    359          6           0        7.858801   -2.672699   -3.816198
    360          6           0        5.004801   -0.857698   -2.374498
    361          6           0        4.588202    0.362902   -1.856398
    362          6           0        5.605003    6.066202   -0.611598
    363          6           0        5.493103    7.290302    0.035002
    364          6           0        4.302503    7.607102    0.678502
    365          6           0       -1.366697    7.855803    2.000702
    366          6           0       -2.614597    7.821203    2.606802
    367          6           0       -4.490197    7.412603    5.656302
    368          6           0       -5.805097    7.283803    6.158802
    369          6           0       -6.809997    6.731704    5.397102
    370          6           0       -6.520897    6.255004    4.096202
    371          1           0       -8.525998    5.559204    3.598102
    372          1           0       -7.856898    4.712004    1.346202
    373          1           0       -3.908197    5.817703    1.920202
    374          1           0       -1.833797    6.033703    5.400302
    375          1           0        0.401903    6.099602    4.332902
    376          1           0        6.849602    2.397701   -3.408098
    377          1           0        7.581102    0.226201   -4.327498
    378          1           0        4.525801   -2.693898   -4.532898
    379          1           0        5.170101   -4.808098   -5.643398
    380          1           0        7.544201   -5.555899   -5.669498
    381          1           0        9.929801   -5.169099   -4.936898
    382          1           0       11.551101   -3.783799   -3.651198
    383          1           0        8.592001   -1.107999   -2.507198
    384          1           0        4.488801   -1.774198   -2.077198
    385          1           0        3.754802    0.400502   -1.152298
    386          1           0        6.519403    5.777501   -1.131698
    387          1           0        6.329603    7.992802    0.038502
    388          1           0        4.169903    8.555902    1.200202
    389          1           0       -1.234997    8.364903    1.043702
    390          1           0       -3.461697    8.312303    2.121702
    391          1           0       -3.721397    7.879503    6.276402
    392          1           0       -6.023197    7.644603    7.166902
    393          1           0       -7.828797    6.648504    5.781802
 ---------------------------------------------------------------------
 Rotational constants (GHZ):           0.0048814           0.0021426           0.0018375
 Standard basis: def2SVP (5D, 7F)
 There are  4578 symmetry adapted cartesian basis functions of A   symmetry.
 There are  4311 symmetry adapted basis functions of A   symmetry.
  4311 basis functions,  7461 primitive gaussians,  4578 cartesian basis functions
   858 alpha electrons      858 beta electrons
       nuclear repulsion energy     85262.5327544102 Hartrees.
 NAtoms=  393 NActive=  393 NUniq=  393 SFac= 1.00D+00 NAtFMM=   60 NAOKFM=T Big=T
 Integral buffers will be    131072 words long.
 Raffenetti 2 integral format.
 Two-electron integral symmetry is turned on.
 Nuclear repulsion after empirical dispersion term =    85261.7464414523 Hartrees.
 ------------------------------------------------------------------------------
 Polarizable Continuum Model (PCM)
 =================================
 Model                : PCM.
 Atomic radii         : UFF (Universal Force Field).
 Polarization charges : Total charges.
 Charge compensation  : None.
 Solution method      : On-the-fly selection.
 Cavity type          : Scaled VdW (van der Waals Surface) (Alpha=1.100).
 Cavity algorithm     : GePol (No added spheres)
                        Default sphere list used, NSphG=  393.
                        Lebedev-Laikov grids with approx.  5.0 points / Ang**2.
                        Smoothing algorithm: York/Karplus (Gamma=1.0000).
                        Polarization charges: spherical gaussians, with
                                              point-specific exponents (IZeta= 3).
                        Self-potential: point-specific (ISelfS= 7).
                        Self-field    : sphere-specific E.n sum rule (ISelfD= 2).
 Solvent              : DiMethylSulfoxide, Eps=  46.826000 Eps(inf)=   2.007889
 ------------------------------------------------------------------------------
 One-electron integrals computed using PRISM.
   1 Symmetry operations used in ECPInt.
 ECPInt:  NShTT= 1919820 NPrTT= 7115841 LenC2=  734607 LenP2D= 1459027.
 LDataN:  DoStor=T MaxTD1= 7 Len=  274
 Number of processors reduced to  26 by ecpmxn.
 NBasis=  4311 RedAO= T EigKep=  1.97D-04  NBF=  4311
 NBsUse=  4311 1.00D-06 EigRej= -1.00D+00 NBFU=  4311
 Defaulting to unpruned grid for atomic number  46.
 ExpMin= 3.70D-02 ExpMax= 1.71D+03 ExpMxC= 2.58D+02 IAcc=3 IRadAn=         5 AccDes= 0.00D+00
 Harris functional with IExCor= 1009 and IRadAn=       5 diagonalized for initial guess.
 HarFok:  IExCor= 1009 AccDes= 0.00D+00 IRadAn=         5 IDoV= 1 UseB2=F ITyADJ=14
 ICtDFT=  3500011 ScaDFX=  1.000000  1.000000  1.000000  1.000000
 Defaulting to unpruned grid for atomic number  46.
 FoFCou: FMM=F IPFlag=           0 FMFlag=      100000 FMFlg1=        2001
         NFxFlg=           0 DoJE=T BraDBF=F KetDBF=T FulRan=T
         wScrn=  0.000000 ICntrl=       500 IOpCl=  0 I1Cent=   200000004 NGrid=           0
         NMat0=    1 NMatS0=      1 NMatT0=    0 NMatD0=    1 NMtDS0=    0 NMtDT0=    0
 Petite list used in FoFCou.
 Requested convergence on RMS density matrix=1.00D-08 within 128 cycles.
 Requested convergence on MAX density matrix=1.00D-06.
 Requested convergence on             energy=1.00D-06.
 No special actions if energy rises.
 Defaulting to unpruned grid for atomic number  46.
 Defaulting to unpruned grid for atomic number  46.
 Defaulting to unpruned grid for atomic number  46.
 Defaulting to unpruned grid for atomic number  46.
 Defaulting to unpruned grid for atomic number  46.
 Defaulting to unpruned grid for atomic number  46.
 Defaulting to unpruned grid for atomic number  46.
 Defaulting to unpruned grid for atomic number  46.
 Defaulting to unpruned grid for atomic number  46.
 Defaulting to unpruned grid for atomic number  46.
 Defaulting to unpruned grid for atomic number  46.
 Defaulting to unpruned grid for atomic number  46.
 Defaulting to unpruned grid for atomic number  46.
 Defaulting to unpruned grid for atomic number  46.
 Defaulting to unpruned grid for atomic number  46.
 Defaulting to unpruned grid for atomic number  46.
 Defaulting to unpruned grid for atomic number  46.
 Defaulting to unpruned grid for atomic number  46.
 Defaulting to unpruned grid for atomic number  46.
 Defaulting to unpruned grid for atomic number  46.
 Defaulting to unpruned grid for atomic number  46.
 Defaulting to unpruned grid for atomic number  46.
 Defaulting to unpruned grid for atomic number  46.
 Defaulting to unpruned grid for atomic number  46.
 Defaulting to unpruned grid for atomic number  46.
 Defaulting to unpruned grid for atomic number  46.
 Defaulting to unpruned grid for atomic number  46.
 Defaulting to unpruned grid for atomic number  46.
 Defaulting to unpruned grid for atomic number  46.
 Defaulting to unpruned grid for atomic number  46.
 Defaulting to unpruned grid for atomic number  46.
 Defaulting to unpruned grid for atomic number  46.
 Defaulting to unpruned grid for atomic number  46.
 Defaulting to unpruned grid for atomic number  46.
 Defaulting to unpruned grid for atomic number  46.
 Defaulting to unpruned grid for atomic number  46.
 Defaulting to unpruned grid for atomic number  46.
 Defaulting to unpruned grid for atomic number  46.
 Defaulting to unpruned grid for atomic number  46.
 Defaulting to unpruned grid for atomic number  46.
 Defaulting to unpruned grid for atomic number  46.
 Defaulting to unpruned grid for atomic number  46.
 Defaulting to unpruned grid for atomic number  46.
 Defaulting to unpruned grid for atomic number  46.
 Defaulting to unpruned grid for atomic number  46.
 Defaulting to unpruned grid for atomic number  46.
 Defaulting to unpruned grid for atomic number  46.
 Defaulting to unpruned grid for atomic number  46.
 Inv3:  Mode=1 IEnd=  1775116875.
 Iteration    1 A*A^-1 deviation from unit magnitude is 2.00D-14 for  24322.
 Iteration    1 A*A^-1 deviation from orthogonality  is 1.86D-14 for  18121   3707.
 Iteration    1 A^-1*A deviation from unit magnitude is 1.89D-14 for  24322.
 Iteration    1 A^-1*A deviation from orthogonality  is 1.26D-12 for  17699  17692.
 EnCoef did   100 forward-backward iterations
 EnCoef did   100 forward-backward iterations
 EnCoef did     4 forward-backward iterations
 Restarting incremental Fock formation.
 Error on total polarization charges =  0.03909
 SCF Done:  E(RPBE1PBE) =  -10350.1163759     A.U. after   22 cycles
            NFock= 22  Conv=0.23D-08     -V/T= 2.0344
 Hyperfine terms turned off by default for NAtoms > 100.

 **********************************************************************

            Population analysis using the SCF Density.

 **********************************************************************

 Orbital symmetries:
       Occupied  (A) (A) (A) (A) (A) (A) (A) (A) (A) (A) (A) (A)
                 (A) (A) (A) (A) (A) (A) (A) (A) (A) (A) (A) (A)
                 (A) (A) (A) (A) (A) (A) (A) (A) (A) (A) (A) (A)
                 (A) (A) (A) (A) (A) (A) (A) (A) (A) (A) (A) (A)
                 (A) (A) (A) (A) (A) (A) (A) (A) (A) (A) (A) (A)
                 (A) (A) (A) (A) (A) (A) (A) (A) (A) (A) (A) (A)
                 (A) (A) (A) (A) (A) (A) (A) (A) (A) (A) (A) (A)
                 (A) (A) (A) (A) (A) (A) (A) (A) (A) (A) (A) (A)
                 (A) (A) (A) (A) (A) (A) (A) (A) (A) (A) (A) (A)
                 (A) (A) (A) (A) (A) (A) (A) (A) (A) (A) (A) (A)
                 (A) (A) (A) (A) (A) (A) (A) (A) (A) (A) (A) (A)
                 (A) (A) (A) (A) (A) (A) (A) (A) (A) (A) (A) (A)
                 (A) (A) (A) (A) (A) (A) (A) (A) (A) (A) (A) (A)
                 (A) (A) (A) (A) (A) (A) (A) (A) (A) (A) (A) (A)
                 (A) (A) (A) (A) (A) (A) (A) (A) (A) (A) (A) (A)
                 (A) (A) (A) (A) (A) (A) (A) (A) (A) (A) (A) (A)
                 (A) (A) (A) (A) (A) (A) (A) (A) (A) (A) (A) (A)
                 (A) (A) (A) (A) (A) (A) (A) (A) (A) (A) (A) (A)
                 (A) (A) (A) (A) (A) (A) (A) (A) (A) (A) (A) (A)
                 (A) (A) (A) (A) (A) (A) (A) (A) (A) (A) (A) (A)
                 (A) (A) (A) (A) (A) (A) (A) (A) (A) (A) (A) (A)
                 (A) (A) (A) (A) (A) (A) (A) (A) (A) (A) (A) (A)
                 (A) (A) (A) (A) (A) (A) (A) (A) (A) (A) (A) (A)
                 (A) (A) (A) (A) (A) (A) (A) (A) (A) (A) (A) (A)
                 (A) (A) (A) (A) (A) (A) (A) (A) (A) (A) (A) (A)
                 (A) (A) (A) (A) (A) (A) (A) (A) (A) (A) (A) (A)
                 (A) (A) (A) (A) (A) (A) (A) (A) (A) (A) (A) (A)
                 (A) (A) (A) (A) (A) (A) (A) (A) (A) (A) (A) (A)
                 (A) (A) (A) (A) (A) (A) (A) (A) (A) (A) (A) (A)
                 (A) (A) (A) (A) (A) (A) (A) (A) (A) (A) (A) (A)
                 (A) (A) (A) (A) (A) (A) (A) (A) (A) (A) (A) (A)
                 (A) (A) (A) (A) (A) (A) (A) (A) (A) (A) (A) (A)
                 (A) (A) (A) (A) (A) (A) (A) (A) (A) (A) (A) (A)
                 (A) (A) (A) (A) (A) (A) (A) (A) (A) (A) (A) (A)
                 (A) (A) (A) (A) (A) (A) (A) (A) (A) (A) (A) (A)
                 (A) (A) (A) (A) (A) (A) (A) (A) (A) (A) (A) (A)
                 (A) (A) (A) (A) (A) (A) (A) (A) (A) (A) (A) (A)
                 (A) (A) (A) (A) (A) (A) (A) (A) (A) (A) (A) (A)
                 (A) (A) (A) (A) (A) (A) (A) (A) (A) (A) (A) (A)
                 (A) (A) (A) (A) (A) (A) (A) (A) (A) (A) (A) (A)
                 (A) (A) (A) (A) (A) (A) (A) (A) (A) (A) (A) (A)
                 (A) (A) (A) (A) (A) (A) (A) (A) (A) (A) (A) (A)
                 (A) (A) (A) (A) (A) (A) (A) (A) (A) (A) (A) (A)
                 (A) (A) (A) (A) (A) (A) (A) (A) (A) (A) (A) (A)
                 (A) (A) (A) (A) (A) (A) (A) (A) (A) (A) (A) (A)
                 (A) (A) (A) (A) (A) (A) (A) (A) (A) (A) (A) (A)
                 (A) (A) (A) (A) (A) (A) (A) (A) (A) (A) (A) (A)
                 (A) (A) (A) (A) (A) (A) (A) (A) (A) (A) (A) (A)
                 (A) (A) (A) (A) (A) (A) (A) (A) (A) (A) (A) (A)
                 (A) (A) (A) (A) (A) (A) (A) (A) (A) (A) (A) (A)
                 (A) (A) (A) (A) (A) (A) (A) (A) (A) (A) (A) (A)
                 (A) (A) (A) (A) (A) (A) (A) (A) (A) (A) (A) (A)
                 (A) (A) (A) (A) (A) (A) (A) (A) (A) (A) (A) (A)
                 (A) (A) (A) (A) (A) (A) (A) (A) (A) (A) (A) (A)
                 (A) (A) (A) (A) (A) (A) (A) (A) (A) (A) (A) (A)
                 (A) (A) (A) (A) (A) (A) (A) (A) (A) (A) (A) (A)
                 (A) (A) (A) (A) (A) (A) (A) (A) (A) (A) (A) (A)
                 (A) (A) (A) (A) (A) (A) (A) (A) (A) (A) (A) (A)
                 (A) (A) (A) (A) (A) (A) (A) (A) (A) (A) (A) (A)
                 (A) (A) (A) (A) (A) (A) (A) (A) (A) (A) (A) (A)
                 (A) (A) (A) (A) (A) (A) (A) (A) (A) (A) (A) (A)
                 (A) (A) (A) (A) (A) (A) (A) (A) (A) (A) (A) (A)
                 (A) (A) (A) (A) (A) (A) (A) (A) (A) (A) (A) (A)
                 (A) (A) (A) (A) (A) (A) (A) (A) (A) (A) (A) (A)
                 (A) (A) (A) (A) (A) (A) (A) (A) (A) (A) (A) (A)
                 (A) (A) (A) (A) (A) (A) (A) (A) (A) (A) (A) (A)
                 (A) (A) (A) (A) (A) (A) (A) (A) (A) (A) (A) (A)
                 (A) (A) (A) (A) (A) (A) (A) (A) (A) (A) (A) (A)
                 (A) (A) (A) (A) (A) (A) (A) (A) (A) (A) (A) (A)
                 (A) (A) (A) (A) (A) (A) (A) (A) (A) (A) (A) (A)
                 (A) (A) (A) (A) (A) (A) (A) (A) (A) (A) (A) (A)
                 (A) (A) (A) (A) (A) (A)
       Virtual   (A) (A) (A) (A) (A) (A) (A) (A) (A) (A) (A) (A)
                 (A) (A) (A) (A) (A) (A) (A) (A) (A) (A) (A) (A)
                 (A) (A) (A) (A) (A) (A) (A) (A) (A) (A) (A) (A)
                 (A) (A) (A) (A) (A) (A) (A) (A) (A) (A) (A) (A)
                 (A) (A) (A) (A) (A) (A) (A) (A) (A) (A) (A) (A)
                 (A) (A) (A) (A) (A) (A) (A) (A) (A) (A) (A) (A)
                 (A) (A) (A) (A) (A) (A) (A) (A) (A) (A) (A) (A)
                 (A) (A) (A) (A) (A) (A) (A) (A) (A) (A) (A) (A)
                 (A) (A) (A) (A) (A) (A) (A) (A) (A) (A) (A) (A)
                 (A) (A) (A) (A) (A) (A) (A) (A) (A) (A) (A) (A)
                 (A) (A) (A) (A) (A) (A) (A) (A) (A) (A) (A) (A)
                 (A) (A) (A) (A) (A) (A) (A) (A) (A) (A) (A) (A)
                 (A) (A) (A) (A) (A) (A) (A) (A) (A) (A) (A) (A)
                 (A) (A) (A) (A) (A) (A) (A) (A) (A) (A) (A) (A)
                 (A) (A) (A) (A) (A) (A) (A) (A) (A) (A) (A) (A)
                 (A) (A) (A) (A) (A) (A) (A) (A) (A) (A) (A) (A)
                 (A) (A) (A) (A) (A) (A) (A) (A) (A) (A) (A) (A)
                 (A) (A) (A) (A) (A) (A) (A) (A) (A) (A) (A) (A)
                 (A) (A) (A) (A) (A) (A) (A) (A) (A) (A) (A) (A)
                 (A) (A) (A) (A) (A) (A) (A) (A) (A) (A) (A) (A)
                 (A) (A) (A) (A) (A) (A) (A) (A) (A) (A) (A) (A)
                 (A) (A) (A) (A) (A) (A) (A) (A) (A) (A) (A) (A)
                 (A) (A) (A) (A) (A) (A) (A) (A) (A) (A) (A) (A)
                 (A) (A) (A) (A) (A) (A) (A) (A) (A) (A) (A) (A)
                 (A) (A) (A) (A) (A) (A) (A) (A) (A) (A) (A) (A)
                 (A) (A) (A) (A) (A) (A) (A) (A) (A) (A) (A) (A)
                 (A) (A) (A) (A) (A) (A) (A) (A) (A) (A) (A) (A)
                 (A) (A) (A) (A) (A) (A) (A) (A) (A) (A) (A) (A)
                 (A) (A) (A) (A) (A) (A) (A) (A) (A) (A) (A) (A)
                 (A) (A) (A) (A) (A) (A) (A) (A) (A) (A) (A) (A)
                 (A) (A) (A) (A) (A) (A) (A) (A) (A) (A) (A) (A)
                 (A) (A) (A) (A) (A) (A) (A) (A) (A) (A) (A) (A)
                 (A) (A) (A) (A) (A) (A) (A) (A) (A) (A) (A) (A)
                 (A) (A) (A) (A) (A) (A) (A) (A) (A) (A) (A) (A)
                 (A) (A) (A) (A) (A) (A) (A) (A) (A) (A) (A) (A)
                 (A) (A) (A) (A) (A) (A) (A) (A) (A) (A) (A) (A)
                 (A) (A) (A) (A) (A) (A) (A) (A) (A) (A) (A) (A)
                 (A) (A) (A) (A) (A) (A) (A) (A) (A) (A) (A) (A)
                 (A) (A) (A) (A) (A) (A) (A) (A) (A) (A) (A) (A)
                 (A) (A) (A) (A) (A) (A) (A) (A) (A) (A) (A) (A)
                 (A) (A) (A) (A) (A) (A) (A) (A) (A) (A) (A) (A)
                 (A) (A) (A) (A) (A) (A) (A) (A) (A) (A) (A) (A)
                 (A) (A) (A) (A) (A) (A) (A) (A) (A) (A) (A) (A)
                 (A) (A) (A) (A) (A) (A) (A) (A) (A) (A) (A) (A)
                 (A) (A) (A) (A) (A) (A) (A) (A) (A) (A) (A) (A)
                 (A) (A) (A) (A) (A) (A) (A) (A) (A) (A) (A) (A)
                 (A) (A) (A) (A) (A) (A) (A) (A) (A) (A) (A) (A)
                 (A) (A) (A) (A) (A) (A) (A) (A) (A) (A) (A) (A)
                 (A) (A) (A) (A) (A) (A) (A) (A) (A) (A) (A) (A)
                 (A) (A) (A) (A) (A) (A) (A) (A) (A) (A) (A) (A)
                 (A) (A) (A) (A) (A) (A) (A) (A) (A) (A) (A) (A)
                 (A) (A) (A) (A) (A) (A) (A) (A) (A) (A) (A) (A)
                 (A) (A) (A) (A) (A) (A) (A) (A) (A) (A) (A) (A)
                 (A) (A) (A) (A) (A) (A) (A) (A) (A) (A) (A) (A)
                 (A) (A) (A) (A) (A) (A) (A) (A) (A) (A) (A) (A)
                 (A) (A) (A) (A) (A) (A) (A) (A) (A) (A) (A) (A)
                 (A) (A) (A) (A) (A) (A) (A) (A) (A) (A) (A) (A)
                 (A) (A) (A) (A) (A) (A) (A) (A) (A) (A) (A) (A)
                 (A) (A) (A) (A) (A) (A) (A) (A) (A) (A) (A) (A)
                 (A) (A) (A) (A) (A) (A) (A) (A) (A) (A) (A) (A)
                 (A) (A) (A) (A) (A) (A) (A) (A) (A) (A) (A) (A)
                 (A) (A) (A) (A) (A) (A) (A) (A) (A) (A) (A) (A)
                 (A) (A) (A) (A) (A) (A) (A) (A) (A) (A) (A) (A)
                 (A) (A) (A) (A) (A) (A) (A) (A) (A) (A) (A) (A)
                 (A) (A) (A) (A) (A) (A) (A) (A) (A) (A) (A) (A)
                 (A) (A) (A) (A) (A) (A) (A) (A) (A) (A) (A) (A)
                 (A) (A) (A) (A) (A) (A) (A) (A) (A) (A) (A) (A)
                 (A) (A) (A) (A) (A) (A) (A) (A) (A) (A) (A) (A)
                 (A) (A) (A) (A) (A) (A) (A) (A) (A) (A) (A) (A)
                 (A) (A) (A) (A) (A) (A) (A) (A) (A) (A) (A) (A)
                 (A) (A) (A) (A) (A) (A) (A) (A) (A) (A) (A) (A)
                 (A) (A) (A) (A) (A) (A) (A) (A) (A) (A) (A) (A)
                 (A) (A) (A) (A) (A) (A) (A) (A) (A) (A) (A) (A)
                 (A) (A) (A) (A) (A) (A) (A) (A) (A) (A) (A) (A)
                 (A) (A) (A) (A) (A) (A) (A) (A) (A) (A) (A) (A)
                 (A) (A) (A) (A) (A) (A) (A) (A) (A) (A) (A) (A)
                 (A) (A) (A) (A) (A) (A) (A) (A) (A) (A) (A) (A)
                 (A) (A) (A) (A) (A) (A) (A) (A) (A) (A) (A) (A)
                 (A) (A) (A) (A) (A) (A) (A) (A) (A) (A) (A) (A)
                 (A) (A) (A) (A) (A) (A) (A) (A) (A) (A) (A) (A)
                 (A) (A) (A) (A) (A) (A) (A) (A) (A) (A) (A) (A)
                 (A) (A) (A) (A) (A) (A) (A) (A) (A) (A) (A) (A)
                 (A) (A) (A) (A) (A) (A) (A) (A) (A) (A) (A) (A)
                 (A) (A) (A) (A) (A) (A) (A) (A) (A) (A) (A) (A)
                 (A) (A) (A) (A) (A) (A) (A) (A) (A) (A) (A) (A)
                 (A) (A) (A) (A) (A) (A) (A) (A) (A) (A) (A) (A)
                 (A) (A) (A) (A) (A) (A) (A) (A) (A) (A) (A) (A)
                 (A) (A) (A) (A) (A) (A) (A) (A) (A) (A) (A) (A)
                 (A) (A) (A) (A) (A) (A) (A) (A) (A) (A) (A) (A)
                 (A) (A) (A) (A) (A) (A) (A) (A) (A) (A) (A) (A)
                 (A) (A) (A) (A) (A) (A) (A) (A) (A) (A) (A) (A)
                 (A) (A) (A) (A) (A) (A) (A) (A) (A) (A) (A) (A)
                 (A) (A) (A) (A) (A) (A) (A) (A) (A) (A) (A) (A)
                 (A) (A) (A) (A) (A) (A) (A) (A) (A) (A) (A) (A)
                 (A) (A) (A) (A) (A) (A) (A) (A) (A) (A) (A) (A)
                 (A) (A) (A) (A) (A) (A) (A) (A) (A) (A) (A) (A)
                 (A) (A) (A) (A) (A) (A) (A) (A) (A) (A) (A) (A)
                 (A) (A) (A) (A) (A) (A) (A) (A) (A) (A) (A) (A)
                 (A) (A) (A) (A) (A) (A) (A) (A) (A) (A) (A) (A)
                 (A) (A) (A) (A) (A) (A) (A) (A) (A) (A) (A) (A)
                 (A) (A) (A) (A) (A) (A) (A) (A) (A) (A) (A) (A)
                 (A) (A) (A) (A) (A) (A) (A) (A) (A) (A) (A) (A)
                 (A) (A) (A) (A) (A) (A) (A) (A) (A) (A) (A) (A)
                 (A) (A) (A) (A) (A) (A) (A) (A) (A) (A) (A) (A)
                 (A) (A) (A) (A) (A) (A) (A) (A) (A) (A) (A) (A)
                 (A) (A) (A) (A) (A) (A) (A) (A) (A) (A) (A) (A)
                 (A) (A) (A) (A) (A) (A) (A) (A) (A) (A) (A) (A)
                 (A) (A) (A) (A) (A) (A) (A) (A) (A) (A) (A) (A)
                 (A) (A) (A) (A) (A) (A) (A) (A) (A) (A) (A) (A)
                 (A) (A) (A) (A) (A) (A) (A) (A) (A) (A) (A) (A)
                 (A) (A) (A) (A) (A) (A) (A) (A) (A) (A) (A) (A)
                 (A) (A) (A) (A) (A) (A) (A) (A) (A) (A) (A) (A)
                 (A) (A) (A) (A) (A) (A) (A) (A) (A) (A) (A) (A)
                 (A) (A) (A) (A) (A) (A) (A) (A) (A) (A) (A) (A)
                 (A) (A) (A) (A) (A) (A) (A) (A) (A) (A) (A) (A)
                 (A) (A) (A) (A) (A) (A) (A) (A) (A) (A) (A) (A)
                 (A) (A) (A) (A) (A) (A) (A) (A) (A) (A) (A) (A)
                 (A) (A) (A) (A) (A) (A) (A) (A) (A) (A) (A) (A)
                 (A) (A) (A) (A) (A) (A) (A) (A) (A) (A) (A) (A)
                 (A) (A) (A) (A) (A) (A) (A) (A) (A) (A) (A) (A)
                 (A) (A) (A) (A) (A) (A) (A) (A) (A) (A) (A) (A)
                 (A) (A) (A) (A) (A) (A) (A) (A) (A) (A) (A) (A)
                 (A) (A) (A) (A) (A) (A) (A) (A) (A) (A) (A) (A)
                 (A) (A) (A) (A) (A) (A) (A) (A) (A) (A) (A) (A)
                 (A) (A) (A) (A) (A) (A) (A) (A) (A) (A) (A) (A)
                 (A) (A) (A) (A) (A) (A) (A) (A) (A) (A) (A) (A)
                 (A) (A) (A) (A) (A) (A) (A) (A) (A) (A) (A) (A)
                 (A) (A) (A) (A) (A) (A) (A) (A) (A) (A) (A) (A)
                 (A) (A) (A) (A) (A) (A) (A) (A) (A) (A) (A) (A)
                 (A) (A) (A) (A) (A) (A) (A) (A) (A) (A) (A) (A)
                 (A) (A) (A) (A) (A) (A) (A) (A) (A) (A) (A) (A)
                 (A) (A) (A) (A) (A) (A) (A) (A) (A) (A) (A) (A)
                 (A) (A) (A) (A) (A) (A) (A) (A) (A) (A) (A) (A)
                 (A) (A) (A) (A) (A) (A) (A) (A) (A) (A) (A) (A)
                 (A) (A) (A) (A) (A) (A) (A) (A) (A) (A) (A) (A)
                 (A) (A) (A) (A) (A) (A) (A) (A) (A) (A) (A) (A)
                 (A) (A) (A) (A) (A) (A) (A) (A) (A) (A) (A) (A)
                 (A) (A) (A) (A) (A) (A) (A) (A) (A) (A) (A) (A)
                 (A) (A) (A) (A) (A) (A) (A) (A) (A) (A) (A) (A)
                 (A) (A) (A) (A) (A) (A) (A) (A) (A) (A) (A) (A)
                 (A) (A) (A) (A) (A) (A) (A) (A) (A) (A) (A) (A)
                 (A) (A) (A) (A) (A) (A) (A) (A) (A) (A) (A) (A)
                 (A) (A) (A) (A) (A) (A) (A) (A) (A) (A) (A) (A)
                 (A) (A) (A) (A) (A) (A) (A) (A) (A) (A) (A) (A)
                 (A) (A) (A) (A) (A) (A) (A) (A) (A) (A) (A) (A)
                 (A) (A) (A) (A) (A) (A) (A) (A) (A) (A) (A) (A)
                 (A) (A) (A) (A) (A) (A) (A) (A) (A) (A) (A) (A)
                 (A) (A) (A) (A) (A) (A) (A) (A) (A) (A) (A) (A)
                 (A) (A) (A) (A) (A) (A) (A) (A) (A) (A) (A) (A)
                 (A) (A) (A) (A) (A) (A) (A) (A) (A) (A) (A) (A)
                 (A) (A) (A) (A) (A) (A) (A) (A) (A) (A) (A) (A)
                 (A) (A) (A) (A) (A) (A) (A) (A) (A) (A) (A) (A)
                 (A) (A) (A) (A) (A) (A) (A) (A) (A) (A) (A) (A)
                 (A) (A) (A) (A) (A) (A) (A) (A) (A) (A) (A) (A)
                 (A) (A) (A) (A) (A) (A) (A) (A) (A) (A) (A) (A)
                 (A) (A) (A) (A) (A) (A) (A) (A) (A) (A) (A) (A)
                 (A) (A) (A) (A) (A) (A) (A) (A) (A) (A) (A) (A)
                 (A) (A) (A) (A) (A) (A) (A) (A) (A) (A) (A) (A)
                 (A) (A) (A) (A) (A) (A) (A) (A) (A) (A) (A) (A)
                 (A) (A) (A) (A) (A) (A) (A) (A) (A) (A) (A) (A)
                 (A) (A) (A) (A) (A) (A) (A) (A) (A) (A) (A) (A)
                 (A) (A) (A) (A) (A) (A) (A) (A) (A) (A) (A) (A)
                 (A) (A) (A) (A) (A) (A) (A) (A) (A) (A) (A) (A)
                 (A) (A) (A) (A) (A) (A) (A) (A) (A) (A) (A) (A)
                 (A) (A) (A) (A) (A) (A) (A) (A) (A) (A) (A) (A)
                 (A) (A) (A) (A) (A) (A) (A) (A) (A) (A) (A) (A)
                 (A) (A) (A) (A) (A) (A) (A) (A) (A) (A) (A) (A)
                 (A) (A) (A) (A) (A) (A) (A) (A) (A) (A) (A) (A)
                 (A) (A) (A) (A) (A) (A) (A) (A) (A) (A) (A) (A)
                 (A) (A) (A) (A) (A) (A) (A) (A) (A) (A) (A) (A)
                 (A) (A) (A) (A) (A) (A) (A) (A) (A) (A) (A) (A)
                 (A) (A) (A) (A) (A) (A) (A) (A) (A) (A) (A) (A)
                 (A) (A) (A) (A) (A) (A) (A) (A) (A) (A) (A) (A)
                 (A) (A) (A) (A) (A) (A) (A) (A) (A) (A) (A) (A)
                 (A) (A) (A) (A) (A) (A) (A) (A) (A) (A) (A) (A)
                 (A) (A) (A) (A) (A) (A) (A) (A) (A) (A) (A) (A)
                 (A) (A) (A) (A) (A) (A) (A) (A) (A) (A) (A) (A)
                 (A) (A) (A) (A) (A) (A) (A) (A) (A) (A) (A) (A)
                 (A) (A) (A) (A) (A) (A) (A) (A) (A) (A) (A) (A)
                 (A) (A) (A) (A) (A) (A) (A) (A) (A) (A) (A) (A)
                 (A) (A) (A) (A) (A) (A) (A) (A) (A) (A) (A) (A)
                 (A) (A) (A) (A) (A) (A) (A) (A) (A) (A) (A) (A)
                 (A) (A) (A) (A) (A) (A) (A) (A) (A) (A) (A) (A)
                 (A) (A) (A) (A) (A) (A) (A) (A) (A) (A) (A) (A)
                 (A) (A) (A) (A) (A) (A) (A) (A) (A) (A) (A) (A)
                 (A) (A) (A) (A) (A) (A) (A) (A) (A) (A) (A) (A)
                 (A) (A) (A) (A) (A) (A) (A) (A) (A) (A) (A) (A)
                 (A) (A) (A) (A) (A) (A) (A) (A) (A) (A) (A) (A)
                 (A) (A) (A) (A) (A) (A) (A) (A) (A) (A) (A) (A)
                 (A) (A) (A) (A) (A) (A) (A) (A) (A) (A) (A) (A)
                 (A) (A) (A) (A) (A) (A) (A) (A) (A) (A) (A) (A)
                 (A) (A) (A) (A) (A) (A) (A) (A) (A) (A) (A) (A)
                 (A) (A) (A) (A) (A) (A) (A) (A) (A) (A) (A) (A)
                 (A) (A) (A) (A) (A) (A) (A) (A) (A) (A) (A) (A)
                 (A) (A) (A) (A) (A) (A) (A) (A) (A) (A) (A) (A)
                 (A) (A) (A) (A) (A) (A) (A) (A) (A) (A) (A) (A)
                 (A) (A) (A) (A) (A) (A) (A) (A) (A) (A) (A) (A)
                 (A) (A) (A) (A) (A) (A) (A) (A) (A) (A) (A) (A)
                 (A) (A) (A) (A) (A) (A) (A) (A) (A) (A) (A) (A)
                 (A) (A) (A) (A) (A) (A) (A) (A) (A) (A) (A) (A)
                 (A) (A) (A) (A) (A) (A) (A) (A) (A) (A) (A) (A)
                 (A) (A) (A) (A) (A) (A) (A) (A) (A) (A) (A) (A)
                 (A) (A) (A) (A) (A) (A) (A) (A) (A) (A) (A) (A)
                 (A) (A) (A) (A) (A) (A) (A) (A) (A) (A) (A) (A)
                 (A) (A) (A) (A) (A) (A) (A) (A) (A) (A) (A) (A)
                 (A) (A) (A) (A) (A) (A) (A) (A) (A) (A) (A) (A)
                 (A) (A) (A) (A) (A) (A) (A) (A) (A) (A) (A) (A)
                 (A) (A) (A) (A) (A) (A) (A) (A) (A) (A) (A) (A)
                 (A) (A) (A) (A) (A) (A) (A) (A) (A) (A) (A) (A)
                 (A) (A) (A) (A) (A) (A) (A) (A) (A) (A) (A) (A)
                 (A) (A) (A) (A) (A) (A) (A) (A) (A) (A) (A) (A)
                 (A) (A) (A) (A) (A) (A) (A) (A) (A) (A) (A) (A)
                 (A) (A) (A) (A) (A) (A) (A) (A) (A) (A) (A) (A)
                 (A) (A) (A) (A) (A) (A) (A) (A) (A) (A) (A) (A)
                 (A) (A) (A) (A) (A) (A) (A) (A) (A) (A) (A) (A)
                 (A) (A) (A) (A) (A) (A) (A) (A) (A) (A) (A) (A)
                 (A) (A) (A) (A) (A) (A) (A) (A) (A) (A) (A) (A)
                 (A) (A) (A) (A) (A) (A) (A) (A) (A) (A) (A) (A)
                 (A) (A) (A) (A) (A) (A) (A) (A) (A) (A) (A) (A)
                 (A) (A) (A) (A) (A) (A) (A) (A) (A) (A) (A) (A)
                 (A) (A) (A) (A) (A) (A) (A) (A) (A) (A) (A) (A)
                 (A) (A) (A) (A) (A) (A) (A) (A) (A) (A) (A) (A)
                 (A) (A) (A) (A) (A) (A) (A) (A) (A) (A) (A) (A)
                 (A) (A) (A) (A) (A) (A) (A) (A) (A) (A) (A) (A)
                 (A) (A) (A) (A) (A) (A) (A) (A) (A) (A) (A) (A)
                 (A) (A) (A) (A) (A) (A) (A) (A) (A) (A) (A) (A)
                 (A) (A) (A) (A) (A) (A) (A) (A) (A) (A) (A) (A)
                 (A) (A) (A) (A) (A) (A) (A) (A) (A) (A) (A) (A)
                 (A) (A) (A) (A) (A) (A) (A) (A) (A) (A) (A) (A)
                 (A) (A) (A) (A) (A) (A) (A) (A) (A) (A) (A) (A)
                 (A) (A) (A) (A) (A) (A) (A) (A) (A) (A) (A) (A)
                 (A) (A) (A) (A) (A) (A) (A) (A) (A) (A) (A) (A)
                 (A) (A) (A) (A) (A) (A) (A) (A) (A) (A) (A) (A)
                 (A) (A) (A) (A) (A) (A) (A) (A) (A) (A) (A) (A)
                 (A) (A) (A) (A) (A) (A) (A) (A) (A) (A) (A) (A)
                 (A) (A) (A) (A) (A) (A) (A) (A) (A) (A) (A) (A)
                 (A) (A) (A) (A) (A) (A) (A) (A) (A) (A) (A) (A)
                 (A) (A) (A) (A) (A) (A) (A) (A) (A) (A) (A) (A)
                 (A) (A) (A) (A) (A) (A) (A) (A) (A) (A) (A) (A)
[...]
   348  C   -0.047460
   349  C   -0.036823
   350  C    0.047316
   351  C   -0.013032
   352  C    0.003647
   353  C   -0.009612
   354  C    0.020166
   355  C   -0.021085
   356  C    0.130616
   357  N   -0.324674
   358  C    0.147796
   359  C   -0.011300
   360  C   -0.010929
   361  C    0.015001
   362  C    0.002194
   363  C    0.036030
   364  C    0.027553
   365  C    0.019564
   366  C   -0.063593
   367  C   -0.022132
   368  C    0.003238
   369  C   -0.004557
   370  C    0.029510
   371  H    0.061061
   372  H    0.099499
   373  H    0.115472
   374  H    0.040964
   375  H    0.047071
   376  H    0.043519
   377  H    0.053820
   378  H    0.047301
   379  H    0.058909
   380  H    0.047355
   381  H    0.061148
   382  H    0.119608
   383  H    0.071344
   384  H    0.038852
   385  H    0.032587
   386  H    0.046152
   387  H    0.061717
   388  H    0.050392
   389  H    0.045227
   390  H    0.049680
   391  H    0.047033
   392  H    0.061444
   393  H    0.047770
 Sum of Mulliken charges =   6.00000
 Mulliken charges with hydrogens summed into heavy atoms:
               1
     1  Pd   0.500055
     2  Pd   0.507146
     3  Pd   0.504762
     4  C    0.043604
     5  C    0.239320
     6  N   -0.339999
     7  C    0.246612
     8  C   -0.007702
     9  C    0.051452
    10  C   -0.021071
    11  C    0.024530
    12  C    0.041364
    13  C   -0.094526
    14  C   -0.044824
    15  C    0.082241
    16  C   -0.057155
    17  N   -0.189565
    18  C   -0.081030
    19  C    0.050769
    20  C   -0.003551
    21  C   -0.089077
    22  C    0.046733
    23  C   -0.043461
    24  C    0.013894
    25  C    0.090028
    26  C   -0.006404
    27  C    0.076230
    28  C    0.038848
    29  C    0.040792
    30  C    0.034539
    31  C    0.232545
    32  N   -0.325676
    33  C    0.169964
    34  C   -0.003530
    35  C    0.031790
    36  C    0.049285
    37  C    0.081851
    38  C    0.092419
    39  C    0.074680
    40  C    0.056774
    41  C    0.023142
    42  C    0.014047
    43  C    0.074704
    44  C    0.044607
    45  C    0.008945
    69  C    0.030567
    70  C    0.195806
    71  N   -0.313668
    72  C    0.218851
    73  C   -0.004245
    74  C    0.032627
    75  C   -0.049259
    76  C    0.043521
    77  C    0.047964
    78  C   -0.085095
    79  C   -0.035801
    80  C    0.069869
    81  C   -0.060818
    82  N   -0.176716
    83  C   -0.061938
    84  C    0.036084
    85  C   -0.004955
    86  C   -0.078180
    87  C    0.048863
    88  C    0.019825
    89  C   -0.059444
    90  C    0.039424
    91  C    0.030020
    92  C    0.062945
    93  C    0.042830
    94  C    0.031062
    95  C    0.022566
    96  C    0.220470
    97  N   -0.327662
    98  C    0.260557
    99  C   -0.025849
   100  C    0.031117
   101  C    0.040953
   102  C    0.054500
   103  C    0.098572
   104  C    0.058501
   105  C    0.057150
   106  C    0.009573
   107  C    0.034688
   108  C    0.047225
   109  C    0.046398
   110  C    0.011410
   134  C    0.034130
   135  C    0.250988
   136  N   -0.326974
   137  C    0.233282
   138  C   -0.011476
   139  C    0.044593
   140  C   -0.034276
   141  C    0.002496
   142  C    0.039947
   143  C   -0.081832
   144  C   -0.016683
   145  C    0.053595
   146  C   -0.055778
   147  N   -0.189954
   148  C   -0.073365
   149  C    0.120466
   150  C   -0.050045
   151  C   -0.065993
   152  C    0.034360
   153  C   -0.011522
   154  C   -0.036306
   155  C    0.014776
   156  C    0.047270
   157  C    0.070129
   158  C    0.053769
   159  C    0.025226
   160  C    0.025426
   161  C    0.212874
   162  N   -0.313692
   163  C    0.262001
   164  C   -0.060844
   165  C    0.032011
   166  C    0.038881
   167  C    0.073662
   168  C    0.086038
   169  C    0.070549
   170  C    0.053087
   171  C    0.033238
   172  C    0.021567
   173  C    0.068149
   174  C    0.045783
   175  C    0.023577
   199  C    0.033885
   200  C    0.205627
   201  N   -0.319535
   202  C    0.258699
   203  C   -0.004857
   204  C    0.022088
   205  C   -0.117649
   206  C    0.077224
   207  C    0.044140
   208  C   -0.086360
   209  C   -0.059517
   210  C    0.082329
   211  C   -0.054962
   212  N   -0.189415
   213  C   -0.056512
   214  C    0.057597
   215  C   -0.043246
   216  C   -0.078766
   217  C    0.056225
   218  C    0.060453
   219  C   -0.084019
   220  C    0.034642
   221  C    0.034373
   222  C    0.064091
   223  C    0.045349
   224  C    0.030522
   225  C    0.038351
   226  C    0.214600
   227  N   -0.316654
   228  C    0.260553
   229  C   -0.020548
   230  C    0.011363
   231  C    0.060461
   232  C    0.071303
   233  C    0.100320
   234  C    0.070609
   235  C    0.057813
   236  C    0.042233
   237  C    0.029610
   238  C    0.066583
   239  C    0.047830
   240  C    0.040238
   264  C    0.003606
   265  C    0.254361
   266  N   -0.322663
   267  C    0.217363
   268  C   -0.028937
   269  C    0.049555
   270  C    0.005459
   271  C    0.007619
   272  C    0.059323
   273  C   -0.123904
   274  C    0.002957
   275  C    0.050387
   276  C   -0.069983
   277  N   -0.169498
   278  C   -0.059579
   279  C    0.055873
   280  C   -0.026106
   281  C   -0.108882
   282  C    0.080398
   283  C   -0.003407
   284  C   -0.041017
   285  C    0.030748
   286  C    0.025540
   287  C    0.069217
   288  C    0.045691
   289  C    0.025320
   290  C    0.045252
   291  C    0.226156
   292  N   -0.324645
   293  C    0.241237
   294  C    0.003700
   295  C    0.025982
   296  C    0.068618
   297  C    0.057269
   298  C    0.100767
   299  C    0.057671
   300  C    0.064162
   301  C    0.001249
   302  C    0.001601
   303  C    0.067857
   304  C    0.012798
   305  C    0.068987
   329  C    0.028564
   330  C    0.243396
   331  N   -0.318397
   332  C    0.244270
   333  C   -0.015067
   334  C    0.042155
   335  C   -0.052156
   336  C    0.040008
   337  C    0.064957
   338  C   -0.094073
   339  C   -0.030639
   340  C    0.065340
   341  C   -0.065614
   342  N   -0.162661
   343  C   -0.061026
   344  C    0.049881
   345  C   -0.031725
   346  C   -0.076847
   347  C    0.053150
   348  C    0.006361
   349  C   -0.036823
   350  C    0.047316
   351  C    0.034269
   352  C    0.062556
   353  C    0.037743
   354  C    0.020166
   355  C    0.040063
   356  C    0.250224
   357  N   -0.324674
   358  C    0.219140
   359  C   -0.011300
   360  C    0.027923
   361  C    0.047588
   362  C    0.048346
   363  C    0.097747
   364  C    0.077944
   365  C    0.064790
   366  C   -0.013913
   367  C    0.024901
   368  C    0.064682
   369  C    0.043213
   370  C    0.029510
 Electronic spatial extent (au):  <R**2>=         541876.8137
 Charge=              6.0000 electrons
 Dipole moment (field-independent basis, Debye):
    X=             -3.4282    Y=             -7.7463    Z=             -7.7125  Tot=             11.4560
 Quadrupole moment (field-independent basis, Debye-Ang):
   XX=            866.3843   YY=           -559.7793   ZZ=          -1019.4177
   XY=             -1.3685   XZ=           -129.2375   YZ=            -12.1547
 Traceless Quadrupole moment (field-independent basis, Debye-Ang):
   XX=           1103.9885   YY=           -322.1750   ZZ=           -781.8135
   XY=             -1.3685   XZ=           -129.2375   YZ=            -12.1547
 Octapole moment (field-independent basis, Debye-Ang**2):
  XXX=          10442.3296  YYY=            410.5702  ZZZ=             61.5587  XYY=          -1918.3781
  XXY=          -1006.3576  XXZ=          -1504.8095  XZZ=           -928.5325  YZZ=           -634.9808
  YYZ=             83.9568  XYZ=            536.1620
 Hexadecapole moment (field-independent basis, Debye-Ang**3):
 XXXX=        -176234.8454 YYYY=        -128219.7803 ZZZZ=         -71603.4698 XXXY=           3414.9658
 XXXZ=         -17155.7629 YYYX=           -656.7773 YYYZ=          -1678.0886 ZZZX=          -4259.5000
 ZZZY=            663.6521 XXYY=         -66465.7350 XXZZ=         -71627.9257 YYZZ=         -31879.1444
 XXYZ=          -2407.9566 YYXZ=          -1326.3792 ZZXY=          -1750.6139
 N-N= 8.526174644145D+04 E-N=-1.938832293781D+05  KE= 1.000600012605D+04
 Unable to Open any file for archive entry.
 1\1\GINC-CX3-15-24\SP\RPBE1PBE\def2SVP\C234H138N18Pd3(6+)\VPOSLIGU\02-
 Jun-2023\0\\# SP PBE1PBE/def2svp empiricaldispersion=GD3BJ scrf=(solve
 nt=dmso)\\m3_lb\\6,1\Pd,0,-7.0891,-4.2376,0.6425\Pd,0,-5.2841,4.5501,-
 0.2221\Pd,0,11.5701,-1.4145,-2.0109\C,0,-6.9639,-5.8165,-3.2926\C,0,-7
 .3542,-5.2331,-2.1185\N,0,-6.4555,-4.9699,-1.1308\C,0,-5.1722,-5.2384,
 -1.2943\C,0,-4.6598,-5.7943,-2.4865\C,0,-3.265,-6.0503,-2.685\C,0,-2.2
 281,-5.6438,-1.7116\C,0,-2.1606,-4.334,-1.208\C,0,-1.1367,-3.9526,-0.3
 501\C,0,-0.1523,-4.8805,0.0349\C,0,0.8728,-4.525,0.9593\C,0,1.7249,-4.
 257,1.7867\C,0,2.7304,-3.9512,2.7597\N,0,3.5476,-2.9345,2.4721\C,0,4.5
 006,-2.607,3.3522\C,0,5.3574,-1.5316,2.9513\C,0,6.0561,-0.6511,2.4832\
 C,0,6.873,0.3129,1.8265\C,0,8.2194,0.0162,1.5503\C,0,8.9778,0.8726,0.7
 676\C,0,8.4236,2.0439,0.2189\C,0,9.1726,2.9104,-0.7187\C,0,9.068,4.289
 1,-0.6502\C,0,9.8164,5.1333,-1.4985\C,0,10.7091,4.6212,-2.4129\C,0,10.
 8475,3.2189,-2.5379\C,0,11.7634,2.608,-3.4341\C,0,11.8873,1.243,-3.476
 8\N,0,11.0847,0.4423,-2.7253\C,0,10.1711,0.9819,-1.9346\C,0,10.0443,2.
 3661,-1.7212\C,0,7.1149,2.3817,0.5937\C,0,6.3418,1.5328,1.3739\C,0,4.6
 737,-3.2832,4.5691\C,0,3.8225,-4.3443,4.8588\C,0,2.8326,-4.6934,3.9474
 \C,0,-0.2119,-6.1897,-0.4734\C,0,-1.2322,-6.5589,-1.338\C,0,-2.8787,-6
 .6805,-3.8556\C,0,-3.8119,-7.031,-4.8537\C,0,-5.1496,-6.7495,-4.6992\C
 ,0,-5.5997,-6.1298,-3.5101\H,0,-7.7047,-6.0404,-4.0622\H,0,-8.3923,-4.
 9648,-1.9158\H,0,-4.5165,-5.025,-0.4478\H,0,-2.8995,-3.5925,-1.5199\H,
 0,-1.0895,-2.9283,0.0261\H,0,8.6625,-0.9035,1.9383\H,0,10.0244,0.6235,
 0.5937\H,0,8.4254,4.742,0.1068\H,0,9.7034,6.2153,-1.3957\H,0,11.3166,5
 .2773,-3.04\H,0,12.396,3.2297,-4.0705\H,0,12.6277,0.7427,-4.103\H,0,9.
 5256,0.2938,-1.3916\H,0,6.6752,3.3083,0.2281\H,0,5.3086,1.7989,1.6072\
 H,0,5.461,-2.9766,5.2592\H,0,3.9283,-4.8959,5.7956\H,0,2.1443,-5.5176,
 4.1394\H,0,0.5478,-6.9164,-0.1792\H,0,-1.2695,-7.5813,-1.7206\H,0,-1.8
 183,-6.8766,-4.028\H,0,-3.4552,-7.5123,-5.7674\H,0,-5.8743,-6.9959,-5.
 478\C,0,-9.3063,-0.8023,-0.6971\C,0,-8.8458,-1.8964,-0.0163\N,0,-7.658
 9,-2.4954,-0.3155\C,0,-6.9336,-2.0232,-1.3185\C,0,-7.3333,-0.9209,-2.1
 076\C,0,-6.5336,-0.4204,-3.1838\C,0,-5.2847,-1.1016,-3.5914\C,0,-4.066
 ,-0.4119,-3.5476\C,0,-2.8742,-1.0514,-3.8636\C,0,-2.881,-2.4012,-4.251
 1\C,0,-1.6633,-3.1212,-4.4112\C,0,-0.6472,-3.7917,-4.4249\C,0,0.5009,-
 4.6455,-4.408\N,0,1.4463,-4.387,-3.4948\C,0,2.5147,-5.1913,-3.4522\C,0
 ,3.5474,-4.9145,-2.501\C,0,4.5148,-4.7667,-1.7751\C,0,5.7109,-4.6913,-
 1.0058\C,0,6.8849,-5.2645,-1.5298\C,0,8.0549,-5.2658,-0.7862\C,0,8.082
 3,-4.7236,0.5096\C,0,9.3152,-4.8475,1.3197\C,0,9.3047,-5.5079,2.5338\C
 ,0,10.5032,-5.7641,3.2379\C,0,11.7249,-5.3803,2.732\C,0,11.7797,-4.659
 6,1.516\C,0,12.9857,-4.1939,0.9345\C,0,12.9527,-3.4141,-0.1905\N,0,11.
 7775,-3.0366,-0.7691\C,0,10.6388,-3.5106,-0.2914\C,0,10.5672,-4.361,0.
 8296\C,0,6.9171,-4.1369,1.0211\C,0,5.7476,-4.1019,0.2688\C,0,2.6803,-6
 .2894,-4.317\C,0,1.6916,-6.5495,-5.257\C,0,0.5793,-5.7184,-5.3121\C,0,
 -4.1108,-3.0718,-4.3745\C,0,-5.2946,-2.4341,-4.0311\C,0,-6.9488,0.7265
 ,-3.8329\C,0,-8.1549,1.3762,-3.486\C,0,-8.9581,0.8878,-2.4819\C,0,-8.5
 541,-0.265,-1.7673\H,0,-10.2566,-0.3489,-0.4096\H,0,-9.4246,-2.3173,0.
 8015\H,0,-5.9779,-2.511,-1.5115\H,0,-4.053,0.63,-3.2232\H,0,-1.9256,-0
 .5176,-3.7867\H,0,6.8647,-5.7215,-2.5205\H,0,8.9539,-5.7291,-1.1998\H,
 0,8.3579,-5.8794,2.9329\H,0,10.4531,-6.3048,4.1861\H,0,12.6528,-5.6124
 ,3.2594\H,0,13.9459,-4.4403,1.3919\H,0,13.8694,-3.0453,-0.6494\H,0,9.7
 179,-3.1797,-0.7713\H,0,6.9304,-3.6968,2.0208\H,0,4.8501,-3.6297,0.674
 8\H,0,3.5713,-6.9141,-4.2394\H,0,1.7877,-7.3936,-5.9436\H,0,-0.2207,-5
 .8812,-6.036\H,0,-4.1244,-4.1048,-4.7229\H,0,-6.241,-2.9762,-4.1046\H,
 0,-6.3455,1.1192,-4.6538\H,0,-8.4568,2.2677,-4.0399\H,0,-9.9077,1.365,
 -2.2299\C,0,-7.3778,-8.3057,1.7137\C,0,-7.5306,-7.0645,1.1601\N,0,-6.6
 68,-6.0498,1.4474\C,0,-5.6425,-6.2507,2.2521\C,0,-5.396,-7.4929,2.879\
 C,0,-4.3206,-7.6901,3.8049\C,0,-3.3481,-6.6195,4.1185\C,0,-2.6441,-5.9
 521,3.1035\C,0,-1.7275,-4.9603,3.4162\C,0,-1.4788,-4.608,4.757\C,0,-0.
 5326,-3.573,5.0051\C,0,0.2927,-2.6776,5.0536\C,0,1.2345,-1.62,4.8408\N
 ,0,1.2199,-1.1374,3.5937\C,0,2.0821,-0.1734,3.2569\C,0,1.9235,0.2987,1
 .9169\C,0,1.5374,0.6598,0.8193\C,0,0.8388,1.0856,-0.3445\C,0,-0.4564,0
 .5722,-0.546\C,0,-1.2568,1.0711,-1.5604\C,0,-0.7695,2.0491,-2.4428\C,0
 ,-1.5934,2.4674,-3.5997\C,0,-1.1225,2.2477,-4.8812\C,0,-1.9262,2.4919,
 -6.0159\C,0,-3.2173,2.9463,-5.8812\C,0,-3.7304,3.22,-4.592\C,0,-5.0494
 ,3.6898,-4.3814\C,0,-5.4785,3.976,-3.1148\N,0,-4.6553,3.8614,-2.0363\C
 ,0,-3.4307,3.3859,-2.1847\C,0,-2.9079,3.0102,-3.4433\C,0,0.5319,2.5361
 ,-2.2589\C,0,1.3222,2.079,-1.2097\C,0,3.0057,0.3637,4.1664\C,0,3.0063,
 -0.1321,5.4662\C,0,2.1148,-1.1405,5.8228\C,0,-2.1697,-5.2832,5.7762\C,
 0,-3.0901,-6.2739,5.4545\C,0,-4.2178,-8.9182,4.4336\C,0,-5.1163,-9.970
 6,4.1563\C,0,-6.1424,-9.8046,3.2557\C,0,-6.3101,-8.557,2.6108\H,0,-8.0
 895,-9.0983,1.4757\H,0,-8.3471,-6.8294,0.4755\H,0,-4.9854,-5.4012,2.43
 52\H,0,-2.7967,-6.2276,2.0568\H,0,-1.1813,-4.4501,2.6225\H,0,-0.8405,-
 0.1953,0.1284\H,0,-2.2692,0.6833,-1.6829\H,0,-0.1211,1.8318,-5.015\H,0
 ,-1.5186,2.2873,-7.0088\H,0,-3.8561,3.1052,-6.7527\H,0,-5.7271,3.8205,
 -5.2271\H,0,-6.4949,4.3192,-2.9236\H,0,-2.8116,3.3153,-1.2874\H,0,0.92
 17,3.3019,-2.9339\H,0,2.3112,2.5083,-1.0448\H,0,3.6879,1.1565,3.857\H,
 0,3.7073,0.2655,6.2035\H,0,2.0963,-1.5565,6.8312\H,0,-1.9882,-5.0219,6
 .8206\H,0,-3.634,-6.7823,6.2541\H,0,-3.4064,-9.0849,5.1456\H,0,-4.9842
 ,-10.9285,4.6649\H,0,-6.8399,-10.6157,3.0359\C,0,-7.2121,-3.4327,4.835
 6\C,0,-6.7981,-3.5268,3.5327\N,0,-7.6879,-3.6685,2.5094\C,0,-8.9808,-3
 .6372,2.7621\C,0,-9.5097,-3.4339,4.0529\C,0,-10.9087,-3.2215,4.2633\C,
 0,-11.7281,-2.9103,3.0617\C,0,-11.9121,-1.5522,2.7631\C,0,-12.3889,-1.
 1573,1.5228\C,0,-12.6965,-2.12,0.5437\C,0,-12.9766,-1.6661,-0.7775\C,0
 ,-13.0829,-1.1655,-1.8831\C,0,-13.1043,-0.488,-3.1446\N,0,-12.5143,0.7
 144,-3.1599\C,0,-12.4784,1.3966,-4.3098\C,0,-11.8196,2.6706,-4.2588\C,
 0,-11.2311,3.7301,-4.139\C,0,-10.4957,4.9339,-3.9212\C,0,-11.0157,5.95
 31,-3.1042\C,0,-10.2473,7.0721,-2.8014\C,0,-8.9409,7.1917,-3.2901\C,0,
 -8.0575,8.3075,-2.8755\C,0,-8.3147,9.6215,-3.2099\C,0,-7.4098,10.6518,
 -2.8637\C,0,-6.2393,10.3797,-2.1923\C,0,-5.949,9.0506,-1.802\C,0,-4.77
 7,8.6838,-1.0924\C,0,-4.5853,7.3828,-0.7088\N,0,-5.5165,6.4222,-0.9647
 \C,0,-6.6126,6.7207,-1.6335\C,0,-6.8771,8.0171,-2.1232\C,0,-8.4418,6.1
 964,-4.1444\C,0,-9.2086,5.0857,-4.4669\C,0,-13.0358,0.9058,-5.5011\C,0
 ,-13.6494,-0.3421,-5.4759\C,0,-13.6901,-1.0593,-4.2855\C,0,-12.6057,-3
 .483,0.8744\C,0,-12.124,-3.8704,2.1221\C,0,-11.3621,-3.0943,5.5584\C,0
 ,-10.4653,-3.1622,6.6525\C,0,-9.1079,-3.2835,6.4598\C,0,-8.5963,-3.398
 1,5.1444\H,0,-6.4701,-3.3611,5.6334\H,0,-5.7413,-3.503,3.266\H,0,-9.65
 19,-3.8029,1.9194\H,0,-11.6165,-0.7968,3.4951\H,0,-12.4818,-0.0961,1.2
 828\H,0,-12.0196,5.8495,-2.6874\H,0,-10.6511,7.8448,-2.1428\H,0,-9.215
 9,9.8654,-3.7774\H,0,-7.6417,11.6788,-3.1563\H,0,-5.5312,11.1748,-1.94
 87\H,0,-4.0261,9.4373,-0.8469\H,0,-3.6944,7.0636,-0.1648\H,0,-7.3393,5
 .9195,-1.7781\H,0,-7.4317,6.2912,-4.5504\H,0,-8.8058,4.3154,-5.1277\H,
 0,-12.9835,1.4977,-6.4163\H,0,-14.0951,-0.7554,-6.3835\H,0,-14.1612,-2
 .0417,-4.2268\H,0,-12.8677,-4.2385,0.1309\H,0,-12.0015,-4.9327,2.3474\
 H,0,-12.4223,-2.907,5.7436\H,0,-10.8629,-3.0728,7.6664\H,0,-8.4156,-3.
 2759,7.3048\C,0,-5.7488,0.454,0.7255\C,0,-5.9414,1.7336,0.2855\N,0,-5.
 038,2.7106,0.5639\C,0,-3.9585,2.4515,1.2801\C,0,-3.6272,1.1481,1.7129\
 C,0,-2.4122,0.8399,2.4073\C,0,-1.3589,1.833,2.7228\C,0,-0.878,2.7543,1
 .7775\C,0,0.263,3.5042,2.0285\C,0,0.9529,3.3634,3.2442\C,0,2.2005,4.02
 73,3.4343\C,0,3.2789,4.5837,3.5398\C,0,4.4868,5.3496,3.6452\N,0,5.6468
 ,4.7433,3.3633\C,0,6.7698,5.4707,3.4323\C,0,8.0157,4.8271,3.1378\C,0,9
 .1134,4.3617,2.8858\C,0,10.3887,3.8586,2.4969\C,0,10.7743,2.5362,2.772
 6\C,0,11.9805,2.0411,2.2909\C,0,12.8348,2.8511,1.5289\C,0,14.1295,2.36
 17,0.9996\C,0,15.289,3.0455,1.3192\C,0,16.5477,2.6504,0.8184\C,0,16.66
 04,1.5772,-0.0334\C,0,15.5006,0.8628,-0.4134\C,0,15.547,-0.2102,-1.336
 6\C,0,14.3934,-0.8425,-1.7076\N,0,13.184,-0.4796,-1.194\C,0,13.0974,0.
 5123,-0.3265\C,0,14.2268,1.2406,0.1134\C,0,12.4646,4.1837,1.2893\C,0,1
 1.2613,4.6837,1.764\C,0,6.7763,6.8349,3.7727\C,0,5.5683,7.4509,4.0716\
 C,0,4.3994,6.7029,4.0135\C,0,0.4218,2.5191,4.2332\C,0,-0.7127,1.7656,3
 .9691\C,0,-2.185,-0.4841,2.7548\C,0,-3.1141,-1.5053,2.4633\C,0,-4.291,
 -1.2235,1.8098\C,0,-4.5639,0.108,1.4184\H,0,-6.5063,-0.3042,0.5392\H,0
 ,-6.8187,2.0269,-0.2944\H,0,-3.3204,3.3029,1.521\H,0,-1.3424,2.8298,0.
 7938\H,0,0.6658,4.1624,1.2564\H,0,10.113,1.893,3.3554\H,0,12.2653,1.01
 02,2.5148\H,0,15.2287,3.9068,1.9884\H,0,17.4372,3.2123,1.1129\H,0,17.6
 288,1.2705,-0.4343\H,0,16.5006,-0.5208,-1.7672\H,0,14.3874,-1.6596,-2.
 4318\H,0,12.0999,0.7733,0.0288\H,0,13.1215,4.8275,0.7\H,0,10.974,5.714
 5,1.5485\H,0,7.7189,7.3835,3.8042\H,0,5.5372,8.5081,4.3446\H,0,3.4269,
 7.1451,4.2351\H,0,0.928,2.4266,5.1956\H,0,-1.0938,1.0873,4.7355\H,0,-1
 .2338,-0.7559,3.22\H,0,-2.8782,-2.5321,2.7523\H,0,-5.0136,-2.0078,1.57
 04\C,0,-7.4928,5.6511,3.2579\C,0,-7.1379,5.1777,2.0223\N,0,-5.8527,5.2
 534,1.5824\C,0,-4.9203,5.8133,2.3276\C,0,-5.1902,6.3698,3.5952\C,0,-4.
 168,6.989,4.382\C,0,-2.8069,7.1418,3.8204\C,0,-1.7007,6.5573,4.4506\C,
 0,-0.4473,6.5876,3.8512\C,0,-0.2736,7.2086,2.6018\C,0,0.9768,7.1139,1.
 9225\C,0,2.0241,6.9396,1.3273\C,0,3.2589,6.6688,0.6518\N,0,3.3582,5.48
 3,0.0377\C,0,4.507,5.1874,-0.5821\C,0,4.6305,3.9078,-1.2096\C,0,4.8672
 ,2.8141,-1.6918\C,0,5.2453,1.5504,-2.2265\C,0,6.3348,1.4807,-3.1143\C,
 0,6.7486,0.2575,-3.6205\C,0,6.0899,-0.9301,-3.2614\C,0,6.4996,-2.2232,
 -3.8541\C,0,5.568,-3.0179,-4.4959\C,0,5.9401,-4.2182,-5.1404\C,0,7.250
 2,-4.6376,-5.1566\C,0,8.2357,-3.8746,-4.4867\C,0,9.5967,-4.2636,-4.426
 4\C,0,10.4968,-3.5117,-3.7211\N,0,10.1142,-2.3903,-3.0458\C,0,8.8567,-
 1.9915,-3.0872\C,0,7.8588,-2.6727,-3.8162\C,0,5.0048,-0.8577,-2.3745\C
 ,0,4.5882,0.3629,-1.8564\C,0,5.605,6.0662,-0.6116\C,0,5.4931,7.2903,0.
 035\C,0,4.3025,7.6071,0.6785\C,0,-1.3667,7.8558,2.0007\C,0,-2.6146,7.8
 212,2.6068\C,0,-4.4902,7.4126,5.6563\C,0,-5.8051,7.2838,6.1588\C,0,-6.
 81,6.7317,5.3971\C,0,-6.5209,6.255,4.0962\H,0,-8.526,5.5592,3.5981\H,0
 ,-7.8569,4.712,1.3462\H,0,-3.9082,5.8177,1.9202\H,0,-1.8338,6.0337,5.4
 003\H,0,0.4019,6.0996,4.3329\H,0,6.8496,2.3977,-3.4081\H,0,7.5811,0.22
 62,-4.3275\H,0,4.5258,-2.6939,-4.5329\H,0,5.1701,-4.8081,-5.6434\H,0,7
 .5442,-5.5559,-5.6695\H,0,9.9298,-5.1691,-4.9369\H,0,11.5511,-3.7838,-
 3.6512\H,0,8.592,-1.108,-2.5072\H,0,4.4888,-1.7742,-2.0772\H,0,3.7548,
 0.4005,-1.1523\H,0,6.5194,5.7775,-1.1317\H,0,6.3296,7.9928,0.0385\H,0,
 4.1699,8.5559,1.2002\H,0,-1.235,8.3649,1.0437\H,0,-3.4617,8.3123,2.121
 7\H,0,-3.7214,7.8795,6.2764\H,0,-6.0232,7.6446,7.1669\H,0,-7.8288,6.64
 85,5.7818\\Version=ES64L-G16RevC.01\State=1-A\HF=-10350.1163759\RMSD=2
 .279e-09\Dipole=-1.3487417,-3.0476423,-3.0343215\Quadrupole=820.788407
 7,-239.5292344,-581.2591733,-1.0172925,-96.0849211,-9.0367697\PG=C01 [
 X(C234H138N18Pd3)]\\@
 The archive entry for this job was punched.


       THE DEATH-KNELL OF THE ATOM

 SO THE ATOMS IN TURN, WE NOW CLEARLY DISCERN,
 FLY TO BITS WITH THE UTMOST FACILITY;
 THEY WEND ON THEIR WAY, AND, IN SPLITTING, DISPLAY
 AN ABSOLUTE LACK OF STABILITY.

          SIR WM. RAMSAY, 1905
 Job cpu time:       7 days  2 hours 29 minutes 28.9 seconds.
 Elapsed time:       0 days  3 hours 41 minutes 45.7 seconds.
 File lengths (MBytes):  RWF=  19592 Int=      0 D2E=      0 Chk=   1088 Scr=     16
 Normal termination of Gaussian 16 at Fri Jun  2 11:46:12 2023.
