 Entering Gaussian System, Link 0=g16
 Initial command:
 /apps/gaussian/g16-c01-avx/g16/l1.exe "/rds/general/ephemeral/user/atarzia/ephemeral/xtb_spe_DFT/Gau-2845444.inp" -scrdir="/rds/general/ephemeral/user/atarzia/ephemeral/xtb_spe_DFT/"
 Entering Link 1 = /apps/gaussian/g16-c01-avx/g16/l1.exe PID=   2845445.
  
 Copyright (c) 1988-2019, Gaussian, Inc.  All Rights Reserved.
  
 This is part of the Gaussian(R) 16 program.  It is based on
 the Gaussian(R) 09 system (copyright 2009, Gaussian, Inc.),
 the Gaussian(R) 03 system (copyright 2003, Gaussian, Inc.),
 the Gaussian(R) 98 system (copyright 1998, Gaussian, Inc.),
 the Gaussian(R) 94 system (copyright 1995, Gaussian, Inc.),
 the Gaussian 92(TM) system (copyright 1992, Gaussian, Inc.),
 the Gaussian 90(TM) system (copyright 1990, Gaussian, Inc.),
 the Gaussian 88(TM) system (copyright 1988, Gaussian, Inc.),
 the Gaussian 86(TM) system (copyright 1986, Carnegie Mellon
 University), and the Gaussian 82(TM) system (copyright 1983,
 Carnegie Mellon University). Gaussian is a federally registered
 trademark of Gaussian, Inc.
  
 This software contains proprietary and confidential information,
 including trade secrets, belonging to Gaussian, Inc.
  
 This software is provided under written license and may be
 used, copied, transmitted, or stored only in accord with that
 written license.
  
 The following legend is applicable only to US Government
 contracts under FAR:
  
                    RESTRICTED RIGHTS LEGEND
  
 Use, reproduction and disclosure by the US Government is
 subject to restrictions as set forth in subparagraphs (a)
 and (c) of the Commercial Computer Software - Restricted
 Rights clause in FAR 52.227-19.
  
 Gaussian, Inc.
 340 Quinnipiac St., Bldg. 40, Wallingford CT 06492
  
  
 ---------------------------------------------------------------
 Warning -- This program may not be used in any manner that
 competes with the business of Gaussian, Inc. or will provide
 assistance to any competitor of Gaussian, Inc.  The licensee
 of this program is prohibited from giving any competitor of
 Gaussian, Inc. access to this program.  By using this program,
 the user acknowledges that Gaussian, Inc. is engaged in the
 business of creating and licensing software in the field of
 computational chemistry and represents and warrants to the
 licensee that it is not a competitor of Gaussian, Inc. and that
 it will not use this program in any manner prohibited above.
 ---------------------------------------------------------------
  

 Cite this work as:
 Gaussian 16, Revision C.01,
 M. J. Frisch, G. W. Trucks, H. B. Schlegel, G. E. Scuseria, 
 M. A. Robb, J. R. Cheeseman, G. Scalmani, V. Barone, 
 G. A. Petersson, H. Nakatsuji, X. Li, M. Caricato, A. V. Marenich, 
 J. Bloino, B. G. Janesko, R. Gomperts, B. Mennucci, H. P. Hratchian, 
 J. V. Ortiz, A. F. Izmaylov, J. L. Sonnenberg, D. Williams-Young, 
 F. Ding, F. Lipparini, F. Egidi, J. Goings, B. Peng, A. Petrone, 
 T. Henderson, D. Ranasinghe, V. G. Zakrzewski, J. Gao, N. Rega, 
 G. Zheng, W. Liang, M. Hada, M. Ehara, K. Toyota, R. Fukuda, 
 J. Hasegawa, M. Ishida, T. Nakajima, Y. Honda, O. Kitao, H. Nakai, 
 T. Vreven, K. Throssell, J. A. Montgomery, Jr., J. E. Peralta, 
 F. Ogliaro, M. J. Bearpark, J. J. Heyd, E. N. Brothers, K. N. Kudin, 
 V. N. Staroverov, T. A. Keith, R. Kobayashi, J. Normand, 
 K. Raghavachari, A. P. Rendell, J. C. Burant, S. S. Iyengar, 
 J. Tomasi, M. Cossi, J. M. Millam, M. Klene, C. Adamo, R. Cammi, 
 J. W. Ochterski, R. L. Martin, K. Morokuma, O. Farkas, 
 J. B. Foresman, and D. J. Fox, Gaussian, Inc., Wallingford CT, 2019.
 
 ******************************************
 Gaussian 16:  ES64L-G16RevC.01  3-Jul-2019
                11-Nov-2021 
 ******************************************
 %chk=_1_alde1_2_ami2_2_opt_dcm_mp2.chk
 %mem=60000mb
 %nprocshared=32
 Will use up to   32 processors via shared memory.
 ----------------------------------------------------------------------
 #P MP2/aug-cc-pVDZ SP SCF=(YQC,MaxCycle=900) int=(Grid=Superfinegrid) 
 SCRF=(PCM,Solvent=Dichloromethane)
 ----------------------------------------------------------------------
 1/38=1,172=1/1;
 2/12=2,17=6,18=5,40=1/2;
 3/5=16,7=10,11=9,25=1,30=1,70=2201,72=9,75=-7/1,2,3;
 4//1;
 5/5=2,7=900,8=4,13=1,38=1,53=9/8,2,8;
 8/10=1/1;
 9/16=-3/6;
 6/7=2,8=2,9=2,10=2/1;
 99/5=1,9=1/99;
 Leave Link    1 at Thu Nov 11 17:46:40 2021, MaxMem=  7864320000 cpu:               6.7 elap:               0.2
 (Enter /apps/gaussian/g16-c01-avx/g16/l101.exe)
 -----------------------------
 _1_alde1_2_ami2_2_opt_dcm_mp2
 -----------------------------
 Symbolic Z-matrix:
 Charge =  0 Multiplicity = 1
 C                    -2.1249    1.4052    0.3148 
 C                    -2.8063    0.6719    1.3915 
 C                    -2.8578    2.0313   -0.6864 
 C                    -2.2073    2.7281   -1.7051 
 H                    -3.9364    1.9933   -0.6917 
 C                    -0.8176    2.7882   -1.7064 
 C                    -0.0693    2.1644   -0.7072 
 H                    -0.2889    3.3233   -2.4809 
 C                    -0.7312    1.4737    0.3013 
 C                     1.3854    2.2339   -0.7155 
 H                    -0.1826    0.9796    1.0903 
 C                    -2.9691    3.3879   -2.7568 
 O                    -2.2577    0.1035    2.3 
 C                    -4.9555    3.977    -3.8326 
 C                    -5.7917    2.914    -4.609 
 N                    -4.2299    3.3519   -2.7815 
 N                    -6.6453    2.1401   -3.7274 
 C                     3.9768    2.2004   -2.9253 
 C                     3.4353    2.8762   -1.6284 
 N                     3.3998    2.7798   -4.1242 
 N                     2.0134    2.8466   -1.6222 
 H                    -3.9109    0.68      1.3042 
 H                     3.6267    3.7666   -4.185 
 H                     2.3896    2.6973   -4.0882 
 H                    -7.3033    2.7458   -3.2488 
 H                    -6.0789    1.6814   -3.0222 
 H                    -2.3776    3.9204   -3.5171 
 H                     1.8949    1.7262    0.1172 
 C                    -4.8475    1.9449   -5.323 
 C                     5.4936    2.386    -2.9809 
 H                     3.7373    3.9292   -1.6434 
 H                     3.8782    2.3895   -0.7439 
 H                     5.8763    1.9351   -3.8921 
 H                     5.9708    1.9158   -2.1253 
 H                     5.7511    3.4432   -2.9854 
 H                    -5.6526    4.6837   -3.3692 
 H                    -4.306     4.5243   -4.5357 
 H                    -4.2354    2.4708   -6.0512 
 H                    -5.4315    1.1842   -5.8329 
 H                    -4.1941    1.4548   -4.6041 
 C                    -6.6761    3.6325   -5.6288 
 H                    -7.345     4.3318   -5.1316 
 H                    -7.2775    2.9001   -6.1598 
 H                    -6.0706    4.1806   -6.3457 
 C                     3.6303    0.7104   -2.9066 
 H                     2.5534    0.5732   -2.8349 
 H                     4.1035    0.2165   -2.0617 
 H                     3.9764    0.2491   -3.827 
 
 ITRead=  0  0  0  0  0  0  0  0  0  0  0  0  0  0  0  0  0  0  0  0
 ITRead=  0  0  0  0  0  0  0  0  0  0  0  0  0  0  0  0  0  0  0  0
 ITRead=  0  0  0  0  0  0  0  0
 MicOpt= -1 -1 -1 -1 -1 -1 -1 -1 -1 -1 -1 -1 -1 -1 -1 -1 -1 -1 -1 -1
 MicOpt= -1 -1 -1 -1 -1 -1 -1 -1 -1 -1 -1 -1 -1 -1 -1 -1 -1 -1 -1 -1
 MicOpt= -1 -1 -1 -1 -1 -1 -1 -1
 NAtoms=     48 NQM=       48 NQMF=       0 NMMI=      0 NMMIF=      0
                NMic=       0 NMicF=      0.
                    Isotopes and Nuclear Properties:
 (Nuclear quadrupole moments (NQMom) in fm**2, nuclear magnetic moments (NMagM)
  in nuclear magnetons)

  Atom         1           2           3           4           5           6           7           8           9          10
 IAtWgt=          12          12          12          12           1          12          12           1          12          12
 AtmWgt=  12.0000000  12.0000000  12.0000000  12.0000000   1.0078250  12.0000000  12.0000000   1.0078250  12.0000000  12.0000000
 NucSpn=           0           0           0           0           1           0           0           1           0           0
 AtZEff=  -0.0000000  -0.0000000  -0.0000000  -0.0000000  -0.0000000  -0.0000000  -0.0000000  -0.0000000  -0.0000000  -0.0000000
 NQMom=    0.0000000   0.0000000   0.0000000   0.0000000   0.0000000   0.0000000   0.0000000   0.0000000   0.0000000   0.0000000
 NMagM=    0.0000000   0.0000000   0.0000000   0.0000000   2.7928460   0.0000000   0.0000000   2.7928460   0.0000000   0.0000000
 AtZNuc=   6.0000000   6.0000000   6.0000000   6.0000000   1.0000000   6.0000000   6.0000000   1.0000000   6.0000000   6.0000000

  Atom        11          12          13          14          15          16          17          18          19          20
 IAtWgt=           1          12          16          12          12          14          14          12          12          14
 AtmWgt=   1.0078250  12.0000000  15.9949146  12.0000000  12.0000000  14.0030740  14.0030740  12.0000000  12.0000000  14.0030740
 NucSpn=           1           0           0           0           0           2           2           0           0           2
 AtZEff=  -0.0000000  -0.0000000  -0.0000000  -0.0000000  -0.0000000  -0.0000000  -0.0000000  -0.0000000  -0.0000000  -0.0000000
 NQMom=    0.0000000   0.0000000   0.0000000   0.0000000   0.0000000   2.0440000   2.0440000   0.0000000   0.0000000   2.0440000
 NMagM=    2.7928460   0.0000000   0.0000000   0.0000000   0.0000000   0.4037610   0.4037610   0.0000000   0.0000000   0.4037610
 AtZNuc=   1.0000000   6.0000000   8.0000000   6.0000000   6.0000000   7.0000000   7.0000000   6.0000000   6.0000000   7.0000000

  Atom        21          22          23          24          25          26          27          28          29          30
 IAtWgt=          14           1           1           1           1           1           1           1          12          12
 AtmWgt=  14.0030740   1.0078250   1.0078250   1.0078250   1.0078250   1.0078250   1.0078250   1.0078250  12.0000000  12.0000000
 NucSpn=           2           1           1           1           1           1           1           1           0           0
 AtZEff=  -0.0000000  -0.0000000  -0.0000000  -0.0000000  -0.0000000  -0.0000000  -0.0000000  -0.0000000  -0.0000000  -0.0000000
 NQMom=    2.0440000   0.0000000   0.0000000   0.0000000   0.0000000   0.0000000   0.0000000   0.0000000   0.0000000   0.0000000
 NMagM=    0.4037610   2.7928460   2.7928460   2.7928460   2.7928460   2.7928460   2.7928460   2.7928460   0.0000000   0.0000000
 AtZNuc=   7.0000000   1.0000000   1.0000000   1.0000000   1.0000000   1.0000000   1.0000000   1.0000000   6.0000000   6.0000000

  Atom        31          32          33          34          35          36          37          38          39          40
 IAtWgt=           1           1           1           1           1           1           1           1           1           1
 AtmWgt=   1.0078250   1.0078250   1.0078250   1.0078250   1.0078250   1.0078250   1.0078250   1.0078250   1.0078250   1.0078250
 NucSpn=           1           1           1           1           1           1           1           1           1           1
 AtZEff=  -0.0000000  -0.0000000  -0.0000000  -0.0000000  -0.0000000  -0.0000000  -0.0000000  -0.0000000  -0.0000000  -0.0000000
 NQMom=    0.0000000   0.0000000   0.0000000   0.0000000   0.0000000   0.0000000   0.0000000   0.0000000   0.0000000   0.0000000
 NMagM=    2.7928460   2.7928460   2.7928460   2.7928460   2.7928460   2.7928460   2.7928460   2.7928460   2.7928460   2.7928460
 AtZNuc=   1.0000000   1.0000000   1.0000000   1.0000000   1.0000000   1.0000000   1.0000000   1.0000000   1.0000000   1.0000000

  Atom        41          42          43          44          45          46          47          48
 IAtWgt=          12           1           1           1          12           1           1           1
 AtmWgt=  12.0000000   1.0078250   1.0078250   1.0078250  12.0000000   1.0078250   1.0078250   1.0078250
 NucSpn=           0           1           1           1           0           1           1           1
 AtZEff=  -0.0000000  -0.0000000  -0.0000000  -0.0000000  -0.0000000  -0.0000000  -0.0000000  -0.0000000
 NQMom=    0.0000000   0.0000000   0.0000000   0.0000000   0.0000000   0.0000000   0.0000000   0.0000000
 NMagM=    0.0000000   2.7928460   2.7928460   2.7928460   0.0000000   2.7928460   2.7928460   2.7928460
 AtZNuc=   6.0000000   1.0000000   1.0000000   1.0000000   6.0000000   1.0000000   1.0000000   1.0000000
 Leave Link  101 at Thu Nov 11 17:46:40 2021, MaxMem=  7864320000 cpu:               1.9 elap:               0.1
 (Enter /apps/gaussian/g16-c01-avx/g16/l202.exe)
                          Input orientation:                          
 ---------------------------------------------------------------------
 Center     Atomic      Atomic             Coordinates (Angstroms)
 Number     Number       Type             X           Y           Z
 ---------------------------------------------------------------------
      1          6           0       -2.124900    1.405200    0.314800
      2          6           0       -2.806300    0.671900    1.391500
      3          6           0       -2.857800    2.031300   -0.686400
      4          6           0       -2.207300    2.728100   -1.705100
      5          1           0       -3.936400    1.993300   -0.691700
      6          6           0       -0.817600    2.788200   -1.706400
      7          6           0       -0.069300    2.164400   -0.707200
      8          1           0       -0.288900    3.323300   -2.480900
      9          6           0       -0.731200    1.473700    0.301300
     10          6           0        1.385400    2.233900   -0.715500
     11          1           0       -0.182600    0.979600    1.090300
     12          6           0       -2.969100    3.387900   -2.756800
     13          8           0       -2.257700    0.103500    2.300000
     14          6           0       -4.955500    3.977000   -3.832600
     15          6           0       -5.791700    2.914000   -4.609000
     16          7           0       -4.229900    3.351900   -2.781500
     17          7           0       -6.645300    2.140100   -3.727400
     18          6           0        3.976800    2.200400   -2.925300
     19          6           0        3.435300    2.876200   -1.628400
     20          7           0        3.399800    2.779800   -4.124200
     21          7           0        2.013400    2.846600   -1.622200
     22          1           0       -3.910900    0.680000    1.304200
     23          1           0        3.626700    3.766600   -4.185000
     24          1           0        2.389600    2.697300   -4.088200
     25          1           0       -7.303300    2.745800   -3.248800
     26          1           0       -6.078900    1.681400   -3.022200
     27          1           0       -2.377600    3.920400   -3.517100
     28          1           0        1.894900    1.726200    0.117200
     29          6           0       -4.847500    1.944900   -5.323000
     30          6           0        5.493600    2.386000   -2.980900
     31          1           0        3.737300    3.929200   -1.643400
     32          1           0        3.878200    2.389500   -0.743900
     33          1           0        5.876300    1.935100   -3.892100
     34          1           0        5.970800    1.915800   -2.125300
     35          1           0        5.751100    3.443200   -2.985400
     36          1           0       -5.652600    4.683700   -3.369200
     37          1           0       -4.306000    4.524300   -4.535700
     38          1           0       -4.235400    2.470800   -6.051200
     39          1           0       -5.431500    1.184200   -5.832900
     40          1           0       -4.194100    1.454800   -4.604100
     41          6           0       -6.676100    3.632500   -5.628800
     42          1           0       -7.345000    4.331800   -5.131600
     43          1           0       -7.277500    2.900100   -6.159800
     44          1           0       -6.070600    4.180600   -6.345700
     45          6           0        3.630300    0.710400   -2.906600
     46          1           0        2.553400    0.573200   -2.834900
     47          1           0        4.103500    0.216500   -2.061700
     48          1           0        3.976400    0.249100   -3.827000
 ---------------------------------------------------------------------
                    Distance matrix (angstroms):
                    1          2          3          4          5
     1  C    0.000000
     2  C    1.470142   0.000000
     3  C    1.389800   2.483604   0.000000
     4  C    2.415957   3.765062   1.395145   0.000000
     5  H    2.154167   2.713475   1.079282   2.134642   0.000000
     6  C    2.776143   4.246250   2.403271   1.391000   3.374670
     7  C    2.417925   3.758094   2.791752   2.425821   3.870914
     8  H    3.855638   5.325665   3.389505   2.153227   4.274856
     9  C    1.395448   2.477390   2.410165   2.788912   3.395488
    10  C    3.751062   4.944658   4.248134   3.759127   5.327289
    11  H    2.134260   2.658797   3.379265   3.869228   4.277163
    12  C    3.752133   4.961003   2.477763   1.456622   2.673054
    13  O    2.377620   1.203916   3.604874   4.788725   3.916586
    14  C    5.641576   6.544766   4.252607   3.693049   3.852127
    15  C    6.321844   7.067222   4.977320   4.616830   4.431147
    16  N    4.219922   5.159745   2.831269   2.374589   2.509821
    17  N    6.108476   6.564805   4.858464   4.912360   4.071261
    18  C    6.954231   8.184224   7.193958   6.325381   8.224998
    19  C    6.070889   7.275734   6.419060   5.645064   7.483240
    20  N    7.219180   8.566322   7.178877   6.106905   8.137596
    21  N    4.791151   6.086150   5.026831   4.223177   6.082275
    22  H    2.166708   1.108074   2.626313   4.019061   2.389356
    23  H    7.674980   9.058588   7.569690   6.423702   8.517524
    24  H    6.437130   7.818359   6.288959   5.177992   7.214576
    25  H    6.427463   6.786491   5.180625   5.324710   4.294302
    26  H    5.181310   5.586569   3.994230   4.221329   3.181009
    27  H    4.590593   5.901770   3.436881   2.175759   3.758518
    28  H    4.037435   4.983640   4.829805   4.599198   5.893193
    29  C    6.283997   7.132429   5.046229   4.546786   4.720316
    30  C    8.358538   9.536475   8.668127   7.813358   9.711825
    31  H    6.676115   7.914501   6.929157   6.065041   7.971143
    32  H    6.174699   7.224446   6.745762   6.170240   7.824811
    33  H    9.055275  10.242053   9.304315   8.411683  10.321581
    34  H    8.470842   9.536910   8.945834   8.229078  10.010686
    35  H    8.779302  10.003322   9.021753   8.092383  10.060364
    36  H    6.063422   6.845453   4.695056   4.296940   4.165645
    37  H    6.165495   7.226464   4.809308   3.955145   4.617240
    38  H    6.790852   7.789233   5.556260   4.802914   5.389030
    39  H    6.984029   7.703641   5.816182   5.460570   5.414970
    40  H    5.336631   6.203720   4.179285   3.738030   3.957684
    41  C    7.810292   8.545473   6.447525   6.015275   5.879446
    42  H    8.091829   8.749028   6.722133   6.380338   6.066288
    43  H    8.408594   9.054205   7.088488   6.751360   6.471889
    44  H    8.223968   9.101148   6.853412   6.210476   6.427037
    45  C    6.631930   7.739830   6.983517   6.292240   7.987901
    46  H    5.700818   6.826315   6.001932   5.346429   6.980508
    47  H    6.771538   7.738043   7.324251   6.801580   8.347090
    48  H    7.464378   8.568344   7.729547   6.991856   8.688196
                    6          7          8          9         10
     6  C    0.000000
     7  C    1.395521   0.000000
     8  H    1.079679   2.130090   0.000000
     9  C    2.401299   1.390054   3.370057   0.000000
    10  C    2.478375   1.456383   2.665841   2.468154   0.000000
    11  H    3.390544   2.155828   4.272903   1.080564   2.700520
    12  C    2.468184   3.755882   2.695137   4.245507   4.945735
    13  O    5.033164   4.252018   6.091001   2.863992   5.186909
    14  C    4.801686   6.076890   4.902201   6.418750   7.277481
    15  C    5.760433   6.966477   5.914148   7.196817   8.193451
    16  N    3.621794   4.798278   3.952551   5.027146   6.086861
    17  N    6.202142   7.236434   6.584645   7.186869   8.577440
    18  C    4.981716   4.614346   4.433350   5.753634   3.405832
    19  C    4.254525   3.692897   3.846599   4.801091   2.334101
    20  N    4.861305   4.908081   4.074596   6.193231   3.996880
    21  N    2.832854   2.374923   2.503037   3.621814   1.261701
    22  H    4.803824   4.583346   5.867955   3.427282   5.877464
    23  H    5.181942   5.321894   4.293297   6.661499   4.405681
    24  H    3.995919   4.214420   3.185852   5.523070   3.549403
    25  H    6.666716   7.689507   7.079900   7.577199   9.064941
    26  H    5.535125   6.458158   6.042594   6.299737   7.832107
    27  H    2.644638   4.038233   2.406846   4.824640   4.985320
    28  H    3.436716   2.174796   3.750978   2.644627   1.100336
    29  C    5.480059   6.647179   5.546021   6.985607   7.756392
    30  C    6.451152   6.013707   5.879272   7.096003   4.693877
    31  H    4.696058   4.298976   4.156779   5.456998   3.044088
    32  H    4.809980   3.954083   4.610192   4.814322   2.497813
    33  H    7.093191   6.748802   6.475205   7.839423   5.508925
    34  H    6.857035   6.209317   6.425835   7.141474   4.807766
    35  H    6.724038   6.379857   6.062219   7.530043   5.066970
    36  H    5.452985   6.678799   5.604377   6.927976   7.910568
    37  H    4.815383   6.178687   4.669229   6.744029   7.227164
    38  H    5.537092   6.782964   5.389681   7.323106   7.753658
    39  H    6.394442   7.482432   6.500614   7.733372   8.588351
    40  H    4.644930   5.718683   4.821811   6.004580   6.845365
    41  C    7.100710   8.368230   7.127496   8.669968   9.543814
    42  H    7.531377   8.786851   7.604724   9.023718  10.006148
    43  H    7.847012   9.068090   7.909104   9.307764  10.253295
    44  H    7.145341   8.477815   7.007118   8.945340   9.543622
    45  C    5.053865   4.542963   4.729545   5.467717   3.487341
    46  H    4.188482   3.733307   3.970773   4.629822   2.934962
    47  H    5.563911   4.800130   5.396398   5.526178   3.642832
    48  H    5.824638   5.456117   5.427290   6.379969   4.509340
                   11         12         13         14         15
    11  H    0.000000
    12  C    5.325849   0.000000
    13  O    2.556749   6.071622   0.000000
    14  C    7.483310   2.334560   7.738922   0.000000
    15  C    8.227146   3.409149   8.253626   1.559486   0.000000
    16  N    6.082703   1.261556   6.345338   1.421990   2.443508
    17  N    8.143923   4.001689   7.728410   2.498138   1.450783
    18  C    5.908977   7.048693   8.400580   9.152349   9.938192
    19  C    4.906895   6.523148   7.451875   8.745043   9.696542
    20  N    6.577638   6.542359   8.968848   8.445671   9.205255
    21  N    3.958000   5.138641   6.414869   7.397921   8.357338
    22  H    3.746430   4.971059   2.014210   6.192585   6.595006
    23  H    7.078625   6.759271   9.492086   8.592009   9.466412
    24  H    6.031879   5.564640   8.314704   7.460124   8.200723
    25  H    8.523592   4.409041   7.951667   2.714561   2.040434
    26  H    7.222986   3.557167   6.739225   2.681148   2.029710
    27  H    5.890201   1.100675   6.958574   2.597751   3.723059
    28  H    2.412538   5.888940   4.964057   8.221618   9.101190
    29  C    7.988962   3.492280   8.258810   2.522377   1.529858
    30  C    7.125439   8.524747   9.652998  10.603790  11.414355
    31  H    5.615948   6.819712   8.131815   8.964355  10.031314
    32  H    4.673564   7.206531   7.220830   9.491811  10.426939
    33  H    7.902377   9.035521  10.385510  11.022740  11.730917
    34  H    7.005775   9.082273   9.517138  11.249331  12.063232
    35  H    7.608512   8.723371  10.160213  10.753324  11.668434
    36  H    7.970470   3.042253   8.040112   1.095497   2.165246
    37  H    7.824270   2.498638   8.394391   1.102605   2.192201
    38  H    8.345651   3.646596   8.902693   2.776575   2.167588
    39  H    8.690426   4.514654   8.796873   3.468070   2.149391
    40  H    6.981700   2.941091   7.296729   2.745257   2.163704
    41  C    9.713379   4.695749   9.738684   2.511071   1.529182
    42  H   10.062269   5.067457   9.949262   2.742808   2.167028
    43  H   10.324237   5.511866  10.226807   3.459372   2.147737
    44  H   10.010447   4.809145  10.291214   2.756914   2.167530
    45  C    5.530451   7.123449   7.883245   9.232774   9.824872
    46  H    4.801880   6.198923   7.052269   8.304507   8.846890
    47  H    5.374763   7.782198   7.713758   9.967092  10.567887
    48  H    6.481570   7.696581   8.742158   9.678642  10.155245
                   16         17         18         19         20
    16  N    0.000000
    17  N    2.863100   0.000000
    18  C    8.288339  10.652512   0.000000
    19  C    7.766030  10.323088   1.559448   0.000000
    20  N    7.768041  10.073267   1.451205   2.497913   0.000000
    21  N    6.370094   8.938909   2.443478   1.422222   2.861218
    22  H    4.892214   5.909808   9.078331   8.209147   9.344679
    23  H    7.991743  10.410038   2.040195   2.713973   1.014374
    24  H    6.778919   9.059253   2.029396   2.678826   1.014202
    25  H    3.167257   1.014344  11.297910  10.860950  10.738893
    26  H    2.503459   1.014161  10.069551   9.689697   9.605553
    27  H    2.072514   4.628926   6.609616   6.200593   5.920126
    28  H    6.968396   9.374822   3.716985   2.596623   4.622150
    29  C    2.969899   2.411665   9.147815   9.117136   8.375687
    30  C    9.773391  12.164318   1.529124   2.511205   2.417894
    31  H    8.068756  10.739754   2.165497   1.095554   2.754886
    32  H    8.415421  10.941093   2.191800   1.102442   3.436223
    33  H   10.265283  12.524361   2.147833   3.459550   2.626869
    34  H   10.322173  12.719395   2.167264   2.756454   3.369293
    35  H    9.983500  12.486768   2.167096   2.743331   2.695473
    36  H    2.035475   2.753845   9.954354   9.428010   9.281207
    37  H    2.111286   3.436580   8.752067   8.431865   7.911508
    38  H    3.386341   3.364079   8.791166   8.863698   7.880678
    39  H    3.931133   2.611548   9.899642   9.957953   9.135505
    40  H    2.630996   2.691955   8.374837   8.311613   7.723551
    41  C    3.764273   2.417339  11.083506  10.900257  10.223242
    42  H    4.023310   2.695349  11.730038  11.428300  10.902948
    43  H    4.572188   2.625614  11.730765  11.631777  10.870275
    44  H    4.096150   3.368889  10.796785  10.691890   9.827806
    45  C    8.293125  10.407003   1.529873   2.522402   2.412073
    46  H    7.330565   9.373783   2.163797   2.745396   2.692168
    47  H    8.932771  11.045881   2.167422   2.776372   3.364462
    48  H    8.835372  10.789176   2.149566   3.468182   2.612516
                   21         22         23         24         25
    21  N    0.000000
    22  H    6.953798   0.000000
    23  H    3.164977   9.822109   0.000000
    24  H    2.498994   8.534857   1.638044   0.000000
    25  H    9.458165   6.041996  11.017414   9.729299   0.000000
    26  H    8.294758   4.941737   9.994940   8.595575   1.638124
    27  H    4.901487   6.008006   6.043291   4.954627   5.070916
    28  H    2.072402   6.017542   5.066684   4.344324   9.847661
    29  C    7.847352   6.811532   8.742179   7.380139   3.312808
    30  C    3.764307  10.474595   2.615574   3.310262  12.804760
    31  H    2.035756   8.817064   2.549196   3.051380  11.219296
    32  H    2.111357   8.233297   3.714946   3.673556  11.464180
    33  H    4.572229  11.151955   2.915627   3.574420  13.220171
    34  H    4.096402  10.532648   3.628034   4.157970  13.347392
    35  H    4.023015  10.926582   2.461037   3.615552  13.075668
    36  H    8.074311   6.395608   9.360129   8.315030   2.548483
    37  H    7.158071   7.002798   7.976517   6.954800   3.715236
    38  H    7.668427   7.577214   8.183790   6.913414   4.164262
    39  H    8.713214   7.314686   9.562183   8.154941   3.552436
    40  H    7.025802   5.965612   8.166087   6.719752   3.629138
    41  C    9.600932   8.026835  10.404337   9.243104   2.616107
    42  H   10.104522   8.157708  11.026953   9.925861   2.462127
    43  H   10.339898   8.483757  11.115405   9.888654   2.915201
    44  H    9.457381   8.685590   9.943724   8.880961   3.628910
    45  C    2.971094   8.637214   3.312805   2.623602  11.126705
    46  H    2.632601   7.676635   3.629400   2.471718  10.101784
    47  H    3.388083   8.704868   4.164007   3.632977  11.744005
    48  H    3.932114   9.419362   3.552923   2.929137  11.567172
                   26         27         28         29         30
    26  H    0.000000
    27  H    4.354041   0.000000
    28  H    8.569675   6.023031   0.000000
    29  C    2.622872   3.642016   8.666231   0.000000
    30  C   11.594004   8.037268   4.794184  10.612179   0.000000
    31  H   10.164225   6.395532   3.368584   9.548596   2.693504
    32  H   10.238940   7.012084   2.261623   9.864262   2.759293
    33  H   11.989491   8.497582   5.654173  10.818847   1.086304
    34  H   12.085307   8.697776   4.655933  11.281035   1.086673
    35  H   11.960526   8.160036   5.238749  10.956258   1.088117
    36  H    3.052203   3.366025   8.824202   3.459270  11.387185
    37  H    3.676403   2.262956   8.241966   2.750703  10.149970
    38  H    3.632697   3.460408   8.728354   1.086974  10.202322
    39  H    2.926836   4.709143   9.453761   1.086148  11.355001
    40  H    2.471078   3.249681   7.709750   1.088093   9.866785
    41  C    3.310257   4.797840  10.493452   2.507047  12.516658
    42  H    3.616241   5.239363  10.941426   3.459976  13.162116
    43  H    3.573011   5.659849  11.176390   2.741814  13.170828
    44  H    4.158332   4.659070  10.547149   2.745950  12.176748
    45  C    9.758318   6.838982   3.631367   8.901465   2.506999
    46  H    8.705159   5.998659   3.236962   7.927517   3.457215
    47  H   10.331978   7.605375   3.450321   9.682141   2.735697
    48  H   10.188633   7.344916   4.697997   9.109059   2.753929
                   31         32         33         34         35
    31  H    0.000000
    32  H    1.788751   0.000000
    33  H    3.688958   3.756334   0.000000
    34  H    3.045411   2.551790   1.769431   0.000000
    35  H    2.468309   3.105215   1.764127   1.766633   0.000000
    36  H    9.576945  10.148483  11.863548  12.012992  11.477392
    37  H    8.568210   9.269102  10.526035  10.873220  10.233155
    38  H    9.226027   9.695594  10.353510  10.949303  10.491657
    39  H   10.447671  10.678070  11.497691  12.012243  11.758481
    40  H    8.820176   8.996490  10.106957  10.472925  10.270391
    41  C   11.153938  11.696177  12.785149  13.235016  12.706640
    42  H   11.625274  12.205927  13.493825  13.863096  13.300512
    43  H   11.949173  12.411379  13.382681  13.883929  13.420737
    44  H   10.879785  11.557111  12.401244  12.959028  12.312106
    45  C    3.459450   2.749200   2.741462   2.746154   3.460086
    46  H    3.752869   3.070232   3.743542   3.739616   4.299399
    47  H    3.754094   2.551330   3.073560   2.525564   3.738904
    48  H    4.285839   3.754525   2.540955   3.106655   3.749683
                   36         37         38         39         40
    36  H    0.000000
    37  H    1.788704   0.000000
    38  H    3.754798   2.553152   0.000000
    39  H    4.285464   3.755762   1.770212   0.000000
    40  H    3.752065   3.072301   1.768632   1.764747   0.000000
    41  C    2.694135   2.758179   2.735870   2.754062   3.457269
    42  H    2.468624   3.102849   3.738796   3.749759   4.299251
    43  H    3.689035   3.755734   3.074161   2.541435   3.743855
    44  H    3.047521   2.551087   2.525491   3.106417   3.739573
    45  C   10.108083   8.954589   8.651980   9.534356   8.040950
    46  H    9.193483   8.096622   7.748114   8.551021   7.031077
    47  H   10.809575   9.767165   9.515000  10.299253   8.766262
    48  H   10.610980   9.347606   8.792990   9.664711   8.295461
                   41         42         43         44         45
    41  C    0.000000
    42  H    1.087959   0.000000
    43  H    1.086302   1.763949   0.000000
    44  H    1.086733   1.766634   1.769420   0.000000
    45  C   11.053096  11.769553  11.591298  10.861729   0.000000
    46  H   10.116762  10.834216  10.635601   9.985611   1.087970
    47  H   11.857193  12.547037  12.390452  11.729410   1.087066
    48  H   11.321203  12.105557  11.794915  11.078933   1.086149
                   46         47         48
    46  H    0.000000
    47  H    1.768582   0.000000
    48  H    1.764719   1.770170   0.000000
 Stoichiometry    C17H26N4O
 Framework group  C1[X(C17H26N4O)]
 Deg. of freedom   138
 Full point group                 C1      NOp   1
 Largest Abelian subgroup         C1      NOp   1
 Largest concise Abelian subgroup C1      NOp   1
                         Standard orientation:                         
 ---------------------------------------------------------------------
 Center     Atomic      Atomic             Coordinates (Angstroms)
 Number     Number       Type             X           Y           Z
 ---------------------------------------------------------------------
      1          6           0       -0.418655    2.824876    0.044975
      2          6           0       -0.849522    4.185819    0.396407
      3          6           0       -1.356420    1.831369   -0.210148
      4          6           0       -0.943280    0.541703   -0.545568
      5          1           0       -2.414191    2.039220   -0.157550
      6          6           0        0.417372    0.262802   -0.621216
      7          6           0        1.369753    1.250853   -0.367828
      8          1           0        0.764619   -0.725757   -0.881745
      9          6           0        0.943216    2.531218   -0.034690
     10          6           0        2.792371    0.950361   -0.450979
     11          1           0        1.653820    3.319767    0.167423
     12          6           0       -1.920575   -0.504091   -0.815675
     13          8           0       -0.112961    5.109090    0.629778
     14          6           0       -4.099896   -1.321946   -0.994119
     15          6           0       -4.976335   -1.550069    0.275452
     16          7           0       -3.160821   -0.281009   -0.756114
     17          7           0       -5.606844   -0.325547    0.731276
     18          6           0        4.961820   -1.575489    0.265448
     19          6           0        4.602487   -0.484000   -0.788787
     20          7           0        4.146754   -2.766943    0.116781
     21          7           0        3.208798   -0.204253   -0.743120
     22          1           0       -1.950289    4.307616    0.432534
     23          1           0        4.286647   -3.179512   -0.799281
     24          1           0        3.166537   -2.519272    0.197025
     25          1           0       -6.215785    0.049185    0.011789
     26          1           0       -4.895726    0.370528    0.927011
     27          1           0       -1.509004   -1.490307   -1.079248
     28          1           0        3.473056    1.791136   -0.249721
     29          6           0       -4.099848   -2.081321    1.411237
     30          6           0        6.428795   -1.968431    0.087121
     31          1           0        4.819143   -0.889019   -1.783401
     32          1           0        5.225078    0.410644   -0.623348
     33          1           0        6.681706   -2.743333    0.805188
     34          1           0        7.078915   -1.112283    0.245913
     35          1           0        6.603225   -2.356744   -0.914270
     36          1           0       -4.757287   -0.986190   -1.803574
     37          1           0       -3.622625   -2.270485   -1.291141
     38          1           0       -3.662049   -3.039430    1.143147
     39          1           0       -4.705059   -2.204760    2.304657
     40          1           0       -3.298598   -1.378712    1.630978
     41          6           0       -6.072926   -2.562063   -0.058843
     42          1           0       -6.696272   -2.197779   -0.872718
     43          1           0       -6.700932   -2.710880    0.814950
     44          1           0       -5.641307   -3.515500   -0.351511
     45          6           0        4.734229   -1.019773    1.672534
     46          1           0        3.698628   -0.709107    1.793763
     47          1           0        5.380328   -0.165291    1.857273
     48          1           0        4.950370   -1.793110    2.403939
 ---------------------------------------------------------------------
 Rotational constants (GHZ):           0.3261128           0.1151022           0.0901901
 Leave Link  202 at Thu Nov 11 17:46:40 2021, MaxMem=  7864320000 cpu:               0.2 elap:               0.0
 (Enter /apps/gaussian/g16-c01-avx/g16/l301.exe)
 Standard basis: Aug-CC-pVDZ (5D, 7F)
 Ernie: Thresh=  0.10000D-02 Tol=  0.10000D-05 Strict=F.
 Ernie:  44 primitive shells out of 732 were deleted.
 There are   784 symmetry adapted cartesian basis functions of A   symmetry.
 There are   740 symmetry adapted basis functions of A   symmetry.
   740 basis functions,  1232 primitive gaussians,   784 cartesian basis functions
    82 alpha electrons       82 beta electrons
       nuclear repulsion energy      1707.5400818421 Hartrees.
 IExCor=    0 DFT=F Ex=HF Corr=None ExCW=0 ScaHFX=  1.000000
 ScaDFX=  1.000000  1.000000  1.000000  1.000000 ScalE2=  1.000000  1.000000
 IRadAn=      7 IRanWt=     -1 IRanGd=            0 ICorTp=0 IEmpDi=  4
 NAtoms=   48 NActive=   48 NUniq=   48 SFac= 1.00D+00 NAtFMM=   60 NAOKFM=F Big=F
 Integral buffers will be    131072 words long.
 Raffenetti 1 integral format.
 Two-electron integral symmetry is turned on.
 ------------------------------------------------------------------------------
 Polarizable Continuum Model (PCM)
 =================================
 Model                : PCM.
 Atomic radii         : UFF (Universal Force Field).
 Polarization charges : Total charges.
 Charge compensation  : None.
 Solution method      : On-the-fly selection.
 Cavity type          : Scaled VdW (van der Waals Surface) (Alpha=1.100).
 Cavity algorithm     : GePol (No added spheres)
                        Default sphere list used, NSphG=   48.
                        Lebedev-Laikov grids with approx.  5.0 points / Ang**2.
                        Smoothing algorithm: York/Karplus (Gamma=1.0000).
                        Polarization charges: spherical gaussians, with
                                              point-specific exponents (IZeta= 3).
                        Self-potential: point-specific (ISelfS= 7).
                        Self-field    : sphere-specific E.n sum rule (ISelfD= 2).
 Solvent              : Dichloromethane, Eps=   8.930000 Eps(inf)=   2.028346
 ------------------------------------------------------------------------------
 GePol: Number of generator spheres                  =      48
 GePol: Total number of spheres                      =      48
 GePol: Number of exposed spheres                    =      47 ( 97.92%)
 GePol: Number of points                             =    3294
 GePol: Average weight of points                     =       0.13
 GePol: Minimum weight of points                     =   0.10D-09
 GePol: Maximum weight of points                     =    0.20577
 GePol: Number of points with low weight             =     201
 GePol: Fraction of low-weight points (<1% of avg)   =       6.10%
 GePol: Cavity surface area                          =    435.983 Ang**2
 GePol: Cavity volume                                =    468.684 Ang**3
 Leave Link  301 at Thu Nov 11 17:46:40 2021, MaxMem=  7864320000 cpu:               1.2 elap:               0.1
 (Enter /apps/gaussian/g16-c01-avx/g16/l302.exe)
 NPDir=0 NMtPBC=     1 NCelOv=     1 NCel=       1 NClECP=     1 NCelD=      1
         NCelK=      1 NCelE2=     1 NClLst=     1 CellRange=     0.0.
 One-electron integrals computed using PRISM.
 One-electron integral symmetry used in STVInt
 NBasis=   740 RedAO= T EigKep=  1.30D-06  NBF=   740
 NBsUse=   738 1.00D-06 EigRej=  9.94D-07 NBFU=   738
 Leave Link  302 at Thu Nov 11 17:46:41 2021, MaxMem=  7864320000 cpu:              31.8 elap:               1.1
 (Enter /apps/gaussian/g16-c01-avx/g16/l303.exe)
 DipDrv:  MaxL=1.
 Leave Link  303 at Thu Nov 11 17:46:42 2021, MaxMem=  7864320000 cpu:               4.1 elap:               0.2
 (Enter /apps/gaussian/g16-c01-avx/g16/l401.exe)
 ExpMin= 2.97D-02 ExpMax= 1.17D+04 ExpMxC= 4.01D+02 IAcc=3 IRadAn=         7 AccDes= 0.00D+00
 Harris functional with IExCor=  205 and IRadAn=       7 diagonalized for initial guess.
 HarFok:  IExCor=  205 AccDes= 0.00D+00 IRadAn=         7 IDoV= 1 UseB2=F ITyADJ=14
 ICtDFT=  3500011 ScaDFX=  1.000000  1.000000  1.000000  1.000000
 FoFCou: FMM=F IPFlag=           0 FMFlag=      100000 FMFlg1=           0
         NFxFlg=           0 DoJE=T BraDBF=F KetDBF=T FulRan=T
         wScrn=  0.000000 ICntrl=       500 IOpCl=  0 I1Cent=   200000004 NGrid=           0
         NMat0=    1 NMatS0=      1 NMatT0=    0 NMatD0=    1 NMtDS0=    0 NMtDT0=    0
 Petite list used in FoFCou.
 Harris En= -953.071994383502    
 JPrj=0 DoOrth=F DoCkMO=F.
 Leave Link  401 at Thu Nov 11 17:46:47 2021, MaxMem=  7864320000 cpu:             182.1 elap:               5.9
 (Enter /apps/gaussian/g16-c01-avx/g16/l508.exe)
 Integral symmetry usage will be decided dynamically.
 Tight linear equation convergence will be used.
 RHF wavefunction.
 Linear searches until partial convergence.
 Full line searches.
 Fock matrices will be formed incrementally for  20 cycles.
 Inv3:  Mode=1 IEnd=    32551308.
 Iteration    1 A*A^-1 deviation from unit magnitude is 6.99D-15 for   3271.
 Iteration    1 A*A^-1 deviation from orthogonality  is 3.09D-15 for   3277   3154.
 Iteration    1 A^-1*A deviation from unit magnitude is 6.55D-15 for   3271.
 Iteration    1 A^-1*A deviation from orthogonality  is 2.00D-15 for   3192   1750.
 FoFJK:  IHMeth= 1 ICntrl=       0 DoSepK=F KAlg= 0 I1Cent=           0 FoldK=F
 IRaf= 860000000 NMat=       1 IRICut=       1 DoRegI=T DoRafI=F ISym2E= 1 IDoP0=0 IntGTp=1.
 Iteration   1 EE= -950.745550333069                                    Grad=1.520D+00 Max rot=    2.6652 deg.
 Gradient too large for Newton-Raphson -- use scaled steepest descent instead.
 Alpha Gap=     0.379 HL deriv= 2.38D-03
     ILin= 1 X=0.000D+00 Y=-9.507455503331D+02 DE= 0.00D+00 F= -2.94D+00
 RMSU=  7.09D-03    CP:  7.80D-01
     ILin= 2 X=3.000D-01 Y=-9.514021540632D+02 DE=-6.57D-01 F= -1.43D+00 OKLS=F
 RMSU=  1.43D-03    CP:  6.61D-01  1.48D+00
     ILin= 3 X=5.000D-01 Y=-9.515857330304D+02 DE=-8.40D-01 F= -4.08D-01
 RMSU=  3.42D-03    CP:  4.89D-01  1.97D+00  3.00D+00
     ILin= 4 X=9.000D-01 Y=-9.513425535505D+02 DE=-5.97D-01 F=  1.62D+00
     An  expanding polynomial of degree  4 produced  0.5805
 RMSU=  2.76D-06    CP:  6.19D-01  1.62D+00  1.63D+00  1.03D-05
 Iteration   2 EE= -951.602024786876     Delta-E=       -0.856474453808 Grad=5.047D-01 Max rot=    1.4704 deg.
 Gradient too large for Newton-Raphson -- use scaled steepest descent instead.
 Alpha Gap=     0.431 HL deriv= 1.00D-03
     ILin= 1 X=0.000D+00 Y=-9.516020247869D+02 DE= 0.00D+00 F= -1.38D-01
 RMSU=  1.50D-03    CP:  5.49D-01  1.72D+00  2.73D+00  6.59D-04  3.00D+00
     ILin= 2 X=4.000D-01 Y=-9.516438960921D+02 DE=-4.19D-02 F= -7.16D-02 OKLS=F
 RMSU=  2.47D-04    CP:  4.89D-01  1.76D+00  3.00D+00  4.73D-01  3.00D+00
                    CP:  1.89D+00
     ILin= 3 X=8.000D-01 Y=-9.516593457847D+02 DE=-5.73D-02 F= -5.71D-03
 RMSU=  1.19D-03    CP:  3.94D-01  1.63D+00  3.00D+00  2.24D+00  3.00D+00
                    CP:  3.00D+00  3.00D+00
     ILin= 4 X=1.700D+00 Y=-9.515982522418D+02 DE= 3.77D-03 F=  1.41D-01
     An  expanding polynomial of degree  4 produced  0.8348
     Minimum is close to point  3 DX=  3.48D-02 DF= -9.95D-05 DXR=  4.17D-02 DFR=  1.74D-03 which will be used.
 Iteration   3 EE= -951.659345784732     Delta-E=       -0.057320997855 Grad=1.460D-01 Max rot=    0.2942 deg.
 Gradient too large for Newton-Raphson -- use scaled steepest descent instead.
 Alpha Gap=     0.416 HL deriv= 4.75D-04
     ILin= 1 X=0.000D+00 Y=-9.516593457847D+02 DE= 0.00D+00 F= -1.94D-02
 RMSU=  7.87D-04    CP:  4.67D-01  1.74D+00  3.00D+00  8.35D-01  3.00D+00
                    CP:  2.18D+00  1.51D+00 -3.42D-03
     ILin= 2 X=7.000D-01 Y=-9.516661633369D+02 DE=-6.82D-03 F= -1.08D-04 OKLS=T
     Reject lnstep IMin12=  1  2 Big=T Turn=F Min= 7.173D-01 FVal=-9.516661646491D+02 Lims=  0.00D+00  7.00D-01
 RMSU=  8.22D-05    CP:  4.47D-01  1.72D+00  3.00D+00  1.21D+00 -3.00D+00
                    CP:  2.45D+00  2.19D+00 -6.06D-03  1.93D+00
     ILin= 3 X=1.400D+00 Y=-9.516594974269D+02 DE=-1.52D-04 F=  1.92D-02
     An  expanding polynomial of degree  3 produced  0.7039
     Minimum is close to point  2 DX=  3.94D-03 DF= -2.13D-07 DXR=  5.59D-03 DFR=  3.13D-05 which will be used.
 Iteration   4 EE= -951.666163336932     Delta-E=       -0.006817552201 Grad=5.614D-02 Max rot=    0.1778 deg.
 Gradient too large for Newton-Raphson -- use scaled steepest descent instead.
 Alpha Gap=     0.425 HL deriv= 1.02D-03
     ILin= 1 X=0.000D+00 Y=-9.516661633369D+02 DE= 0.00D+00 F= -3.16D-03
 RMSU=  2.24D-04    CP:  4.55D-01  1.74D+00  3.00D+00  9.60D-01  3.00D+00
                    CP:  2.40D+00  2.12D+00 -3.91D-03  1.13D+00  1.49D-01
     ILin= 2 X=8.000D-01 Y=-9.516673890471D+02 DE=-1.23D-03 F=  9.84D-05 OKLS=T
     Accept linear search using points  1 and  2.
     An  expanding polynomial of degree  2 produced  0.7530
     Minimum is close to point  2 DX= -4.70D-02 DF= -2.94D-06 DXR=  6.24D-02 DFR=  2.40D-03 which will be used.
 Iteration   5 EE= -951.667389047060     Delta-E=       -0.001225710128 Grad=2.367D-02 Max rot=    0.0954 deg.
 Gradient too large for Newton-Raphson -- use scaled steepest descent instead.
 Alpha Gap=     0.424 HL deriv= 6.22D-04
     ILin= 1 X=0.000D+00 Y=-9.516673890471D+02 DE= 0.00D+00 F= -8.15D-04
 RMSU=  6.21D-05    CP:  4.53D-01  1.73D+00  3.00D+00  1.00D+00  3.00D+00
                    CP:  2.44D+00  2.21D+00 -4.47D-03  1.33D+00  4.21D-01
                    CP:  1.14D+00
     ILin= 2 X=7.000D-01 Y=-9.516676622013D+02 DE=-2.73D-04 F=  3.48D-05 OKLS=T
     Accept linear search using points  1 and  2.
     An  expanding polynomial of degree  2 produced  0.6186
 RMSU=  7.93D-08    CP:  4.53D-01  1.73D+00  3.00D+00  9.99D-01  3.00D+00
                    CP:  2.43D+00  2.20D+00 -4.40D-03  1.31D+00  3.87D-01
                    CP:  1.12D+00  8.84D-01
 Iteration   6 EE= -951.667661009784     Delta-E=       -0.000271962724 Grad=9.479D-03 Max rot=    0.0457 deg.
 SCF Done:  E(RHF) =  -951.667661010     a.u. after    6 cycles
            Convg  =    0.9479D-02                    13 Fock formations.
              S**2 =  0.0000                  -V/T =  2.0005
 Leave Link  508 at Thu Nov 11 17:52:35 2021, MaxMem=  7864320000 cpu:           10737.3 elap:             347.6
 (Enter /apps/gaussian/g16-c01-avx/g16/l502.exe)
 Integral symmetry usage will be decided dynamically.
 Closed shell SCF:
 Using DIIS extrapolation, IDIIS=  1040.
 NGot=  7864320000 LenX=  7863057070 LenY=  7862441630
 Requested convergence on RMS density matrix=1.00D-08 within 128 cycles.
 Requested convergence on MAX density matrix=1.00D-06.
 Requested convergence on             energy=1.00D-06.
 No special actions if energy rises.
 Fock matrices will be formed incrementally for  20 cycles.

 Cycle   1  Pass 1  IDiag  1:
 FoFJK:  IHMeth= 1 ICntrl=       0 DoSepK=F KAlg= 0 I1Cent=           0 FoldK=F
 IRaf= 860000000 NMat=       1 IRICut=       1 DoRegI=T DoRafI=F ISym2E= 0 IDoP0=0 IntGTp=1.
 FoFCou: FMM=F IPFlag=           0 FMFlag=      100000 FMFlg1=           0
         NFxFlg=           0 DoJE=F BraDBF=F KetDBF=F FulRan=T
         wScrn=  0.000000 ICntrl=         0 IOpCl=  0 I1Cent=           0 NGrid=           0
         NMat0=    1 NMatS0=      1 NMatT0=    0 NMatD0=    1 NMtDS0=    0 NMtDT0=    0
 Symmetry not used in FoFCou.
 E= -951.667661011172    
 DIIS: error= 1.46D-04 at cycle   1 NSaved=   1.
 NSaved= 1 IEnMin= 1 EnMin= -951.667661011172     IErMin= 1 ErrMin= 1.46D-04
 ErrMax= 1.46D-04  0.00D+00 EMaxC= 1.00D-01 BMatC= 4.49D-05 BMatP= 4.49D-05
 IDIUse=3 WtCom= 9.99D-01 WtEn= 1.46D-03
 Coeff-Com:  0.100D+01
 Coeff-En:   0.100D+01
 Coeff:      0.100D+01
 Gap=     0.425 Goal=   None    Shift=    0.000
 RMSDP=2.41D-04 MaxDP=2.74D-02              OVMax= 3.13D-03

 Cycle   2  Pass 1  IDiag  1:
 RMSU=  1.97D-04    CP:  9.96D-01
 E= -951.667745979320     Delta-E=       -0.000084968148 Rises=F Damp=F
 DIIS: error= 8.50D-05 at cycle   2 NSaved=   2.
 NSaved= 2 IEnMin= 2 EnMin= -951.667745979320     IErMin= 2 ErrMin= 8.50D-05
 ErrMax= 8.50D-05  0.00D+00 EMaxC= 1.00D-01 BMatC= 1.04D-05 BMatP= 4.49D-05
 IDIUse=1 WtCom= 1.00D+00 WtEn= 0.00D+00
 Coeff-Com:  0.158D+00 0.842D+00
 Coeff:      0.158D+00 0.842D+00
 Gap=     0.365 Goal=   None    Shift=    0.000
 RMSDP=4.17D-05 MaxDP=4.80D-03 DE=-8.50D-05 OVMax= 1.33D-03

 Cycle   3  Pass 1  IDiag  1:
 RMSU=  3.20D-05    CP:  9.96D-01  1.13D+00
 E= -951.667762154919     Delta-E=       -0.000016175599 Rises=F Damp=F
 DIIS: error= 3.85D-05 at cycle   3 NSaved=   3.
 NSaved= 3 IEnMin= 3 EnMin= -951.667762154919     IErMin= 3 ErrMin= 3.85D-05
 ErrMax= 3.85D-05  0.00D+00 EMaxC= 1.00D-01 BMatC= 2.54D-06 BMatP= 1.04D-05
 IDIUse=1 WtCom= 1.00D+00 WtEn= 0.00D+00
 Coeff-Com: -0.168D+00 0.194D+00 0.974D+00
 Coeff:     -0.168D+00 0.194D+00 0.974D+00
 Gap=     0.365 Goal=   None    Shift=    0.000
 RMSDP=2.90D-05 MaxDP=2.96D-03 DE=-1.62D-05 OVMax= 1.33D-03

 Cycle   4  Pass 1  IDiag  1:
 RMSU=  1.73D-05    CP:  9.96D-01  1.23D+00  1.40D+00
 E= -951.667769225952     Delta-E=       -0.000007071033 Rises=F Damp=F
 DIIS: error= 1.78D-05 at cycle   4 NSaved=   4.
 NSaved= 4 IEnMin= 4 EnMin= -951.667769225952     IErMin= 4 ErrMin= 1.78D-05
 ErrMax= 1.78D-05  0.00D+00 EMaxC= 1.00D-01 BMatC= 3.37D-07 BMatP= 2.54D-06
 IDIUse=1 WtCom= 1.00D+00 WtEn= 0.00D+00
 Coeff-Com:  0.403D-01-0.154D+00-0.264D+00 0.138D+01
 Coeff:      0.403D-01-0.154D+00-0.264D+00 0.138D+01
 Gap=     0.365 Goal=   None    Shift=    0.000
 RMSDP=1.88D-05 MaxDP=1.90D-03 DE=-7.07D-06 OVMax= 8.73D-04

 Cycle   5  Pass 1  IDiag  1:
 RMSU=  7.17D-06    CP:  9.96D-01  1.24D+00  1.78D+00  1.65D+00
 E= -951.667771161826     Delta-E=       -0.000001935874 Rises=F Damp=F
 DIIS: error= 9.82D-06 at cycle   5 NSaved=   5.
 NSaved= 5 IEnMin= 5 EnMin= -951.667771161826     IErMin= 5 ErrMin= 9.82D-06
 ErrMax= 9.82D-06  0.00D+00 EMaxC= 1.00D-01 BMatC= 9.40D-08 BMatP= 3.37D-07
 IDIUse=1 WtCom= 1.00D+00 WtEn= 0.00D+00
 Coeff-Com:  0.468D-01-0.748D-01-0.256D+00 0.212D+00 0.107D+01
 Coeff:      0.468D-01-0.748D-01-0.256D+00 0.212D+00 0.107D+01
 Gap=     0.365 Goal=   None    Shift=    0.000
 RMSDP=1.01D-05 MaxDP=1.03D-03 DE=-1.94D-06 OVMax= 5.14D-04

 Cycle   6  Pass 1  IDiag  1:
 RMSU=  2.48D-06    CP:  9.96D-01  1.24D+00  1.94D+00  2.02D+00  1.55D+00
 E= -951.667771700523     Delta-E=       -0.000000538697 Rises=F Damp=F
 DIIS: error= 4.23D-06 at cycle   6 NSaved=   6.
 NSaved= 6 IEnMin= 6 EnMin= -951.667771700523     IErMin= 6 ErrMin= 4.23D-06
 ErrMax= 4.23D-06  0.00D+00 EMaxC= 1.00D-01 BMatC= 2.01D-08 BMatP= 9.40D-08
 IDIUse=1 WtCom= 1.00D+00 WtEn= 0.00D+00
 Coeff-Com: -0.229D-01 0.653D-01 0.153D+00-0.543D+00-0.175D+00 0.152D+01
 Coeff:     -0.229D-01 0.653D-01 0.153D+00-0.543D+00-0.175D+00 0.152D+01
 Gap=     0.365 Goal=   None    Shift=    0.000
 RMSDP=7.32D-06 MaxDP=6.47D-04 DE=-5.39D-07 OVMax= 3.54D-04

 Cycle   7  Pass 1  IDiag  1:
 RMSU=  1.45D-06    CP:  9.96D-01  1.25D+00  2.05D+00  2.28D+00  2.12D+00
                    CP:  1.59D+00
 E= -951.667771846008     Delta-E=       -0.000000145485 Rises=F Damp=F
 DIIS: error= 1.21D-06 at cycle   7 NSaved=   7.
 NSaved= 7 IEnMin= 7 EnMin= -951.667771846008     IErMin= 7 ErrMin= 1.21D-06
 ErrMax= 1.21D-06  0.00D+00 EMaxC= 1.00D-01 BMatC= 1.00D-09 BMatP= 2.01D-08
 IDIUse=1 WtCom= 1.00D+00 WtEn= 0.00D+00
 Coeff-Com: -0.360D-02 0.582D-02 0.232D-01-0.401D-01-0.570D-01 0.527D-01
 Coeff-Com:  0.102D+01
 Coeff:     -0.360D-02 0.582D-02 0.232D-01-0.401D-01-0.570D-01 0.527D-01
 Coeff:      0.102D+01
 Gap=     0.365 Goal=   None    Shift=    0.000
 RMSDP=9.21D-07 MaxDP=7.28D-05 DE=-1.45D-07 OVMax= 3.90D-05

 Cycle   8  Pass 1  IDiag  1:
 RMSU=  3.61D-07    CP:  9.96D-01  1.25D+00  2.06D+00  2.31D+00  2.16D+00
                    CP:  1.71D+00  1.19D+00
 E= -951.667771849542     Delta-E=       -0.000000003534 Rises=F Damp=F
 DIIS: error= 3.97D-07 at cycle   8 NSaved=   8.
 NSaved= 8 IEnMin= 8 EnMin= -951.667771849542     IErMin= 8 ErrMin= 3.97D-07
 ErrMax= 3.97D-07  0.00D+00 EMaxC= 1.00D-01 BMatC= 2.55D-10 BMatP= 1.00D-09
 IDIUse=1 WtCom= 1.00D+00 WtEn= 0.00D+00
 Coeff-Com:  0.374D-02-0.125D-01-0.240D-01 0.101D+00 0.234D-01-0.309D+00
 Coeff-Com:  0.299D+00 0.918D+00
 Coeff:      0.374D-02-0.125D-01-0.240D-01 0.101D+00 0.234D-01-0.309D+00
 Coeff:      0.299D+00 0.918D+00
 Gap=     0.365 Goal=   None    Shift=    0.000
 RMSDP=3.30D-07 MaxDP=2.56D-05 DE=-3.53D-09 OVMax= 1.62D-05

 Cycle   9  Pass 1  IDiag  1:
 RMSU=  1.59D-07    CP:  9.96D-01  1.25D+00  2.06D+00  2.32D+00  2.17D+00
                    CP:  1.72D+00  1.31D+00  1.09D+00
 E= -951.667771850302     Delta-E=       -0.000000000760 Rises=F Damp=F
 DIIS: error= 2.11D-07 at cycle   9 NSaved=   9.
 NSaved= 9 IEnMin= 9 EnMin= -951.667771850302     IErMin= 9 ErrMin= 2.11D-07
 ErrMax= 2.11D-07  0.00D+00 EMaxC= 1.00D-01 BMatC= 3.03D-11 BMatP= 2.55D-10
 IDIUse=1 WtCom= 1.00D+00 WtEn= 0.00D+00
 Coeff-Com: -0.801D-03 0.300D-02 0.576D-02-0.287D-01-0.102D-02 0.881D-01
 Coeff-Com: -0.219D+00-0.224D+00 0.138D+01
 Coeff:     -0.801D-03 0.300D-02 0.576D-02-0.287D-01-0.102D-02 0.881D-01
 Coeff:     -0.219D+00-0.224D+00 0.138D+01
 Gap=     0.365 Goal=   None    Shift=    0.000
 RMSDP=1.56D-07 MaxDP=1.12D-05 DE=-7.60D-10 OVMax= 8.42D-06

 Cycle  10  Pass 1  IDiag  1:
 RMSU=  6.25D-08    CP:  9.96D-01  1.25D+00  2.07D+00  2.32D+00  2.18D+00
                    CP:  1.73D+00  1.32D+00  1.18D+00  1.54D+00
 E= -951.667771850501     Delta-E=       -0.000000000200 Rises=F Damp=F
 DIIS: error= 1.19D-07 at cycle  10 NSaved=  10.
 NSaved=10 IEnMin=10 EnMin= -951.667771850501     IErMin=10 ErrMin= 1.19D-07
 ErrMax= 1.19D-07  0.00D+00 EMaxC= 1.00D-01 BMatC= 5.05D-12 BMatP= 3.03D-11
 IDIUse=1 WtCom= 1.00D+00 WtEn= 0.00D+00
 Coeff-Com: -0.710D-03 0.232D-02 0.486D-02-0.190D-01-0.388D-02 0.595D-01
 Coeff-Com: -0.586D-01-0.154D+00-0.126D-01 0.118D+01
 Coeff:     -0.710D-03 0.232D-02 0.486D-02-0.190D-01-0.388D-02 0.595D-01
 Coeff:     -0.586D-01-0.154D+00-0.126D-01 0.118D+01
 Gap=     0.365 Goal=   None    Shift=    0.000
 RMSDP=4.27D-08 MaxDP=2.81D-06 DE=-2.00D-10 OVMax= 4.47D-06

 Cycle  11  Pass 1  IDiag  1:
 RMSU=  2.61D-08    CP:  9.96D-01  1.25D+00  2.07D+00  2.32D+00  2.18D+00
                    CP:  1.73D+00  1.31D+00  1.23D+00  1.63D+00  1.35D+00
 E= -951.667771850511     Delta-E=       -0.000000000010 Rises=F Damp=F
 DIIS: error= 4.00D-08 at cycle  11 NSaved=  11.
 NSaved=11 IEnMin=11 EnMin= -951.667771850511     IErMin=11 ErrMin= 4.00D-08
 ErrMax= 4.00D-08  0.00D+00 EMaxC= 1.00D-01 BMatC= 9.92D-13 BMatP= 5.05D-12
 IDIUse=1 WtCom= 1.00D+00 WtEn= 0.00D+00
 Coeff-Com:  0.204D-03-0.768D-03-0.142D-02 0.697D-02 0.157D-03-0.220D-01
 Coeff-Com:  0.516D-01 0.561D-01-0.314D+00-0.136D-01 0.124D+01
 Coeff:      0.204D-03-0.768D-03-0.142D-02 0.697D-02 0.157D-03-0.220D-01
 Coeff:      0.516D-01 0.561D-01-0.314D+00-0.136D-01 0.124D+01
 Gap=     0.365 Goal=   None    Shift=    0.000
 RMSDP=2.49D-08 MaxDP=1.98D-06 DE=-1.00D-11 OVMax= 2.01D-06

 Cycle  12  Pass 1  IDiag  1:
 RMSU=  1.00D-08    CP:  9.96D-01  1.25D+00  2.07D+00  2.32D+00  2.18D+00
                    CP:  1.73D+00  1.32D+00  1.22D+00  1.69D+00  1.59D+00
                    CP:  1.39D+00
 E= -951.667771850530     Delta-E=       -0.000000000018 Rises=F Damp=F
 DIIS: error= 1.14D-08 at cycle  12 NSaved=  12.
 NSaved=12 IEnMin=12 EnMin= -951.667771850530     IErMin=12 ErrMin= 1.14D-08
 ErrMax= 1.14D-08  0.00D+00 EMaxC= 1.00D-01 BMatC= 1.03D-13 BMatP= 9.92D-13
 IDIUse=1 WtCom= 1.00D+00 WtEn= 0.00D+00
 Coeff-Com:  0.122D-03-0.407D-03-0.855D-03 0.347D-02 0.492D-03-0.110D-01
 Coeff-Com:  0.154D-01 0.269D-01-0.379D-01-0.151D+00 0.137D+00 0.102D+01
 Coeff:      0.122D-03-0.407D-03-0.855D-03 0.347D-02 0.492D-03-0.110D-01
 Coeff:      0.154D-01 0.269D-01-0.379D-01-0.151D+00 0.137D+00 0.102D+01
 Gap=     0.365 Goal=   None    Shift=    0.000
 RMSDP=7.37D-09 MaxDP=6.95D-07 DE=-1.82D-11 OVMax= 5.48D-07

 Error on total polarization charges =  0.02027
 SCF Done:  E(RHF) =  -951.667771851     A.U. after   12 cycles
            NFock= 12  Conv=0.74D-08     -V/T= 2.0005
 KE= 9.511908125427D+02 PE=-5.636156513453D+03 EE= 2.025757847217D+03
 Leave Link  502 at Thu Nov 11 17:57:35 2021, MaxMem=  7864320000 cpu:            9325.8 elap:             300.0
 (Enter /apps/gaussian/g16-c01-avx/g16/l508.exe)
 QCSCF skips out because SCF is already converged.
 Leave Link  508 at Thu Nov 11 17:57:35 2021, MaxMem=  7864320000 cpu:               0.1 elap:               0.0
 (Enter /apps/gaussian/g16-c01-avx/g16/l801.exe)
 ExpMin= 2.97D-02 ExpMax= 1.17D+04 ExpMxC= 4.01D+02 IAcc=3 IRadAn=         7 AccDes= 0.00D+00
 HarFok:  IExCor=  205 AccDes= 0.00D+00 IRadAn=         7 IDoV=-2 UseB2=F ITyADJ=14
 ICtDFT= 12500011 ScaDFX=  1.000000  1.000000  1.000000  1.000000
 GSVD:  LWork=        -660 too small for GESVD, short by        2750 words or        2750 for optimal perf.
 Largest valence mixing into a core orbital is  1.10D-04
 Largest core mixing into a valence orbital is  4.25D-05
 Range of M.O.s used for correlation:    23   738
 NBasis=   740 NAE=    82 NBE=    82 NFC=    22 NFV=     0
 NROrb=    716 NOA=    60 NOB=    60 NVA=   656 NVB=   656

 **** Warning!!: The largest alpha MO coefficient is  0.11774781D+03

 Leave Link  801 at Thu Nov 11 17:57:35 2021, MaxMem=  7864320000 cpu:               7.0 elap:               0.2
 (Enter /apps/gaussian/g16-c01-avx/g16/l906.exe)
 FulOut=F Deriv=F AODrv=F NAtomX=    48
   MMem=           7  MDisk=          60 MDiskD=          60
  W3Min=    30858240 MinDsk=    31095128 NBas6D=         784
 NBas2D=      308734    NTT=      307720    LW2=     2000000
    MDV=  7860929502 MDiskM=      139224 NBas2p=      245621
 Disk-based method using OVN memory for 60 occupieds at a time.
 Estimated scratch disk usage= 34070965624 words.
 IMap=   1   2   3   4   5   6   7   8   9  10  11  12  13  14  15  16  17  18  19  20
 IMap=  21  22  23  24  25  26  27  28  29  30  31  32  33  34  35  36  37  38  39  40
 IMap=  41  42  43  44  45  46  47  48  49  50  51  52  53  54  55  56  57  58  59  60
 Actual    scratch disk usage= 29004285048 words.
 JobTyp=1 Pass  1:  I=   1 to  60 NPSUse= 32 ParTrn=T ParDer=T DoDerP=F.
 Spin components of T(2) and E(2):
     alpha-alpha T2 =       0.1546275217D+00 E2=     -0.4254409908D+00
     alpha-beta  T2 =       0.8355791545D+00 E2=     -0.2444035308D+01
     beta-beta   T2 =       0.1546275217D+00 E2=     -0.4254409908D+00
 The integrals were generated   1 times.
 ANorm=    0.1464525247D+01
 E2 =    -0.3294917289D+01 EUMP2 =    -0.95496268913984D+03
 Leave Link  906 at Thu Nov 11 18:27:07 2021, MaxMem=  7864320000 cpu:           54362.0 elap:            1771.5
 (Enter /apps/gaussian/g16-c01-avx/g16/l601.exe)
 Copying SCF densities to generalized density rwf, IOpCl= 0 IROHF=0.

 **********************************************************************

            Population analysis using the SCF Density.

 **********************************************************************

 Orbital symmetries:
       Occupied  (A) (A) (A) (A) (A) (A) (A) (A) (A) (A) (A) (A)
                 (A) (A) (A) (A) (A) (A) (A) (A) (A) (A) (A) (A)
                 (A) (A) (A) (A) (A) (A) (A) (A) (A) (A) (A) (A)
                 (A) (A) (A) (A) (A) (A) (A) (A) (A) (A) (A) (A)
                 (A) (A) (A) (A) (A) (A) (A) (A) (A) (A) (A) (A)
                 (A) (A) (A) (A) (A) (A) (A) (A) (A) (A) (A) (A)
                 (A) (A) (A) (A) (A) (A) (A) (A) (A) (A)
       Virtual   (A) (A) (A) (A) (A) (A) (A) (A) (A) (A) (A) (A)
                 (A) (A) (A) (A) (A) (A) (A) (A) (A) (A) (A) (A)
                 (A) (A) (A) (A) (A) (A) (A) (A) (A) (A) (A) (A)
                 (A) (A) (A) (A) (A) (A) (A) (A) (A) (A) (A) (A)
                 (A) (A) (A) (A) (A) (A) (A) (A) (A) (A) (A) (A)
                 (A) (A) (A) (A) (A) (A) (A) (A) (A) (A) (A) (A)
                 (A) (A) (A) (A) (A) (A) (A) (A) (A) (A) (A) (A)
                 (A) (A) (A) (A) (A) (A) (A) (A) (A) (A) (A) (A)
                 (A) (A) (A) (A) (A) (A) (A) (A) (A) (A) (A) (A)
                 (A) (A) (A) (A) (A) (A) (A) (A) (A) (A) (A) (A)
                 (A) (A) (A) (A) (A) (A) (A) (A) (A) (A) (A) (A)
                 (A) (A) (A) (A) (A) (A) (A) (A) (A) (A) (A) (A)
                 (A) (A) (A) (A) (A) (A) (A) (A) (A) (A) (A) (A)
                 (A) (A) (A) (A) (A) (A) (A) (A) (A) (A) (A) (A)
                 (A) (A) (A) (A) (A) (A) (A) (A) (A) (A) (A) (A)
                 (A) (A) (A) (A) (A) (A) (A) (A) (A) (A) (A) (A)
                 (A) (A) (A) (A) (A) (A) (A) (A) (A) (A) (A) (A)
                 (A) (A) (A) (A) (A) (A) (A) (A) (A) (A) (A) (A)
                 (A) (A) (A) (A) (A) (A) (A) (A) (A) (A) (A) (A)
                 (A) (A) (A) (A) (A) (A) (A) (A) (A) (A) (A) (A)
                 (A) (A) (A) (A) (A) (A) (A) (A) (A) (A) (A) (A)
                 (A) (A) (A) (A) (A) (A) (A) (A) (A) (A) (A) (A)
                 (A) (A) (A) (A) (A) (A) (A) (A) (A) (A) (A) (A)
                 (A) (A) (A) (A) (A) (A) (A) (A) (A) (A) (A) (A)
                 (A) (A) (A) (A) (A) (A) (A) (A) (A) (A) (A) (A)
                 (A) (A) (A) (A) (A) (A) (A) (A) (A) (A) (A) (A)
                 (A) (A) (A) (A) (A) (A) (A) (A) (A) (A) (A) (A)
                 (A) (A) (A) (A) (A) (A) (A) (A) (A) (A) (A) (A)
                 (A) (A) (A) (A) (A) (A) (A) (A) (A) (A) (A) (A)
                 (A) (A) (A) (A) (A) (A) (A) (A) (A) (A) (A) (A)
                 (A) (A) (A) (A) (A) (A) (A) (A) (A) (A) (A) (A)
                 (A) (A) (A) (A) (A) (A) (A) (A) (A) (A) (A) (A)
                 (A) (A) (A) (A) (A) (A) (A) (A) (A) (A) (A) (A)
                 (A) (A) (A) (A) (A) (A) (A) (A) (A) (A) (A) (A)
                 (A) (A) (A) (A) (A) (A) (A) (A) (A) (A) (A) (A)
                 (A) (A) (A) (A) (A) (A) (A) (A) (A) (A) (A) (A)
                 (A) (A) (A) (A) (A) (A) (A) (A) (A) (A) (A) (A)
                 (A) (A) (A) (A) (A) (A) (A) (A) (A) (A) (A) (A)
                 (A) (A) (A) (A) (A) (A) (A) (A) (A) (A) (A) (A)
                 (A) (A) (A) (A) (A) (A) (A) (A) (A) (A) (A) (A)
                 (A) (A) (A) (A) (A) (A) (A) (A) (A) (A) (A) (A)
                 (A) (A) (A) (A) (A) (A) (A) (A) (A) (A) (A) (A)
                 (A) (A) (A) (A) (A) (A) (A) (A) (A) (A) (A) (A)
                 (A) (A) (A) (A) (A) (A) (A) (A) (A) (A) (A) (A)
                 (A) (A) (A) (A) (A) (A) (A) (A) (A) (A) (A) (A)
                 (A) (A) (A) (A) (A) (A) (A) (A) (A) (A) (A) (A)
                 (A) (A) (A) (A) (A) (A) (A) (A) (A) (A) (A) (A)
                 (A) (A) (A) (A) (A) (A) (A) (A) (A) (A) (A) (A)
                 (A) (A) (A) (A) (A) (A) (A) (A) (A) (A) (A) (A)
                 (A) (A) (A) (A) (A) (A) (A) (A) (A) (A) (A) (A)
                 (A) (A) (A) (A) (A) (A) (A) (A) (A) (A) (A) (A)
                 (A) (A) (A) (A) (A) (A) (A) (A) (A) (A) (A) (A)
                 (A) (A) (A) (A) (A) (A) (A) (A) (A) (A) (A) (A)
                 (A) (A) (A) (A) (A) (A) (A) (A) (A) (A) (A) (A)
                 (A) (A) (A) (A) (A) (A) (A) (A)
 The electronic state is 1-A.
 Alpha  occ. eigenvalues --  -20.57623 -15.56730 -15.56715 -15.54184 -15.54178
 Alpha  occ. eigenvalues --  -11.35088 -11.29265 -11.29234 -11.26963 -11.26793
 Alpha  occ. eigenvalues --  -11.26686 -11.26345 -11.26342 -11.26052 -11.26016
 Alpha  occ. eigenvalues --  -11.25969 -11.25230 -11.25215 -11.21443 -11.21443
 Alpha  occ. eigenvalues --  -11.21178 -11.21169  -1.41367  -1.25942  -1.25651
 Alpha  occ. eigenvalues --   -1.19845  -1.19276  -1.17943  -1.07289  -1.07188
 Alpha  occ. eigenvalues --   -1.02809  -1.02526  -0.95608  -0.95258  -0.93689
 Alpha  occ. eigenvalues --   -0.93683  -0.90704  -0.87485  -0.84479  -0.77396
 Alpha  occ. eigenvalues --   -0.76553  -0.75308  -0.74698  -0.72352  -0.69876
 Alpha  occ. eigenvalues --   -0.67206  -0.66681  -0.66196  -0.65801  -0.65605
 Alpha  occ. eigenvalues --   -0.64248  -0.64058  -0.62839  -0.62152  -0.60592
 Alpha  occ. eigenvalues --   -0.59887  -0.59814  -0.57433  -0.56970  -0.56717
 Alpha  occ. eigenvalues --   -0.53887  -0.53507  -0.53357  -0.52921  -0.52903
 Alpha  occ. eigenvalues --   -0.52109  -0.51874  -0.50877  -0.50646  -0.49731
 Alpha  occ. eigenvalues --   -0.49238  -0.47114  -0.46666  -0.45536  -0.43886
 Alpha  occ. eigenvalues --   -0.43060  -0.41259  -0.41014  -0.38766  -0.38447
 Alpha  occ. eigenvalues --   -0.34672  -0.33057
 Alpha virt. eigenvalues --    0.03489   0.03862   0.04088   0.04375   0.04713
 Alpha virt. eigenvalues --    0.04743   0.05004   0.05141   0.05716   0.05805
 Alpha virt. eigenvalues --    0.06005   0.06322   0.06563   0.06615   0.06922
 Alpha virt. eigenvalues --    0.07470   0.07492   0.07679   0.07968   0.08222
 Alpha virt. eigenvalues --    0.09079   0.09313   0.09628   0.10344   0.10362
 Alpha virt. eigenvalues --    0.10787   0.10966   0.11347   0.11776   0.12123
 Alpha virt. eigenvalues --    0.12334   0.13033   0.13284   0.13403   0.14082
 Alpha virt. eigenvalues --    0.14413   0.14747   0.14920   0.15064   0.15219
 Alpha virt. eigenvalues --    0.15572   0.16043   0.16230   0.16448   0.16483
 Alpha virt. eigenvalues --    0.16876   0.17246   0.17339   0.17606   0.18015
 Alpha virt. eigenvalues --    0.18221   0.18341   0.18499   0.18535   0.18868
 Alpha virt. eigenvalues --    0.18931   0.19162   0.19303   0.19448   0.19847
 Alpha virt. eigenvalues --    0.20421   0.20524   0.20764   0.21011   0.21293
 Alpha virt. eigenvalues --    0.21504   0.21949   0.22146   0.22319   0.22724
 Alpha virt. eigenvalues --    0.22972   0.23124   0.23540   0.23891   0.24129
 Alpha virt. eigenvalues --    0.24389   0.24650   0.24899   0.25299   0.25545
 Alpha virt. eigenvalues --    0.25903   0.26447   0.26500   0.26553   0.26870
 Alpha virt. eigenvalues --    0.27258   0.27638   0.28093   0.28391   0.28621
 Alpha virt. eigenvalues --    0.29206   0.29451   0.29573   0.30401   0.30926
 Alpha virt. eigenvalues --    0.31190   0.31418   0.31776   0.31973   0.32140
 Alpha virt. eigenvalues --    0.32448   0.32781   0.33150   0.33516   0.33817
 Alpha virt. eigenvalues --    0.34330   0.34768   0.35002   0.35232   0.35320
 Alpha virt. eigenvalues --    0.36029   0.36390   0.36465   0.36590   0.36821
 Alpha virt. eigenvalues --    0.36924   0.37345   0.37563   0.38461   0.38551
 Alpha virt. eigenvalues --    0.38716   0.38951   0.39537   0.39708   0.39888
 Alpha virt. eigenvalues --    0.40164   0.40596   0.40887   0.40984   0.41207
 Alpha virt. eigenvalues --    0.41344   0.41885   0.42181   0.42351   0.42667
 Alpha virt. eigenvalues --    0.43208   0.43481   0.43655   0.43812   0.44089
 Alpha virt. eigenvalues --    0.44320   0.44596   0.44748   0.44966   0.45417
 Alpha virt. eigenvalues --    0.46125   0.46251   0.46374   0.46886   0.47069
 Alpha virt. eigenvalues --    0.47429   0.47968   0.48513   0.48615   0.48735
 Alpha virt. eigenvalues --    0.49016   0.49216   0.49815   0.50097   0.50344
 Alpha virt. eigenvalues --    0.50520   0.50713   0.50958   0.51355   0.51703
 Alpha virt. eigenvalues --    0.51724   0.52153   0.52405   0.53019   0.53506
 Alpha virt. eigenvalues --    0.53700   0.53810   0.53937   0.54499   0.54962
 Alpha virt. eigenvalues --    0.55123   0.55393   0.55889   0.55962   0.56292
 Alpha virt. eigenvalues --    0.56710   0.57130   0.57834   0.58013   0.58402
 Alpha virt. eigenvalues --    0.58605   0.59175   0.59508   0.59916   0.59963
 Alpha virt. eigenvalues --    0.60122   0.60441   0.60720   0.60847   0.61529
 Alpha virt. eigenvalues --    0.61655   0.62220   0.62646   0.62973   0.63057
 Alpha virt. eigenvalues --    0.63665   0.63868   0.64126   0.64786   0.64894
 Alpha virt. eigenvalues --    0.65215   0.65317   0.65536   0.66192   0.66485
 Alpha virt. eigenvalues --    0.66615   0.66777   0.67126   0.67170   0.67803
 Alpha virt. eigenvalues --    0.68032   0.68437   0.68734   0.69154   0.69524
 Alpha virt. eigenvalues --    0.69632   0.70047   0.70075   0.70363   0.70615
 Alpha virt. eigenvalues --    0.71025   0.71271   0.71969   0.72292   0.72644
 Alpha virt. eigenvalues --    0.72859   0.73364   0.73541   0.73819   0.74099
 Alpha virt. eigenvalues --    0.74430   0.74554   0.74938   0.75479   0.75529
 Alpha virt. eigenvalues --    0.75619   0.75865   0.76043   0.76647   0.77082
 Alpha virt. eigenvalues --    0.77405   0.77880   0.78216   0.78280   0.78666
 Alpha virt. eigenvalues --    0.79091   0.79254   0.79617   0.79715   0.80739
 Alpha virt. eigenvalues --    0.81078   0.81520   0.81761   0.81952   0.82259
 Alpha virt. eigenvalues --    0.82842   0.83049   0.83699   0.83899   0.84774
 Alpha virt. eigenvalues --    0.85149   0.85552   0.85756   0.85858   0.86729
 Alpha virt. eigenvalues --    0.87343   0.87466   0.87631   0.87759   0.88031
 Alpha virt. eigenvalues --    0.88819   0.88990   0.89322   0.89501   0.89856
 Alpha virt. eigenvalues --    0.90217   0.90436   0.91024   0.91438   0.91891
 Alpha virt. eigenvalues --    0.92644   0.92940   0.93190   0.93758   0.93847
 Alpha virt. eigenvalues --    0.94078   0.94427   0.94759   0.95160   0.95322
 Alpha virt. eigenvalues --    0.95674   0.96273   0.96384   0.96763   0.97091
 Alpha virt. eigenvalues --    0.97824   0.97988   0.98545   0.98952   0.99147
 Alpha virt. eigenvalues --    0.99570   0.99831   1.00280   1.01200   1.01778
 Alpha virt. eigenvalues --    1.02193   1.02453   1.03057   1.03231   1.03639
 Alpha virt. eigenvalues --    1.04037   1.04555   1.04823   1.05081   1.05662
 Alpha virt. eigenvalues --    1.06013   1.06658   1.07636   1.08057   1.08427
 Alpha virt. eigenvalues --    1.08732   1.09097   1.09483   1.09817   1.10220
 Alpha virt. eigenvalues --    1.10953   1.11969   1.12842   1.13573   1.14210
 Alpha virt. eigenvalues --    1.14622   1.15359   1.15768   1.16415   1.16854
 Alpha virt. eigenvalues --    1.17134   1.17395   1.18333   1.19072   1.19203
 Alpha virt. eigenvalues --    1.19851   1.20603   1.21225   1.21672   1.22427
 Alpha virt. eigenvalues --    1.23530   1.24003   1.24538   1.25449   1.26049
 Alpha virt. eigenvalues --    1.26776   1.26909   1.27295   1.29017   1.29774
 Alpha virt. eigenvalues --    1.30326   1.31472   1.31764   1.33599   1.34288
 Alpha virt. eigenvalues --    1.35210   1.35497   1.35879   1.36391   1.36956
 Alpha virt. eigenvalues --    1.38016   1.38214   1.39577   1.39947   1.40754
 Alpha virt. eigenvalues --    1.41432   1.41817   1.42806   1.43996   1.44476
 Alpha virt. eigenvalues --    1.45019   1.45971   1.46754   1.47098   1.48271
 Alpha virt. eigenvalues --    1.49501   1.51278   1.51417   1.52087   1.53252
 Alpha virt. eigenvalues --    1.53949   1.54788   1.55335   1.55707   1.57396
 Alpha virt. eigenvalues --    1.58616   1.59931   1.60335   1.61355   1.62073
 Alpha virt. eigenvalues --    1.63836   1.64296   1.65433   1.66064   1.66433
 Alpha virt. eigenvalues --    1.66750   1.67360   1.68026   1.68525   1.69258
 Alpha virt. eigenvalues --    1.70003   1.70892   1.71070   1.71448   1.72337
 Alpha virt. eigenvalues --    1.72798   1.73194   1.74476   1.74626   1.75517
 Alpha virt. eigenvalues --    1.76055   1.76491   1.76801   1.76874   1.78330
 Alpha virt. eigenvalues --    1.78867   1.79393   1.79669   1.80532   1.81122
 Alpha virt. eigenvalues --    1.82055   1.82548   1.83649   1.84751   1.85215
 Alpha virt. eigenvalues --    1.85769   1.86073   1.86537   1.87016   1.87767
 Alpha virt. eigenvalues --    1.88198   1.88716   1.89017   1.89756   1.90111
 Alpha virt. eigenvalues --    1.90561   1.90817   1.91187   1.92224   1.92940
 Alpha virt. eigenvalues --    1.93723   1.93986   1.94992   1.95325   1.95710
 Alpha virt. eigenvalues --    1.96248   1.96617   1.97386   1.97444   1.97926
 Alpha virt. eigenvalues --    1.98818   1.99663   2.00166   2.00318   2.00999
 Alpha virt. eigenvalues --    2.01838   2.02471   2.03168   2.03578   2.03925
 Alpha virt. eigenvalues --    2.05001   2.06879   2.07679   2.08961   2.09361
 Alpha virt. eigenvalues --    2.10844   2.11341   2.11690   2.12504   2.13134
 Alpha virt. eigenvalues --    2.14065   2.14131   2.15066   2.15452   2.16265
 Alpha virt. eigenvalues --    2.16594   2.17383   2.17824   2.18194   2.19541
 Alpha virt. eigenvalues --    2.19883   2.20930   2.21044   2.21414   2.21730
 Alpha virt. eigenvalues --    2.22716   2.24037   2.24342   2.24584   2.24854
 Alpha virt. eigenvalues --    2.25093   2.26777   2.27270   2.27814   2.28432
 Alpha virt. eigenvalues --    2.28945   2.29476   2.29833   2.30048   2.30928
 Alpha virt. eigenvalues --    2.31329   2.31672   2.32464   2.33331   2.33892
 Alpha virt. eigenvalues --    2.34993   2.35307   2.35779   2.36566   2.36962
 Alpha virt. eigenvalues --    2.38154   2.38394   2.38964   2.40252   2.40344
 Alpha virt. eigenvalues --    2.40402   2.41369   2.42101   2.42831   2.43188
 Alpha virt. eigenvalues --    2.44342   2.44554   2.45144   2.45774   2.46415
 Alpha virt. eigenvalues --    2.47301   2.48501   2.48845   2.49510   2.50072
 Alpha virt. eigenvalues --    2.50347   2.51651   2.52555   2.53094   2.53197
 Alpha virt. eigenvalues --    2.54096   2.54403   2.55419   2.55943   2.56312
 Alpha virt. eigenvalues --    2.56733   2.57574   2.58252   2.59575   2.60340
 Alpha virt. eigenvalues --    2.61074   2.61305   2.62254   2.62699   2.63191
 Alpha virt. eigenvalues --    2.64488   2.64581   2.65374   2.66358   2.67524
 Alpha virt. eigenvalues --    2.67720   2.68507   2.69152   2.70036   2.70210
 Alpha virt. eigenvalues --    2.72764   2.73090   2.74406   2.74730   2.75395
 Alpha virt. eigenvalues --    2.75640   2.77206   2.78359   2.78861   2.80403
 Alpha virt. eigenvalues --    2.80862   2.82712   2.83137   2.84938   2.85063
 Alpha virt. eigenvalues --    2.85677   2.87931   2.88821   2.89604   2.89768
 Alpha virt. eigenvalues --    2.90544   2.91553   2.93500   2.93841   2.94754
 Alpha virt. eigenvalues --    2.94982   2.97922   2.98691   3.00250   3.01132
 Alpha virt. eigenvalues --    3.02399   3.03007   3.03187   3.04197   3.06446
 Alpha virt. eigenvalues --    3.06851   3.07641   3.08543   3.09809   3.10688
 Alpha virt. eigenvalues --    3.12056   3.12706   3.14072   3.14425   3.16282
 Alpha virt. eigenvalues --    3.20432   3.21010   3.22133   3.22926   3.23966
 Alpha virt. eigenvalues --    3.25750   3.28847   3.30835   3.31735   3.33136
 Alpha virt. eigenvalues --    3.33239   3.40341   3.41580   3.44908   3.46321
 Alpha virt. eigenvalues --    3.47738   3.50059   3.50851   3.55596   3.56548
 Alpha virt. eigenvalues --    3.59430   3.60106   3.63197   3.69568   3.74124
 Alpha virt. eigenvalues --    3.77946   3.78783   3.81273   3.81804   3.86800
 Alpha virt. eigenvalues --    3.87744   3.88198   3.90096   3.92727   3.93707
 Alpha virt. eigenvalues --    4.06235   4.14372   4.18173   4.21753   4.24784
 Alpha virt. eigenvalues --    4.79095
          Condensed to atoms (all electrons):
               1          2          3          4          5          6
     1  C   16.657451  -2.116824  -2.233805  -1.657600   0.621010  -1.163289
     2  C   -2.116824   8.312202  -1.384588  -0.306206   0.043905   0.444255
     3  C   -2.233805  -1.384588  21.343988  -4.194566  -1.649524  -3.204900
     4  C   -1.657600  -0.306206  -4.194566  18.805387   0.549254  -4.152481
     5  H    0.621010   0.043905  -1.649524   0.549254   2.639469  -0.135456
     6  C   -1.163289   0.444255  -3.204900  -4.152481  -0.135456  23.672251
     7  C    0.314026  -0.249108  -0.638066  -2.055551  -0.112464  -2.799966
     8  H   -0.098103  -0.032927   0.252338   0.517010   0.004814  -1.499314
     9  C   -4.596265   0.295016  -2.883774  -0.638690   0.263112  -2.138368
    10  C   -0.500742  -0.240647   0.057248   0.783154   0.012141  -1.403145
    11  H    0.436977  -0.056798   0.101286  -0.132229   0.009221   0.188282
    12  C   -0.114844  -0.168969   0.209766  -2.308763  -0.158730  -2.769134
    13  O   -0.086922   0.311646  -0.021358  -0.010260   0.007780   0.003462
    14  C    0.019522   0.007528   0.059900   0.034199  -0.129380   0.073622
    15  C    0.015204   0.004018  -0.170499   0.272531   0.042484  -0.068986
    16  N   -0.162223   0.010085   0.177626  -0.325425  -0.164651   0.672425
    17  N   -0.000144   0.000574   0.060847  -0.107763  -0.000927   0.027241
    18  C    0.030282  -0.003240  -0.006137   0.052538  -0.000592  -0.093459
    19  C   -0.056339  -0.010572  -0.053542   0.109079   0.001162  -0.333053
    20  N   -0.004834   0.000334   0.004636  -0.012608   0.000137   0.048439
    21  N    0.010980   0.019326  -0.039672  -0.246603   0.006766   0.285918
    22  H    0.292636  -0.084787   0.097915   0.011539  -0.039953   0.007534
    23  H   -0.000427   0.000015   0.000837  -0.001868  -0.000000   0.004100
    24  H   -0.003210   0.000203   0.002613   0.002509  -0.000231  -0.018566
    25  H   -0.000352   0.000049  -0.003309   0.002888   0.000394   0.002103
    26  H    0.002789  -0.001176  -0.010186  -0.009922  -0.017352   0.005020
    27  H   -0.011918   0.004036  -0.079479   0.064533   0.019822   0.164642
    28  H    0.053365  -0.021734   0.016598  -0.143951   0.001432   0.309651
    29  C   -0.008359  -0.005434   0.056141  -0.093093   0.010463   0.002849
    30  C    0.000803  -0.000321  -0.000944  -0.005130   0.000008  -0.012821
    31  H   -0.004279  -0.000822  -0.001352   0.019100  -0.000025  -0.013996
    32  H   -0.000781   0.003087  -0.002313  -0.008585  -0.000126  -0.022753
    33  H    0.000042  -0.000014  -0.000131   0.000466  -0.000006  -0.002756
    34  H    0.000034  -0.000095   0.000142  -0.000472   0.000007   0.002823
    35  H    0.000143  -0.000023  -0.000127  -0.000981   0.000009   0.001818
    36  H    0.007064   0.001677  -0.000443  -0.043743  -0.005839  -0.004172
    37  H    0.000038  -0.000050  -0.018084   0.092120  -0.005613   0.009811
    38  H    0.002437  -0.000297   0.004721  -0.008881  -0.001657   0.006718
    39  H   -0.000192  -0.000563  -0.000723  -0.006761   0.003616   0.001455
    40  H   -0.003701   0.001022  -0.000300   0.098868  -0.005588  -0.033859
    41  C    0.000618   0.000819  -0.021076   0.032727   0.001259  -0.006771
    42  H   -0.000033  -0.000004  -0.000514   0.001805   0.001936   0.000467
    43  H   -0.000163   0.000062  -0.001254   0.002541  -0.001530  -0.001366
    44  H    0.000053   0.000051   0.000286  -0.002913   0.000641   0.001739
    45  C    0.000162  -0.000014  -0.000734  -0.001437   0.000208   0.003952
    46  H   -0.001477   0.000588  -0.013974   0.013644   0.000397  -0.022058
    47  H   -0.000754   0.000609   0.001025   0.000459   0.000023   0.005809
    48  H    0.000645  -0.000122  -0.000176  -0.002060   0.000040   0.002025
               7          8          9         10         11         12
     1  C    0.314026  -0.098103  -4.596265  -0.500742   0.436977  -0.114844
[...]
    19  C    0.000010   0.000031   0.013374   0.003638   0.000101   0.089770
    20  N    0.000000   0.000003  -0.004485  -0.002055   0.000025   0.040964
    21  N   -0.000002  -0.000061  -0.012682   0.162851   0.000120  -0.004995
    22  H    0.000073   0.000390   0.000632  -0.000424  -0.001812  -0.000025
    23  H   -0.000000  -0.000004  -0.000373  -0.001058  -0.000021  -0.030155
    24  H   -0.000001   0.000046   0.001939  -0.000922   0.000144   0.013079
    25  H    0.848181  -0.114200  -0.001079   0.000006  -0.028856   0.000000
    26  H   -0.114200   0.818755  -0.000775   0.000028  -0.064255   0.000002
    27  H   -0.001079  -0.000775   1.952995  -0.005099   0.033836  -0.000111
    28  H    0.000006   0.000028  -0.005099   1.937616   0.000013   0.011489
    29  C   -0.028856  -0.064255   0.033836   0.000013   4.667107   0.000001
    30  C    0.000000   0.000002  -0.000111   0.011489   0.000001   4.591486
    31  H    0.000001   0.000001   0.003219  -0.008405  -0.000012  -0.057528
    32  H    0.000000  -0.000002  -0.000283  -0.077670   0.000003  -0.062077
    33  H    0.000000   0.000000   0.000307  -0.001073  -0.000000   0.221168
    34  H   -0.000000   0.000000  -0.000101   0.004538  -0.000000   0.125297
    35  H   -0.000000   0.000000  -0.000227   0.001453   0.000002   0.235598
    36  H   -0.001396   0.010337  -0.011467  -0.000031   0.027893  -0.000003
    37  H    0.007387  -0.009622  -0.104723  -0.000027  -0.016275   0.000003
    38  H   -0.008089   0.022361  -0.016967   0.000011   0.185426  -0.000012
    39  H    0.009907  -0.032459   0.006782   0.000004   0.228170   0.000001
    40  H   -0.000107   0.002613  -0.008339  -0.000014   0.175837  -0.000020
    41  C   -0.033239   0.009451   0.009724  -0.000070  -0.151661   0.000000
    42  H    0.004240  -0.004086   0.000429  -0.000004  -0.022658  -0.000000
    43  H   -0.027586   0.011136  -0.001874  -0.000004   0.033173  -0.000000
    44  H    0.017241  -0.004751   0.009794  -0.000000  -0.040784   0.000001
    45  C   -0.000001  -0.000002  -0.003100   0.037314   0.000057  -0.129968
    46  H    0.000006  -0.000011   0.001937  -0.006755  -0.000107  -0.034765
    47  H   -0.000000   0.000001  -0.000155  -0.011958  -0.000002  -0.109234
    48  H   -0.000000  -0.000004  -0.000446   0.003903   0.000008   0.102616
              31         32         33         34         35         36
     1  C   -0.004279  -0.000781   0.000042   0.000034   0.000143   0.007064
     2  C   -0.000822   0.003087  -0.000014  -0.000095  -0.000023   0.001677
     3  C   -0.001352  -0.002313  -0.000131   0.000142  -0.000127  -0.000443
     4  C    0.019100  -0.008585   0.000466  -0.000472  -0.000981  -0.043743
     5  H   -0.000025  -0.000126  -0.000006   0.000007   0.000009  -0.005839
     6  C   -0.013996  -0.022753  -0.002756   0.002823   0.001818  -0.004172
     7  C   -0.089725   0.136752   0.002235  -0.000886  -0.001838   0.002290
     8  H   -0.014576  -0.002484  -0.003482   0.002050   0.002992   0.001000
     9  C    0.010869  -0.003953  -0.001012   0.000678   0.001182  -0.002029
    10  C    0.257971  -0.208154  -0.033020   0.065429   0.011978  -0.000397
    11  H   -0.000375   0.002680   0.000023  -0.000139  -0.000016  -0.000029
    12  C   -0.003046  -0.002647  -0.000413   0.000255   0.000387   0.213359
    13  O    0.000000  -0.000158   0.000000   0.000006   0.000000  -0.000022
    14  C   -0.000576   0.000081  -0.000018   0.000002   0.000014   0.310766
    15  C    0.000033  -0.000016   0.000002   0.000001  -0.000002  -0.004781
    16  N   -0.000200   0.000096  -0.000001   0.000007   0.000003  -0.484675
    17  N    0.000001   0.000001   0.000000   0.000000   0.000000  -0.000203
    18  C    0.002464   0.158786   0.216128  -0.170471   0.163770   0.000034
    19  C    0.332781   0.045111   0.002042  -0.031417  -0.046147  -0.000085
    20  N   -0.002808  -0.014487  -0.063709   0.101523  -0.056069  -0.000007
    21  N   -0.508625   0.045330  -0.017444   0.009466   0.033111  -0.000097
    22  H   -0.000053   0.000147  -0.000001  -0.000005  -0.000001   0.000455
    23  H   -0.001216   0.007531  -0.027735   0.017161   0.004938   0.000003
    24  H    0.011520  -0.009095   0.012195  -0.005084  -0.005056   0.000046
    25  H    0.000001   0.000000   0.000000  -0.000000  -0.000000  -0.001396
    26  H    0.000001  -0.000002   0.000000   0.000000   0.000000   0.010337
    27  H    0.003219  -0.000283   0.000307  -0.000101  -0.000227  -0.011467
    28  H   -0.008405  -0.077670  -0.001073   0.004538   0.001453  -0.000031
    29  C   -0.000012   0.000003  -0.000000  -0.000000   0.000002   0.027893
    30  C   -0.057528  -0.062077   0.221168   0.125297   0.235598  -0.000003
    31  H    1.576279  -0.266722   0.013771  -0.036893  -0.005925  -0.000011
    32  H   -0.266722   1.438898   0.000439   0.011072  -0.015409   0.000004
    33  H    0.013771   0.000439   1.176229  -0.222082  -0.330700  -0.000000
    34  H   -0.036893   0.011072  -0.222082   1.424952  -0.230328  -0.000000
    35  H   -0.005925  -0.015409  -0.330700  -0.230328   1.301077  -0.000000
    36  H   -0.000011   0.000004  -0.000000  -0.000000  -0.000000   1.566952
    37  H   -0.000192  -0.000004  -0.000013   0.000004   0.000009  -0.253654
    38  H   -0.000030  -0.000004  -0.000005  -0.000000   0.000002   0.016296
    39  H    0.000002   0.000000   0.000000   0.000000   0.000000  -0.010378
    40  H   -0.000011  -0.000018  -0.000003   0.000002  -0.000002   0.015966
    41  C   -0.000003   0.000003  -0.000000   0.000000  -0.000000  -0.069317
    42  H   -0.000000   0.000000  -0.000000  -0.000000   0.000000  -0.003196
    43  H   -0.000001  -0.000000  -0.000000   0.000000  -0.000000   0.011322
    44  H    0.000006   0.000001   0.000000   0.000000  -0.000000  -0.035802
    45  C    0.020317  -0.015104   0.030361  -0.033302  -0.027547  -0.000006
    46  H    0.016566  -0.008750   0.017602   0.008075  -0.017274  -0.000026
    47  H    0.016389  -0.006642  -0.010705  -0.041755   0.005728   0.000001
    48  H   -0.011410   0.006099  -0.014828  -0.006694   0.020028   0.000000
              37         38         39         40         41         42
     1  C    0.000038   0.002437  -0.000192  -0.003701   0.000618  -0.000033
     2  C   -0.000050  -0.000297  -0.000563   0.001022   0.000819  -0.000004
     3  C   -0.018084   0.004721  -0.000723  -0.000300  -0.021076  -0.000514
     4  C    0.092120  -0.008881  -0.006761   0.098868   0.032727   0.001805
     5  H   -0.005613  -0.001657   0.003616  -0.005588   0.001259   0.001936
     6  C    0.009811   0.006718   0.001455  -0.033859  -0.006771   0.000467
     7  C   -0.002494  -0.002488   0.000046   0.017605  -0.002278  -0.000024
     8  H    0.017827   0.005439  -0.000556   0.000637  -0.000497   0.000157
     9  C   -0.000041   0.000126  -0.000485  -0.018715   0.001778  -0.000079
    10  C   -0.007647  -0.000366  -0.000079  -0.003347  -0.001135  -0.000063
    11  H    0.000037   0.000016   0.000001   0.000248   0.000076   0.000005
    12  C   -0.216281   0.069818  -0.034842  -0.034621  -0.156797   0.008249
    13  O   -0.000010   0.000003  -0.000009  -0.000068   0.000005  -0.000000
    14  C    0.062180  -0.056088   0.006402  -0.018175   0.105529  -0.044880
    15  C    0.195150  -0.193721   0.094169   0.330652  -0.306277   0.161186
    16  N    0.034922  -0.023841   0.032256  -0.074642   0.007563   0.032202
    17  N   -0.021472   0.124367  -0.057263  -0.094885   0.059459  -0.055019
    18  C   -0.000622  -0.000138  -0.000021   0.000891  -0.000013  -0.000003
    19  C   -0.000675  -0.000142   0.000035  -0.000870   0.000027   0.000003
    20  N    0.000209   0.000066   0.000001  -0.000138   0.000003   0.000000
    21  N    0.001520   0.000294   0.000011  -0.000775   0.000138   0.000012
    22  H   -0.000079  -0.000056  -0.000179   0.000335   0.000389  -0.000058
    23  H    0.000052   0.000010  -0.000002   0.000037   0.000004  -0.000000
    24  H   -0.000176  -0.000214  -0.000000  -0.000154  -0.000003  -0.000001
    25  H    0.007387  -0.008089   0.009907  -0.000107  -0.033239   0.004240
    26  H   -0.009622   0.022361  -0.032459   0.002613   0.009451  -0.004086
    27  H   -0.104723  -0.016967   0.006782  -0.008339   0.009724   0.000429
    28  H   -0.000027   0.000011   0.000004  -0.000014  -0.000070  -0.000004
    29  C   -0.016275   0.185426   0.228170   0.175837  -0.151661  -0.022658
    30  C    0.000003  -0.000012   0.000001  -0.000020   0.000000  -0.000000
    31  H   -0.000192  -0.000030   0.000002  -0.000011  -0.000003  -0.000000
    32  H   -0.000004  -0.000004   0.000000  -0.000018   0.000003   0.000000
    33  H   -0.000013  -0.000005   0.000000  -0.000003  -0.000000  -0.000000
    34  H    0.000004  -0.000000   0.000000   0.000002   0.000000  -0.000000
    35  H    0.000009   0.000002   0.000000  -0.000002  -0.000000   0.000000
    36  H   -0.253654   0.016296  -0.010378   0.015966  -0.069317  -0.003196
    37  H    1.440952  -0.001474   0.003154  -0.007233  -0.062564  -0.015159
    38  H   -0.001474   1.547224  -0.278356  -0.237028  -0.107986   0.005940
    39  H    0.003154  -0.278356   1.324775  -0.345951   0.093156   0.019341
    40  H   -0.007233  -0.237028  -0.345951   1.305073  -0.036470  -0.016054
    41  C   -0.062564  -0.107986   0.093156  -0.036470   4.636786   0.229423
    42  H   -0.015159   0.005940   0.019341  -0.016054   0.229423   1.299244
    43  H    0.002217  -0.010697  -0.013861   0.017169   0.214436  -0.326148
    44  H    0.002069  -0.044376  -0.006614   0.007180   0.125289  -0.232810
    45  C    0.000124   0.000105  -0.000001  -0.000222  -0.000002   0.000001
    46  H   -0.000144  -0.000045   0.000010  -0.000196   0.000020  -0.000000
    47  H    0.000005   0.000006  -0.000001  -0.000012  -0.000000   0.000000
    48  H    0.000025   0.000024   0.000000   0.000004  -0.000001   0.000000
              43         44         45         46         47         48
     1  C   -0.000163   0.000053   0.000162  -0.001477  -0.000754   0.000645
     2  C    0.000062   0.000051  -0.000014   0.000588   0.000609  -0.000122
     3  C   -0.001254   0.000286  -0.000734  -0.013974   0.001025  -0.000176
     4  C    0.002541  -0.002913  -0.001437   0.013644   0.000459  -0.002060
     5  H   -0.001530   0.000641   0.000208   0.000397   0.000023   0.000040
     6  C   -0.001366   0.001739   0.003952  -0.022058   0.005809   0.002025
     7  C    0.000024   0.000099   0.014508   0.068148   0.005106  -0.002664
     8  H    0.000116  -0.001286   0.013924  -0.006063  -0.000880   0.004014
     9  C   -0.000087   0.000426  -0.003354  -0.002649  -0.006582   0.003677
    10  C   -0.000113   0.000143  -0.184450  -0.024142   0.065232  -0.037471
    11  H    0.000001   0.000005   0.000639  -0.002968   0.001609  -0.000081
    12  C   -0.033512   0.071133  -0.008847  -0.010267   0.000129   0.000754
    13  O    0.000000   0.000001   0.000058   0.000045  -0.000048   0.000010
    14  C   -0.004352  -0.026725   0.000176  -0.000938   0.000037   0.000060
    15  C    0.223339  -0.164544  -0.000132   0.000343  -0.000011  -0.000014
    16  N   -0.014622   0.007998   0.000249  -0.000121   0.000001   0.000013
    17  N   -0.065424   0.101561  -0.000002   0.000015  -0.000001  -0.000001
    18  C    0.000000   0.000015  -0.924531   0.312339  -0.216133   0.098104
    19  C   -0.000005   0.000031   0.173635   0.004698  -0.045507   0.001674
    20  N    0.000000  -0.000004   0.397311  -0.090668   0.127890  -0.056398
    21  N    0.000008  -0.000005   0.074050  -0.078798  -0.021807   0.033197
    22  H    0.000086   0.000014  -0.000027  -0.000079   0.000024  -0.000005
    23  H    0.000001  -0.000002  -0.032038  -0.000571  -0.008302   0.010136
    24  H    0.000000  -0.000000  -0.063006   0.003214   0.022161  -0.032478
    25  H   -0.027586   0.017241  -0.000001   0.000006  -0.000000  -0.000000
    26  H    0.011136  -0.004751  -0.000002  -0.000011   0.000001  -0.000004
    27  H   -0.001874   0.009794  -0.003100   0.001937  -0.000155  -0.000446
    28  H   -0.000004  -0.000000   0.037314  -0.006755  -0.011958   0.003903
    29  C    0.033173  -0.040784   0.000057  -0.000107  -0.000002   0.000008
    30  C   -0.000000   0.000001  -0.129968  -0.034765  -0.109234   0.102616
    31  H   -0.000001   0.000006   0.020317   0.016566   0.016389  -0.011410
    32  H   -0.000000   0.000001  -0.015104  -0.008750  -0.006642   0.006099
    33  H   -0.000000   0.000000   0.030361   0.017602  -0.010705  -0.014828
    34  H    0.000000   0.000000  -0.033302   0.008075  -0.041755  -0.006694
    35  H   -0.000000  -0.000000  -0.027547  -0.017274   0.005728   0.020028
    36  H    0.011322  -0.035802  -0.000006  -0.000026   0.000001   0.000000
    37  H    0.002217   0.002069   0.000124  -0.000144   0.000005   0.000025
    38  H   -0.010697  -0.044376   0.000105  -0.000045   0.000006   0.000024
    39  H   -0.013861  -0.006614  -0.000001   0.000010  -0.000001   0.000000
    40  H    0.017169   0.007180  -0.000222  -0.000196  -0.000012   0.000004
    41  C    0.214436   0.125289  -0.000002   0.000020  -0.000000  -0.000001
    42  H   -0.326148  -0.232810   0.000001  -0.000000   0.000000   0.000000
    43  H    1.174029  -0.222524  -0.000000  -0.000003   0.000000   0.000000
    44  H   -0.222524   1.429145  -0.000007   0.000017  -0.000001  -0.000002
    45  C   -0.000000  -0.000007   4.623090   0.189840   0.200154   0.206225
    46  H   -0.000003   0.000017   0.189840   1.292182  -0.232555  -0.346304
    47  H    0.000000  -0.000001   0.200154  -0.232555   1.530807  -0.275029
    48  H    0.000000  -0.000002   0.206225  -0.346304  -0.275029   1.328315
 Mulliken charges:
               1
     1  C    0.361299
     2  C    1.224226
     3  C    0.187636
     4  C    1.012189
     5  H   -0.811867
     6  C   -0.047743
     7  C    1.085451
     8  H   -0.826645
     9  C    0.111748
    10  C    0.578677
    11  H   -0.723895
    12  C    0.408520
    13  O   -0.871415
    14  C    1.570234
    15  C   -3.589933
    16  N   -0.461952
    17  N   -0.079234
    18  C   -3.591867
    19  C    1.653757
    20  N   -0.077567
    21  N   -0.436472
    22  H   -0.281510
    23  H   -0.001749
    24  H    0.018267
    25  H   -0.001895
    26  H    0.013977
    27  H   -0.615288
    28  H   -0.639197
    29  C    1.428109
    30  C    1.422782
    31  H   -0.252475
    32  H   -0.127884
    33  H    0.036138
    34  H    0.006201
    35  H   -0.046573
    36  H   -0.253654
    37  H   -0.125488
    38  H    0.001547
    39  H   -0.033999
    40  H   -0.032621
    41  C    1.427479
    42  H   -0.043848
    43  H    0.035467
    44  H    0.008209
    45  C    1.441374
    46  H   -0.027977
    47  H    0.004870
    48  H   -0.035412
 Sum of Mulliken charges =   0.00000
 Mulliken charges with hydrogens summed into heavy atoms:
               1
     1  C    0.361299
     2  C    0.942715
     3  C   -0.624230
     4  C    1.012189
     6  C   -0.874388
     7  C    1.085451
     9  C   -0.612147
    10  C   -0.060520
    12  C   -0.206769
    13  O   -0.871415
    14  C    1.191093
    15  C   -3.589933
    16  N   -0.461952
    17  N   -0.067152
    18  C   -3.591867
    19  C    1.273399
    20  N   -0.061049
    21  N   -0.436472
    29  C    1.363037
    30  C    1.418549
    41  C    1.427308
    45  C    1.382855
 Electronic spatial extent (au):  <R**2>=          11939.4710
 Charge=              0.0000 electrons
 Dipole moment (field-independent basis, Debye):
    X=              0.6576    Y=             -2.3007    Z=             -3.2553  Tot=              4.0401
 Quadrupole moment (field-independent basis, Debye-Ang):
   XX=           -134.0794   YY=           -161.5209   ZZ=           -140.7707
   XY=              5.5476   XZ=              4.5338   YZ=              3.0326
 Traceless Quadrupole moment (field-independent basis, Debye-Ang):
   XX=             11.3776   YY=            -16.0639   ZZ=              4.6863
   XY=              5.5476   XZ=              4.5338   YZ=              3.0326
 Octapole moment (field-independent basis, Debye-Ang**2):
  XXX=            101.0114  YYY=           -144.7397  ZZZ=             -2.9582  XYY=            -57.4951
  XXY=             57.6591  XXZ=            -85.6775  XZZ=             10.7307  YZZ=             -7.3541
  YYZ=            -43.3978  XYZ=              9.5502
 Hexadecapole moment (field-independent basis, Debye-Ang**3):
 XXXX=         -12167.3792 YYYY=          -4894.8705 ZZZZ=           -670.9064 XXXY=             69.9635
 XXXZ=            311.3201 YYYX=             19.4939 YYYZ=            -75.5155 ZZZX=              5.0886
 ZZZY=             23.8432 XXYY=          -2609.4716 XXZZ=          -2169.5812 YYZZ=           -754.2130
 XXYZ=            126.1302 YYXZ=            -79.3634 ZZXY=            -22.1106
 N-N= 1.707540081842D+03 E-N=-5.636156514208D+03  KE= 9.511908125427D+02
 Leave Link  601 at Thu Nov 11 18:27:08 2021, MaxMem=  7864320000 cpu:              17.5 elap:               0.7
 (Enter /apps/gaussian/g16-c01-avx/g16/l9999.exe)
 Unable to Open any file for archive entry.
 1\1\GINC-CX3-7-0\SP\RMP2-FC\Aug-CC-pVDZ\C17H26N4O1\ATARZIA\11-Nov-2021
 \0\\#P MP2/aug-cc-pVDZ SP SCF=(YQC,MaxCycle=900) int=(Grid=Superfinegr
 id) SCRF=(PCM,Solvent=Dichloromethane)\\_1_alde1_2_ami2_2_opt_dcm_mp2\
 \0,1\C,0,-2.1249,1.4052,0.3148\C,0,-2.8063,0.6719,1.3915\C,0,-2.8578,2
 .0313,-0.6864\C,0,-2.2073,2.7281,-1.7051\H,0,-3.9364,1.9933,-0.6917\C,
 0,-0.8176,2.7882,-1.7064\C,0,-0.0693,2.1644,-0.7072\H,0,-0.2889,3.3233
 ,-2.4809\C,0,-0.7312,1.4737,0.3013\C,0,1.3854,2.2339,-0.7155\H,0,-0.18
 26,0.9796,1.0903\C,0,-2.9691,3.3879,-2.7568\O,0,-2.2577,0.1035,2.3\C,0
 ,-4.9555,3.977,-3.8326\C,0,-5.7917,2.914,-4.609\N,0,-4.2299,3.3519,-2.
 7815\N,0,-6.6453,2.1401,-3.7274\C,0,3.9768,2.2004,-2.9253\C,0,3.4353,2
 .8762,-1.6284\N,0,3.3998,2.7798,-4.1242\N,0,2.0134,2.8466,-1.6222\H,0,
 -3.9109,0.68,1.3042\H,0,3.6267,3.7666,-4.185\H,0,2.3896,2.6973,-4.0882
 \H,0,-7.3033,2.7458,-3.2488\H,0,-6.0789,1.6814,-3.0222\H,0,-2.3776,3.9
 204,-3.5171\H,0,1.8949,1.7262,0.1172\C,0,-4.8475,1.9449,-5.323\C,0,5.4
 936,2.386,-2.9809\H,0,3.7373,3.9292,-1.6434\H,0,3.8782,2.3895,-0.7439\
 H,0,5.8763,1.9351,-3.8921\H,0,5.9708,1.9158,-2.1253\H,0,5.7511,3.4432,
 -2.9854\H,0,-5.6526,4.6837,-3.3692\H,0,-4.306,4.5243,-4.5357\H,0,-4.23
 54,2.4708,-6.0512\H,0,-5.4315,1.1842,-5.8329\H,0,-4.1941,1.4548,-4.604
 1\C,0,-6.6761,3.6325,-5.6288\H,0,-7.345,4.3318,-5.1316\H,0,-7.2775,2.9
 001,-6.1598\H,0,-6.0706,4.1806,-6.3457\C,0,3.6303,0.7104,-2.9066\H,0,2
 .5534,0.5732,-2.8349\H,0,4.1035,0.2165,-2.0617\H,0,3.9764,0.2491,-3.82
 7\\Version=ES64L-G16RevC.01\State=1-A\HF=-951.6677719\MP2=-954.9626891
 \RMSD=7.368e-09\PG=C01 [X(C17H26N4O1)]\\@
 The archive entry for this job was punched.


 I WOULD TAKE COUNSEL OF MYSELF.
 I WOULD STOP AND LOOK WITHIN
 AND LOOKING WITHIN, LOOK BACK, ALSO
 THAT I MAY LOOK AHEAD WITH CLEARER UNDERSTANDING
 OF THE WAY I HAVE BEEN MOVING, AND IN WHAT DIRECTION.
 I NEED TO KNOW IF I AM GOING FORWARD OR RETREATING,
 WHETHER I HAVE BEEN WASTING, OR ENJOYING
 THE PRECIOUS MOMENTS OF LIFE.  THERE HAVE BEEN FRICTIONS,
 ANNOYANCES AND SOMETIMES WRATH,
 BUT WERE THEY BECAUSE I WAS RIGHT AND OTHERS WRONG.....
 HAVE I HAD MY THOUGHTS TOO SHARPLY FOCUSED
 ON THAT WHICH PLEASED ME, SERVED MY SELF-ESTEEM,
 UNDERGIRDED MY SECURITY,
 OF WHICH I DID NOT INQUIRE WHETHER IT SERVED OR HAMPERED OTHERS.....
 HAVE I BEEN TRYING TO STOP THE CLOCK
 TO HOLD THE WORLD
 IN PERPETUATION OF WHAT WAS AN IS ALREADY SLIPPING AWAY.....
 HAVE I BEEN CRITICAL OF OTHERS FOR WHAT REALLY NEEDED CHANGING IN ME...
 LET ME INDEED TAKE COUNSEL OF MYSELF
 AND SET MY DIRECTIONS STRAIGHT.

                          R.T. WESTON AS ADAPTED BY D. OSBORN 1967
 Job cpu time:       0 days 20 hours 44 minutes 53.8 seconds.
 Elapsed time:       0 days  0 hours 40 minutes 28.3 seconds.
 File lengths (MBytes):  RWF= 221768 Int=      0 D2E=      0 Chk=     48 Scr=     16
 Normal termination of Gaussian 16 at Thu Nov 11 18:27:09 2021.
