 Entering Gaussian System, Link 0=g16
 Initial command:
 /apps/gaussian/g16-c01-avx/g16/l1.exe "/rds/general/ephemeral/user/atarzia/ephemeral/xtb_spe_DFT/Gau-2839569.inp" -scrdir="/rds/general/ephemeral/user/atarzia/ephemeral/xtb_spe_DFT/"
 Entering Link 1 = /apps/gaussian/g16-c01-avx/g16/l1.exe PID=   2839570.
  
 Copyright (c) 1988-2019, Gaussian, Inc.  All Rights Reserved.
  
 This is part of the Gaussian(R) 16 program.  It is based on
 the Gaussian(R) 09 system (copyright 2009, Gaussian, Inc.),
 the Gaussian(R) 03 system (copyright 2003, Gaussian, Inc.),
 the Gaussian(R) 98 system (copyright 1998, Gaussian, Inc.),
 the Gaussian(R) 94 system (copyright 1995, Gaussian, Inc.),
 the Gaussian 92(TM) system (copyright 1992, Gaussian, Inc.),
 the Gaussian 90(TM) system (copyright 1990, Gaussian, Inc.),
 the Gaussian 88(TM) system (copyright 1988, Gaussian, Inc.),
 the Gaussian 86(TM) system (copyright 1986, Carnegie Mellon
 University), and the Gaussian 82(TM) system (copyright 1983,
 Carnegie Mellon University). Gaussian is a federally registered
 trademark of Gaussian, Inc.
  
 This software contains proprietary and confidential information,
 including trade secrets, belonging to Gaussian, Inc.
  
 This software is provided under written license and may be
 used, copied, transmitted, or stored only in accord with that
 written license.
  
 The following legend is applicable only to US Government
 contracts under FAR:
  
                    RESTRICTED RIGHTS LEGEND
  
 Use, reproduction and disclosure by the US Government is
 subject to restrictions as set forth in subparagraphs (a)
 and (c) of the Commercial Computer Software - Restricted
 Rights clause in FAR 52.227-19.
  
 Gaussian, Inc.
 340 Quinnipiac St., Bldg. 40, Wallingford CT 06492
  
  
 ---------------------------------------------------------------
 Warning -- This program may not be used in any manner that
 competes with the business of Gaussian, Inc. or will provide
 assistance to any competitor of Gaussian, Inc.  The licensee
 of this program is prohibited from giving any competitor of
 Gaussian, Inc. access to this program.  By using this program,
 the user acknowledges that Gaussian, Inc. is engaged in the
 business of creating and licensing software in the field of
 computational chemistry and represents and warrants to the
 licensee that it is not a competitor of Gaussian, Inc. and that
 it will not use this program in any manner prohibited above.
 ---------------------------------------------------------------
  

 Cite this work as:
 Gaussian 16, Revision C.01,
 M. J. Frisch, G. W. Trucks, H. B. Schlegel, G. E. Scuseria, 
 M. A. Robb, J. R. Cheeseman, G. Scalmani, V. Barone, 
 G. A. Petersson, H. Nakatsuji, X. Li, M. Caricato, A. V. Marenich, 
 J. Bloino, B. G. Janesko, R. Gomperts, B. Mennucci, H. P. Hratchian, 
 J. V. Ortiz, A. F. Izmaylov, J. L. Sonnenberg, D. Williams-Young, 
 F. Ding, F. Lipparini, F. Egidi, J. Goings, B. Peng, A. Petrone, 
 T. Henderson, D. Ranasinghe, V. G. Zakrzewski, J. Gao, N. Rega, 
 G. Zheng, W. Liang, M. Hada, M. Ehara, K. Toyota, R. Fukuda, 
 J. Hasegawa, M. Ishida, T. Nakajima, Y. Honda, O. Kitao, H. Nakai, 
 T. Vreven, K. Throssell, J. A. Montgomery, Jr., J. E. Peralta, 
 F. Ogliaro, M. J. Bearpark, J. J. Heyd, E. N. Brothers, K. N. Kudin, 
 V. N. Staroverov, T. A. Keith, R. Kobayashi, J. Normand, 
 K. Raghavachari, A. P. Rendell, J. C. Burant, S. S. Iyengar, 
 J. Tomasi, M. Cossi, J. M. Millam, M. Klene, C. Adamo, R. Cammi, 
 J. W. Ochterski, R. L. Martin, K. Morokuma, O. Farkas, 
 J. B. Foresman, and D. J. Fox, Gaussian, Inc., Wallingford CT, 2019.
 
 ******************************************
 Gaussian 16:  ES64L-G16RevC.01  3-Jul-2019
                11-Nov-2021 
 ******************************************
 %chk=_1_alde1_3_ami2_2_opt_dcm_mp2.chk
 %mem=60000mb
 %nprocshared=32
 Will use up to   32 processors via shared memory.
 ----------------------------------------------------------------------
 #P MP2/aug-cc-pVDZ SP SCF=(YQC,MaxCycle=900) int=(Grid=Superfinegrid) 
 SCRF=(PCM,Solvent=Dichloromethane)
 ----------------------------------------------------------------------
 1/38=1,172=1/1;
 2/12=2,17=6,18=5,40=1/2;
 3/5=16,7=10,11=9,25=1,30=1,70=2201,72=9,75=-7/1,2,3;
 4//1;
 5/5=2,7=900,8=4,13=1,38=1,53=9/8,2,8;
 8/10=1/1;
 9/16=-3/6;
 6/7=2,8=2,9=2,10=2/1;
 99/5=1,9=1/99;
 Leave Link    1 at Thu Nov 11 16:18:57 2021, MaxMem=  7864320000 cpu:               7.4 elap:               0.3
 (Enter /apps/gaussian/g16-c01-avx/g16/l101.exe)
 -----------------------------
 _1_alde1_3_ami2_2_opt_dcm_mp2
 -----------------------------
 Symbolic Z-matrix:
 Charge =  0 Multiplicity = 1
 C                    -1.1198   -0.3285   -1.1965 
 C                    -0.7746   -1.4121   -0.2879 
 C                    -2.4466   -0.1077   -1.5679 
 C                    -2.7777    0.9253   -2.4367 
 H                    -3.2075   -0.7603   -1.1675 
 C                    -1.767     1.7464   -2.9382 
 C                    -0.4407    1.5395   -2.5779 
 H                    -2.0398    2.5421   -3.6145 
 C                    -0.1247    0.4982   -1.7044 
 C                     0.6031    2.4031   -3.1103 
 H                     0.9102    0.3485   -1.4367 
 C                    -4.1661    1.1427   -2.8161 
 C                    -2.0184   -3.0065    2.4589 
 C                    -1.2898   -3.2188    1.098 
 N                    -3.4547   -2.874     2.2921 
 C                    -1.7458   -4.2114    3.36 
 N                    -1.6503   -2.1855    0.1884 
 H                    -2.2671   -4.0785    4.3037 
 C                    -5.8712    2.2784   -3.9357 
 C                    -6.3114    3.7065   -3.4946 
 N                    -4.5033    2.0684   -3.6042 
 H                    -5.9535    2.219    -5.0268 
 N                    -5.4352    4.7346   -4.0272 
 C                    -7.7289    3.9678   -4.0051 
 C                     2.8151    3.1204   -3.3182 
 C                     3.5396    3.8433   -2.1434 
 N                     1.8174    2.2438   -2.807 
 H                     3.552     2.5023   -3.8433 
 N                     4.0582    2.9049   -1.1641 
 C                     2.5546    4.772    -1.4307 
 H                     1.7023    4.2058   -1.061 
 H                    -3.8394   -3.7134    1.8715 
 H                    -3.6499   -2.1005    1.6654 
 H                    -5.4456    4.7153   -5.0416 
 H                    -4.4833    4.5528   -3.7272 
 H                     0.2955   -1.5157   -0.0497 
 H                     0.2662    3.1962   -3.7959 
 H                    -0.6815   -4.3139    3.5542 
 H                    -2.1042   -5.1274    2.8947 
 H                    -6.5417    1.5267   -3.4864 
 H                    -7.7655    3.8948   -5.0902 
 H                    -8.0345    4.9698   -3.7175 
 H                    -8.4279    3.2496   -3.5848 
 H                     2.4103    3.8671   -4.0218 
 H                     2.1958    5.5435   -2.1074 
 H                     3.0498    5.2421   -0.586 
 C                    -6.2769    3.8022   -1.968 
 H                    -5.2777    3.581    -1.5987 
 H                    -6.9781    3.1008   -1.5231 
 H                    -6.542     4.8109   -1.6645 
 H                    -1.6391   -4.1649    0.6693 
 H                    -0.2015   -3.2834    1.2644 
 C                    -1.5007   -1.7279    3.1205 
 H                    -0.4387   -1.8103    3.3371 
 H                    -2.0407   -1.5583    4.0476 
 H                    -1.6598   -0.8734    2.4661 
 H                     4.7319    2.2813   -1.5962 
 H                     3.2973    2.3353   -0.8094 
 C                     4.7101    4.651    -2.7053 
 H                     4.3573    5.4045   -3.4045 
 H                     5.4132    4.       -3.2209 
 H                     5.2317    5.142    -1.8886 
 H                    -4.8979    0.4468   -2.3771 
 
 ITRead=  0  0  0  0  0  0  0  0  0  0  0  0  0  0  0  0  0  0  0  0
 ITRead=  0  0  0  0  0  0  0  0  0  0  0  0  0  0  0  0  0  0  0  0
 ITRead=  0  0  0  0  0  0  0  0  0  0  0  0  0  0  0  0  0  0  0  0
 ITRead=  0  0  0
 MicOpt= -1 -1 -1 -1 -1 -1 -1 -1 -1 -1 -1 -1 -1 -1 -1 -1 -1 -1 -1 -1
 MicOpt= -1 -1 -1 -1 -1 -1 -1 -1 -1 -1 -1 -1 -1 -1 -1 -1 -1 -1 -1 -1
 MicOpt= -1 -1 -1 -1 -1 -1 -1 -1 -1 -1 -1 -1 -1 -1 -1 -1 -1 -1 -1 -1
 MicOpt= -1 -1 -1
 NAtoms=     63 NQM=       63 NQMF=       0 NMMI=      0 NMMIF=      0
                NMic=       0 NMicF=      0.
                    Isotopes and Nuclear Properties:
 (Nuclear quadrupole moments (NQMom) in fm**2, nuclear magnetic moments (NMagM)
  in nuclear magnetons)

  Atom         1           2           3           4           5           6           7           8           9          10
 IAtWgt=          12          12          12          12           1          12          12           1          12          12
 AtmWgt=  12.0000000  12.0000000  12.0000000  12.0000000   1.0078250  12.0000000  12.0000000   1.0078250  12.0000000  12.0000000
 NucSpn=           0           0           0           0           1           0           0           1           0           0
 AtZEff=  -0.0000000  -0.0000000  -0.0000000  -0.0000000  -0.0000000  -0.0000000  -0.0000000  -0.0000000  -0.0000000  -0.0000000
 NQMom=    0.0000000   0.0000000   0.0000000   0.0000000   0.0000000   0.0000000   0.0000000   0.0000000   0.0000000   0.0000000
 NMagM=    0.0000000   0.0000000   0.0000000   0.0000000   2.7928460   0.0000000   0.0000000   2.7928460   0.0000000   0.0000000
 AtZNuc=   6.0000000   6.0000000   6.0000000   6.0000000   1.0000000   6.0000000   6.0000000   1.0000000   6.0000000   6.0000000

  Atom        11          12          13          14          15          16          17          18          19          20
 IAtWgt=           1          12          12          12          14          12          14           1          12          12
 AtmWgt=   1.0078250  12.0000000  12.0000000  12.0000000  14.0030740  12.0000000  14.0030740   1.0078250  12.0000000  12.0000000
 NucSpn=           1           0           0           0           2           0           2           1           0           0
 AtZEff=  -0.0000000  -0.0000000  -0.0000000  -0.0000000  -0.0000000  -0.0000000  -0.0000000  -0.0000000  -0.0000000  -0.0000000
 NQMom=    0.0000000   0.0000000   0.0000000   0.0000000   2.0440000   0.0000000   2.0440000   0.0000000   0.0000000   0.0000000
 NMagM=    2.7928460   0.0000000   0.0000000   0.0000000   0.4037610   0.0000000   0.4037610   2.7928460   0.0000000   0.0000000
 AtZNuc=   1.0000000   6.0000000   6.0000000   6.0000000   7.0000000   6.0000000   7.0000000   1.0000000   6.0000000   6.0000000

  Atom        21          22          23          24          25          26          27          28          29          30
 IAtWgt=          14           1          14          12          12          12          14           1          14          12
 AtmWgt=  14.0030740   1.0078250  14.0030740  12.0000000  12.0000000  12.0000000  14.0030740   1.0078250  14.0030740  12.0000000
 NucSpn=           2           1           2           0           0           0           2           1           2           0
 AtZEff=  -0.0000000  -0.0000000  -0.0000000  -0.0000000  -0.0000000  -0.0000000  -0.0000000  -0.0000000  -0.0000000  -0.0000000
 NQMom=    2.0440000   0.0000000   2.0440000   0.0000000   0.0000000   0.0000000   2.0440000   0.0000000   2.0440000   0.0000000
 NMagM=    0.4037610   2.7928460   0.4037610   0.0000000   0.0000000   0.0000000   0.4037610   2.7928460   0.4037610   0.0000000
 AtZNuc=   7.0000000   1.0000000   7.0000000   6.0000000   6.0000000   6.0000000   7.0000000   1.0000000   7.0000000   6.0000000

  Atom        31          32          33          34          35          36          37          38          39          40
 IAtWgt=           1           1           1           1           1           1           1           1           1           1
 AtmWgt=   1.0078250   1.0078250   1.0078250   1.0078250   1.0078250   1.0078250   1.0078250   1.0078250   1.0078250   1.0078250
 NucSpn=           1           1           1           1           1           1           1           1           1           1
 AtZEff=  -0.0000000  -0.0000000  -0.0000000  -0.0000000  -0.0000000  -0.0000000  -0.0000000  -0.0000000  -0.0000000  -0.0000000
 NQMom=    0.0000000   0.0000000   0.0000000   0.0000000   0.0000000   0.0000000   0.0000000   0.0000000   0.0000000   0.0000000
 NMagM=    2.7928460   2.7928460   2.7928460   2.7928460   2.7928460   2.7928460   2.7928460   2.7928460   2.7928460   2.7928460
 AtZNuc=   1.0000000   1.0000000   1.0000000   1.0000000   1.0000000   1.0000000   1.0000000   1.0000000   1.0000000   1.0000000

  Atom        41          42          43          44          45          46          47          48          49          50
 IAtWgt=           1           1           1           1           1           1          12           1           1           1
 AtmWgt=   1.0078250   1.0078250   1.0078250   1.0078250   1.0078250   1.0078250  12.0000000   1.0078250   1.0078250   1.0078250
 NucSpn=           1           1           1           1           1           1           0           1           1           1
 AtZEff=  -0.0000000  -0.0000000  -0.0000000  -0.0000000  -0.0000000  -0.0000000  -0.0000000  -0.0000000  -0.0000000  -0.0000000
 NQMom=    0.0000000   0.0000000   0.0000000   0.0000000   0.0000000   0.0000000   0.0000000   0.0000000   0.0000000   0.0000000
 NMagM=    2.7928460   2.7928460   2.7928460   2.7928460   2.7928460   2.7928460   0.0000000   2.7928460   2.7928460   2.7928460
 AtZNuc=   1.0000000   1.0000000   1.0000000   1.0000000   1.0000000   1.0000000   6.0000000   1.0000000   1.0000000   1.0000000

  Atom        51          52          53          54          55          56          57          58          59          60
 IAtWgt=           1           1          12           1           1           1           1           1          12           1
 AtmWgt=   1.0078250   1.0078250  12.0000000   1.0078250   1.0078250   1.0078250   1.0078250   1.0078250  12.0000000   1.0078250
 NucSpn=           1           1           0           1           1           1           1           1           0           1
 AtZEff=  -0.0000000  -0.0000000  -0.0000000  -0.0000000  -0.0000000  -0.0000000  -0.0000000  -0.0000000  -0.0000000  -0.0000000
 NQMom=    0.0000000   0.0000000   0.0000000   0.0000000   0.0000000   0.0000000   0.0000000   0.0000000   0.0000000   0.0000000
 NMagM=    2.7928460   2.7928460   0.0000000   2.7928460   2.7928460   2.7928460   2.7928460   2.7928460   0.0000000   2.7928460
 AtZNuc=   1.0000000   1.0000000   6.0000000   1.0000000   1.0000000   1.0000000   1.0000000   1.0000000   6.0000000   1.0000000

  Atom        61          62          63
 IAtWgt=           1           1           1
 AtmWgt=   1.0078250   1.0078250   1.0078250
 NucSpn=           1           1           1
 AtZEff=  -0.0000000  -0.0000000  -0.0000000
 NQMom=    0.0000000   0.0000000   0.0000000
 NMagM=    2.7928460   2.7928460   2.7928460
 AtZNuc=   1.0000000   1.0000000   1.0000000
 Leave Link  101 at Thu Nov 11 16:18:57 2021, MaxMem=  7864320000 cpu:               2.7 elap:               0.1
 (Enter /apps/gaussian/g16-c01-avx/g16/l202.exe)
 Stoichiometry    C21H36N6
 Framework group  C1[X(C21H36N6)]
 Deg. of freedom   183
 Full point group                 C1      NOp   1
 Largest Abelian subgroup         C1      NOp   1
 Largest concise Abelian subgroup C1      NOp   1
                         Standard orientation:                         
 ---------------------------------------------------------------------
 Center     Atomic      Atomic             Coordinates (Angstroms)
 Number     Number       Type             X           Y           Z
 ---------------------------------------------------------------------
      1          6           0       -1.169673   -0.766423   -0.790060
      2          6           0       -2.384444   -1.568444   -0.790737
      3          6           0       -1.238045    0.627282   -0.790055
      4          6           0       -0.079215    1.394513   -0.791224
      5          1           0       -2.211449    1.093813   -0.793050
      6          6           0        1.162049    0.756951   -0.791829
      7          6           0        1.247006   -0.630305   -0.791846
      8          1           0        2.052673    1.366630   -0.796194
      9          6           0        0.074205   -1.386413   -0.790396
     10          6           0        2.548848   -1.281439   -0.794116
     11          1           0        0.156900   -2.462630   -0.793631
     12          6           0       -0.166294    2.847536   -0.792441
     13          6           0       -5.538033   -1.523638    0.508080
     14          6           0       -4.702203   -1.847229   -0.766540
     15          7           0       -5.823705   -0.104862    0.625561
     16          6           0       -6.865344   -2.279283    0.435120
     17          7           0       -3.530330   -1.040450   -0.795901
     18          1           0       -7.461214   -2.042669    1.312011
     19          6           0        0.751507    4.994088   -0.767099
     20          6           0        1.448827    5.556063    0.507948
     21          7           0        0.863948    3.575761   -0.796250
     22          1           0        1.283772    5.379902   -1.643821
     23          7           0        2.820278    5.094013    0.626310
     24          6           0        1.458202    7.083413    0.435083
     25          6           0        3.948953   -3.149524   -0.768669
     26          6           0        4.090371   -4.030850    0.508400
     27          7           0        2.664335   -2.537842   -0.796241
     28          1           0        4.014730   -3.805812   -1.643746
     29          7           0        3.004946   -4.987438    0.632333
     30          6           0        4.074598   -3.136705    1.749733
     31          1           0        3.153595   -2.558723    1.786664
     32          1           0       -6.358776    0.214224   -0.175297
     33          1           0       -4.951619    0.413299    0.637175
     34          1           0        3.364572    5.397882   -0.174249
     35          1           0        2.832900    4.079681    0.637998
     36          1           0       -2.238502   -2.659903   -0.792568
     37          1           0        3.421262   -0.609564   -0.799934
     38          1           0       -6.696101   -3.352178    0.400376
     39          1           0       -7.425254   -1.986677   -0.450822
     40          1           0       -0.294406    5.342270   -0.803566
     41          1           0        1.992019    7.422043   -0.450626
     42          1           0        1.960688    7.481093    1.312275
     43          1           0        0.444402    7.473338    0.399984
     44          1           0        4.773321   -2.417920   -0.809291
     45          1           0        4.918304   -2.451183    1.740048
     46          1           0        4.129824   -3.756049    2.640293
     47          6           0        0.686807    5.094179    1.751670
     48          1           0        0.646744    4.007524    1.787563
     49          1           0       -0.328560    5.482228    1.746342
     50          1           0        1.199096    5.450609    2.640705
     51          1           0       -5.302320   -1.579780   -1.643598
     52          1           0       -4.480643   -2.926993   -0.802321
     53          6           0       -4.757383   -1.951935    1.752142
     54          1           0       -4.586003   -3.025320    1.747503
     55          1           0       -5.322307   -1.685762    2.640901
     56          1           0       -3.796141   -1.443554    1.787985
     57          1           0        2.993877   -5.612984   -0.166434
     58          1           0        2.120160   -4.491232    0.644947
     59          6           0        5.408223   -4.802810    0.434071
     60          1           0        6.252683   -4.119819    0.395073
     61          1           0        5.432373   -5.436706   -0.450003
     62          1           0        5.503716   -5.434539    1.312676
     63          1           0       -1.184405    3.267024   -0.795443
 ---------------------------------------------------------------------
 Rotational constants (GHZ):           0.1098986           0.1097949           0.0590251
 Leave Link  202 at Thu Nov 11 16:18:57 2021, MaxMem=  7864320000 cpu:               0.2 elap:               0.0
 (Enter /apps/gaussian/g16-c01-avx/g16/l301.exe)
 Standard basis: Aug-CC-pVDZ (5D, 7F)
 Ernie: Thresh=  0.10000D-02 Tol=  0.10000D-05 Strict=F.
 Ernie:  54 primitive shells out of 927 were deleted.
 There are   999 symmetry adapted cartesian basis functions of A   symmetry.
 There are   945 symmetry adapted basis functions of A   symmetry.
   945 basis functions,  1557 primitive gaussians,   999 cartesian basis functions
   102 alpha electrons      102 beta electrons
       nuclear repulsion energy      2380.3510794612 Hartrees.
 IExCor=    0 DFT=F Ex=HF Corr=None ExCW=0 ScaHFX=  1.000000
 ScaDFX=  1.000000  1.000000  1.000000  1.000000 ScalE2=  1.000000  1.000000
 IRadAn=      7 IRanWt=     -1 IRanGd=            0 ICorTp=0 IEmpDi=  4
 NAtoms=   63 NActive=   63 NUniq=   63 SFac= 1.00D+00 NAtFMM=   60 NAOKFM=T Big=T
 Integral buffers will be    131072 words long.
 Raffenetti 1 integral format.
 Two-electron integral symmetry is turned on.
 ------------------------------------------------------------------------------
 Polarizable Continuum Model (PCM)
 =================================
 Model                : PCM.
 Atomic radii         : UFF (Universal Force Field).
 Polarization charges : Total charges.
 Charge compensation  : None.
 Solution method      : On-the-fly selection.
 Cavity type          : Scaled VdW (van der Waals Surface) (Alpha=1.100).
 Cavity algorithm     : GePol (No added spheres)
                        Default sphere list used, NSphG=   63.
                        Lebedev-Laikov grids with approx.  5.0 points / Ang**2.
                        Smoothing algorithm: York/Karplus (Gamma=1.0000).
                        Polarization charges: spherical gaussians, with
                                              point-specific exponents (IZeta= 3).
                        Self-potential: point-specific (ISelfS= 7).
                        Self-field    : sphere-specific E.n sum rule (ISelfD= 2).
 Solvent              : Dichloromethane, Eps=   8.930000 Eps(inf)=   2.028346
 ------------------------------------------------------------------------------
 GePol: Number of generator spheres                  =      63
 GePol: Total number of spheres                      =      63
 GePol: Number of exposed spheres                    =      63 (100.00%)
 GePol: Number of points                             =    4092
 GePol: Average weight of points                     =       0.13
 GePol: Minimum weight of points                     =   0.75D-10
 GePol: Maximum weight of points                     =    0.20577
 GePol: Number of points with low weight             =     269
 GePol: Fraction of low-weight points (<1% of avg)   =       6.57%
 GePol: Cavity surface area                          =    545.663 Ang**2
 GePol: Cavity volume                                =    593.570 Ang**3
 Leave Link  301 at Thu Nov 11 16:18:57 2021, MaxMem=  7864320000 cpu:               1.4 elap:               0.1
 (Enter /apps/gaussian/g16-c01-avx/g16/l302.exe)
 NPDir=0 NMtPBC=     1 NCelOv=     1 NCel=       1 NClECP=     1 NCelD=      1
         NCelK=      1 NCelE2=     1 NClLst=     1 CellRange=     0.0.
 One-electron integrals computed using PRISM.
 One-electron integral symmetry used in STVInt
 NBasis=   945 RedAO= T EigKep=  1.13D-06  NBF=   945
 NBsUse=   942 1.00D-06 EigRej=  6.00D-07 NBFU=   942
 Leave Link  302 at Thu Nov 11 16:18:59 2021, MaxMem=  7864320000 cpu:              52.0 elap:               1.7
 (Enter /apps/gaussian/g16-c01-avx/g16/l303.exe)
 DipDrv:  MaxL=1.
 Leave Link  303 at Thu Nov 11 16:18:59 2021, MaxMem=  7864320000 cpu:               6.5 elap:               0.3
 (Enter /apps/gaussian/g16-c01-avx/g16/l401.exe)
 ExpMin= 2.97D-02 ExpMax= 9.05D+03 ExpMxC= 3.09D+02 IAcc=3 IRadAn=         7 AccDes= 0.00D+00
 Harris functional with IExCor=  205 and IRadAn=       7 diagonalized for initial guess.
 HarFok:  IExCor=  205 AccDes= 0.00D+00 IRadAn=         7 IDoV= 1 UseB2=F ITyADJ=14
 ICtDFT=  3500011 ScaDFX=  1.000000  1.000000  1.000000  1.000000
 FoFCou: FMM=F IPFlag=           0 FMFlag=      100000 FMFlg1=        2001
         NFxFlg=           0 DoJE=T BraDBF=F KetDBF=T FulRan=T
         wScrn=  0.000000 ICntrl=       500 IOpCl=  0 I1Cent=   200000004 NGrid=           0
         NMat0=    1 NMatS0=      1 NMatT0=    0 NMatD0=    1 NMtDS0=    0 NMtDT0=    0
 Petite list used in FoFCou.
 Harris En= -1144.92550184141    
 JPrj=0 DoOrth=F DoCkMO=F.
 Leave Link  401 at Thu Nov 11 16:19:08 2021, MaxMem=  7864320000 cpu:             279.9 elap:               9.0
 (Enter /apps/gaussian/g16-c01-avx/g16/l508.exe)
 Integral symmetry usage will be decided dynamically.
 Tight linear equation convergence will be used.
 RHF wavefunction.
 Linear searches until partial convergence.
 Full line searches.
 Fock matrices will be formed incrementally for  20 cycles.
 Inv3:  Mode=1 IEnd=    50233392.
 Iteration    1 A*A^-1 deviation from unit magnitude is 9.10D-15 for   4081.
 Iteration    1 A*A^-1 deviation from orthogonality  is 3.51D-15 for   4089   3516.
 Iteration    1 A^-1*A deviation from unit magnitude is 9.44D-15 for   4081.
 Iteration    1 A^-1*A deviation from orthogonality  is 1.39D-14 for   2790   2762.
 FoFJK:  IHMeth= 1 ICntrl=       0 DoSepK=F KAlg= 0 I1Cent=           0 FoldK=F
 IRaf= 990000000 NMat=       1 IRICut=       1 DoRegI=T DoRafI=F ISym2E= 1 IDoP0=0 IntGTp=1.
 Iteration   1 EE= -1141.78453131621                                    Grad=1.732D+00 Max rot=    2.6000 deg.
 Gradient too large for Newton-Raphson -- use scaled steepest descent instead.
 Alpha Gap=     0.400 HL deriv= 1.60D-02
     ILin= 1 X=0.000D+00 Y=-1.141784531316D+03 DE= 0.00D+00 F= -3.99D+00
 RMSU=  6.49D-03    CP:  7.90D-01
     ILin= 2 X=3.000D-01 Y=-1.142670395555D+03 DE=-8.86D-01 F= -1.91D+00 OKLS=F
 RMSU=  1.30D-03    CP:  6.75D-01  1.48D+00
     ILin= 3 X=5.000D-01 Y=-1.142911598349D+03 DE=-1.13D+00 F= -5.05D-01
 RMSU=  1.30D-03    CP:  5.40D-01  1.90D+00  3.00D+00
     ILin= 4 X=8.000D-01 Y=-1.142748804076D+03 DE=-9.64D-01 F=  1.58D+00
     An  expanding polynomial of degree  4 produced  0.5725
 RMSU=  2.28D-06    CP:  6.38D-01  1.61D+00  1.56D+00  3.18D-05
 Iteration   2 EE= -1142.92979197531     Delta-E=       -1.145260659099 Grad=5.676D-01 Max rot=    0.9724 deg.
 Gradient too large for Newton-Raphson -- use scaled steepest descent instead.
 Alpha Gap=     0.441 HL deriv= 1.39D-02
     ILin= 1 X=0.000D+00 Y=-1.142929791975D+03 DE= 0.00D+00 F= -1.71D-01
 RMSU=  1.43D-03    CP:  5.67D-01  1.69D+00  2.64D+00  2.08D-03  3.00D+00
     ILin= 2 X=4.000D-01 Y=-1.142982048980D+03 DE=-5.23D-02 F= -9.07D-02 OKLS=F
 RMSU=  2.38D-04    CP:  5.06D-01  1.72D+00  3.00D+00  1.03D+00  3.00D+00
                    CP:  1.89D+00
     ILin= 3 X=8.000D-01 Y=-1.143002412213D+03 DE=-7.26D-02 F= -1.11D-02
 RMSU=  3.15D-03    CP:  4.07D-01  1.56D+00  3.00D+00  3.00D+00  3.00D+00
                    CP:  3.00D+00  3.00D+00
     ILin= 4 X=1.700D+00 Y=-1.142932315377D+03 DE=-2.52D-03 F=  1.67D-01
     An  expanding polynomial of degree  4 produced  0.8562
     Minimum is close to point  3 DX=  5.62D-02 DF= -3.13D-04 DXR=  6.56D-02 DFR=  4.32D-03 which will be used.
 Iteration   3 EE= -1143.00241221327     Delta-E=       -0.072620237955 Grad=1.594D-01 Max rot=    0.2430 deg.
 Gradient too large for Newton-Raphson -- use scaled steepest descent instead.
 Alpha Gap=     0.429 HL deriv= 1.78D-03
     ILin= 1 X=0.000D+00 Y=-1.143002412213D+03 DE= 0.00D+00 F= -2.24D-02
 RMSU=  7.49D-04    CP:  4.83D-01  1.70D+00  3.00D+00  1.86D+00  3.00D+00
                    CP:  2.26D+00  1.84D+00 -4.95D-04
     ILin= 2 X=7.000D-01 Y=-1.143010701491D+03 DE=-8.29D-03 F= -1.32D-03 OKLS=T
     Reject lnstep IMin12=  1  2 Big=T Turn=F Min= 1.306D+00 FVal=-1.143011373100D+03 Lims=  0.00D+00  7.00D-01
 RMSU=  7.53D-05    CP:  4.62D-01  1.67D+00  3.00D+00  2.73D+00 -3.00D+00
                    CP:  2.60D+00  2.87D+00 -8.90D-04  1.93D+00
     ILin= 3 X=1.400D+00 Y=-1.143004260872D+03 DE=-1.85D-03 F=  1.97D-02
     An  expanding polynomial of degree  3 produced  0.7439
     Minimum is close to point  2 DX=  4.39D-02 DF= -2.90D-05 DXR=  5.90D-02 DFR=  3.50D-03 which will be used.
 Iteration   4 EE= -1143.01070149074     Delta-E=       -0.008289277479 Grad=6.062D-02 Max rot=    0.1523 deg.
 Gradient too large for Newton-Raphson -- use scaled steepest descent instead.
 Alpha Gap=     0.437 HL deriv= 3.73D-03
     ILin= 1 X=0.000D+00 Y=-1.143010701491D+03 DE= 0.00D+00 F= -3.48D-03
 RMSU=  1.86D-04    CP:  4.70D-01  1.69D+00  3.00D+00  2.14D+00  3.00D+00
                    CP:  2.48D+00  2.48D+00 -5.97D-04  1.17D+00  3.88D-01
     ILin= 2 X=8.000D-01 Y=-1.143012195080D+03 DE=-1.49D-03 F= -2.53D-04 OKLS=T
     Reject lnstep IMin12=  1  2 Big=T Turn=F Min= 1.027D+00 FVal=-1.143012226389D+03 Lims=  0.00D+00  8.00D-01
 RMSU=  4.19D-05    CP:  4.59D-01  1.68D+00  3.00D+00  2.42D+00  3.00D+00
                    CP:  2.70D+00  3.00D+00  3.16D-03  1.32D+00  9.05D-01
                    CP:  2.00D+00
     ILin= 3 X=1.600D+00 Y=-1.143011109031D+03 DE=-4.08D-04 F=  2.97D-03
     An  expanding polynomial of degree  3 produced  0.8632
     Minimum is close to point  2 DX=  6.32D-02 DF= -8.05D-06 DXR=  7.32D-02 DFR=  5.39D-03 which will be used.
 Iteration   5 EE= -1143.01219507997     Delta-E=       -0.001493589222 Grad=2.295D-02 Max rot=    0.0696 deg.
 Gradient too large for Newton-Raphson -- use scaled steepest descent instead.
 Alpha Gap=     0.436 HL deriv= 1.12D-03
     ILin= 1 X=0.000D+00 Y=-1.143012195080D+03 DE= 0.00D+00 F= -7.64D-04
 RMSU=  5.61D-05    CP:  4.67D-01  1.68D+00  3.00D+00  2.25D+00  3.00D+00
                    CP:  2.54D+00  2.67D+00 -6.73D-04  1.38D+00  6.69D-01
                    CP:  1.23D+00  3.75D-03
     ILin= 2 X=8.000D-01 Y=-1.143012491434D+03 DE=-2.96D-04 F=  2.35D-05 OKLS=T
     Accept linear search using points  1 and  2.
     An  expanding polynomial of degree  2 produced  0.7536
     Minimum is close to point  2 DX= -4.64D-02 DF= -6.93D-07 DXR=  6.16D-02 DFR=  2.34D-03 which will be used.
 Iteration   6 EE= -1143.01249143380     Delta-E=       -0.000296353832 Grad=1.085D-02 Max rot=    0.0458 deg.
 Gradient too large for Newton-Raphson -- use scaled steepest descent instead.
 Alpha Gap=     0.438 HL deriv= 1.52D-03
     ILin= 1 X=0.000D+00 Y=-1.143012491434D+03 DE= 0.00D+00 F= -2.07D-04
 RMSU=  2.01D-05    CP:  4.66D-01  1.68D+00  3.00D+00  2.26D+00  2.04D+00
                    CP:  2.57D+00  2.77D+00 -6.92D-04  1.40D+00  7.45D-01
                    CP:  1.51D+00  1.48D-02  1.30D+00
     ILin= 2 X=8.000D-01 Y=-1.143012565322D+03 DE=-7.39D-05 F=  2.24D-05 OKLS=T
     Accept linear search using points  1 and  2.
     An  expanding polynomial of degree  2 produced  0.6734
 RMSU=  7.36D-07    CP:  4.66D-01  1.68D+00  3.00D+00  2.26D+00  2.57D+00
                    CP:  2.57D+00  2.76D+00 -6.91D-04  1.40D+00  7.29D-01
                    CP:  1.47D+00  1.35D-02  1.25D+00  8.47D-01
 Iteration   7 EE= -1143.01256585523     Delta-E=       -0.000074421429 Grad=4.835D-03 Max rot=    0.0264 deg.
 SCF Done:  E(RHF) =  -1143.01256586     a.u. after    7 cycles
            Convg  =    0.4835D-02                    15 Fock formations.
              S**2 =  0.0000                  -V/T =  2.0004
 Leave Link  508 at Thu Nov 11 16:30:27 2021, MaxMem=  7864320000 cpu:           21043.6 elap:             679.6
 (Enter /apps/gaussian/g16-c01-avx/g16/l502.exe)
 Integral symmetry usage will be decided dynamically.
 Closed shell SCF:
 Using DIIS extrapolation, IDIIS=  1040.
 NGot=  7864320000 LenX=  7862281100 LenY=  7861282100
 Requested convergence on RMS density matrix=1.00D-08 within 128 cycles.
 Requested convergence on MAX density matrix=1.00D-06.
 Requested convergence on             energy=1.00D-06.
 No special actions if energy rises.
 Fock matrices will be formed incrementally for  20 cycles.

 Cycle   1  Pass 1  IDiag  1:
 FoFJK:  IHMeth= 1 ICntrl=       0 DoSepK=F KAlg= 0 I1Cent=           0 FoldK=F
 IRaf= 990000000 NMat=       1 IRICut=       1 DoRegI=T DoRafI=F ISym2E= 0 IDoP0=0 IntGTp=1.
 FoFCou: FMM=T IPFlag=           0 FMFlag=      100000 FMFlg1=        2001
         NFxFlg=           0 DoJE=F BraDBF=F KetDBF=F FulRan=T
         wScrn=  0.000000 ICntrl=         0 IOpCl=  0 I1Cent=           0 NGrid=           0
         NMat0=    1 NMatS0=      1 NMatT0=    0 NMatD0=    1 NMtDS0=    0 NMtDT0=    0
 Symmetry not used in FoFCou.
 FMM levels:  10  Number of levels for PrismC:   9
 E= -1143.01256585708    
 DIIS: error= 7.58D-05 at cycle   1 NSaved=   1.
 NSaved= 1 IEnMin= 1 EnMin= -1143.01256585708     IErMin= 1 ErrMin= 7.58D-05
 ErrMax= 7.58D-05  0.00D+00 EMaxC= 1.00D-01 BMatC= 1.17D-05 BMatP= 1.17D-05
 IDIUse=1 WtCom= 1.00D+00 WtEn= 0.00D+00
 Coeff-Com:  0.100D+01
 Coeff:      0.100D+01
 Gap=     0.437 Goal=   None    Shift=    0.000
 RMSDP=8.22D-05 MaxDP=1.11D-02              OVMax= 1.77D-03

 Cycle   2  Pass 1  IDiag  1:
 RMSU=  7.51D-05    CP:  9.99D-01
 E= -1143.01259169529     Delta-E=       -0.000025838216 Rises=F Damp=F
 DIIS: error= 3.65D-05 at cycle   2 NSaved=   2.
 NSaved= 2 IEnMin= 2 EnMin= -1143.01259169529     IErMin= 2 ErrMin= 3.65D-05
 ErrMax= 3.65D-05  0.00D+00 EMaxC= 1.00D-01 BMatC= 2.72D-06 BMatP= 1.17D-05
 IDIUse=1 WtCom= 1.00D+00 WtEn= 0.00D+00
 Coeff-Com:  0.181D+00 0.819D+00
 Coeff:      0.181D+00 0.819D+00
 Gap=     0.360 Goal=   None    Shift=    0.000
 RMSDP=1.65D-05 MaxDP=2.08D-03 DE=-2.58D-05 OVMax= 7.73D-04

 Cycle   3  Pass 1  IDiag  1:
 RMSU=  1.16D-05    CP:  9.99D-01  1.14D+00
 E= -1143.01259717018     Delta-E=       -0.000005474889 Rises=F Damp=F
 DIIS: error= 2.12D-05 at cycle   3 NSaved=   3.
 NSaved= 3 IEnMin= 3 EnMin= -1143.01259717018     IErMin= 3 ErrMin= 2.12D-05
 ErrMax= 2.12D-05  0.00D+00 EMaxC= 1.00D-01 BMatC= 7.53D-07 BMatP= 2.72D-06
 IDIUse=1 WtCom= 1.00D+00 WtEn= 0.00D+00
 Coeff-Com: -0.213D+00 0.103D+00 0.111D+01
 Coeff:     -0.213D+00 0.103D+00 0.111D+01
 Gap=     0.360 Goal=   None    Shift=    0.000
 RMSDP=1.61D-05 MaxDP=2.02D-03 DE=-5.47D-06 OVMax= 8.54D-04

 Cycle   4  Pass 1  IDiag  1:
 RMSU=  9.21D-06    CP:  9.99D-01  1.29D+00  1.61D+00
 E= -1143.01259986003     Delta-E=       -0.000002689848 Rises=F Damp=F
 DIIS: error= 1.30D-05 at cycle   4 NSaved=   4.
 NSaved= 4 IEnMin= 4 EnMin= -1143.01259986003     IErMin= 4 ErrMin= 1.30D-05
 ErrMax= 1.30D-05  0.00D+00 EMaxC= 1.00D-01 BMatC= 9.98D-08 BMatP= 7.53D-07
 IDIUse=1 WtCom= 1.00D+00 WtEn= 0.00D+00
 Coeff-Com:  0.226D-01-0.676D-01-0.223D+00 0.127D+01
 Coeff:      0.226D-01-0.676D-01-0.223D+00 0.127D+01
 Gap=     0.360 Goal=   None    Shift=    0.000
 RMSDP=7.67D-06 MaxDP=9.92D-04 DE=-2.69D-06 OVMax= 4.81D-04

 Cycle   5  Pass 1  IDiag  1:
 RMSU=  2.99D-06    CP:  9.99D-01  1.31D+00  1.97D+00  1.52D+00
 E= -1143.01260048182     Delta-E=       -0.000000621790 Rises=F Damp=F
 DIIS: error= 6.90D-06 at cycle   5 NSaved=   5.
 NSaved= 5 IEnMin= 5 EnMin= -1143.01260048182     IErMin= 5 ErrMin= 6.90D-06
 ErrMax= 6.90D-06  0.00D+00 EMaxC= 1.00D-01 BMatC= 4.62D-08 BMatP= 9.98D-08
 IDIUse=1 WtCom= 1.00D+00 WtEn= 0.00D+00
 Coeff-Com:  0.874D-01-0.469D-01-0.506D+00 0.367D+00 0.110D+01
 Coeff:      0.874D-01-0.469D-01-0.506D+00 0.367D+00 0.110D+01
 Gap=     0.360 Goal=   None    Shift=    0.000
 RMSDP=6.38D-06 MaxDP=7.23D-04 DE=-6.22D-07 OVMax= 3.57D-04

 Cycle   6  Pass 1  IDiag  1:
 RMSU=  1.35D-06    CP:  9.99D-01  1.32D+00  2.26D+00  1.98D+00  1.77D+00
 E= -1143.01260072286     Delta-E=       -0.000000241035 Rises=F Damp=F
 DIIS: error= 2.74D-06 at cycle   6 NSaved=   6.
 NSaved= 6 IEnMin= 6 EnMin= -1143.01260072286     IErMin= 6 ErrMin= 2.74D-06
 ErrMax= 2.74D-06  0.00D+00 EMaxC= 1.00D-01 BMatC= 4.33D-09 BMatP= 4.62D-08
 IDIUse=1 WtCom= 1.00D+00 WtEn= 0.00D+00
 Coeff-Com: -0.306D-01 0.331D-01 0.192D+00-0.342D+00-0.456D+00 0.160D+01
 Coeff:     -0.306D-01 0.331D-01 0.192D+00-0.342D+00-0.456D+00 0.160D+01
 Gap=     0.360 Goal=   None    Shift=    0.000
 RMSDP=3.03D-06 MaxDP=3.09D-04 DE=-2.41D-07 OVMax= 1.75D-04

 Cycle   7  Pass 1  IDiag  1:
 RMSU=  5.42D-07    CP:  9.99D-01  1.33D+00  2.40D+00  2.16D+00  2.27D+00
                    CP:  1.64D+00
 E= -1143.01260075787     Delta-E=       -0.000000035014 Rises=F Damp=F
 DIIS: error= 4.21D-07 at cycle   7 NSaved=   7.
 NSaved= 7 IEnMin= 7 EnMin= -1143.01260075787     IErMin= 7 ErrMin= 4.21D-07
 ErrMax= 4.21D-07  0.00D+00 EMaxC= 1.00D-01 BMatC= 1.72D-10 BMatP= 4.33D-09
 IDIUse=1 WtCom= 1.00D+00 WtEn= 0.00D+00
 Coeff-Com:  0.493D-03-0.229D-02-0.525D-02 0.402D-01 0.122D-03-0.204D+00
 Coeff-Com:  0.117D+01
 Coeff:      0.493D-03-0.229D-02-0.525D-02 0.402D-01 0.122D-03-0.204D+00
 Coeff:      0.117D+01
 Gap=     0.360 Goal=   None    Shift=    0.000
 RMSDP=3.33D-07 MaxDP=3.70D-05 DE=-3.50D-08 OVMax= 1.66D-05

 Cycle   8  Pass 1  IDiag  1:
 RMSU=  1.39D-07    CP:  9.99D-01  1.33D+00  2.41D+00  2.18D+00  2.28D+00
                    CP:  1.71D+00  1.24D+00
 E= -1143.01260075867     Delta-E=       -0.000000000801 Rises=F Damp=F
 DIIS: error= 2.36D-07 at cycle   8 NSaved=   8.
 NSaved= 8 IEnMin= 8 EnMin= -1143.01260075867     IErMin= 8 ErrMin= 2.36D-07
 ErrMax= 2.36D-07  0.00D+00 EMaxC= 1.00D-01 BMatC= 4.85D-11 BMatP= 1.72D-10
 IDIUse=1 WtCom= 1.00D+00 WtEn= 0.00D+00
 Coeff-Com:  0.479D-02-0.525D-02-0.312D-01 0.579D-01 0.626D-01-0.263D+00
 Coeff-Com:  0.113D+00 0.106D+01
 Coeff:      0.479D-02-0.525D-02-0.312D-01 0.579D-01 0.626D-01-0.263D+00
 Coeff:      0.113D+00 0.106D+01
 Gap=     0.360 Goal=   None    Shift=    0.000
 RMSDP=1.80D-07 MaxDP=1.70D-05 DE=-8.01D-10 OVMax= 9.52D-06

 Cycle   9  Pass 1  IDiag  1:
 RMSU=  6.92D-08    CP:  9.99D-01  1.33D+00  2.42D+00  2.19D+00  2.30D+00
                    CP:  1.75D+00  1.32D+00  1.27D+00
 E= -1143.01260075900     Delta-E=       -0.000000000331 Rises=F Damp=F
 DIIS: error= 1.51D-07 at cycle   9 NSaved=   9.
 NSaved= 9 IEnMin= 9 EnMin= -1143.01260075900     IErMin= 9 ErrMin= 1.51D-07
 ErrMax= 1.51D-07  0.00D+00 EMaxC= 1.00D-01 BMatC= 9.14D-12 BMatP= 4.85D-11
 IDIUse=1 WtCom= 1.00D+00 WtEn= 0.00D+00
 Coeff-Com: -0.186D-02 0.265D-02 0.123D-01-0.271D-01-0.265D-01 0.141D+00
 Coeff-Com: -0.231D+00-0.540D+00 0.167D+01
 Coeff:     -0.186D-02 0.265D-02 0.123D-01-0.271D-01-0.265D-01 0.141D+00
 Coeff:     -0.231D+00-0.540D+00 0.167D+01
 Gap=     0.360 Goal=   None    Shift=    0.000
 RMSDP=7.67D-08 MaxDP=5.91D-06 DE=-3.31D-10 OVMax= 6.88D-06

 Cycle  10  Pass 1  IDiag  1:
 RMSU=  2.86D-08    CP:  9.99D-01  1.33D+00  2.42D+00  2.20D+00  2.30D+00
                    CP:  1.76D+00  1.33D+00  1.47D+00  1.67D+00
 E= -1143.01260075908     Delta-E=       -0.000000000073 Rises=F Damp=F
 DIIS: error= 4.86D-08 at cycle  10 NSaved=  10.
 NSaved=10 IEnMin=10 EnMin= -1143.01260075908     IErMin=10 ErrMin= 4.86D-08
 ErrMax= 4.86D-08  0.00D+00 EMaxC= 1.00D-01 BMatC= 1.06D-12 BMatP= 9.14D-12
 IDIUse=1 WtCom= 1.00D+00 WtEn= 0.00D+00
 Coeff-Com: -0.575D-03 0.623D-03 0.374D-02-0.643D-02-0.800D-02 0.285D-01
 Coeff-Com:  0.122D-01-0.144D+00-0.118D+00 0.123D+01
 Coeff:     -0.575D-03 0.623D-03 0.374D-02-0.643D-02-0.800D-02 0.285D-01
 Coeff:      0.122D-01-0.144D+00-0.118D+00 0.123D+01
 Gap=     0.360 Goal=   None    Shift=    0.000
 RMSDP=2.30D-08 MaxDP=1.65D-06 DE=-7.32D-11 OVMax= 2.24D-06

 Cycle  11  Pass 1  IDiag  1:
 RMSU=  8.32D-09    CP:  9.99D-01  1.33D+00  2.42D+00  2.20D+00  2.30D+00
                    CP:  1.77D+00  1.34D+00  1.49D+00  1.84D+00  1.36D+00
 E= -1143.01260075904     Delta-E=        0.000000000037 Rises=F Damp=F
 DIIS: error= 1.16D-08 at cycle  11 NSaved=  11.
 NSaved=11 IEnMin=10 EnMin= -1143.01260075908     IErMin=11 ErrMin= 1.16D-08
 ErrMax= 1.16D-08  0.00D+00 EMaxC= 1.00D-01 BMatC= 1.25D-13 BMatP= 1.06D-12
 IDIUse=1 WtCom= 1.00D+00 WtEn= 0.00D+00
 Coeff-Com:  0.201D-03-0.311D-03-0.134D-02 0.310D-02 0.292D-02-0.166D-01
 Coeff-Com:  0.332D-01 0.576D-01-0.234D+00 0.115D+00 0.104D+01
 Coeff:      0.201D-03-0.311D-03-0.134D-02 0.310D-02 0.292D-02-0.166D-01
 Coeff:      0.332D-01 0.576D-01-0.234D+00 0.115D+00 0.104D+01
 Gap=     0.360 Goal=   None    Shift=    0.000
 RMSDP=5.90D-09 MaxDP=4.17D-07 DE= 3.68D-11 OVMax= 5.39D-07

 Error on total polarization charges =  0.02301
 SCF Done:  E(RHF) =  -1143.01260076     A.U. after   11 cycles
            NFock= 11  Conv=0.59D-08     -V/T= 2.0005
 KE= 1.142495163530D+03 PE=-7.426221734502D+03 EE= 2.760362890751D+03
 Leave Link  502 at Thu Nov 11 16:38:01 2021, MaxMem=  7864320000 cpu:           14079.9 elap:             453.7
 (Enter /apps/gaussian/g16-c01-avx/g16/l508.exe)
 QCSCF skips out because SCF is already converged.
 Leave Link  508 at Thu Nov 11 16:38:01 2021, MaxMem=  7864320000 cpu:               0.1 elap:               0.0
 (Enter /apps/gaussian/g16-c01-avx/g16/l801.exe)
 ExpMin= 2.97D-02 ExpMax= 9.05D+03 ExpMxC= 3.09D+02 IAcc=3 IRadAn=         7 AccDes= 0.00D+00
 HarFok:  IExCor=  205 AccDes= 0.00D+00 IRadAn=         7 IDoV=-2 UseB2=F ITyADJ=14
 ICtDFT= 12500011 ScaDFX=  1.000000  1.000000  1.000000  1.000000
 GSVD:  LWork=        -945 too small for GESVD, short by        4050 words or        4050 for optimal perf.
 Largest valence mixing into a core orbital is  1.16D-04
 Largest core mixing into a valence orbital is  4.25D-05
 Range of M.O.s used for correlation:    28   942
 NBasis=   945 NAE=   102 NBE=   102 NFC=    27 NFV=     0
 NROrb=    915 NOA=    75 NOB=    75 NVA=   840 NVB=   840

 **** Warning!!: The largest alpha MO coefficient is  0.16997361D+03

 Leave Link  801 at Thu Nov 11 16:38:02 2021, MaxMem=  7864320000 cpu:               9.3 elap:               0.3
 (Enter /apps/gaussian/g16-c01-avx/g16/l906.exe)
 FulOut=F Deriv=F AODrv=F NAtomX=    63
   MMem=           3  MDisk=          75 MDiskD=          75
  W3Min=    62937000 MinDsk=    61453508 NBas6D=         999
 NBas2D=      500769    NTT=      499500    LW2=     2000000
    MDV=  7859208096 MDiskM=      109237 NBas2p=      361941
 Disk-based method using OVN memory for 75 occupieds at a time.
 Estimated scratch disk usage= 76265755304 words.
 IMap=   1   2   3   4   5   6   7   8   9  10  11  12  13  14  15  16  17  18  19  20
 IMap=  21  22  23  24  25  26  27  28  29  30  31  32  33  34  35  36  37  38  39  40
 IMap=  41  42  43  44  45  46  47  48  49  50  51  52  53  54  55  56  57  58  59  60
 IMap=  61  62  63  64  65  66  67  68  69  70  71  72  73  74  75
 Actual    scratch disk usage= 68409748160 words.
 JobTyp=1 Pass  1:  I=   1 to  75 NPSUse= 32 ParTrn=T ParDer=T DoDerP=F.
 Spin components of T(2) and E(2):
     alpha-alpha T2 =       0.1894402240D+00 E2=     -0.5190785035D+00
     alpha-beta  T2 =       0.1036426409D+01 E2=     -0.3028372621D+01
     beta-beta   T2 =       0.1894402240D+00 E2=     -0.5190785035D+00
 The integrals were generated   1 times.
 ANorm=    0.1554125753D+01
 E2 =    -0.4066529627D+01 EUMP2 =    -0.11470791303865D+04
 Leave Link  906 at Thu Nov 11 17:46:37 2021, MaxMem=  7864320000 cpu:          126526.0 elap:            4115.9
 (Enter /apps/gaussian/g16-c01-avx/g16/l601.exe)
 Copying SCF densities to generalized density rwf, IOpCl= 0 IROHF=0.

 **********************************************************************

            Population analysis using the SCF Density.

 **********************************************************************

 Orbital symmetries:
       Occupied  (A) (A) (A) (A) (A) (A) (A) (A) (A) (A) (A) (A)
                 (A) (A) (A) (A) (A) (A) (A) (A) (A) (A) (A) (A)
                 (A) (A) (A) (A) (A) (A) (A) (A) (A) (A) (A) (A)
                 (A) (A) (A) (A) (A) (A) (A) (A) (A) (A) (A) (A)
                 (A) (A) (A) (A) (A) (A) (A) (A) (A) (A) (A) (A)
                 (A) (A) (A) (A) (A) (A) (A) (A) (A) (A) (A) (A)
                 (A) (A) (A) (A) (A) (A) (A) (A) (A) (A) (A) (A)
                 (A) (A) (A) (A) (A) (A) (A) (A) (A) (A) (A) (A)
                 (A) (A) (A) (A) (A) (A)
       Virtual   (A) (A) (A) (A) (A) (A) (A) (A) (A) (A) (A) (A)
                 (A) (A) (A) (A) (A) (A) (A) (A) (A) (A) (A) (A)
                 (A) (A) (A) (A) (A) (A) (A) (A) (A) (A) (A) (A)
                 (A) (A) (A) (A) (A) (A) (A) (A) (A) (A) (A) (A)
                 (A) (A) (A) (A) (A) (A) (A) (A) (A) (A) (A) (A)
                 (A) (A) (A) (A) (A) (A) (A) (A) (A) (A) (A) (A)
                 (A) (A) (A) (A) (A) (A) (A) (A) (A) (A) (A) (A)
                 (A) (A) (A) (A) (A) (A) (A) (A) (A) (A) (A) (A)
                 (A) (A) (A) (A) (A) (A) (A) (A) (A) (A) (A) (A)
                 (A) (A) (A) (A) (A) (A) (A) (A) (A) (A) (A) (A)
                 (A) (A) (A) (A) (A) (A) (A) (A) (A) (A) (A) (A)
                 (A) (A) (A) (A) (A) (A) (A) (A) (A) (A) (A) (A)
                 (A) (A) (A) (A) (A) (A) (A) (A) (A) (A) (A) (A)
                 (A) (A) (A) (A) (A) (A) (A) (A) (A) (A) (A) (A)
                 (A) (A) (A) (A) (A) (A) (A) (A) (A) (A) (A) (A)
                 (A) (A) (A) (A) (A) (A) (A) (A) (A) (A) (A) (A)
                 (A) (A) (A) (A) (A) (A) (A) (A) (A) (A) (A) (A)
                 (A) (A) (A) (A) (A) (A) (A) (A) (A) (A) (A) (A)
                 (A) (A) (A) (A) (A) (A) (A) (A) (A) (A) (A) (A)
                 (A) (A) (A) (A) (A) (A) (A) (A) (A) (A) (A) (A)
                 (A) (A) (A) (A) (A) (A) (A) (A) (A) (A) (A) (A)
                 (A) (A) (A) (A) (A) (A) (A) (A) (A) (A) (A) (A)
                 (A) (A) (A) (A) (A) (A) (A) (A) (A) (A) (A) (A)
                 (A) (A) (A) (A) (A) (A) (A) (A) (A) (A) (A) (A)
                 (A) (A) (A) (A) (A) (A) (A) (A) (A) (A) (A) (A)
                 (A) (A) (A) (A) (A) (A) (A) (A) (A) (A) (A) (A)
                 (A) (A) (A) (A) (A) (A) (A) (A) (A) (A) (A) (A)
                 (A) (A) (A) (A) (A) (A) (A) (A) (A) (A) (A) (A)
                 (A) (A) (A) (A) (A) (A) (A) (A) (A) (A) (A) (A)
                 (A) (A) (A) (A) (A) (A) (A) (A) (A) (A) (A) (A)
                 (A) (A) (A) (A) (A) (A) (A) (A) (A) (A) (A) (A)
                 (A) (A) (A) (A) (A) (A) (A) (A) (A) (A) (A) (A)
                 (A) (A) (A) (A) (A) (A) (A) (A) (A) (A) (A) (A)
                 (A) (A) (A) (A) (A) (A) (A) (A) (A) (A) (A) (A)
                 (A) (A) (A) (A) (A) (A) (A) (A) (A) (A) (A) (A)
                 (A) (A) (A) (A) (A) (A) (A) (A) (A) (A) (A) (A)
                 (A) (A) (A) (A) (A) (A) (A) (A) (A) (A) (A) (A)
                 (A) (A) (A) (A) (A) (A) (A) (A) (A) (A) (A) (A)
                 (A) (A) (A) (A) (A) (A) (A) (A) (A) (A) (A) (A)
                 (A) (A) (A) (A) (A) (A) (A) (A) (A) (A) (A) (A)
                 (A) (A) (A) (A) (A) (A) (A) (A) (A) (A) (A) (A)
                 (A) (A) (A) (A) (A) (A) (A) (A) (A) (A) (A) (A)
                 (A) (A) (A) (A) (A) (A) (A) (A) (A) (A) (A) (A)
                 (A) (A) (A) (A) (A) (A) (A) (A) (A) (A) (A) (A)
                 (A) (A) (A) (A) (A) (A) (A) (A) (A) (A) (A) (A)
                 (A) (A) (A) (A) (A) (A) (A) (A) (A) (A) (A) (A)
                 (A) (A) (A) (A) (A) (A) (A) (A) (A) (A) (A) (A)
                 (A) (A) (A) (A) (A) (A) (A) (A) (A) (A) (A) (A)
                 (A) (A) (A) (A) (A) (A) (A) (A) (A) (A) (A) (A)
                 (A) (A) (A) (A) (A) (A) (A) (A) (A) (A) (A) (A)
                 (A) (A) (A) (A) (A) (A) (A) (A) (A) (A) (A) (A)
                 (A) (A) (A) (A) (A) (A) (A) (A) (A) (A) (A) (A)
                 (A) (A) (A) (A) (A) (A) (A) (A) (A) (A) (A) (A)
                 (A) (A) (A) (A) (A) (A) (A) (A) (A) (A) (A) (A)
                 (A) (A) (A) (A) (A) (A) (A) (A) (A) (A) (A) (A)
                 (A) (A) (A) (A) (A) (A) (A) (A) (A) (A) (A) (A)
                 (A) (A) (A) (A) (A) (A) (A) (A) (A) (A) (A) (A)
                 (A) (A) (A) (A) (A) (A) (A) (A) (A) (A) (A) (A)
                 (A) (A) (A) (A) (A) (A) (A) (A) (A) (A) (A) (A)
                 (A) (A) (A) (A) (A) (A) (A) (A) (A) (A) (A) (A)
                 (A) (A) (A) (A) (A) (A) (A) (A) (A) (A) (A) (A)
                 (A) (A) (A) (A) (A) (A) (A) (A) (A) (A) (A) (A)
                 (A) (A) (A) (A) (A) (A) (A) (A) (A) (A) (A) (A)
                 (A) (A) (A) (A) (A) (A) (A) (A) (A) (A) (A) (A)
                 (A) (A) (A) (A) (A) (A) (A) (A) (A) (A) (A) (A)
                 (A) (A) (A) (A) (A) (A) (A) (A) (A) (A) (A) (A)
                 (A) (A) (A) (A) (A) (A) (A) (A) (A) (A) (A) (A)
                 (A) (A) (A) (A) (A) (A) (A) (A) (A) (A) (A) (A)
                 (A) (A) (A) (A) (A) (A) (A) (A) (A) (A) (A) (A)
                 (A) (A) (A) (A) (A) (A) (A) (A) (A) (A) (A) (A)
 The electronic state is 1-A.
 Alpha  occ. eigenvalues --  -15.56429 -15.56429 -15.56428 -15.54112 -15.54109
 Alpha  occ. eigenvalues --  -15.54104 -11.28947 -11.28945 -11.28944 -11.26240
 Alpha  occ. eigenvalues --  -11.26237 -11.26236 -11.25633 -11.25592 -11.25591
 Alpha  occ. eigenvalues --  -11.25382 -11.25382 -11.25338 -11.25105 -11.25104
 Alpha  occ. eigenvalues --  -11.25101 -11.21393 -11.21392 -11.21391 -11.21100
 Alpha  occ. eigenvalues --  -11.21096 -11.21095  -1.25765  -1.25385  -1.25383
 Alpha  occ. eigenvalues --   -1.19660  -1.19152  -1.19149  -1.16960  -1.06640
 Alpha  occ. eigenvalues --   -1.06639  -1.02874  -1.02361  -1.02359  -0.95583
 Alpha  occ. eigenvalues --   -0.94850  -0.94849  -0.93618  -0.93614  -0.93611
 Alpha  occ. eigenvalues --   -0.86881  -0.86881  -0.82995  -0.76288  -0.76287
 Alpha  occ. eigenvalues --   -0.75452  -0.74312  -0.74311  -0.71241  -0.69052
 Alpha  occ. eigenvalues --   -0.66512  -0.66477  -0.66475  -0.65790  -0.65445
 Alpha  occ. eigenvalues --   -0.65443  -0.63767  -0.63767  -0.62892  -0.61995
 Alpha  occ. eigenvalues --   -0.61993  -0.60291  -0.59678  -0.59676  -0.59490
 Alpha  occ. eigenvalues --   -0.56835  -0.56627  -0.56626  -0.54684  -0.53137
 Alpha  occ. eigenvalues --   -0.53135  -0.52857  -0.52839  -0.52838  -0.52260
 Alpha  occ. eigenvalues --   -0.51675  -0.51673  -0.50834  -0.50354  -0.50352
 Alpha  occ. eigenvalues --   -0.49557  -0.49556  -0.49107  -0.46969  -0.46967
 Alpha  occ. eigenvalues --   -0.46537  -0.45309  -0.45307  -0.41558  -0.41202
 Alpha  occ. eigenvalues --   -0.40738  -0.40738  -0.38675  -0.38670  -0.37546
 Alpha  occ. eigenvalues --   -0.32544  -0.32544
 Alpha virt. eigenvalues --    0.03460   0.03838   0.03838   0.04148   0.04559
 Alpha virt. eigenvalues --    0.04559   0.04871   0.05068   0.05069   0.05811
 Alpha virt. eigenvalues --    0.05880   0.05880   0.05975   0.06226   0.06227
 Alpha virt. eigenvalues --    0.06483   0.07087   0.07087   0.07182   0.07183
 Alpha virt. eigenvalues --    0.07781   0.07964   0.07966   0.08102   0.08286
 Alpha virt. eigenvalues --    0.08288   0.09250   0.09796   0.10156   0.10337
 Alpha virt. eigenvalues --    0.10341   0.10661   0.10665   0.11572   0.11574
 Alpha virt. eigenvalues --    0.11580   0.12197   0.12759   0.12760   0.13034
 Alpha virt. eigenvalues --    0.13036   0.13300   0.14581   0.14688   0.14689
 Alpha virt. eigenvalues --    0.14812   0.15083   0.15085   0.15097   0.15100
 Alpha virt. eigenvalues --    0.15599   0.16080   0.16099   0.16101   0.16704
 Alpha virt. eigenvalues --    0.16705   0.16826   0.17235   0.17473   0.17567
 Alpha virt. eigenvalues --    0.17569   0.18241   0.18245   0.18259   0.18666
 Alpha virt. eigenvalues --    0.18669   0.18704   0.18909   0.18913   0.19041
 Alpha virt. eigenvalues --    0.19356   0.19463   0.19465   0.19705   0.19849
 Alpha virt. eigenvalues --    0.19850   0.20781   0.20784   0.20947   0.21513
 Alpha virt. eigenvalues --    0.21544   0.21544   0.22089   0.22093   0.22157
 Alpha virt. eigenvalues --    0.22737   0.22737   0.22757   0.23195   0.23200
 Alpha virt. eigenvalues --    0.23679   0.24081   0.24081   0.24214   0.24485
 Alpha virt. eigenvalues --    0.24486   0.24661   0.25285   0.25288   0.25886
 Alpha virt. eigenvalues --    0.25891   0.26104   0.26452   0.26461   0.27046
 Alpha virt. eigenvalues --    0.27178   0.27186   0.27211   0.27699   0.27958
 Alpha virt. eigenvalues --    0.27959   0.28647   0.28894   0.28896   0.29564
 Alpha virt. eigenvalues --    0.29568   0.29676   0.29994   0.30553   0.30557
 Alpha virt. eigenvalues --    0.31157   0.31979   0.32036   0.32040   0.32105
 Alpha virt. eigenvalues --    0.32108   0.32315   0.33539   0.33543   0.33546
 Alpha virt. eigenvalues --    0.34164   0.34165   0.34685   0.34917   0.34918
 Alpha virt. eigenvalues --    0.35738   0.35999   0.36006   0.36017   0.36489
 Alpha virt. eigenvalues --    0.36605   0.36609   0.37021   0.37025   0.37605
 Alpha virt. eigenvalues --    0.37612   0.37958   0.38388   0.38390   0.38747
 Alpha virt. eigenvalues --    0.39280   0.39284   0.39636   0.39957   0.39960
 Alpha virt. eigenvalues --    0.40232   0.40637   0.40640   0.40651   0.41039
 Alpha virt. eigenvalues --    0.41040   0.41042   0.41410   0.41419   0.41422
 Alpha virt. eigenvalues --    0.42034   0.42042   0.42513   0.42944   0.42967
 Alpha virt. eigenvalues --    0.42968   0.43474   0.43668   0.43671   0.44093
 Alpha virt. eigenvalues --    0.44097   0.44192   0.44840   0.44845   0.45342
 Alpha virt. eigenvalues --    0.45772   0.45819   0.45824   0.46378   0.46385
 Alpha virt. eigenvalues --    0.46753   0.46948   0.47508   0.47514   0.48172
 Alpha virt. eigenvalues --    0.48707   0.48712   0.48923   0.48930   0.49066
 Alpha virt. eigenvalues --    0.49391   0.49955   0.49957   0.49988   0.50402
 Alpha virt. eigenvalues --    0.50410   0.50654   0.50660   0.50991   0.51087
 Alpha virt. eigenvalues --    0.51145   0.51150   0.51851   0.51905   0.51910
 Alpha virt. eigenvalues --    0.52502   0.52505   0.52950   0.53216   0.53220
 Alpha virt. eigenvalues --    0.53496   0.54105   0.54336   0.54341   0.54368
 Alpha virt. eigenvalues --    0.55039   0.55047   0.55468   0.55906   0.55981
 Alpha virt. eigenvalues --    0.55992   0.56324   0.56325   0.56844   0.57547
 Alpha virt. eigenvalues --    0.57552   0.58032   0.58110   0.58119   0.58485
 Alpha virt. eigenvalues --    0.59165   0.59203   0.59204   0.59394   0.59395
 Alpha virt. eigenvalues --    0.59911   0.60398   0.60610   0.60615   0.60887
 Alpha virt. eigenvalues --    0.60893   0.60898   0.61657   0.61660   0.61839
 Alpha virt. eigenvalues --    0.62165   0.62600   0.62605   0.63374   0.63378
 Alpha virt. eigenvalues --    0.63415   0.64093   0.64100   0.64413   0.64638
 Alpha virt. eigenvalues --    0.64641   0.65176   0.65592   0.65594   0.65797
 Alpha virt. eigenvalues --    0.66332   0.66570   0.66576   0.66584   0.67102
 Alpha virt. eigenvalues --    0.67112   0.67562   0.67566   0.68058   0.68615
 Alpha virt. eigenvalues --    0.68619   0.68739   0.69061   0.69689   0.69733
 Alpha virt. eigenvalues --    0.69735   0.70081   0.70086   0.70374   0.70382
 Alpha virt. eigenvalues --    0.70830   0.71169   0.71403   0.71411   0.71530
 Alpha virt. eigenvalues --    0.72598   0.72605   0.73075   0.73083   0.73229
 Alpha virt. eigenvalues --    0.73797   0.73934   0.73940   0.74270   0.74272
 Alpha virt. eigenvalues --    0.74466   0.74817   0.74820   0.75697   0.75698
 Alpha virt. eigenvalues --    0.75822   0.76209   0.76289   0.76292   0.76589
 Alpha virt. eigenvalues --    0.76861   0.76864   0.77323   0.77330   0.77336
 Alpha virt. eigenvalues --    0.77556   0.78340   0.78624   0.78630   0.79236
 Alpha virt. eigenvalues --    0.79238   0.79314   0.79940   0.79945   0.80455
 Alpha virt. eigenvalues --    0.80536   0.80543   0.81250   0.81729   0.81740
 Alpha virt. eigenvalues --    0.82006   0.82432   0.82761   0.82767   0.83178
 Alpha virt. eigenvalues --    0.83314   0.83323   0.84494   0.84501   0.84539
 Alpha virt. eigenvalues --    0.85392   0.85399   0.85749   0.86150   0.86156
 Alpha virt. eigenvalues --    0.86866   0.86869   0.86941   0.87911   0.87917
 Alpha virt. eigenvalues --    0.87921   0.88334   0.89193   0.89248   0.89251
 Alpha virt. eigenvalues --    0.89622   0.89669   0.89670   0.90209   0.90210
 Alpha virt. eigenvalues --    0.90426   0.91282   0.91287   0.91452   0.92314
 Alpha virt. eigenvalues --    0.92398   0.92399   0.93121   0.93124   0.93699
 Alpha virt. eigenvalues --    0.93860   0.93862   0.94896   0.95009   0.95020
 Alpha virt. eigenvalues --    0.95201   0.95682   0.95686   0.96206   0.96287
 Alpha virt. eigenvalues --    0.96292   0.97041   0.97048   0.97051   0.97803
 Alpha virt. eigenvalues --    0.97809   0.98112   0.98845   0.99310   0.99537
 Alpha virt. eigenvalues --    0.99542   0.99920   1.00145   1.00148   1.01006
 Alpha virt. eigenvalues --    1.01015   1.01509   1.01514   1.02779   1.02965
 Alpha virt. eigenvalues --    1.03491   1.03497   1.04439   1.04448   1.04561
 Alpha virt. eigenvalues --    1.04908   1.04911   1.05234   1.05822   1.05825
 Alpha virt. eigenvalues --    1.06613   1.07072   1.07078   1.07605   1.08291
 Alpha virt. eigenvalues --    1.09377   1.09382   1.09687   1.10052   1.10061
 Alpha virt. eigenvalues --    1.10870   1.11017   1.11026   1.11427   1.13035
 Alpha virt. eigenvalues --    1.13037   1.13059   1.14286   1.14299   1.14588
 Alpha virt. eigenvalues --    1.15304   1.15305   1.15751   1.16481   1.16487
 Alpha virt. eigenvalues --    1.17324   1.17548   1.17549   1.17732   1.19131
 Alpha virt. eigenvalues --    1.19276   1.19284   1.20131   1.20136   1.20518
 Alpha virt. eigenvalues --    1.21690   1.21699   1.22019   1.23599   1.23622
 Alpha virt. eigenvalues --    1.24621   1.24799   1.24808   1.25297   1.26411
 Alpha virt. eigenvalues --    1.26423   1.27499   1.27516   1.27763   1.28532
 Alpha virt. eigenvalues --    1.29607   1.30993   1.31001   1.32429   1.32433
 Alpha virt. eigenvalues --    1.32583   1.34562   1.34566   1.34582   1.36028
 Alpha virt. eigenvalues --    1.36044   1.36209   1.37379   1.37387   1.38381
 Alpha virt. eigenvalues --    1.38807   1.38818   1.40594   1.40600   1.40668
 Alpha virt. eigenvalues --    1.42062   1.42182   1.42191   1.43255   1.44328
 Alpha virt. eigenvalues --    1.44333   1.44731   1.46195   1.46208   1.46975
 Alpha virt. eigenvalues --    1.47640   1.47643   1.48761   1.48766   1.50595
 Alpha virt. eigenvalues --    1.51872   1.51880   1.52800   1.53350   1.54248
 Alpha virt. eigenvalues --    1.54255   1.54946   1.55992   1.55996   1.56458
 Alpha virt. eigenvalues --    1.59089   1.60391   1.61321   1.61323   1.61747
 Alpha virt. eigenvalues --    1.62513   1.62518   1.64504   1.64916   1.64921
 Alpha virt. eigenvalues --    1.66135   1.66400   1.66402   1.67242   1.68408
 Alpha virt. eigenvalues --    1.68417   1.69529   1.70947   1.70980   1.70983
 Alpha virt. eigenvalues --    1.71410   1.71428   1.72493   1.72589   1.72594
 Alpha virt. eigenvalues --    1.72843   1.73693   1.73696   1.75000   1.75011
 Alpha virt. eigenvalues --    1.76647   1.76662   1.76741   1.76843   1.77927
 Alpha virt. eigenvalues --    1.77931   1.79608   1.79613   1.80163   1.80771
 Alpha virt. eigenvalues --    1.80777   1.81038   1.82964   1.82973   1.83359
 Alpha virt. eigenvalues --    1.83963   1.83970   1.85152   1.86040   1.86048
 Alpha virt. eigenvalues --    1.86582   1.86587   1.87607   1.87612   1.88120
 Alpha virt. eigenvalues --    1.88560   1.88936   1.88946   1.89437   1.89963
 Alpha virt. eigenvalues --    1.89974   1.90051   1.91225   1.91236   1.92185
 Alpha virt. eigenvalues --    1.93057   1.93155   1.93160   1.94596   1.95086
 Alpha virt. eigenvalues --    1.95088   1.95619   1.95897   1.95899   1.96248
 Alpha virt. eigenvalues --    1.96257   1.97362   1.98274   1.98304   1.98313
 Alpha virt. eigenvalues --    1.98682   1.99809   1.99817   2.00916   2.01433
 Alpha virt. eigenvalues --    2.01795   2.01805   2.02850   2.03250   2.03258
 Alpha virt. eigenvalues --    2.03796   2.03800   2.04170   2.06008   2.06786
 Alpha virt. eigenvalues --    2.06806   2.08211   2.09332   2.09334   2.11265
 Alpha virt. eigenvalues --    2.11529   2.11536   2.12504   2.12508   2.13129
 Alpha virt. eigenvalues --    2.13845   2.13850   2.14551   2.15487   2.15492
 Alpha virt. eigenvalues --    2.15798   2.17389   2.17393   2.17521   2.18228
 Alpha virt. eigenvalues --    2.18234   2.18269   2.19413   2.20280   2.20286
 Alpha virt. eigenvalues --    2.21358   2.21363   2.21380   2.22501   2.22507
 Alpha virt. eigenvalues --    2.22875   2.22884   2.22985   2.24954   2.25141
 Alpha virt. eigenvalues --    2.25462   2.25469   2.25723   2.25966   2.25970
 Alpha virt. eigenvalues --    2.28396   2.28426   2.28432   2.29418   2.29427
 Alpha virt. eigenvalues --    2.29434   2.30150   2.31082   2.31090   2.31863
 Alpha virt. eigenvalues --    2.31875   2.32003   2.32487   2.32624   2.32632
 Alpha virt. eigenvalues --    2.34815   2.34820   2.36171   2.36506   2.36509
 Alpha virt. eigenvalues --    2.37198   2.37204   2.37238   2.38976   2.38978
 Alpha virt. eigenvalues --    2.39516   2.40286   2.40654   2.40660   2.41965
 Alpha virt. eigenvalues --    2.41971   2.42757   2.42764   2.42994   2.44624
 Alpha virt. eigenvalues --    2.44727   2.44739   2.45042   2.45423   2.45430
 Alpha virt. eigenvalues --    2.47450   2.47932   2.47942   2.48526   2.49840
 Alpha virt. eigenvalues --    2.49845   2.50250   2.50252   2.50736   2.51791
 Alpha virt. eigenvalues --    2.53036   2.53046   2.53347   2.53350   2.53679
 Alpha virt. eigenvalues --    2.53936   2.54742   2.54746   2.55788   2.56457
 Alpha virt. eigenvalues --    2.56458   2.56872   2.56875   2.57078   2.58373
 Alpha virt. eigenvalues --    2.58377   2.59518   2.60599   2.60602   2.61220
 Alpha virt. eigenvalues --    2.61522   2.62038   2.62043   2.63003   2.63007
 Alpha virt. eigenvalues --    2.63756   2.64860   2.65301   2.65323   2.66202
 Alpha virt. eigenvalues --    2.66757   2.66761   2.67530   2.68817   2.68906
 Alpha virt. eigenvalues --    2.68915   2.69950   2.70570   2.70574   2.70792
 Alpha virt. eigenvalues --    2.73298   2.73300   2.74416   2.74946   2.74950
 Alpha virt. eigenvalues --    2.75812   2.75815   2.76083   2.77492   2.78576
 Alpha virt. eigenvalues --    2.78623   2.78627   2.81043   2.81055   2.82146
 Alpha virt. eigenvalues --    2.83086   2.83088   2.83767   2.85222   2.85225
 Alpha virt. eigenvalues --    2.85877   2.86507   2.86515   2.88900   2.90122
 Alpha virt. eigenvalues --    2.90133   2.90240   2.91190   2.91193   2.92211
 Alpha virt. eigenvalues --    2.93909   2.93911   2.94720   2.95285   2.95525
 Alpha virt. eigenvalues --    2.95527   2.98661   2.98669   2.99263   3.00833
 Alpha virt. eigenvalues --    3.00837   3.01664   3.02857   3.02863   3.04080
 Alpha virt. eigenvalues --    3.04083   3.04224   3.06420   3.07074   3.07165
 Alpha virt. eigenvalues --    3.07174   3.08822   3.08827   3.09747   3.11546
 Alpha virt. eigenvalues --    3.11562   3.12163   3.14302   3.14309   3.14470
 Alpha virt. eigenvalues --    3.16020   3.16031   3.20634   3.21775   3.21792
 Alpha virt. eigenvalues --    3.23013   3.23020   3.23188   3.24075   3.27090
 Alpha virt. eigenvalues --    3.27100   3.30891   3.31956   3.31964   3.33820
 Alpha virt. eigenvalues --    3.33829   3.34734   3.41644   3.41653   3.42664
 Alpha virt. eigenvalues --    3.46648   3.46655   3.47574   3.51896   3.51918
 Alpha virt. eigenvalues --    3.55351   3.56368   3.57309   3.57313   3.60495
 Alpha virt. eigenvalues --    3.61368   3.61375   3.66711   3.66720   3.73907
 Alpha virt. eigenvalues --    3.87270   3.87300   3.87402   3.88443   3.88463
 Alpha virt. eigenvalues --    3.89003   3.92219   3.99093   3.99109   4.18217
 Alpha virt. eigenvalues --    4.18257   4.20576   4.32412   4.32424   4.92313
          Condensed to atoms (all electrons):
 Mulliken charges:
               1
     1  C    0.901276
     2  C    0.687931
     3  C    0.020407
     4  C    0.900600
     5  H   -0.845873
     6  C    0.020656
     7  C    0.899633
     8  H   -0.846217
     9  C    0.018415
    10  C    0.687598
    11  H   -0.845486
    12  C    0.687003
    13  C   -3.614281
    14  C    1.634762
    15  N   -0.081460
    16  C    1.430624
    17  N   -0.487194
    18  H    0.036569
    19  C    1.634615
    20  C   -3.613500
    21  N   -0.486433
    22  H   -0.251011
    23  N   -0.081392
    24  C    1.429474
    25  C    1.634177
    26  C   -3.612858
    27  N   -0.486627
    28  H   -0.251122
    29  N   -0.081774
    30  C    1.447820
    31  H   -0.026887
    32  H   -0.000558
    33  H    0.020987
    34  H   -0.000509
    35  H    0.020806
    36  H   -0.661794
    37  H   -0.661908
    38  H    0.009183
    39  H   -0.045865
    40  H   -0.138894
    41  H   -0.045556
    42  H    0.036607
    43  H    0.009588
    44  H   -0.139038
    45  H    0.001896
    46  H   -0.036279
    47  C    1.448199
    48  H   -0.026878
    49  H    0.001375
    50  H   -0.036131
    51  H   -0.250690
    52  H   -0.139131
    53  C    1.448139
    54  H    0.001252
    55  H   -0.036131
    56  H   -0.026782
    57  H   -0.000525
    58  H    0.020953
    59  C    1.429542
    60  H    0.009588
    61  H   -0.045850
    62  H    0.036635
    63  H   -0.661670
 Sum of Mulliken charges =   0.00000
 Mulliken charges with hydrogens summed into heavy atoms:
               1
     1  C    0.901276
     2  C    0.026137
     3  C   -0.825466
     4  C    0.900600
     6  C   -0.825562
     7  C    0.899633
     9  C   -0.827071
    10  C    0.025690
    12  C    0.025333
    13  C   -3.614281
    14  C    1.244940
    15  N   -0.061032
    16  C    1.430511
    17  N   -0.487194
    19  C    1.244709
    20  C   -3.613500
    21  N   -0.486433
    23  N   -0.061095
    24  C    1.430113
    25  C    1.244016
    26  C   -3.612858
    27  N   -0.486627
    29  N   -0.061345
    30  C    1.386551
    47  C    1.386564
    53  C    1.386478
    59  C    1.429914
 Electronic spatial extent (au):  <R**2>=          18456.8156
 Charge=              0.0000 electrons
 Dipole moment (field-independent basis, Debye):
    X=             -0.0066    Y=             -0.0032    Z=             -3.8763  Tot=              3.8763
 Quadrupole moment (field-independent basis, Debye-Ang):
   XX=           -171.9084   YY=           -171.8200   ZZ=           -179.4812
   XY=             -0.0012   XZ=             -0.0459   YZ=              0.0199
 Traceless Quadrupole moment (field-independent basis, Debye-Ang):
   XX=              2.4948   YY=              2.5832   ZZ=             -5.0780
   XY=             -0.0012   XZ=             -0.0459   YZ=              0.0199
 Octapole moment (field-independent basis, Debye-Ang**2):
  XXX=             95.5131  YYY=             52.1675  ZZZ=              0.4750  XYY=            -95.4789
  XXY=            -52.4859  XXZ=           -101.3145  XZZ=             -0.0745  YZZ=              0.1437
  YYZ=           -101.2142  XYZ=              0.1341
 Hexadecapole moment (field-independent basis, Debye-Ang**3):
 XXXX=         -12464.7943 YYYY=         -12447.2007 ZZZZ=          -1177.6892 XXXY=              0.4866
 XXXZ=            313.8800 YYYX=             -0.5763 YYYZ=             45.4189 ZZZX=             -0.1055
 ZZZY=              0.1798 XXYY=          -4152.8799 XXZZ=          -2322.5854 YYZZ=          -2321.1706
 XXYZ=            -44.6832 YYXZ=           -314.8116 ZZXY=              0.4334
 N-N= 2.380351079461D+03 E-N=-7.426221736273D+03  KE= 1.142495163530D+03
 Leave Link  601 at Thu Nov 11 17:46:39 2021, MaxMem=  7864320000 cpu:              25.7 elap:               1.0
 (Enter /apps/gaussian/g16-c01-avx/g16/l9999.exe)
 Unable to Open any file for archive entry.
 1\1\GINC-CX3-7-0\SP\RMP2-FC\Aug-CC-pVDZ\C21H36N6\ATARZIA\11-Nov-2021\0
 \\#P MP2/aug-cc-pVDZ SP SCF=(YQC,MaxCycle=900) int=(Grid=Superfinegrid
 ) SCRF=(PCM,Solvent=Dichloromethane)\\_1_alde1_3_ami2_2_opt_dcm_mp2\\0
 ,1\C,0,-1.1198,-0.3285,-1.1965\C,0,-0.7746,-1.4121,-0.2879\C,0,-2.4466
 ,-0.1077,-1.5679\C,0,-2.7777,0.9253,-2.4367\H,0,-3.2075,-0.7603,-1.167
 5\C,0,-1.767,1.7464,-2.9382\C,0,-0.4407,1.5395,-2.5779\H,0,-2.0398,2.5
 421,-3.6145\C,0,-0.1247,0.4982,-1.7044\C,0,0.6031,2.4031,-3.1103\H,0,0
 .9102,0.3485,-1.4367\C,0,-4.1661,1.1427,-2.8161\C,0,-2.0184,-3.0065,2.
 4589\C,0,-1.2898,-3.2188,1.098\N,0,-3.4547,-2.874,2.2921\C,0,-1.7458,-
 4.2114,3.36\N,0,-1.6503,-2.1855,0.1884\H,0,-2.2671,-4.0785,4.3037\C,0,
 -5.8712,2.2784,-3.9357\C,0,-6.3114,3.7065,-3.4946\N,0,-4.5033,2.0684,-
 3.6042\H,0,-5.9535,2.219,-5.0268\N,0,-5.4352,4.7346,-4.0272\C,0,-7.728
 9,3.9678,-4.0051\C,0,2.8151,3.1204,-3.3182\C,0,3.5396,3.8433,-2.1434\N
 ,0,1.8174,2.2438,-2.807\H,0,3.552,2.5023,-3.8433\N,0,4.0582,2.9049,-1.
 1641\C,0,2.5546,4.772,-1.4307\H,0,1.7023,4.2058,-1.061\H,0,-3.8394,-3.
 7134,1.8715\H,0,-3.6499,-2.1005,1.6654\H,0,-5.4456,4.7153,-5.0416\H,0,
 -4.4833,4.5528,-3.7272\H,0,0.2955,-1.5157,-0.0497\H,0,0.2662,3.1962,-3
 .7959\H,0,-0.6815,-4.3139,3.5542\H,0,-2.1042,-5.1274,2.8947\H,0,-6.541
 7,1.5267,-3.4864\H,0,-7.7655,3.8948,-5.0902\H,0,-8.0345,4.9698,-3.7175
 \H,0,-8.4279,3.2496,-3.5848\H,0,2.4103,3.8671,-4.0218\H,0,2.1958,5.543
 5,-2.1074\H,0,3.0498,5.2421,-0.586\C,0,-6.2769,3.8022,-1.968\H,0,-5.27
 77,3.581,-1.5987\H,0,-6.9781,3.1008,-1.5231\H,0,-6.542,4.8109,-1.6645\
 H,0,-1.6391,-4.1649,0.6693\H,0,-0.2015,-3.2834,1.2644\C,0,-1.5007,-1.7
 279,3.1205\H,0,-0.4387,-1.8103,3.3371\H,0,-2.0407,-1.5583,4.0476\H,0,-
 1.6598,-0.8734,2.4661\H,0,4.7319,2.2813,-1.5962\H,0,3.2973,2.3353,-0.8
 094\C,0,4.7101,4.651,-2.7053\H,0,4.3573,5.4045,-3.4045\H,0,5.4132,4.,-
 3.2209\H,0,5.2317,5.142,-1.8886\H,0,-4.8979,0.4468,-2.3771\\Version=ES
 64L-G16RevC.01\State=1-A\HF=-1143.0126008\MP2=-1147.0791304\RMSD=5.904
 e-09\PG=C01 [X(C21H36N6)]\\@
 The archive entry for this job was punched.


 THOUGH I SPEAK WITH THE TONGUES OF MEN AND OF ANGELS, 
 AND HAVE NOT LOVE,
 I AM BECOME AS SOUNDING BRASS, A TINKLING CYMBAL.
 AND THOUGH I HAVE THE GIFT OF PROPHECY,
 AND UNDERSTAND ALL MYSTERIES, AND ALL KNOWLEDGE.
 AND THOUGH I HAVE ALL FAITH, SO THAT I COULD REMOVE MOUNTAINS,
 AND HAVE NOT LOVE, I AM NOTHING.
 AND THOUGH I BESTOW ALL MY GOODS TO FEED THE POOR,
 AND THOUGH I GIVE MY BODY TO BE BURNED,
 AND HAVE NOT LOVE IT PROFITETH ME NOTHING.
 LOVE SUFFERETH LONG, AND IS KIND,
 LOVE ENVIETH NOT,
 LOVE VAUNTETH NOT ITSELF, IS NOT PUFFED UP,
 DOTH NOT BEHAVE ITSELF UNSEEMLY, SEEKETH NOT HER OWN,
 IS NOT EASILY PROVOKED, THINKETH NO EVIL,
 REJOICETH NOT IN INIQUITY, BUT REJOICETH IN THE TRUTH,
 BEARETH ALL THINGS, BELIEVETH ALL THINGS,
 HOPETH ALL THINGS, ENDURETH ALL THINGS.
 LOVE NEVER FAILETH, BUT WHETHER THERE BE PROPHECIES, THEY SHALL FAIL, 
 WHETHER THERE BE TONGUES, THEY SHALL CEASE,
 WHETHER THERE BE KNOWLEDGE, IT SHALL VANISH AWAY.
 FOR WE KNOW IN PART, AND WE PROPHESY IN PART.
 BUT WHEN THAT WHICH IS PERFECT IS COME, THEN THAT WHICH IS IN PART 
 SHALL BE DONE AWAY. 
 WHEN I WAS A CHILD, I SPAKE AS A CHILD, I UNDERSTOOD AS A CHILD, 
 I THOUGHT AS A CHILD.
 BUT WHEN I BECAME A MAN, I PUT AWAY CHILDISH THINGS.
 FOR NOW WE SEE THROUGH A GLASS, DARKLY, BUT THEN FACE TO FACE.
 NOW I KNOW IN PART. BUT THEN SHALL I KNOW EVEN AS ALSO I AM KNOWN.
 AND NOW ABIDETH FAITH, HOPE AND LOVE, THESE THREE.
 BUT THE GREATEST OF THESE IS LOVE.

                     I CORINTHIANS 13
 Job cpu time:       1 days 21 hours  0 minutes 54.3 seconds.
 Elapsed time:       0 days  1 hours 27 minutes 42.6 seconds.
 File lengths (MBytes):  RWF= 522624 Int=      0 D2E=      0 Chk=     72 Scr=     16
 Normal termination of Gaussian 16 at Thu Nov 11 17:46:40 2021.
