 Entering Gaussian System, Link 0=g16
 Initial command:
 /apps/gaussian/g16-c01-avx/g16/l1.exe "/rds/general/ephemeral/user/atarzia/ephemeral/xtb_spe_DFT/Gau-2940786.inp" -scrdir="/rds/general/ephemeral/user/atarzia/ephemeral/xtb_spe_DFT/"
 Entering Link 1 = /apps/gaussian/g16-c01-avx/g16/l1.exe PID=   2940787.
  
 Copyright (c) 1988-2019, Gaussian, Inc.  All Rights Reserved.
  
 This is part of the Gaussian(R) 16 program.  It is based on
 the Gaussian(R) 09 system (copyright 2009, Gaussian, Inc.),
 the Gaussian(R) 03 system (copyright 2003, Gaussian, Inc.),
 the Gaussian(R) 98 system (copyright 1998, Gaussian, Inc.),
 the Gaussian(R) 94 system (copyright 1995, Gaussian, Inc.),
 the Gaussian 92(TM) system (copyright 1992, Gaussian, Inc.),
 the Gaussian 90(TM) system (copyright 1990, Gaussian, Inc.),
 the Gaussian 88(TM) system (copyright 1988, Gaussian, Inc.),
 the Gaussian 86(TM) system (copyright 1986, Carnegie Mellon
 University), and the Gaussian 82(TM) system (copyright 1983,
 Carnegie Mellon University). Gaussian is a federally registered
 trademark of Gaussian, Inc.
  
 This software contains proprietary and confidential information,
 including trade secrets, belonging to Gaussian, Inc.
  
 This software is provided under written license and may be
 used, copied, transmitted, or stored only in accord with that
 written license.
  
 The following legend is applicable only to US Government
 contracts under FAR:
  
                    RESTRICTED RIGHTS LEGEND
  
 Use, reproduction and disclosure by the US Government is
 subject to restrictions as set forth in subparagraphs (a)
 and (c) of the Commercial Computer Software - Restricted
 Rights clause in FAR 52.227-19.
  
 Gaussian, Inc.
 340 Quinnipiac St., Bldg. 40, Wallingford CT 06492
  
  
 ---------------------------------------------------------------
 Warning -- This program may not be used in any manner that
 competes with the business of Gaussian, Inc. or will provide
 assistance to any competitor of Gaussian, Inc.  The licensee
 of this program is prohibited from giving any competitor of
 Gaussian, Inc. access to this program.  By using this program,
 the user acknowledges that Gaussian, Inc. is engaged in the
 business of creating and licensing software in the field of
 computational chemistry and represents and warrants to the
 licensee that it is not a competitor of Gaussian, Inc. and that
 it will not use this program in any manner prohibited above.
 ---------------------------------------------------------------
  

 Cite this work as:
 Gaussian 16, Revision C.01,
 M. J. Frisch, G. W. Trucks, H. B. Schlegel, G. E. Scuseria, 
 M. A. Robb, J. R. Cheeseman, G. Scalmani, V. Barone, 
 G. A. Petersson, H. Nakatsuji, X. Li, M. Caricato, A. V. Marenich, 
 J. Bloino, B. G. Janesko, R. Gomperts, B. Mennucci, H. P. Hratchian, 
 J. V. Ortiz, A. F. Izmaylov, J. L. Sonnenberg, D. Williams-Young, 
 F. Ding, F. Lipparini, F. Egidi, J. Goings, B. Peng, A. Petrone, 
 T. Henderson, D. Ranasinghe, V. G. Zakrzewski, J. Gao, N. Rega, 
 G. Zheng, W. Liang, M. Hada, M. Ehara, K. Toyota, R. Fukuda, 
 J. Hasegawa, M. Ishida, T. Nakajima, Y. Honda, O. Kitao, H. Nakai, 
 T. Vreven, K. Throssell, J. A. Montgomery, Jr., J. E. Peralta, 
 F. Ogliaro, M. J. Bearpark, J. J. Heyd, E. N. Brothers, K. N. Kudin, 
 V. N. Staroverov, T. A. Keith, R. Kobayashi, J. Normand, 
 K. Raghavachari, A. P. Rendell, J. C. Burant, S. S. Iyengar, 
 J. Tomasi, M. Cossi, J. M. Millam, M. Klene, C. Adamo, R. Cammi, 
 J. W. Ochterski, R. L. Martin, K. Morokuma, O. Farkas, 
 J. B. Foresman, and D. J. Fox, Gaussian, Inc., Wallingford CT, 2019.
 
 ******************************************
 Gaussian 16:  ES64L-G16RevC.01  3-Jul-2019
                25-Oct-2021 
 ******************************************
 %chk=_1_alde1_2_ami2_2_opt_cfm_mp2.chk
 %mem=60000mb
 %nprocshared=32
 Will use up to   32 processors via shared memory.
 ----------------------------------------------------------------------
 #P MP2/aug-cc-pVDZ SP SCF=(YQC,MaxCycle=900) int=(Grid=Superfinegrid) 
 SCRF=(PCM,Solvent=Chloroform)
 ----------------------------------------------------------------------
 1/38=1,172=1/1;
 2/12=2,17=6,18=5,40=1/2;
 3/5=16,7=10,11=9,25=1,30=1,70=2201,72=7,75=-7/1,2,3;
 4//1;
 5/5=2,7=900,8=4,13=1,38=1,53=7/8,2,8;
 8/10=1/1;
 9/16=-3/6;
 6/7=2,8=2,9=2,10=2/1;
 99/5=1,9=1/99;
 Leave Link    1 at Mon Oct 25 18:37:27 2021, MaxMem=  7864320000 cpu:               7.5 elap:               0.3
 (Enter /apps/gaussian/g16-c01-avx/g16/l101.exe)
 -----------------------------
 _1_alde1_2_ami2_2_opt_cfm_mp2
 -----------------------------
 Symbolic Z-matrix:
 Charge =  0 Multiplicity = 1
 C                    -2.1249    1.4052    0.3148 
 C                    -2.8063    0.6719    1.3915 
 C                    -2.8578    2.0313   -0.6864 
 C                    -2.2073    2.7281   -1.7051 
 H                    -3.9364    1.9933   -0.6917 
 C                    -0.8176    2.7882   -1.7064 
 C                    -0.0693    2.1644   -0.7072 
 H                    -0.2889    3.3233   -2.4809 
 C                    -0.7312    1.4737    0.3013 
 C                     1.3854    2.2339   -0.7155 
 H                    -0.1826    0.9796    1.0903 
 C                    -2.9691    3.3879   -2.7568 
 O                    -2.2577    0.1035    2.3 
 C                    -4.9555    3.977    -3.8326 
 C                    -5.7917    2.914    -4.609 
 N                    -4.2299    3.3519   -2.7815 
 N                    -6.6453    2.1401   -3.7274 
 C                     3.9768    2.2004   -2.9253 
 C                     3.4353    2.8762   -1.6284 
 N                     3.3998    2.7798   -4.1242 
 N                     2.0134    2.8466   -1.6222 
 H                    -3.9109    0.68      1.3042 
 H                     3.6267    3.7666   -4.185 
 H                     2.3896    2.6973   -4.0882 
 H                    -7.3033    2.7458   -3.2488 
 H                    -6.0789    1.6814   -3.0222 
 H                    -2.3776    3.9204   -3.5171 
 H                     1.8949    1.7262    0.1172 
 C                    -4.8475    1.9449   -5.323 
 C                     5.4936    2.386    -2.9809 
 H                     3.7373    3.9292   -1.6434 
 H                     3.8782    2.3895   -0.7439 
 H                     5.8763    1.9351   -3.8921 
 H                     5.9708    1.9158   -2.1253 
 H                     5.7511    3.4432   -2.9854 
 H                    -5.6526    4.6837   -3.3692 
 H                    -4.306     4.5243   -4.5357 
 H                    -4.2354    2.4708   -6.0512 
 H                    -5.4315    1.1842   -5.8329 
 H                    -4.1941    1.4548   -4.6041 
 C                    -6.6761    3.6325   -5.6288 
 H                    -7.345     4.3318   -5.1316 
 H                    -7.2775    2.9001   -6.1598 
 H                    -6.0706    4.1806   -6.3457 
 C                     3.6303    0.7104   -2.9066 
 H                     2.5534    0.5732   -2.8349 
 H                     4.1035    0.2165   -2.0617 
 H                     3.9764    0.2491   -3.827 
 
 ITRead=  0  0  0  0  0  0  0  0  0  0  0  0  0  0  0  0  0  0  0  0
 ITRead=  0  0  0  0  0  0  0  0  0  0  0  0  0  0  0  0  0  0  0  0
 ITRead=  0  0  0  0  0  0  0  0
 MicOpt= -1 -1 -1 -1 -1 -1 -1 -1 -1 -1 -1 -1 -1 -1 -1 -1 -1 -1 -1 -1
 MicOpt= -1 -1 -1 -1 -1 -1 -1 -1 -1 -1 -1 -1 -1 -1 -1 -1 -1 -1 -1 -1
 MicOpt= -1 -1 -1 -1 -1 -1 -1 -1
 NAtoms=     48 NQM=       48 NQMF=       0 NMMI=      0 NMMIF=      0
                NMic=       0 NMicF=      0.
                    Isotopes and Nuclear Properties:
 (Nuclear quadrupole moments (NQMom) in fm**2, nuclear magnetic moments (NMagM)
  in nuclear magnetons)

  Atom         1           2           3           4           5           6           7           8           9          10
 IAtWgt=          12          12          12          12           1          12          12           1          12          12
 AtmWgt=  12.0000000  12.0000000  12.0000000  12.0000000   1.0078250  12.0000000  12.0000000   1.0078250  12.0000000  12.0000000
 NucSpn=           0           0           0           0           1           0           0           1           0           0
 AtZEff=  -0.0000000  -0.0000000  -0.0000000  -0.0000000  -0.0000000  -0.0000000  -0.0000000  -0.0000000  -0.0000000  -0.0000000
 NQMom=    0.0000000   0.0000000   0.0000000   0.0000000   0.0000000   0.0000000   0.0000000   0.0000000   0.0000000   0.0000000
 NMagM=    0.0000000   0.0000000   0.0000000   0.0000000   2.7928460   0.0000000   0.0000000   2.7928460   0.0000000   0.0000000
 AtZNuc=   6.0000000   6.0000000   6.0000000   6.0000000   1.0000000   6.0000000   6.0000000   1.0000000   6.0000000   6.0000000

  Atom        11          12          13          14          15          16          17          18          19          20
 IAtWgt=           1          12          16          12          12          14          14          12          12          14
 AtmWgt=   1.0078250  12.0000000  15.9949146  12.0000000  12.0000000  14.0030740  14.0030740  12.0000000  12.0000000  14.0030740
 NucSpn=           1           0           0           0           0           2           2           0           0           2
 AtZEff=  -0.0000000  -0.0000000  -0.0000000  -0.0000000  -0.0000000  -0.0000000  -0.0000000  -0.0000000  -0.0000000  -0.0000000
 NQMom=    0.0000000   0.0000000   0.0000000   0.0000000   0.0000000   2.0440000   2.0440000   0.0000000   0.0000000   2.0440000
 NMagM=    2.7928460   0.0000000   0.0000000   0.0000000   0.0000000   0.4037610   0.4037610   0.0000000   0.0000000   0.4037610
 AtZNuc=   1.0000000   6.0000000   8.0000000   6.0000000   6.0000000   7.0000000   7.0000000   6.0000000   6.0000000   7.0000000

  Atom        21          22          23          24          25          26          27          28          29          30
 IAtWgt=          14           1           1           1           1           1           1           1          12          12
 AtmWgt=  14.0030740   1.0078250   1.0078250   1.0078250   1.0078250   1.0078250   1.0078250   1.0078250  12.0000000  12.0000000
 NucSpn=           2           1           1           1           1           1           1           1           0           0
 AtZEff=  -0.0000000  -0.0000000  -0.0000000  -0.0000000  -0.0000000  -0.0000000  -0.0000000  -0.0000000  -0.0000000  -0.0000000
 NQMom=    2.0440000   0.0000000   0.0000000   0.0000000   0.0000000   0.0000000   0.0000000   0.0000000   0.0000000   0.0000000
 NMagM=    0.4037610   2.7928460   2.7928460   2.7928460   2.7928460   2.7928460   2.7928460   2.7928460   0.0000000   0.0000000
 AtZNuc=   7.0000000   1.0000000   1.0000000   1.0000000   1.0000000   1.0000000   1.0000000   1.0000000   6.0000000   6.0000000

  Atom        31          32          33          34          35          36          37          38          39          40
 IAtWgt=           1           1           1           1           1           1           1           1           1           1
 AtmWgt=   1.0078250   1.0078250   1.0078250   1.0078250   1.0078250   1.0078250   1.0078250   1.0078250   1.0078250   1.0078250
 NucSpn=           1           1           1           1           1           1           1           1           1           1
 AtZEff=  -0.0000000  -0.0000000  -0.0000000  -0.0000000  -0.0000000  -0.0000000  -0.0000000  -0.0000000  -0.0000000  -0.0000000
 NQMom=    0.0000000   0.0000000   0.0000000   0.0000000   0.0000000   0.0000000   0.0000000   0.0000000   0.0000000   0.0000000
 NMagM=    2.7928460   2.7928460   2.7928460   2.7928460   2.7928460   2.7928460   2.7928460   2.7928460   2.7928460   2.7928460
 AtZNuc=   1.0000000   1.0000000   1.0000000   1.0000000   1.0000000   1.0000000   1.0000000   1.0000000   1.0000000   1.0000000

  Atom        41          42          43          44          45          46          47          48
 IAtWgt=          12           1           1           1          12           1           1           1
 AtmWgt=  12.0000000   1.0078250   1.0078250   1.0078250  12.0000000   1.0078250   1.0078250   1.0078250
 NucSpn=           0           1           1           1           0           1           1           1
 AtZEff=  -0.0000000  -0.0000000  -0.0000000  -0.0000000  -0.0000000  -0.0000000  -0.0000000  -0.0000000
 NQMom=    0.0000000   0.0000000   0.0000000   0.0000000   0.0000000   0.0000000   0.0000000   0.0000000
 NMagM=    0.0000000   2.7928460   2.7928460   2.7928460   0.0000000   2.7928460   2.7928460   2.7928460
 AtZNuc=   6.0000000   1.0000000   1.0000000   1.0000000   6.0000000   1.0000000   1.0000000   1.0000000
 Leave Link  101 at Mon Oct 25 18:37:27 2021, MaxMem=  7864320000 cpu:               2.0 elap:               0.1
 (Enter /apps/gaussian/g16-c01-avx/g16/l202.exe)
                          Input orientation:                          
 ---------------------------------------------------------------------
 Center     Atomic      Atomic             Coordinates (Angstroms)
 Number     Number       Type             X           Y           Z
 ---------------------------------------------------------------------
      1          6           0       -2.124900    1.405200    0.314800
      2          6           0       -2.806300    0.671900    1.391500
      3          6           0       -2.857800    2.031300   -0.686400
      4          6           0       -2.207300    2.728100   -1.705100
      5          1           0       -3.936400    1.993300   -0.691700
      6          6           0       -0.817600    2.788200   -1.706400
      7          6           0       -0.069300    2.164400   -0.707200
      8          1           0       -0.288900    3.323300   -2.480900
      9          6           0       -0.731200    1.473700    0.301300
     10          6           0        1.385400    2.233900   -0.715500
     11          1           0       -0.182600    0.979600    1.090300
     12          6           0       -2.969100    3.387900   -2.756800
     13          8           0       -2.257700    0.103500    2.300000
     14          6           0       -4.955500    3.977000   -3.832600
     15          6           0       -5.791700    2.914000   -4.609000
     16          7           0       -4.229900    3.351900   -2.781500
     17          7           0       -6.645300    2.140100   -3.727400
     18          6           0        3.976800    2.200400   -2.925300
     19          6           0        3.435300    2.876200   -1.628400
     20          7           0        3.399800    2.779800   -4.124200
     21          7           0        2.013400    2.846600   -1.622200
     22          1           0       -3.910900    0.680000    1.304200
     23          1           0        3.626700    3.766600   -4.185000
     24          1           0        2.389600    2.697300   -4.088200
     25          1           0       -7.303300    2.745800   -3.248800
     26          1           0       -6.078900    1.681400   -3.022200
     27          1           0       -2.377600    3.920400   -3.517100
     28          1           0        1.894900    1.726200    0.117200
     29          6           0       -4.847500    1.944900   -5.323000
     30          6           0        5.493600    2.386000   -2.980900
     31          1           0        3.737300    3.929200   -1.643400
     32          1           0        3.878200    2.389500   -0.743900
     33          1           0        5.876300    1.935100   -3.892100
     34          1           0        5.970800    1.915800   -2.125300
     35          1           0        5.751100    3.443200   -2.985400
     36          1           0       -5.652600    4.683700   -3.369200
     37          1           0       -4.306000    4.524300   -4.535700
     38          1           0       -4.235400    2.470800   -6.051200
     39          1           0       -5.431500    1.184200   -5.832900
     40          1           0       -4.194100    1.454800   -4.604100
     41          6           0       -6.676100    3.632500   -5.628800
     42          1           0       -7.345000    4.331800   -5.131600
     43          1           0       -7.277500    2.900100   -6.159800
     44          1           0       -6.070600    4.180600   -6.345700
     45          6           0        3.630300    0.710400   -2.906600
     46          1           0        2.553400    0.573200   -2.834900
     47          1           0        4.103500    0.216500   -2.061700
     48          1           0        3.976400    0.249100   -3.827000
 ---------------------------------------------------------------------
                    Distance matrix (angstroms):
                    1          2          3          4          5
     1  C    0.000000
     2  C    1.470142   0.000000
     3  C    1.389800   2.483604   0.000000
     4  C    2.415957   3.765062   1.395145   0.000000
     5  H    2.154167   2.713475   1.079282   2.134642   0.000000
     6  C    2.776143   4.246250   2.403271   1.391000   3.374670
     7  C    2.417925   3.758094   2.791752   2.425821   3.870914
     8  H    3.855638   5.325665   3.389505   2.153227   4.274856
     9  C    1.395448   2.477390   2.410165   2.788912   3.395488
    10  C    3.751062   4.944658   4.248134   3.759127   5.327289
    11  H    2.134260   2.658797   3.379265   3.869228   4.277163
    12  C    3.752133   4.961003   2.477763   1.456622   2.673054
    13  O    2.377620   1.203916   3.604874   4.788725   3.916586
    14  C    5.641576   6.544766   4.252607   3.693049   3.852127
    15  C    6.321844   7.067222   4.977320   4.616830   4.431147
    16  N    4.219922   5.159745   2.831269   2.374589   2.509821
    17  N    6.108476   6.564805   4.858464   4.912360   4.071261
    18  C    6.954231   8.184224   7.193958   6.325381   8.224998
    19  C    6.070889   7.275734   6.419060   5.645064   7.483240
    20  N    7.219180   8.566322   7.178877   6.106905   8.137596
    21  N    4.791151   6.086150   5.026831   4.223177   6.082275
    22  H    2.166708   1.108074   2.626313   4.019061   2.389356
    23  H    7.674980   9.058588   7.569690   6.423702   8.517524
    24  H    6.437130   7.818359   6.288959   5.177992   7.214576
    25  H    6.427463   6.786491   5.180625   5.324710   4.294302
    26  H    5.181310   5.586569   3.994230   4.221329   3.181009
    27  H    4.590593   5.901770   3.436881   2.175759   3.758518
    28  H    4.037435   4.983640   4.829805   4.599198   5.893193
    29  C    6.283997   7.132429   5.046229   4.546786   4.720316
    30  C    8.358538   9.536475   8.668127   7.813358   9.711825
    31  H    6.676115   7.914501   6.929157   6.065041   7.971143
    32  H    6.174699   7.224446   6.745762   6.170240   7.824811
    33  H    9.055275  10.242053   9.304315   8.411683  10.321581
    34  H    8.470842   9.536910   8.945834   8.229078  10.010686
    35  H    8.779302  10.003322   9.021753   8.092383  10.060364
    36  H    6.063422   6.845453   4.695056   4.296940   4.165645
    37  H    6.165495   7.226464   4.809308   3.955145   4.617240
    38  H    6.790852   7.789233   5.556260   4.802914   5.389030
    39  H    6.984029   7.703641   5.816182   5.460570   5.414970
    40  H    5.336631   6.203720   4.179285   3.738030   3.957684
    41  C    7.810292   8.545473   6.447525   6.015275   5.879446
    42  H    8.091829   8.749028   6.722133   6.380338   6.066288
    43  H    8.408594   9.054205   7.088488   6.751360   6.471889
    44  H    8.223968   9.101148   6.853412   6.210476   6.427037
    45  C    6.631930   7.739830   6.983517   6.292240   7.987901
    46  H    5.700818   6.826315   6.001932   5.346429   6.980508
    47  H    6.771538   7.738043   7.324251   6.801580   8.347090
    48  H    7.464378   8.568344   7.729547   6.991856   8.688196
                    6          7          8          9         10
     6  C    0.000000
     7  C    1.395521   0.000000
     8  H    1.079679   2.130090   0.000000
     9  C    2.401299   1.390054   3.370057   0.000000
    10  C    2.478375   1.456383   2.665841   2.468154   0.000000
    11  H    3.390544   2.155828   4.272903   1.080564   2.700520
    12  C    2.468184   3.755882   2.695137   4.245507   4.945735
    13  O    5.033164   4.252018   6.091001   2.863992   5.186909
    14  C    4.801686   6.076890   4.902201   6.418750   7.277481
    15  C    5.760433   6.966477   5.914148   7.196817   8.193451
    16  N    3.621794   4.798278   3.952551   5.027146   6.086861
    17  N    6.202142   7.236434   6.584645   7.186869   8.577440
    18  C    4.981716   4.614346   4.433350   5.753634   3.405832
    19  C    4.254525   3.692897   3.846599   4.801091   2.334101
    20  N    4.861305   4.908081   4.074596   6.193231   3.996880
    21  N    2.832854   2.374923   2.503037   3.621814   1.261701
    22  H    4.803824   4.583346   5.867955   3.427282   5.877464
    23  H    5.181942   5.321894   4.293297   6.661499   4.405681
    24  H    3.995919   4.214420   3.185852   5.523070   3.549403
    25  H    6.666716   7.689507   7.079900   7.577199   9.064941
    26  H    5.535125   6.458158   6.042594   6.299737   7.832107
    27  H    2.644638   4.038233   2.406846   4.824640   4.985320
    28  H    3.436716   2.174796   3.750978   2.644627   1.100336
    29  C    5.480059   6.647179   5.546021   6.985607   7.756392
    30  C    6.451152   6.013707   5.879272   7.096003   4.693877
    31  H    4.696058   4.298976   4.156779   5.456998   3.044088
    32  H    4.809980   3.954083   4.610192   4.814322   2.497813
    33  H    7.093191   6.748802   6.475205   7.839423   5.508925
    34  H    6.857035   6.209317   6.425835   7.141474   4.807766
    35  H    6.724038   6.379857   6.062219   7.530043   5.066970
    36  H    5.452985   6.678799   5.604377   6.927976   7.910568
    37  H    4.815383   6.178687   4.669229   6.744029   7.227164
    38  H    5.537092   6.782964   5.389681   7.323106   7.753658
    39  H    6.394442   7.482432   6.500614   7.733372   8.588351
    40  H    4.644930   5.718683   4.821811   6.004580   6.845365
    41  C    7.100710   8.368230   7.127496   8.669968   9.543814
    42  H    7.531377   8.786851   7.604724   9.023718  10.006148
    43  H    7.847012   9.068090   7.909104   9.307764  10.253295
    44  H    7.145341   8.477815   7.007118   8.945340   9.543622
    45  C    5.053865   4.542963   4.729545   5.467717   3.487341
    46  H    4.188482   3.733307   3.970773   4.629822   2.934962
    47  H    5.563911   4.800130   5.396398   5.526178   3.642832
    48  H    5.824638   5.456117   5.427290   6.379969   4.509340
                   11         12         13         14         15
    11  H    0.000000
    12  C    5.325849   0.000000
    13  O    2.556749   6.071622   0.000000
    14  C    7.483310   2.334560   7.738922   0.000000
    15  C    8.227146   3.409149   8.253626   1.559486   0.000000
    16  N    6.082703   1.261556   6.345338   1.421990   2.443508
    17  N    8.143923   4.001689   7.728410   2.498138   1.450783
    18  C    5.908977   7.048693   8.400580   9.152349   9.938192
    19  C    4.906895   6.523148   7.451875   8.745043   9.696542
    20  N    6.577638   6.542359   8.968848   8.445671   9.205255
    21  N    3.958000   5.138641   6.414869   7.397921   8.357338
    22  H    3.746430   4.971059   2.014210   6.192585   6.595006
    23  H    7.078625   6.759271   9.492086   8.592009   9.466412
    24  H    6.031879   5.564640   8.314704   7.460124   8.200723
    25  H    8.523592   4.409041   7.951667   2.714561   2.040434
    26  H    7.222986   3.557167   6.739225   2.681148   2.029710
    27  H    5.890201   1.100675   6.958574   2.597751   3.723059
    28  H    2.412538   5.888940   4.964057   8.221618   9.101190
    29  C    7.988962   3.492280   8.258810   2.522377   1.529858
    30  C    7.125439   8.524747   9.652998  10.603790  11.414355
    31  H    5.615948   6.819712   8.131815   8.964355  10.031314
    32  H    4.673564   7.206531   7.220830   9.491811  10.426939
    33  H    7.902377   9.035521  10.385510  11.022740  11.730917
    34  H    7.005775   9.082273   9.517138  11.249331  12.063232
    35  H    7.608512   8.723371  10.160213  10.753324  11.668434
    36  H    7.970470   3.042253   8.040112   1.095497   2.165246
    37  H    7.824270   2.498638   8.394391   1.102605   2.192201
    38  H    8.345651   3.646596   8.902693   2.776575   2.167588
    39  H    8.690426   4.514654   8.796873   3.468070   2.149391
    40  H    6.981700   2.941091   7.296729   2.745257   2.163704
    41  C    9.713379   4.695749   9.738684   2.511071   1.529182
    42  H   10.062269   5.067457   9.949262   2.742808   2.167028
    43  H   10.324237   5.511866  10.226807   3.459372   2.147737
    44  H   10.010447   4.809145  10.291214   2.756914   2.167530
    45  C    5.530451   7.123449   7.883245   9.232774   9.824872
    46  H    4.801880   6.198923   7.052269   8.304507   8.846890
    47  H    5.374763   7.782198   7.713758   9.967092  10.567887
    48  H    6.481570   7.696581   8.742158   9.678642  10.155245
                   16         17         18         19         20
    16  N    0.000000
    17  N    2.863100   0.000000
    18  C    8.288339  10.652512   0.000000
    19  C    7.766030  10.323088   1.559448   0.000000
    20  N    7.768041  10.073267   1.451205   2.497913   0.000000
    21  N    6.370094   8.938909   2.443478   1.422222   2.861218
    22  H    4.892214   5.909808   9.078331   8.209147   9.344679
    23  H    7.991743  10.410038   2.040195   2.713973   1.014374
    24  H    6.778919   9.059253   2.029396   2.678826   1.014202
    25  H    3.167257   1.014344  11.297910  10.860950  10.738893
    26  H    2.503459   1.014161  10.069551   9.689697   9.605553
    27  H    2.072514   4.628926   6.609616   6.200593   5.920126
    28  H    6.968396   9.374822   3.716985   2.596623   4.622150
    29  C    2.969899   2.411665   9.147815   9.117136   8.375687
    30  C    9.773391  12.164318   1.529124   2.511205   2.417894
    31  H    8.068756  10.739754   2.165497   1.095554   2.754886
    32  H    8.415421  10.941093   2.191800   1.102442   3.436223
    33  H   10.265283  12.524361   2.147833   3.459550   2.626869
    34  H   10.322173  12.719395   2.167264   2.756454   3.369293
    35  H    9.983500  12.486768   2.167096   2.743331   2.695473
    36  H    2.035475   2.753845   9.954354   9.428010   9.281207
    37  H    2.111286   3.436580   8.752067   8.431865   7.911508
    38  H    3.386341   3.364079   8.791166   8.863698   7.880678
    39  H    3.931133   2.611548   9.899642   9.957953   9.135505
    40  H    2.630996   2.691955   8.374837   8.311613   7.723551
    41  C    3.764273   2.417339  11.083506  10.900257  10.223242
    42  H    4.023310   2.695349  11.730038  11.428300  10.902948
    43  H    4.572188   2.625614  11.730765  11.631777  10.870275
    44  H    4.096150   3.368889  10.796785  10.691890   9.827806
    45  C    8.293125  10.407003   1.529873   2.522402   2.412073
    46  H    7.330565   9.373783   2.163797   2.745396   2.692168
    47  H    8.932771  11.045881   2.167422   2.776372   3.364462
    48  H    8.835372  10.789176   2.149566   3.468182   2.612516
                   21         22         23         24         25
    21  N    0.000000
    22  H    6.953798   0.000000
    23  H    3.164977   9.822109   0.000000
    24  H    2.498994   8.534857   1.638044   0.000000
    25  H    9.458165   6.041996  11.017414   9.729299   0.000000
    26  H    8.294758   4.941737   9.994940   8.595575   1.638124
    27  H    4.901487   6.008006   6.043291   4.954627   5.070916
    28  H    2.072402   6.017542   5.066684   4.344324   9.847661
    29  C    7.847352   6.811532   8.742179   7.380139   3.312808
    30  C    3.764307  10.474595   2.615574   3.310262  12.804760
    31  H    2.035756   8.817064   2.549196   3.051380  11.219296
    32  H    2.111357   8.233297   3.714946   3.673556  11.464180
    33  H    4.572229  11.151955   2.915627   3.574420  13.220171
    34  H    4.096402  10.532648   3.628034   4.157970  13.347392
    35  H    4.023015  10.926582   2.461037   3.615552  13.075668
    36  H    8.074311   6.395608   9.360129   8.315030   2.548483
    37  H    7.158071   7.002798   7.976517   6.954800   3.715236
    38  H    7.668427   7.577214   8.183790   6.913414   4.164262
    39  H    8.713214   7.314686   9.562183   8.154941   3.552436
    40  H    7.025802   5.965612   8.166087   6.719752   3.629138
    41  C    9.600932   8.026835  10.404337   9.243104   2.616107
    42  H   10.104522   8.157708  11.026953   9.925861   2.462127
    43  H   10.339898   8.483757  11.115405   9.888654   2.915201
    44  H    9.457381   8.685590   9.943724   8.880961   3.628910
    45  C    2.971094   8.637214   3.312805   2.623602  11.126705
    46  H    2.632601   7.676635   3.629400   2.471718  10.101784
    47  H    3.388083   8.704868   4.164007   3.632977  11.744005
    48  H    3.932114   9.419362   3.552923   2.929137  11.567172
                   26         27         28         29         30
    26  H    0.000000
    27  H    4.354041   0.000000
    28  H    8.569675   6.023031   0.000000
    29  C    2.622872   3.642016   8.666231   0.000000
    30  C   11.594004   8.037268   4.794184  10.612179   0.000000
    31  H   10.164225   6.395532   3.368584   9.548596   2.693504
    32  H   10.238940   7.012084   2.261623   9.864262   2.759293
    33  H   11.989491   8.497582   5.654173  10.818847   1.086304
    34  H   12.085307   8.697776   4.655933  11.281035   1.086673
    35  H   11.960526   8.160036   5.238749  10.956258   1.088117
    36  H    3.052203   3.366025   8.824202   3.459270  11.387185
    37  H    3.676403   2.262956   8.241966   2.750703  10.149970
    38  H    3.632697   3.460408   8.728354   1.086974  10.202322
    39  H    2.926836   4.709143   9.453761   1.086148  11.355001
    40  H    2.471078   3.249681   7.709750   1.088093   9.866785
    41  C    3.310257   4.797840  10.493452   2.507047  12.516658
    42  H    3.616241   5.239363  10.941426   3.459976  13.162116
    43  H    3.573011   5.659849  11.176390   2.741814  13.170828
    44  H    4.158332   4.659070  10.547149   2.745950  12.176748
    45  C    9.758318   6.838982   3.631367   8.901465   2.506999
    46  H    8.705159   5.998659   3.236962   7.927517   3.457215
    47  H   10.331978   7.605375   3.450321   9.682141   2.735697
    48  H   10.188633   7.344916   4.697997   9.109059   2.753929
                   31         32         33         34         35
    31  H    0.000000
    32  H    1.788751   0.000000
    33  H    3.688958   3.756334   0.000000
    34  H    3.045411   2.551790   1.769431   0.000000
    35  H    2.468309   3.105215   1.764127   1.766633   0.000000
    36  H    9.576945  10.148483  11.863548  12.012992  11.477392
    37  H    8.568210   9.269102  10.526035  10.873220  10.233155
    38  H    9.226027   9.695594  10.353510  10.949303  10.491657
    39  H   10.447671  10.678070  11.497691  12.012243  11.758481
    40  H    8.820176   8.996490  10.106957  10.472925  10.270391
    41  C   11.153938  11.696177  12.785149  13.235016  12.706640
    42  H   11.625274  12.205927  13.493825  13.863096  13.300512
    43  H   11.949173  12.411379  13.382681  13.883929  13.420737
    44  H   10.879785  11.557111  12.401244  12.959028  12.312106
    45  C    3.459450   2.749200   2.741462   2.746154   3.460086
    46  H    3.752869   3.070232   3.743542   3.739616   4.299399
    47  H    3.754094   2.551330   3.073560   2.525564   3.738904
    48  H    4.285839   3.754525   2.540955   3.106655   3.749683
                   36         37         38         39         40
    36  H    0.000000
    37  H    1.788704   0.000000
    38  H    3.754798   2.553152   0.000000
    39  H    4.285464   3.755762   1.770212   0.000000
    40  H    3.752065   3.072301   1.768632   1.764747   0.000000
    41  C    2.694135   2.758179   2.735870   2.754062   3.457269
    42  H    2.468624   3.102849   3.738796   3.749759   4.299251
    43  H    3.689035   3.755734   3.074161   2.541435   3.743855
    44  H    3.047521   2.551087   2.525491   3.106417   3.739573
    45  C   10.108083   8.954589   8.651980   9.534356   8.040950
    46  H    9.193483   8.096622   7.748114   8.551021   7.031077
    47  H   10.809575   9.767165   9.515000  10.299253   8.766262
    48  H   10.610980   9.347606   8.792990   9.664711   8.295461
                   41         42         43         44         45
    41  C    0.000000
    42  H    1.087959   0.000000
    43  H    1.086302   1.763949   0.000000
    44  H    1.086733   1.766634   1.769420   0.000000
    45  C   11.053096  11.769553  11.591298  10.861729   0.000000
    46  H   10.116762  10.834216  10.635601   9.985611   1.087970
    47  H   11.857193  12.547037  12.390452  11.729410   1.087066
    48  H   11.321203  12.105557  11.794915  11.078933   1.086149
                   46         47         48
    46  H    0.000000
    47  H    1.768582   0.000000
    48  H    1.764719   1.770170   0.000000
 Stoichiometry    C17H26N4O
 Framework group  C1[X(C17H26N4O)]
 Deg. of freedom   138
 Full point group                 C1      NOp   1
 Largest Abelian subgroup         C1      NOp   1
 Largest concise Abelian subgroup C1      NOp   1
                         Standard orientation:                         
 ---------------------------------------------------------------------
 Center     Atomic      Atomic             Coordinates (Angstroms)
 Number     Number       Type             X           Y           Z
 ---------------------------------------------------------------------
      1          6           0       -0.418655    2.824876    0.044975
      2          6           0       -0.849522    4.185819    0.396407
      3          6           0       -1.356420    1.831369   -0.210148
      4          6           0       -0.943280    0.541703   -0.545568
      5          1           0       -2.414191    2.039220   -0.157550
      6          6           0        0.417372    0.262802   -0.621216
      7          6           0        1.369753    1.250853   -0.367828
      8          1           0        0.764619   -0.725757   -0.881745
      9          6           0        0.943216    2.531218   -0.034690
     10          6           0        2.792371    0.950361   -0.450979
     11          1           0        1.653820    3.319767    0.167423
     12          6           0       -1.920575   -0.504091   -0.815675
     13          8           0       -0.112961    5.109090    0.629778
     14          6           0       -4.099896   -1.321946   -0.994119
     15          6           0       -4.976335   -1.550069    0.275452
     16          7           0       -3.160821   -0.281009   -0.756114
     17          7           0       -5.606844   -0.325547    0.731276
     18          6           0        4.961820   -1.575489    0.265448
     19          6           0        4.602487   -0.484000   -0.788787
     20          7           0        4.146754   -2.766943    0.116781
     21          7           0        3.208798   -0.204253   -0.743120
     22          1           0       -1.950289    4.307616    0.432534
     23          1           0        4.286647   -3.179512   -0.799281
     24          1           0        3.166537   -2.519272    0.197025
     25          1           0       -6.215785    0.049185    0.011789
     26          1           0       -4.895726    0.370528    0.927011
     27          1           0       -1.509004   -1.490307   -1.079248
     28          1           0        3.473056    1.791136   -0.249721
     29          6           0       -4.099848   -2.081321    1.411237
     30          6           0        6.428795   -1.968431    0.087121
     31          1           0        4.819143   -0.889019   -1.783401
     32          1           0        5.225078    0.410644   -0.623348
     33          1           0        6.681706   -2.743333    0.805188
     34          1           0        7.078915   -1.112283    0.245913
     35          1           0        6.603225   -2.356744   -0.914270
     36          1           0       -4.757287   -0.986190   -1.803574
     37          1           0       -3.622625   -2.270485   -1.291141
     38          1           0       -3.662049   -3.039430    1.143147
     39          1           0       -4.705059   -2.204760    2.304657
     40          1           0       -3.298598   -1.378712    1.630978
     41          6           0       -6.072926   -2.562063   -0.058843
     42          1           0       -6.696272   -2.197779   -0.872718
     43          1           0       -6.700932   -2.710880    0.814950
     44          1           0       -5.641307   -3.515500   -0.351511
     45          6           0        4.734229   -1.019773    1.672534
     46          1           0        3.698628   -0.709107    1.793763
     47          1           0        5.380328   -0.165291    1.857273
     48          1           0        4.950370   -1.793110    2.403939
 ---------------------------------------------------------------------
 Rotational constants (GHZ):           0.3261128           0.1151022           0.0901901
 Leave Link  202 at Mon Oct 25 18:37:27 2021, MaxMem=  7864320000 cpu:               0.4 elap:               0.0
 (Enter /apps/gaussian/g16-c01-avx/g16/l301.exe)
 Standard basis: Aug-CC-pVDZ (5D, 7F)
 Ernie: Thresh=  0.10000D-02 Tol=  0.10000D-05 Strict=F.
 Ernie:  44 primitive shells out of 732 were deleted.
 There are   784 symmetry adapted cartesian basis functions of A   symmetry.
 There are   740 symmetry adapted basis functions of A   symmetry.
   740 basis functions,  1232 primitive gaussians,   784 cartesian basis functions
    82 alpha electrons       82 beta electrons
       nuclear repulsion energy      1707.5400818421 Hartrees.
 IExCor=    0 DFT=F Ex=HF Corr=None ExCW=0 ScaHFX=  1.000000
 ScaDFX=  1.000000  1.000000  1.000000  1.000000 ScalE2=  1.000000  1.000000
 IRadAn=      7 IRanWt=     -1 IRanGd=            0 ICorTp=0 IEmpDi=  4
 NAtoms=   48 NActive=   48 NUniq=   48 SFac= 1.00D+00 NAtFMM=   60 NAOKFM=F Big=F
 Integral buffers will be    131072 words long.
 Raffenetti 1 integral format.
 Two-electron integral symmetry is turned on.
 ------------------------------------------------------------------------------
 Polarizable Continuum Model (PCM)
 =================================
 Model                : PCM.
 Atomic radii         : UFF (Universal Force Field).
 Polarization charges : Total charges.
 Charge compensation  : None.
 Solution method      : On-the-fly selection.
 Cavity type          : Scaled VdW (van der Waals Surface) (Alpha=1.100).
 Cavity algorithm     : GePol (No added spheres)
                        Default sphere list used, NSphG=   48.
                        Lebedev-Laikov grids with approx.  5.0 points / Ang**2.
                        Smoothing algorithm: York/Karplus (Gamma=1.0000).
                        Polarization charges: spherical gaussians, with
                                              point-specific exponents (IZeta= 3).
                        Self-potential: point-specific (ISelfS= 7).
                        Self-field    : sphere-specific E.n sum rule (ISelfD= 2).
 Solvent              : Chloroform, Eps=   4.711300 Eps(inf)=   2.090627
 ------------------------------------------------------------------------------
 GePol: Number of generator spheres                  =      48
 GePol: Total number of spheres                      =      48
 GePol: Number of exposed spheres                    =      47 ( 97.92%)
 GePol: Number of points                             =    3294
 GePol: Average weight of points                     =       0.13
 GePol: Minimum weight of points                     =   0.10D-09
 GePol: Maximum weight of points                     =    0.20577
 GePol: Number of points with low weight             =     201
 GePol: Fraction of low-weight points (<1% of avg)   =       6.10%
 GePol: Cavity surface area                          =    435.983 Ang**2
 GePol: Cavity volume                                =    468.684 Ang**3
 Leave Link  301 at Mon Oct 25 18:37:28 2021, MaxMem=  7864320000 cpu:               4.2 elap:               0.2
 (Enter /apps/gaussian/g16-c01-avx/g16/l302.exe)
 NPDir=0 NMtPBC=     1 NCelOv=     1 NCel=       1 NClECP=     1 NCelD=      1
         NCelK=      1 NCelE2=     1 NClLst=     1 CellRange=     0.0.
 One-electron integrals computed using PRISM.
 One-electron integral symmetry used in STVInt
 NBasis=   740 RedAO= T EigKep=  1.30D-06  NBF=   740
 NBsUse=   738 1.00D-06 EigRej=  9.94D-07 NBFU=   738
 Leave Link  302 at Mon Oct 25 18:37:30 2021, MaxMem=  7864320000 cpu:              34.9 elap:               1.1
 (Enter /apps/gaussian/g16-c01-avx/g16/l303.exe)
 DipDrv:  MaxL=1.
 Leave Link  303 at Mon Oct 25 18:37:31 2021, MaxMem=  7864320000 cpu:               4.9 elap:               0.2
 (Enter /apps/gaussian/g16-c01-avx/g16/l401.exe)
 ExpMin= 2.97D-02 ExpMax= 1.17D+04 ExpMxC= 4.01D+02 IAcc=3 IRadAn=         7 AccDes= 0.00D+00
 Harris functional with IExCor=  205 and IRadAn=       7 diagonalized for initial guess.
 HarFok:  IExCor=  205 AccDes= 0.00D+00 IRadAn=         7 IDoV= 1 UseB2=F ITyADJ=14
 ICtDFT=  3500011 ScaDFX=  1.000000  1.000000  1.000000  1.000000
 FoFCou: FMM=F IPFlag=           0 FMFlag=      100000 FMFlg1=           0
         NFxFlg=           0 DoJE=T BraDBF=F KetDBF=T FulRan=T
         wScrn=  0.000000 ICntrl=       500 IOpCl=  0 I1Cent=   200000004 NGrid=           0
         NMat0=    1 NMatS0=      1 NMatT0=    0 NMatD0=    1 NMtDS0=    0 NMtDT0=    0
 Petite list used in FoFCou.
 Harris En= -953.071994383502    
 JPrj=0 DoOrth=F DoCkMO=F.
 Leave Link  401 at Mon Oct 25 18:37:38 2021, MaxMem=  7864320000 cpu:             213.0 elap:               6.8
 (Enter /apps/gaussian/g16-c01-avx/g16/l508.exe)
 Integral symmetry usage will be decided dynamically.
 Tight linear equation convergence will be used.
 RHF wavefunction.
 Linear searches until partial convergence.
 Full line searches.
 Fock matrices will be formed incrementally for  20 cycles.
 Inv3:  Mode=1 IEnd=    32551308.
 Iteration    1 A*A^-1 deviation from unit magnitude is 5.55D-15 for   3271.
 Iteration    1 A*A^-1 deviation from orthogonality  is 1.93D-15 for    153    119.
 Iteration    1 A^-1*A deviation from unit magnitude is 5.55D-15 for   3271.
 Iteration    1 A^-1*A deviation from orthogonality  is 3.68D-15 for   2323   2303.
 FoFJK:  IHMeth= 1 ICntrl=       0 DoSepK=F KAlg= 0 I1Cent=           0 FoldK=F
 IRaf= 860000000 NMat=       1 IRICut=       1 DoRegI=T DoRafI=F ISym2E= 1 IDoP0=0 IntGTp=1.
 Iteration   1 EE= -950.741350848424                                    Grad=1.521D+00 Max rot=    2.6639 deg.
 Gradient too large for Newton-Raphson -- use scaled steepest descent instead.
 Alpha Gap=     0.378 HL deriv= 2.34D-03
     ILin= 1 X=0.000D+00 Y=-9.507413508484D+02 DE= 0.00D+00 F= -2.96D+00
 RMSU=  7.08D-03    CP:  7.81D-01
     ILin= 2 X=3.000D-01 Y=-9.513998241206D+02 DE=-6.58D-01 F= -1.43D+00 OKLS=F
 RMSU=  1.43D-03    CP:  6.61D-01  1.48D+00
     ILin= 3 X=5.000D-01 Y=-9.515832668779D+02 DE=-8.42D-01 F= -4.04D-01
 RMSU=  3.42D-03    CP:  4.89D-01  1.97D+00  3.00D+00
     ILin= 4 X=9.000D-01 Y=-9.513364577116D+02 DE=-5.95D-01 F=  1.63D+00
     An  expanding polynomial of degree  4 produced  0.5794
 RMSU=  2.73D-06    CP:  6.20D-01  1.62D+00  1.62D+00  1.03D-05
 Iteration   2 EE= -951.599193377702     Delta-E=       -0.857842529279 Grad=5.057D-01 Max rot=    1.4744 deg.
 Gradient too large for Newton-Raphson -- use scaled steepest descent instead.
 Alpha Gap=     0.431 HL deriv= 9.86D-04
     ILin= 1 X=0.000D+00 Y=-9.515991933777D+02 DE= 0.00D+00 F= -1.38D-01
 RMSU=  1.51D-03    CP:  5.50D-01  1.72D+00  2.72D+00  6.51D-04  3.00D+00
     ILin= 2 X=4.000D-01 Y=-9.516412305542D+02 DE=-4.20D-02 F= -7.18D-02 OKLS=F
 RMSU=  2.49D-04    CP:  4.90D-01  1.76D+00  3.00D+00  4.72D-01  3.00D+00
                    CP:  1.89D+00
     ILin= 3 X=8.000D-01 Y=-9.516566987933D+02 DE=-5.75D-02 F= -5.57D-03
 RMSU=  1.19D-03    CP:  3.94D-01  1.63D+00  3.00D+00  2.24D+00  3.00D+00
                    CP:  3.00D+00  3.00D+00
     ILin= 4 X=1.700D+00 Y=-9.515951183874D+02 DE= 4.07D-03 F=  1.42D-01
     An  expanding polynomial of degree  4 produced  0.8338
     Minimum is close to point  3 DX=  3.38D-02 DF= -9.43D-05 DXR=  4.05D-02 DFR=  1.64D-03 which will be used.
 Iteration   3 EE= -951.656698793314     Delta-E=       -0.057505415612 Grad=1.465D-01 Max rot=    0.2965 deg.
 Gradient too large for Newton-Raphson -- use scaled steepest descent instead.
 Alpha Gap=     0.416 HL deriv= 4.44D-04
     ILin= 1 X=0.000D+00 Y=-9.516566987933D+02 DE= 0.00D+00 F= -1.96D-02
 RMSU=  7.84D-04    CP:  4.67D-01  1.75D+00  3.00D+00  8.35D-01  3.00D+00
                    CP:  2.18D+00  1.52D+00 -3.30D-03
     ILin= 2 X=7.000D-01 Y=-9.516635482457D+02 DE=-6.85D-03 F=  1.59D-05 OKLS=T
     Accept linear search using points  1 and  2.
     An  expanding polynomial of degree  2 produced  0.6977
     Minimum is close to point  2 DX= -2.29D-03 DF= -2.61D-08 DXR=  3.28D-03 DFR=  3.81D-06 which will be used.
 Iteration   4 EE= -951.663548245730     Delta-E=       -0.006849452416 Grad=5.649D-02 Max rot=    0.1772 deg.
 Gradient too large for Newton-Raphson -- use scaled steepest descent instead.
 Alpha Gap=     0.425 HL deriv= 1.04D-03
     ILin= 1 X=0.000D+00 Y=-9.516635482457D+02 DE= 0.00D+00 F= -3.22D-03
 RMSU=  2.26D-04    CP:  4.55D-01  1.74D+00  3.00D+00  9.60D-01  3.00D+00
                    CP:  2.40D+00  2.13D+00 -3.79D-03  1.13D+00
     ILin= 2 X=8.000D-01 Y=-9.516647762003D+02 DE=-1.23D-03 F=  1.47D-04 OKLS=T
     Accept linear search using points  1 and  2.
     An  expanding polynomial of degree  2 produced  0.7348
     Minimum is close to point  2 DX= -6.52D-02 DF= -6.11D-06 DXR=  8.88D-02 DFR=  4.98D-03 which will be used.
 Iteration   5 EE= -951.664776200250     Delta-E=       -0.001227954521 Grad=2.401D-02 Max rot=    0.0972 deg.
 Gradient too large for Newton-Raphson -- use scaled steepest descent instead.
 Alpha Gap=     0.423 HL deriv= 6.10D-04
     ILin= 1 X=0.000D+00 Y=-9.516647762003D+02 DE= 0.00D+00 F= -8.42D-04
 RMSU=  6.56D-05    CP:  4.53D-01  1.73D+00  3.00D+00  1.00D+00  3.00D+00
                    CP:  2.44D+00  2.22D+00 -4.35D-03  1.33D+00  1.13D+00
     ILin= 2 X=7.000D-01 Y=-9.516650523788D+02 DE=-2.76D-04 F=  5.27D-05 OKLS=T
     Accept linear search using points  1 and  2.
     An  expanding polynomial of degree  2 produced  0.5947
 RMSU=  1.77D-07    CP:  4.53D-01  1.73D+00  3.00D+00  9.97D-01  3.00D+00
                    CP:  2.43D+00  2.21D+00 -4.26D-03  1.30D+00  1.11D+00
                    CP:  8.49D-01
 Iteration   6 EE= -951.665050842590     Delta-E=       -0.000274642340 Grad=9.413D-03 Max rot=    0.0443 deg.
 SCF Done:  E(RHF) =  -951.665050843     a.u. after    6 cycles
            Convg  =    0.9413D-02                    12 Fock formations.
              S**2 =  0.0000                  -V/T =  2.0005
 Leave Link  508 at Mon Oct 25 18:43:45 2021, MaxMem=  7864320000 cpu:           11473.9 elap:             367.0
 (Enter /apps/gaussian/g16-c01-avx/g16/l502.exe)
 Integral symmetry usage will be decided dynamically.
 Closed shell SCF:
 Using DIIS extrapolation, IDIIS=  1040.
 NGot=  7864320000 LenX=  7863057070 LenY=  7862441630
 Requested convergence on RMS density matrix=1.00D-08 within 128 cycles.
 Requested convergence on MAX density matrix=1.00D-06.
 Requested convergence on             energy=1.00D-06.
 No special actions if energy rises.
 Fock matrices will be formed incrementally for  20 cycles.

 Cycle   1  Pass 1  IDiag  1:
 FoFJK:  IHMeth= 1 ICntrl=       0 DoSepK=F KAlg= 0 I1Cent=           0 FoldK=F
 IRaf= 860000000 NMat=       1 IRICut=       1 DoRegI=T DoRafI=F ISym2E= 0 IDoP0=0 IntGTp=1.
 FoFCou: FMM=F IPFlag=           0 FMFlag=      100000 FMFlg1=           0
         NFxFlg=           0 DoJE=F BraDBF=F KetDBF=F FulRan=T
         wScrn=  0.000000 ICntrl=         0 IOpCl=  0 I1Cent=           0 NGrid=           0
         NMat0=    1 NMatS0=      1 NMatT0=    0 NMatD0=    1 NMtDS0=    0 NMtDT0=    0
 Symmetry not used in FoFCou.
 E= -951.665050843916    
 DIIS: error= 1.45D-04 at cycle   1 NSaved=   1.
 NSaved= 1 IEnMin= 1 EnMin= -951.665050843916     IErMin= 1 ErrMin= 1.45D-04
 ErrMax= 1.45D-04  0.00D+00 EMaxC= 1.00D-01 BMatC= 4.43D-05 BMatP= 4.43D-05
 IDIUse=3 WtCom= 9.99D-01 WtEn= 1.45D-03
 Coeff-Com:  0.100D+01
 Coeff-En:   0.100D+01
 Coeff:      0.100D+01
 Gap=     0.425 Goal=   None    Shift=    0.000
 RMSDP=2.47D-04 MaxDP=3.00D-02              OVMax= 3.14D-03

 Cycle   2  Pass 1  IDiag  1:
 RMSU=  2.02D-04    CP:  9.96D-01
 E= -951.665136636927     Delta-E=       -0.000085793011 Rises=F Damp=F
 DIIS: error= 7.97D-05 at cycle   2 NSaved=   2.
 NSaved= 2 IEnMin= 2 EnMin= -951.665136636927     IErMin= 2 ErrMin= 7.97D-05
 ErrMax= 7.97D-05  0.00D+00 EMaxC= 1.00D-01 BMatC= 8.90D-06 BMatP= 4.43D-05
 IDIUse=1 WtCom= 1.00D+00 WtEn= 0.00D+00
 Coeff-Com:  0.949D-01 0.905D+00
 Coeff:      0.949D-01 0.905D+00
 Gap=     0.365 Goal=   None    Shift=    0.000
 RMSDP=4.34D-05 MaxDP=5.05D-03 DE=-8.58D-05 OVMax= 1.40D-03

 Cycle   3  Pass 1  IDiag  1:
 RMSU=  3.19D-05    CP:  9.96D-01  1.14D+00
 E= -951.665152027500     Delta-E=       -0.000015390572 Rises=F Damp=F
 DIIS: error= 4.01D-05 at cycle   3 NSaved=   3.
 NSaved= 3 IEnMin= 3 EnMin= -951.665152027500     IErMin= 3 ErrMin= 4.01D-05
 ErrMax= 4.01D-05  0.00D+00 EMaxC= 1.00D-01 BMatC= 2.65D-06 BMatP= 8.90D-06
 IDIUse=1 WtCom= 1.00D+00 WtEn= 0.00D+00
 Coeff-Com: -0.165D+00 0.264D+00 0.901D+00
 Coeff:     -0.165D+00 0.264D+00 0.901D+00
 Gap=     0.365 Goal=   None    Shift=    0.000
 RMSDP=2.57D-05 MaxDP=2.60D-03 DE=-1.54D-05 OVMax= 1.21D-03

 Cycle   4  Pass 1  IDiag  1:
 RMSU=  1.59D-05    CP:  9.96D-01  1.22D+00  1.35D+00
 E= -951.665158340812     Delta-E=       -0.000006313312 Rises=F Damp=F
 DIIS: error= 1.71D-05 at cycle   4 NSaved=   4.
 NSaved= 4 IEnMin= 4 EnMin= -951.665158340812     IErMin= 4 ErrMin= 1.71D-05
 ErrMax= 1.71D-05  0.00D+00 EMaxC= 1.00D-01 BMatC= 3.07D-07 BMatP= 2.65D-06
 IDIUse=1 WtCom= 1.00D+00 WtEn= 0.00D+00
 Coeff-Com:  0.488D-01-0.191D+00-0.270D+00 0.141D+01
 Coeff:      0.488D-01-0.191D+00-0.270D+00 0.141D+01
 Gap=     0.366 Goal=   None    Shift=    0.000
 RMSDP=1.85D-05 MaxDP=1.90D-03 DE=-6.31D-06 OVMax= 8.66D-04

 Cycle   5  Pass 1  IDiag  1:
 RMSU=  7.04D-06    CP:  9.96D-01  1.23D+00  1.73D+00  1.65D+00
 E= -951.665160146111     Delta-E=       -0.000001805299 Rises=F Damp=F
 DIIS: error= 8.99D-06 at cycle   5 NSaved=   5.
 NSaved= 5 IEnMin= 5 EnMin= -951.665160146111     IErMin= 5 ErrMin= 8.99D-06
 ErrMax= 8.99D-06  0.00D+00 EMaxC= 1.00D-01 BMatC= 7.96D-08 BMatP= 3.07D-07
 IDIUse=1 WtCom= 1.00D+00 WtEn= 0.00D+00
 Coeff-Com:  0.394D-01-0.798D-01-0.201D+00 0.172D+00 0.107D+01
 Coeff:      0.394D-01-0.798D-01-0.201D+00 0.172D+00 0.107D+01
 Gap=     0.366 Goal=   None    Shift=    0.000
 RMSDP=8.89D-06 MaxDP=9.15D-04 DE=-1.81D-06 OVMax= 4.62D-04

 Cycle   6  Pass 1  IDiag  1:
 RMSU=  2.27D-06    CP:  9.96D-01  1.24D+00  1.88D+00  1.99D+00  1.52D+00
 E= -951.665160593414     Delta-E=       -0.000000447303 Rises=F Damp=F
 DIIS: error= 4.15D-06 at cycle   6 NSaved=   6.
 NSaved= 6 IEnMin= 6 EnMin= -951.665160593414     IErMin= 6 ErrMin= 4.15D-06
 ErrMax= 4.15D-06  0.00D+00 EMaxC= 1.00D-01 BMatC= 1.91D-08 BMatP= 7.96D-08
 IDIUse=1 WtCom= 1.00D+00 WtEn= 0.00D+00
 Coeff-Com: -0.222D-01 0.788D-01 0.133D+00-0.576D+00-0.762D-01 0.146D+01
 Coeff:     -0.222D-01 0.788D-01 0.133D+00-0.576D+00-0.762D-01 0.146D+01
 Gap=     0.366 Goal=   None    Shift=    0.000
 RMSDP=6.95D-06 MaxDP=6.26D-04 DE=-4.47D-07 OVMax= 3.37D-04

 Cycle   7  Pass 1  IDiag  1:
 RMSU=  1.45D-06    CP:  9.96D-01  1.24D+00  1.99D+00  2.24D+00  2.08D+00
                    CP:  1.60D+00
 E= -951.665160727553     Delta-E=       -0.000000134140 Rises=F Damp=F
 DIIS: error= 1.18D-06 at cycle   7 NSaved=   7.
 NSaved= 7 IEnMin= 7 EnMin= -951.665160727553     IErMin= 7 ErrMin= 1.18D-06
 ErrMax= 1.18D-06  0.00D+00 EMaxC= 1.00D-01 BMatC= 9.99D-10 BMatP= 1.91D-08
 IDIUse=1 WtCom= 1.00D+00 WtEn= 0.00D+00
 Coeff-Com: -0.273D-02 0.485D-02 0.174D-01-0.252D-01-0.545D-01 0.101D-01
 Coeff-Com:  0.105D+01
 Coeff:     -0.273D-02 0.485D-02 0.174D-01-0.252D-01-0.545D-01 0.101D-01
 Coeff:      0.105D+01
 Gap=     0.366 Goal=   None    Shift=    0.000
 RMSDP=9.52D-07 MaxDP=7.42D-05 DE=-1.34D-07 OVMax= 3.97D-05

 Cycle   8  Pass 1  IDiag  1:
 RMSU=  3.67D-07    CP:  9.96D-01  1.24D+00  2.00D+00  2.28D+00  2.12D+00
                    CP:  1.75D+00  1.19D+00
 E= -951.665160731175     Delta-E=       -0.000000003622 Rises=F Damp=F
 DIIS: error= 4.02D-07 at cycle   8 NSaved=   8.
 NSaved= 8 IEnMin= 8 EnMin= -951.665160731175     IErMin= 8 ErrMin= 4.02D-07
 ErrMax= 4.02D-07  0.00D+00 EMaxC= 1.00D-01 BMatC= 2.64D-10 BMatP= 9.99D-10
 IDIUse=1 WtCom= 1.00D+00 WtEn= 0.00D+00
 Coeff-Com:  0.372D-02-0.153D-01-0.205D-01 0.109D+00 0.224D-02-0.303D+00
 Coeff-Com:  0.324D+00 0.899D+00
 Coeff:      0.372D-02-0.153D-01-0.205D-01 0.109D+00 0.224D-02-0.303D+00
 Coeff:      0.324D+00 0.899D+00
 Gap=     0.366 Goal=   None    Shift=    0.000
 RMSDP=3.41D-07 MaxDP=2.74D-05 DE=-3.62D-09 OVMax= 1.65D-05

 Cycle   9  Pass 1  IDiag  1:
 RMSU=  1.64D-07    CP:  9.96D-01  1.24D+00  2.01D+00  2.29D+00  2.13D+00
                    CP:  1.77D+00  1.31D+00  1.09D+00
 E= -951.665160731934     Delta-E=       -0.000000000759 Rises=F Damp=F
 DIIS: error= 1.99D-07 at cycle   9 NSaved=   9.
 NSaved= 9 IEnMin= 9 EnMin= -951.665160731934     IErMin= 9 ErrMin= 1.99D-07
 ErrMax= 1.99D-07  0.00D+00 EMaxC= 1.00D-01 BMatC= 3.16D-11 BMatP= 2.64D-10
 IDIUse=1 WtCom= 1.00D+00 WtEn= 0.00D+00
 Coeff-Com: -0.904D-03 0.400D-02 0.560D-02-0.339D-01 0.564D-02 0.929D-01
 Coeff-Com: -0.238D+00-0.230D+00 0.139D+01
 Coeff:     -0.904D-03 0.400D-02 0.560D-02-0.339D-01 0.564D-02 0.929D-01
 Coeff:     -0.238D+00-0.230D+00 0.139D+01
 Gap=     0.366 Goal=   None    Shift=    0.000
 RMSDP=1.63D-07 MaxDP=1.17D-05 DE=-7.59D-10 OVMax= 8.17D-06

 Cycle  10  Pass 1  IDiag  1:
 RMSU=  6.32D-08    CP:  9.96D-01  1.24D+00  2.01D+00  2.29D+00  2.14D+00
                    CP:  1.78D+00  1.32D+00  1.20D+00  1.55D+00
 E= -951.665160732179     Delta-E=       -0.000000000245 Rises=F Damp=F
 DIIS: error= 1.14D-07 at cycle  10 NSaved=  10.
 NSaved=10 IEnMin=10 EnMin= -951.665160732179     IErMin=10 ErrMin= 1.14D-07
 ErrMax= 1.14D-07  0.00D+00 EMaxC= 1.00D-01 BMatC= 5.02D-12 BMatP= 3.16D-11
 IDIUse=1 WtCom= 1.00D+00 WtEn= 0.00D+00
 Coeff-Com: -0.674D-03 0.273D-02 0.412D-02-0.199D-01 0.337D-03 0.564D-01
 Coeff-Com: -0.619D-01-0.147D+00 0.101D-01 0.116D+01
 Coeff:     -0.674D-03 0.273D-02 0.412D-02-0.199D-01 0.337D-03 0.564D-01
 Coeff:     -0.619D-01-0.147D+00 0.101D-01 0.116D+01
 Gap=     0.366 Goal=   None    Shift=    0.000
 RMSDP=4.19D-08 MaxDP=2.80D-06 DE=-2.45D-10 OVMax= 4.19D-06

 Cycle  11  Pass 1  IDiag  1:
 RMSU=  2.52D-08    CP:  9.96D-01  1.24D+00  2.01D+00  2.29D+00  2.14D+00
                    CP:  1.78D+00  1.31D+00  1.24D+00  1.63D+00  1.33D+00
 E= -951.665160732214     Delta-E=       -0.000000000035 Rises=F Damp=F
 DIIS: error= 3.83D-08 at cycle  11 NSaved=  11.
 NSaved=11 IEnMin=11 EnMin= -951.665160732214     IErMin=11 ErrMin= 3.83D-08
 ErrMax= 3.83D-08  0.00D+00 EMaxC= 1.00D-01 BMatC= 1.00D-12 BMatP= 5.02D-12
 IDIUse=1 WtCom= 1.00D+00 WtEn= 0.00D+00
 Coeff-Com:  0.214D-03-0.970D-03-0.129D-02 0.781D-02-0.154D-02-0.222D-01
 Coeff-Com:  0.551D-01 0.542D-01-0.316D+00-0.984D-03 0.123D+01
 Coeff:      0.214D-03-0.970D-03-0.129D-02 0.781D-02-0.154D-02-0.222D-01
 Coeff:      0.551D-01 0.542D-01-0.316D+00-0.984D-03 0.123D+01
 Gap=     0.366 Goal=   None    Shift=    0.000
 RMSDP=2.54D-08 MaxDP=1.91D-06 DE=-3.48D-11 OVMax= 1.90D-06

 Cycle  12  Pass 1  IDiag  1:
 RMSU=  9.86D-09    CP:  9.96D-01  1.24D+00  2.01D+00  2.29D+00  2.14D+00
                    CP:  1.78D+00  1.32D+00  1.24D+00  1.69D+00  1.57D+00
                    CP:  1.38D+00
 E= -951.665160732195     Delta-E=        0.000000000018 Rises=F Damp=F
 DIIS: error= 1.25D-08 at cycle  12 NSaved=  12.
 NSaved=12 IEnMin=11 EnMin= -951.665160732214     IErMin=12 ErrMin= 1.25D-08
 ErrMax= 1.25D-08  0.00D+00 EMaxC= 1.00D-01 BMatC= 1.11D-13 BMatP= 1.00D-12
 IDIUse=1 WtCom= 1.00D+00 WtEn= 0.00D+00
 Coeff-Com:  0.119D-03-0.492D-03-0.745D-03 0.374D-02-0.314D-03-0.106D-01
 Coeff-Com:  0.166D-01 0.257D-01-0.443D-01-0.142D+00 0.131D+00 0.102D+01
 Coeff:      0.119D-03-0.492D-03-0.745D-03 0.374D-02-0.314D-03-0.106D-01
 Coeff:      0.166D-01 0.257D-01-0.443D-01-0.142D+00 0.131D+00 0.102D+01
 Gap=     0.366 Goal=   None    Shift=    0.000
 RMSDP=7.58D-09 MaxDP=6.55D-07 DE= 1.82D-11 OVMax= 5.68D-07

 Error on total polarization charges =  0.01907
 SCF Done:  E(RHF) =  -951.665160732     A.U. after   12 cycles
            NFock= 12  Conv=0.76D-08     -V/T= 2.0005
 KE= 9.511901047498D+02 PE=-5.636170554773D+03 EE= 2.025775207449D+03
 Leave Link  502 at Mon Oct 25 18:49:30 2021, MaxMem=  7864320000 cpu:           10830.3 elap:             343.6
 (Enter /apps/gaussian/g16-c01-avx/g16/l508.exe)
 QCSCF skips out because SCF is already converged.
 Leave Link  508 at Mon Oct 25 18:49:30 2021, MaxMem=  7864320000 cpu:               0.1 elap:               0.0
 (Enter /apps/gaussian/g16-c01-avx/g16/l801.exe)
 ExpMin= 2.97D-02 ExpMax= 1.17D+04 ExpMxC= 4.01D+02 IAcc=3 IRadAn=         7 AccDes= 0.00D+00
 HarFok:  IExCor=  205 AccDes= 0.00D+00 IRadAn=         7 IDoV=-2 UseB2=F ITyADJ=14
 ICtDFT= 12500011 ScaDFX=  1.000000  1.000000  1.000000  1.000000
 GSVD:  LWork=        -660 too small for GESVD, short by        2750 words or        2750 for optimal perf.
 Largest valence mixing into a core orbital is  1.10D-04
 Largest core mixing into a valence orbital is  4.24D-05
 Range of M.O.s used for correlation:    23   738
 NBasis=   740 NAE=    82 NBE=    82 NFC=    22 NFV=     0
 NROrb=    716 NOA=    60 NOB=    60 NVA=   656 NVB=   656

 **** Warning!!: The largest alpha MO coefficient is  0.11768087D+03

 Leave Link  801 at Mon Oct 25 18:49:31 2021, MaxMem=  7864320000 cpu:              10.6 elap:               0.4
 (Enter /apps/gaussian/g16-c01-avx/g16/l906.exe)
 FulOut=F Deriv=F AODrv=F NAtomX=    48
   MMem=           7  MDisk=          60 MDiskD=          60
  W3Min=    30858240 MinDsk=    31095128 NBas6D=         784
 NBas2D=      308734    NTT=      307720    LW2=     2000000
    MDV=  7860929502 MDiskM=      139224 NBas2p=      245621
 Disk-based method using OVN memory for 60 occupieds at a time.
 Estimated scratch disk usage= 34070965624 words.
 IMap=   1   2   3   4   5   6   7   8   9  10  11  12  13  14  15  16  17  18  19  20
 IMap=  21  22  23  24  25  26  27  28  29  30  31  32  33  34  35  36  37  38  39  40
 IMap=  41  42  43  44  45  46  47  48  49  50  51  52  53  54  55  56  57  58  59  60
 Actual    scratch disk usage= 29004285048 words.
 JobTyp=1 Pass  1:  I=   1 to  60 NPSUse= 32 ParTrn=T ParDer=T DoDerP=F.
 Spin components of T(2) and E(2):
     alpha-alpha T2 =       0.1546871733D+00 E2=     -0.4255135537D+00
     alpha-beta  T2 =       0.8359032092D+00 E2=     -0.2444428881D+01
     beta-beta   T2 =       0.1546871733D+00 E2=     -0.4255135537D+00
 The integrals were generated   1 times.
 ANorm=    0.1464676605D+01
 E2 =    -0.3295455988D+01 EUMP2 =    -0.95496061672040D+03
 Leave Link  906 at Mon Oct 25 19:21:29 2021, MaxMem=  7864320000 cpu:           59010.5 elap:            1917.3
 (Enter /apps/gaussian/g16-c01-avx/g16/l601.exe)
 Copying SCF densities to generalized density rwf, IOpCl= 0 IROHF=0.

 **********************************************************************

            Population analysis using the SCF Density.

 **********************************************************************

 Orbital symmetries:
       Occupied  (A) (A) (A) (A) (A) (A) (A) (A) (A) (A) (A) (A)
                 (A) (A) (A) (A) (A) (A) (A) (A) (A) (A) (A) (A)
                 (A) (A) (A) (A) (A) (A) (A) (A) (A) (A) (A) (A)
                 (A) (A) (A) (A) (A) (A) (A) (A) (A) (A) (A) (A)
                 (A) (A) (A) (A) (A) (A) (A) (A) (A) (A) (A) (A)
                 (A) (A) (A) (A) (A) (A) (A) (A) (A) (A) (A) (A)
                 (A) (A) (A) (A) (A) (A) (A) (A) (A) (A)
       Virtual   (A) (A) (A) (A) (A) (A) (A) (A) (A) (A) (A) (A)
                 (A) (A) (A) (A) (A) (A) (A) (A) (A) (A) (A) (A)
                 (A) (A) (A) (A) (A) (A) (A) (A) (A) (A) (A) (A)
                 (A) (A) (A) (A) (A) (A) (A) (A) (A) (A) (A) (A)
                 (A) (A) (A) (A) (A) (A) (A) (A) (A) (A) (A) (A)
                 (A) (A) (A) (A) (A) (A) (A) (A) (A) (A) (A) (A)
                 (A) (A) (A) (A) (A) (A) (A) (A) (A) (A) (A) (A)
                 (A) (A) (A) (A) (A) (A) (A) (A) (A) (A) (A) (A)
                 (A) (A) (A) (A) (A) (A) (A) (A) (A) (A) (A) (A)
                 (A) (A) (A) (A) (A) (A) (A) (A) (A) (A) (A) (A)
                 (A) (A) (A) (A) (A) (A) (A) (A) (A) (A) (A) (A)
                 (A) (A) (A) (A) (A) (A) (A) (A) (A) (A) (A) (A)
                 (A) (A) (A) (A) (A) (A) (A) (A) (A) (A) (A) (A)
                 (A) (A) (A) (A) (A) (A) (A) (A) (A) (A) (A) (A)
                 (A) (A) (A) (A) (A) (A) (A) (A) (A) (A) (A) (A)
                 (A) (A) (A) (A) (A) (A) (A) (A) (A) (A) (A) (A)
                 (A) (A) (A) (A) (A) (A) (A) (A) (A) (A) (A) (A)
                 (A) (A) (A) (A) (A) (A) (A) (A) (A) (A) (A) (A)
                 (A) (A) (A) (A) (A) (A) (A) (A) (A) (A) (A) (A)
                 (A) (A) (A) (A) (A) (A) (A) (A) (A) (A) (A) (A)
                 (A) (A) (A) (A) (A) (A) (A) (A) (A) (A) (A) (A)
                 (A) (A) (A) (A) (A) (A) (A) (A) (A) (A) (A) (A)
                 (A) (A) (A) (A) (A) (A) (A) (A) (A) (A) (A) (A)
                 (A) (A) (A) (A) (A) (A) (A) (A) (A) (A) (A) (A)
                 (A) (A) (A) (A) (A) (A) (A) (A) (A) (A) (A) (A)
                 (A) (A) (A) (A) (A) (A) (A) (A) (A) (A) (A) (A)
                 (A) (A) (A) (A) (A) (A) (A) (A) (A) (A) (A) (A)
                 (A) (A) (A) (A) (A) (A) (A) (A) (A) (A) (A) (A)
                 (A) (A) (A) (A) (A) (A) (A) (A) (A) (A) (A) (A)
                 (A) (A) (A) (A) (A) (A) (A) (A) (A) (A) (A) (A)
                 (A) (A) (A) (A) (A) (A) (A) (A) (A) (A) (A) (A)
                 (A) (A) (A) (A) (A) (A) (A) (A) (A) (A) (A) (A)
                 (A) (A) (A) (A) (A) (A) (A) (A) (A) (A) (A) (A)
                 (A) (A) (A) (A) (A) (A) (A) (A) (A) (A) (A) (A)
                 (A) (A) (A) (A) (A) (A) (A) (A) (A) (A) (A) (A)
                 (A) (A) (A) (A) (A) (A) (A) (A) (A) (A) (A) (A)
                 (A) (A) (A) (A) (A) (A) (A) (A) (A) (A) (A) (A)
                 (A) (A) (A) (A) (A) (A) (A) (A) (A) (A) (A) (A)
                 (A) (A) (A) (A) (A) (A) (A) (A) (A) (A) (A) (A)
                 (A) (A) (A) (A) (A) (A) (A) (A) (A) (A) (A) (A)
                 (A) (A) (A) (A) (A) (A) (A) (A) (A) (A) (A) (A)
                 (A) (A) (A) (A) (A) (A) (A) (A) (A) (A) (A) (A)
                 (A) (A) (A) (A) (A) (A) (A) (A) (A) (A) (A) (A)
                 (A) (A) (A) (A) (A) (A) (A) (A) (A) (A) (A) (A)
                 (A) (A) (A) (A) (A) (A) (A) (A) (A) (A) (A) (A)
                 (A) (A) (A) (A) (A) (A) (A) (A) (A) (A) (A) (A)
                 (A) (A) (A) (A) (A) (A) (A) (A) (A) (A) (A) (A)
                 (A) (A) (A) (A) (A) (A) (A) (A) (A) (A) (A) (A)
                 (A) (A) (A) (A) (A) (A) (A) (A) (A) (A) (A) (A)
                 (A) (A) (A) (A) (A) (A) (A) (A) (A) (A) (A) (A)
                 (A) (A) (A) (A) (A) (A) (A) (A) (A) (A) (A) (A)
                 (A) (A) (A) (A) (A) (A) (A) (A) (A) (A) (A) (A)
                 (A) (A) (A) (A) (A) (A) (A) (A) (A) (A) (A) (A)
                 (A) (A) (A) (A) (A) (A) (A) (A) (A) (A) (A) (A)
                 (A) (A) (A) (A) (A) (A) (A) (A)
 The electronic state is 1-A.
 Alpha  occ. eigenvalues --  -20.57556 -15.56834 -15.56809 -15.54144 -15.54133
 Alpha  occ. eigenvalues --  -11.35040 -11.29375 -11.29332 -11.27024 -11.26843
 Alpha  occ. eigenvalues --  -11.26756 -11.26379 -11.26374 -11.26135 -11.26092
 Alpha  occ. eigenvalues --  -11.26024 -11.25336 -11.25315 -11.21489 -11.21488
 Alpha  occ. eigenvalues --  -11.21211 -11.21198  -1.41269  -1.26029  -1.25737
 Alpha  occ. eigenvalues --   -1.19861  -1.19274  -1.17983  -1.07357  -1.07246
 Alpha  occ. eigenvalues --   -1.02839  -1.02556  -0.95683  -0.95330  -0.93725
 Alpha  occ. eigenvalues --   -0.93716  -0.90746  -0.87558  -0.84553  -0.77429
 Alpha  occ. eigenvalues --   -0.76618  -0.75357  -0.74759  -0.72407  -0.69931
 Alpha  occ. eigenvalues --   -0.67252  -0.66732  -0.66194  -0.65811  -0.65622
 Alpha  occ. eigenvalues --   -0.64314  -0.64081  -0.62866  -0.62202  -0.60647
 Alpha  occ. eigenvalues --   -0.59934  -0.59866  -0.57443  -0.57038  -0.56743
 Alpha  occ. eigenvalues --   -0.53945  -0.53556  -0.53356  -0.52958  -0.52938
 Alpha  occ. eigenvalues --   -0.52161  -0.51916  -0.50902  -0.50701  -0.49764
 Alpha  occ. eigenvalues --   -0.49261  -0.47154  -0.46703  -0.45593  -0.43835
 Alpha  occ. eigenvalues --   -0.43095  -0.41347  -0.41107  -0.38727  -0.38416
 Alpha  occ. eigenvalues --   -0.34717  -0.33117
 Alpha virt. eigenvalues --    0.03437   0.03810   0.04034   0.04332   0.04660
 Alpha virt. eigenvalues --    0.04716   0.04962   0.05122   0.05650   0.05773
 Alpha virt. eigenvalues --    0.05972   0.06277   0.06544   0.06587   0.06881
 Alpha virt. eigenvalues --    0.07418   0.07455   0.07651   0.07950   0.08189
 Alpha virt. eigenvalues --    0.09058   0.09284   0.09594   0.10301   0.10316
 Alpha virt. eigenvalues --    0.10752   0.10915   0.11307   0.11733   0.12114
 Alpha virt. eigenvalues --    0.12284   0.12965   0.13231   0.13407   0.14055
 Alpha virt. eigenvalues --    0.14384   0.14686   0.14876   0.15025   0.15173
 Alpha virt. eigenvalues --    0.15499   0.15995   0.16159   0.16428   0.16470
 Alpha virt. eigenvalues --    0.16832   0.17208   0.17339   0.17548   0.17996
 Alpha virt. eigenvalues --    0.18169   0.18308   0.18461   0.18496   0.18837
 Alpha virt. eigenvalues --    0.18890   0.19088   0.19254   0.19406   0.19828
 Alpha virt. eigenvalues --    0.20385   0.20491   0.20737   0.20959   0.21237
 Alpha virt. eigenvalues --    0.21466   0.21890   0.22083   0.22300   0.22672
 Alpha virt. eigenvalues --    0.22919   0.23097   0.23502   0.23858   0.24048
 Alpha virt. eigenvalues --    0.24332   0.24617   0.24848   0.25280   0.25517
 Alpha virt. eigenvalues --    0.25868   0.26388   0.26480   0.26539   0.26847
 Alpha virt. eigenvalues --    0.27203   0.27605   0.28100   0.28368   0.28614
 Alpha virt. eigenvalues --    0.29170   0.29386   0.29542   0.30386   0.30892
 Alpha virt. eigenvalues --    0.31149   0.31443   0.31722   0.31924   0.32109
 Alpha virt. eigenvalues --    0.32407   0.32735   0.33144   0.33469   0.33753
 Alpha virt. eigenvalues --    0.34281   0.34710   0.34980   0.35188   0.35273
 Alpha virt. eigenvalues --    0.35968   0.36385   0.36405   0.36535   0.36762
 Alpha virt. eigenvalues --    0.36869   0.37288   0.37523   0.38396   0.38493
 Alpha virt. eigenvalues --    0.38689   0.39004   0.39474   0.39662   0.39815
 Alpha virt. eigenvalues --    0.40136   0.40571   0.40852   0.40943   0.41173
 Alpha virt. eigenvalues --    0.41321   0.41842   0.42159   0.42314   0.42621
 Alpha virt. eigenvalues --    0.43153   0.43413   0.43584   0.43766   0.44066
 Alpha virt. eigenvalues --    0.44255   0.44541   0.44703   0.44916   0.45366
 Alpha virt. eigenvalues --    0.46069   0.46165   0.46325   0.46831   0.47018
 Alpha virt. eigenvalues --    0.47384   0.47913   0.48471   0.48562   0.48678
 Alpha virt. eigenvalues --    0.48960   0.49163   0.49760   0.50035   0.50290
 Alpha virt. eigenvalues --    0.50461   0.50659   0.50890   0.51307   0.51653
 Alpha virt. eigenvalues --    0.51660   0.52100   0.52352   0.52983   0.53438
 Alpha virt. eigenvalues --    0.53656   0.53755   0.53893   0.54454   0.54919
 Alpha virt. eigenvalues --    0.55077   0.55360   0.55869   0.55901   0.56281
 Alpha virt. eigenvalues --    0.56657   0.57058   0.57790   0.57948   0.58345
 Alpha virt. eigenvalues --    0.58566   0.59123   0.59449   0.59862   0.59919
 Alpha virt. eigenvalues --    0.60060   0.60400   0.60680   0.60790   0.61476
 Alpha virt. eigenvalues --    0.61607   0.62172   0.62594   0.62920   0.62995
 Alpha virt. eigenvalues --    0.63601   0.63812   0.64065   0.64729   0.64819
 Alpha virt. eigenvalues --    0.65155   0.65237   0.65478   0.66129   0.66426
 Alpha virt. eigenvalues --    0.66558   0.66715   0.67072   0.67125   0.67727
 Alpha virt. eigenvalues --    0.67958   0.68375   0.68664   0.69089   0.69464
 Alpha virt. eigenvalues --    0.69556   0.69976   0.70003   0.70300   0.70547
 Alpha virt. eigenvalues --    0.70956   0.71217   0.71903   0.72228   0.72558
 Alpha virt. eigenvalues --    0.72801   0.73321   0.73480   0.73752   0.74031
 Alpha virt. eigenvalues --    0.74376   0.74509   0.74882   0.75404   0.75478
 Alpha virt. eigenvalues --    0.75561   0.75801   0.75977   0.76581   0.77020
 Alpha virt. eigenvalues --    0.77344   0.77818   0.78152   0.78201   0.78612
 Alpha virt. eigenvalues --    0.79020   0.79183   0.79547   0.79641   0.80674
 Alpha virt. eigenvalues --    0.81009   0.81438   0.81703   0.81885   0.82199
 Alpha virt. eigenvalues --    0.82771   0.82984   0.83624   0.83823   0.84709
 Alpha virt. eigenvalues --    0.85088   0.85483   0.85691   0.85800   0.86666
 Alpha virt. eigenvalues --    0.87292   0.87386   0.87567   0.87691   0.87964
 Alpha virt. eigenvalues --    0.88756   0.88918   0.89275   0.89427   0.89783
 Alpha virt. eigenvalues --    0.90149   0.90374   0.90980   0.91374   0.91824
 Alpha virt. eigenvalues --    0.92577   0.92878   0.93124   0.93692   0.93777
 Alpha virt. eigenvalues --    0.94021   0.94371   0.94724   0.95096   0.95265
 Alpha virt. eigenvalues --    0.95641   0.96232   0.96333   0.96693   0.97039
 Alpha virt. eigenvalues --    0.97766   0.97936   0.98485   0.98893   0.99091
 Alpha virt. eigenvalues --    0.99520   0.99784   1.00225   1.01133   1.01715
 Alpha virt. eigenvalues --    1.02130   1.02394   1.03001   1.03185   1.03602
 Alpha virt. eigenvalues --    1.03979   1.04511   1.04764   1.05038   1.05602
 Alpha virt. eigenvalues --    1.05960   1.06605   1.07605   1.08029   1.08386
 Alpha virt. eigenvalues --    1.08668   1.09028   1.09428   1.09757   1.10159
 Alpha virt. eigenvalues --    1.10905   1.11942   1.12805   1.13514   1.14171
 Alpha virt. eigenvalues --    1.14558   1.15310   1.15732   1.16380   1.16818
 Alpha virt. eigenvalues --    1.17101   1.17383   1.18282   1.19028   1.19164
 Alpha virt. eigenvalues --    1.19832   1.20567   1.21199   1.21657   1.22423
 Alpha virt. eigenvalues --    1.23511   1.24005   1.24519   1.25404   1.26012
 Alpha virt. eigenvalues --    1.26714   1.26861   1.27286   1.28971   1.29748
 Alpha virt. eigenvalues --    1.30358   1.31413   1.31708   1.33527   1.34237
 Alpha virt. eigenvalues --    1.35180   1.35467   1.35841   1.36353   1.36943
 Alpha virt. eigenvalues --    1.37994   1.38180   1.39529   1.39895   1.40697
 Alpha virt. eigenvalues --    1.41392   1.41791   1.42781   1.43952   1.44460
 Alpha virt. eigenvalues --    1.44984   1.45913   1.46708   1.47046   1.48240
 Alpha virt. eigenvalues --    1.49466   1.51237   1.51386   1.52038   1.53325
 Alpha virt. eigenvalues --    1.53914   1.54781   1.55281   1.55650   1.57365
 Alpha virt. eigenvalues --    1.58561   1.59874   1.60277   1.61298   1.62019
 Alpha virt. eigenvalues --    1.63794   1.64243   1.65388   1.66015   1.66385
 Alpha virt. eigenvalues --    1.66708   1.67314   1.67988   1.68448   1.69195
 Alpha virt. eigenvalues --    1.69952   1.70836   1.71030   1.71386   1.72285
 Alpha virt. eigenvalues --    1.72744   1.73154   1.74430   1.74556   1.75470
 Alpha virt. eigenvalues --    1.76007   1.76435   1.76752   1.76824   1.78276
 Alpha virt. eigenvalues --    1.78811   1.79339   1.79616   1.80473   1.81054
 Alpha virt. eigenvalues --    1.81990   1.82497   1.83599   1.84698   1.85164
 Alpha virt. eigenvalues --    1.85708   1.86038   1.86514   1.86967   1.87731
 Alpha virt. eigenvalues --    1.88139   1.88664   1.88967   1.89703   1.90052
 Alpha virt. eigenvalues --    1.90509   1.90769   1.91137   1.92179   1.92881
 Alpha virt. eigenvalues --    1.93673   1.93938   1.94953   1.95277   1.95678
 Alpha virt. eigenvalues --    1.96201   1.96576   1.97348   1.97386   1.97882
 Alpha virt. eigenvalues --    1.98771   1.99609   2.00105   2.00265   2.00946
 Alpha virt. eigenvalues --    2.01786   2.02417   2.03135   2.03544   2.03859
 Alpha virt. eigenvalues --    2.04953   2.06823   2.07625   2.08905   2.09317
 Alpha virt. eigenvalues --    2.10802   2.11303   2.11640   2.12454   2.13091
 Alpha virt. eigenvalues --    2.14022   2.14080   2.15006   2.15398   2.16218
 Alpha virt. eigenvalues --    2.16545   2.17339   2.17783   2.18150   2.19484
 Alpha virt. eigenvalues --    2.19830   2.20889   2.20997   2.21364   2.21675
 Alpha virt. eigenvalues --    2.22657   2.23981   2.24273   2.24522   2.24792
 Alpha virt. eigenvalues --    2.25033   2.26714   2.27218   2.27767   2.28377
 Alpha virt. eigenvalues --    2.28883   2.29420   2.29773   2.29986   2.30864
 Alpha virt. eigenvalues --    2.31267   2.31615   2.32399   2.33280   2.33819
 Alpha virt. eigenvalues --    2.34944   2.35243   2.35718   2.36513   2.36911
 Alpha virt. eigenvalues --    2.38078   2.38328   2.38901   2.40200   2.40309
 Alpha virt. eigenvalues --    2.40345   2.41322   2.42051   2.42777   2.43130
 Alpha virt. eigenvalues --    2.44276   2.44504   2.45092   2.45721   2.46356
 Alpha virt. eigenvalues --    2.47235   2.48435   2.48782   2.49445   2.50031
 Alpha virt. eigenvalues --    2.50309   2.51602   2.52511   2.53039   2.53155
 Alpha virt. eigenvalues --    2.54057   2.54369   2.55363   2.55875   2.56250
 Alpha virt. eigenvalues --    2.56677   2.57521   2.58196   2.59530   2.60306
 Alpha virt. eigenvalues --    2.61016   2.61250   2.62208   2.62656   2.63147
 Alpha virt. eigenvalues --    2.64447   2.64527   2.65337   2.66332   2.67489
 Alpha virt. eigenvalues --    2.67673   2.68470   2.69111   2.69981   2.70152
 Alpha virt. eigenvalues --    2.72729   2.73037   2.74354   2.74688   2.75362
 Alpha virt. eigenvalues --    2.75598   2.77172   2.78348   2.78841   2.80347
 Alpha virt. eigenvalues --    2.80813   2.82676   2.83101   2.84906   2.85033
 Alpha virt. eigenvalues --    2.85609   2.87863   2.88761   2.89563   2.89720
 Alpha virt. eigenvalues --    2.90475   2.91486   2.93428   2.93768   2.94701
 Alpha virt. eigenvalues --    2.94921   2.97852   2.98620   3.00192   3.01086
 Alpha virt. eigenvalues --    3.02349   3.02965   3.03133   3.04131   3.06407
 Alpha virt. eigenvalues --    3.06820   3.07605   3.08511   3.09779   3.10655
 Alpha virt. eigenvalues --    3.12025   3.12659   3.14035   3.14386   3.16226
 Alpha virt. eigenvalues --    3.20368   3.20953   3.22079   3.22867   3.23906
 Alpha virt. eigenvalues --    3.25694   3.28794   3.30791   3.31703   3.33050
 Alpha virt. eigenvalues --    3.33182   3.40309   3.41547   3.44909   3.46319
 Alpha virt. eigenvalues --    3.47755   3.50015   3.50787   3.55561   3.56506
 Alpha virt. eigenvalues --    3.59370   3.60041   3.63136   3.69513   3.74251
 Alpha virt. eigenvalues --    3.78082   3.78745   3.81311   3.81767   3.86792
 Alpha virt. eigenvalues --    3.87755   3.88166   3.90077   3.92676   3.93687
 Alpha virt. eigenvalues --    4.06292   4.14366   4.18149   4.21689   4.24798
 Alpha virt. eigenvalues --    4.79036
          Condensed to atoms (all electrons):
               1          2          3          4          5          6
     1  C   16.728111  -2.143707  -2.273493  -1.670041   0.622135  -1.159151
     2  C   -2.143707   8.313860  -1.363241  -0.303187   0.046813   0.446889
     3  C   -2.273493  -1.363241  21.364893  -4.205774  -1.651608  -3.215043
     4  C   -1.670041  -0.303187  -4.205774  18.827781   0.547629  -4.144400
     5  H    0.622135   0.046813  -1.651608   0.547629   2.637429  -0.136025
     6  C   -1.159151   0.446889  -3.215043  -4.144400  -0.136025  23.679567
     7  C    0.323405  -0.251617  -0.637423  -2.060716  -0.110745  -2.790366
     8  H   -0.097560  -0.033027   0.251617   0.520323   0.004751  -1.502223
     9  C   -4.599230   0.289802  -2.867261  -0.632187   0.262935  -2.143873
    10  C   -0.506826  -0.242091   0.056886   0.783283   0.011969  -1.399245
    11  H    0.437736  -0.057417   0.099449  -0.131762   0.009135   0.188751
    12  C   -0.105608  -0.171361   0.214643  -2.323368  -0.157709  -2.784257
    13  O   -0.097715   0.328629  -0.022042  -0.010265   0.007757   0.003153
    14  C    0.019883   0.007077   0.060746   0.030757  -0.128888   0.075088
    15  C    0.014491   0.003948  -0.166536   0.265401   0.043017  -0.067583
    16  N   -0.163429   0.010618   0.175891  -0.318781  -0.164752   0.669455
    17  N    0.000021   0.000582   0.058624  -0.104560  -0.001449   0.026561
    18  C    0.030269  -0.003178  -0.006107   0.051877  -0.000597  -0.089987
    19  C   -0.056420  -0.010104  -0.053789   0.109398   0.001079  -0.335876
    20  N   -0.004844   0.000328   0.004603  -0.012366   0.000135   0.046547
    21  N    0.011377   0.020027  -0.040185  -0.246726   0.006681   0.283580
    22  H    0.294130  -0.090045   0.099454   0.012293  -0.039738   0.007915
    23  H   -0.000426   0.000014   0.000835  -0.001832   0.000000   0.004106
    24  H   -0.003236   0.000197   0.002666   0.002406  -0.000229  -0.018466
    25  H   -0.000330   0.000048  -0.003244   0.002711   0.000437   0.002112
    26  H    0.002942  -0.001214  -0.009950  -0.010583  -0.017340   0.005120
    27  H   -0.011710   0.004223  -0.079684   0.068575   0.019853   0.166345
    28  H    0.053628  -0.021920   0.016435  -0.144119   0.001417   0.310117
    29  C   -0.008210  -0.005418   0.055327  -0.091528   0.010315   0.001991
    30  C    0.000839  -0.000307  -0.000958  -0.005207   0.000004  -0.012523
    31  H   -0.004323  -0.000813  -0.001346   0.019108  -0.000026  -0.013917
    32  H   -0.000751   0.003123  -0.002296  -0.008586  -0.000126  -0.023025
    33  H    0.000044  -0.000013  -0.000132   0.000463  -0.000006  -0.002752
    34  H    0.000035  -0.000094   0.000141  -0.000480   0.000006   0.002873
    35  H    0.000144  -0.000023  -0.000127  -0.000985   0.000009   0.001839
    36  H    0.007099   0.001643  -0.000159  -0.044376  -0.005766  -0.003943
    37  H    0.000092  -0.000073  -0.018725   0.093432  -0.005620   0.009477
    38  H    0.002444  -0.000299   0.004716  -0.008893  -0.001676   0.006706
    39  H   -0.000185  -0.000560  -0.000777  -0.006622   0.003608   0.001400
    40  H   -0.003740   0.001049  -0.000017   0.098566  -0.005510  -0.033666
    41  C    0.000599   0.000819  -0.020923   0.032528   0.001398  -0.006638
    42  H   -0.000033  -0.000003  -0.000499   0.001802   0.001935   0.000479
    43  H   -0.000165   0.000061  -0.001263   0.002562  -0.001511  -0.001369
    44  H    0.000050   0.000051   0.000333  -0.002973   0.000650   0.001773
    45  C    0.000126  -0.000052  -0.000748  -0.001288   0.000212   0.003059
    46  H   -0.001463   0.000598  -0.014010   0.013667   0.000385  -0.021909
    47  H   -0.000772   0.000614   0.001038   0.000463   0.000024   0.005831
    48  H    0.000649  -0.000127  -0.000178  -0.002055   0.000041   0.001981
               7          8          9         10         11         12
     1  C    0.323405  -0.097560  -4.599230  -0.506826   0.437736  -0.105608
     2  C   -0.251617  -0.033027   0.289802  -0.242091  -0.057417  -0.171361
     3  C   -0.637423   0.251617  -2.867261   0.056886   0.099449   0.214643
     4  C   -2.060716   0.520323  -0.632187   0.783283  -0.131762  -2.323368
     5  H   -0.110745   0.004751   0.262935   0.011969   0.009135  -0.157709
     6  C   -2.790366  -1.502223  -2.143873  -1.399245   0.188751  -2.784257
[...]
    10  C    0.000230   0.001062   0.058816  -0.621696  -0.002642  -0.127922
    11  H   -0.000008  -0.000002   0.000749  -0.057560  -0.000121  -0.000264
    12  C    0.006707   0.010146  -0.326743   0.038864  -0.126954  -0.000454
    13  O    0.000014  -0.000075  -0.000292   0.002693  -0.000032   0.000007
    14  C   -0.050501   0.012635   0.002154  -0.001767   0.149678  -0.000035
    15  C    0.176882   0.137234  -0.053697   0.000132  -0.876065   0.000014
    16  N   -0.017280  -0.031126   0.096964  -0.001935   0.075886   0.000067
    17  N    0.215275   0.247228  -0.000887  -0.000007   0.361960   0.000000
    18  C   -0.000002  -0.000016   0.011722  -0.043507  -0.000214  -0.291880
    19  C    0.000010   0.000030   0.013379   0.002745   0.000098   0.087296
    20  N    0.000000   0.000003  -0.004351  -0.001724   0.000026   0.050542
    21  N   -0.000003  -0.000063  -0.012291   0.162387   0.000120  -0.003954
    22  H    0.000069   0.000384   0.000629  -0.000399  -0.001781  -0.000023
    23  H   -0.000000  -0.000004  -0.000370  -0.001064  -0.000021  -0.031625
    24  H   -0.000001   0.000047   0.001917  -0.000921   0.000149   0.012207
    25  H    0.847436  -0.114289  -0.001103   0.000006  -0.028379   0.000000
    26  H   -0.114289   0.816257  -0.000805   0.000028  -0.064262   0.000002
    27  H   -0.001103  -0.000805   1.956218  -0.005124   0.033858  -0.000124
    28  H    0.000006   0.000028  -0.005124   1.940518   0.000013   0.011224
    29  C   -0.028379  -0.064262   0.033858   0.000013   4.668874   0.000001
    30  C    0.000000   0.000002  -0.000124   0.011224   0.000001   4.594139
    31  H    0.000001   0.000001   0.003207  -0.008427  -0.000012  -0.058125
    32  H    0.000000  -0.000002  -0.000275  -0.077494   0.000003  -0.061017
    33  H    0.000000   0.000000   0.000306  -0.001064  -0.000000   0.224681
    34  H   -0.000000   0.000000  -0.000103   0.004528  -0.000000   0.124822
    35  H   -0.000000   0.000000  -0.000228   0.001431   0.000002   0.233199
    36  H   -0.001480   0.010295  -0.011563  -0.000030   0.028413  -0.000002
    37  H    0.007611  -0.009488  -0.104485  -0.000026  -0.016426   0.000004
    38  H   -0.008107   0.022386  -0.016962   0.000012   0.184325  -0.000012
    39  H    0.009862  -0.032273   0.006717   0.000004   0.231006   0.000001
    40  H   -0.000113   0.002447  -0.008268  -0.000014   0.174579  -0.000019
    41  C   -0.034571   0.008837   0.009630  -0.000070  -0.149972   0.000000
    42  H    0.004163  -0.004048   0.000411  -0.000004  -0.022688  -0.000000
    43  H   -0.027355   0.010940  -0.001845  -0.000004   0.032669  -0.000000
    44  H    0.017158  -0.004800   0.009796  -0.000000  -0.040497   0.000001
    45  C   -0.000001  -0.000001  -0.003064   0.037471   0.000059  -0.128166
    46  H    0.000006  -0.000011   0.001932  -0.006693  -0.000110  -0.035234
    47  H   -0.000000   0.000001  -0.000153  -0.011984  -0.000001  -0.108999
    48  H   -0.000000  -0.000004  -0.000445   0.003870   0.000008   0.102766
              31         32         33         34         35         36
     1  C   -0.004323  -0.000751   0.000044   0.000035   0.000144   0.007099
     2  C   -0.000813   0.003123  -0.000013  -0.000094  -0.000023   0.001643
     3  C   -0.001346  -0.002296  -0.000132   0.000141  -0.000127  -0.000159
     4  C    0.019108  -0.008586   0.000463  -0.000480  -0.000985  -0.044376
     5  H   -0.000026  -0.000126  -0.000006   0.000006   0.000009  -0.005766
     6  C   -0.013917  -0.023025  -0.002752   0.002873   0.001839  -0.003943
     7  C   -0.090122   0.137396   0.002256  -0.000900  -0.001818   0.002217
     8  H   -0.014539  -0.002521  -0.003460   0.002069   0.003003   0.001031
     9  C    0.011009  -0.003980  -0.001016   0.000685   0.001187  -0.002028
    10  C    0.258372  -0.208592  -0.032906   0.065479   0.011955  -0.000388
    11  H   -0.000366   0.002667   0.000023  -0.000137  -0.000015  -0.000029
    12  C   -0.003056  -0.002676  -0.000414   0.000257   0.000388   0.213426
    13  O   -0.000001  -0.000158   0.000000   0.000006   0.000000  -0.000022
    14  C   -0.000577   0.000081  -0.000018   0.000003   0.000014   0.312082
    15  C    0.000033  -0.000015   0.000002   0.000001  -0.000002  -0.006951
    16  N   -0.000199   0.000099  -0.000001   0.000007   0.000003  -0.485156
    17  N    0.000001   0.000001   0.000000   0.000000   0.000000   0.001420
    18  C   -0.000082   0.159515   0.215785  -0.171917   0.163834   0.000033
    19  C    0.334120   0.044237   0.000901  -0.031718  -0.045218  -0.000084
    20  N   -0.000999  -0.016131  -0.063913   0.102278  -0.055395  -0.000007
    21  N   -0.509323   0.044535  -0.017170   0.009685   0.033125  -0.000094
    22  H   -0.000052   0.000147  -0.000001  -0.000005  -0.000001   0.000437
    23  H   -0.001301   0.007731  -0.027523   0.017079   0.004870   0.000003
    24  H    0.011472  -0.008966   0.011985  -0.005134  -0.005020   0.000047
    25  H    0.000001   0.000000   0.000000  -0.000000  -0.000000  -0.001480
    26  H    0.000001  -0.000002   0.000000   0.000000   0.000000   0.010295
    27  H    0.003207  -0.000275   0.000306  -0.000103  -0.000228  -0.011563
    28  H   -0.008427  -0.077494  -0.001064   0.004528   0.001431  -0.000030
    29  C   -0.000012   0.000003  -0.000000  -0.000000   0.000002   0.028413
    30  C   -0.058125  -0.061017   0.224681   0.124822   0.233199  -0.000002
    31  H    1.577739  -0.266842   0.013696  -0.036857  -0.006204  -0.000011
    32  H   -0.266842   1.443036   0.000300   0.011130  -0.015266   0.000004
    33  H    0.013696   0.000300   1.168801  -0.220551  -0.329416  -0.000000
    34  H   -0.036857   0.011130  -0.220551   1.425420  -0.230303  -0.000000
    35  H   -0.006204  -0.015266  -0.329416  -0.230303   1.302406  -0.000000
    36  H   -0.000011   0.000004  -0.000000  -0.000000  -0.000000   1.568159
    37  H   -0.000191  -0.000004  -0.000013   0.000004   0.000009  -0.253806
    38  H   -0.000029  -0.000004  -0.000005  -0.000000   0.000002   0.016389
    39  H    0.000002   0.000000   0.000000   0.000000   0.000000  -0.010318
    40  H   -0.000011  -0.000018  -0.000003   0.000002  -0.000002   0.015856
    41  C   -0.000003   0.000003  -0.000000   0.000000  -0.000000  -0.069783
    42  H   -0.000000   0.000000  -0.000000  -0.000000   0.000000  -0.003462
    43  H   -0.000001  -0.000000  -0.000000   0.000000  -0.000000   0.011256
    44  H    0.000006   0.000001   0.000000   0.000000  -0.000000  -0.035761
    45  C    0.020894  -0.015458   0.029876  -0.033029  -0.027540  -0.000006
    46  H    0.016464  -0.008681   0.017502   0.008092  -0.017280  -0.000026
    47  H    0.016479  -0.006864  -0.010948  -0.041565   0.005758   0.000001
    48  H   -0.011350   0.006094  -0.014179  -0.006923   0.019945   0.000000
              37         38         39         40         41         42
     1  C    0.000092   0.002444  -0.000185  -0.003740   0.000599  -0.000033
     2  C   -0.000073  -0.000299  -0.000560   0.001049   0.000819  -0.000003
     3  C   -0.018725   0.004716  -0.000777  -0.000017  -0.020923  -0.000499
     4  C    0.093432  -0.008893  -0.006622   0.098566   0.032528   0.001802
     5  H   -0.005620  -0.001676   0.003608  -0.005510   0.001398   0.001935
     6  C    0.009477   0.006706   0.001400  -0.033666  -0.006638   0.000479
     7  C   -0.002356  -0.002483   0.000049   0.017567  -0.002318  -0.000026
     8  H    0.017764   0.005427  -0.000551   0.000651  -0.000492   0.000159
     9  C   -0.000077   0.000120  -0.000483  -0.018678   0.001787  -0.000079
    10  C   -0.007634  -0.000356  -0.000082  -0.003364  -0.001139  -0.000063
    11  H    0.000036   0.000016   0.000001   0.000248   0.000076   0.000005
    12  C   -0.216552   0.069837  -0.035064  -0.033984  -0.156954   0.008249
    13  O   -0.000010   0.000003  -0.000009  -0.000068   0.000005  -0.000000
    14  C    0.060943  -0.055164   0.006139  -0.018972   0.104091  -0.043905
    15  C    0.196216  -0.194794   0.092579   0.331298  -0.314497   0.161117
    16  N    0.034179  -0.023898   0.032146  -0.074880   0.008365   0.032174
    17  N   -0.023234   0.124106  -0.057074  -0.093580   0.067302  -0.054268
    18  C   -0.000614  -0.000134  -0.000022   0.000904  -0.000013  -0.000003
    19  C   -0.000674  -0.000144   0.000035  -0.000870   0.000027   0.000003
    20  N    0.000205   0.000063   0.000001  -0.000141   0.000003   0.000000
    21  N    0.001495   0.000290   0.000012  -0.000774   0.000139   0.000012
    22  H   -0.000076  -0.000056  -0.000175   0.000328   0.000381  -0.000057
    23  H    0.000052   0.000009  -0.000002   0.000038   0.000004  -0.000000
    24  H   -0.000178  -0.000214   0.000001  -0.000160  -0.000003  -0.000001
    25  H    0.007611  -0.008107   0.009862  -0.000113  -0.034571   0.004163
    26  H   -0.009488   0.022386  -0.032273   0.002447   0.008837  -0.004048
    27  H   -0.104485  -0.016962   0.006717  -0.008268   0.009630   0.000411
    28  H   -0.000026   0.000012   0.000004  -0.000014  -0.000070  -0.000004
    29  C   -0.016426   0.184325   0.231006   0.174579  -0.149972  -0.022688
    30  C    0.000004  -0.000012   0.000001  -0.000019   0.000000  -0.000000
    31  H   -0.000191  -0.000029   0.000002  -0.000011  -0.000003  -0.000000
    32  H   -0.000004  -0.000004   0.000000  -0.000018   0.000003   0.000000
    33  H   -0.000013  -0.000005   0.000000  -0.000003  -0.000000  -0.000000
    34  H    0.000004  -0.000000   0.000000   0.000002   0.000000  -0.000000
    35  H    0.000009   0.000002   0.000000  -0.000002  -0.000000   0.000000
    36  H   -0.253806   0.016389  -0.010318   0.015856  -0.069783  -0.003462
    37  H    1.445346  -0.001735   0.003182  -0.007187  -0.061867  -0.015008
    38  H   -0.001735   1.549283  -0.276791  -0.237456  -0.107854   0.005974
    39  H    0.003182  -0.276791   1.317462  -0.344693   0.093253   0.019248
    40  H   -0.007187  -0.237456  -0.344693   1.305131  -0.036837  -0.016052
    41  C   -0.061867  -0.107854   0.093253  -0.036837   4.640021   0.227157
    42  H   -0.015008   0.005974   0.019248  -0.016052   0.227157   1.300474
    43  H    0.002042  -0.010954  -0.013207   0.017063   0.217994  -0.324826
    44  H    0.002113  -0.044201  -0.006849   0.007208   0.124714  -0.232808
    45  C    0.000122   0.000105  -0.000001  -0.000229  -0.000002   0.000001
    46  H   -0.000144  -0.000046   0.000009  -0.000189   0.000020  -0.000000
    47  H    0.000005   0.000006  -0.000001  -0.000012  -0.000000   0.000000
    48  H    0.000025   0.000024   0.000000   0.000003  -0.000001   0.000000
              43         44         45         46         47         48
     1  C   -0.000165   0.000050   0.000126  -0.001463  -0.000772   0.000649
     2  C    0.000061   0.000051  -0.000052   0.000598   0.000614  -0.000127
     3  C   -0.001263   0.000333  -0.000748  -0.014010   0.001038  -0.000178
     4  C    0.002562  -0.002973  -0.001288   0.013667   0.000463  -0.002055
     5  H   -0.001511   0.000650   0.000212   0.000385   0.000024   0.000041
     6  C   -0.001369   0.001773   0.003059  -0.021909   0.005831   0.001981
     7  C    0.000024   0.000090   0.015420   0.068007   0.004999  -0.002557
     8  H    0.000113  -0.001283   0.013689  -0.005988  -0.000916   0.004020
     9  C   -0.000087   0.000429  -0.003862  -0.002532  -0.006522   0.003610
    10  C   -0.000113   0.000143  -0.185515  -0.023325   0.065050  -0.037657
    11  H    0.000001   0.000005   0.000601  -0.002966   0.001604  -0.000081
    12  C   -0.033416   0.071188  -0.008902  -0.010265   0.000126   0.000748
    13  O    0.000000   0.000001   0.000063   0.000040  -0.000047   0.000011
    14  C   -0.005453  -0.026928   0.000172  -0.000934   0.000036   0.000059
    15  C    0.223052  -0.166151  -0.000134   0.000346  -0.000011  -0.000014
    16  N   -0.014352   0.008211   0.000249  -0.000120   0.000000   0.000013
    17  N   -0.065727   0.102319  -0.000001   0.000015  -0.000001  -0.000001
    18  C    0.000000   0.000015  -0.918734   0.312735  -0.217336   0.096776
    19  C   -0.000004   0.000031   0.174359   0.003887  -0.044491   0.001422
    20  N    0.000000  -0.000004   0.388642  -0.089278   0.127638  -0.056373
    21  N    0.000008  -0.000005   0.073676  -0.079149  -0.021778   0.033074
    22  H    0.000084   0.000013  -0.000031  -0.000076   0.000024  -0.000005
    23  H    0.000001  -0.000002  -0.031532  -0.000590  -0.008321   0.010110
    24  H    0.000000   0.000000  -0.062825   0.003092   0.022196  -0.032328
    25  H   -0.027355   0.017158  -0.000001   0.000006  -0.000000  -0.000000
    26  H    0.010940  -0.004800  -0.000001  -0.000011   0.000001  -0.000004
    27  H   -0.001845   0.009796  -0.003064   0.001932  -0.000153  -0.000445
    28  H   -0.000004  -0.000000   0.037471  -0.006693  -0.011984   0.003870
    29  C    0.032669  -0.040497   0.000059  -0.000110  -0.000001   0.000008
    30  C   -0.000000   0.000001  -0.128166  -0.035234  -0.108999   0.102766
    31  H   -0.000001   0.000006   0.020894   0.016464   0.016479  -0.011350
    32  H   -0.000000   0.000001  -0.015458  -0.008681  -0.006864   0.006094
    33  H   -0.000000   0.000000   0.029876   0.017502  -0.010948  -0.014179
    34  H    0.000000   0.000000  -0.033029   0.008092  -0.041565  -0.006923
    35  H   -0.000000  -0.000000  -0.027540  -0.017280   0.005758   0.019945
    36  H    0.011256  -0.035761  -0.000006  -0.000026   0.000001   0.000000
    37  H    0.002042   0.002113   0.000122  -0.000144   0.000005   0.000025
    38  H   -0.010954  -0.044201   0.000105  -0.000046   0.000006   0.000024
    39  H   -0.013207  -0.006849  -0.000001   0.000009  -0.000001   0.000000
    40  H    0.017063   0.007208  -0.000229  -0.000189  -0.000012   0.000003
    41  C    0.217994   0.124714  -0.000002   0.000020  -0.000000  -0.000001
    42  H   -0.324826  -0.232808   0.000001  -0.000000   0.000000   0.000000
    43  H    1.166342  -0.220932  -0.000000  -0.000003   0.000000   0.000000
    44  H   -0.220932   1.429845  -0.000007   0.000018  -0.000001  -0.000002
    45  C   -0.000000  -0.000007   4.624130   0.188797   0.199181   0.208907
    46  H   -0.000003   0.000018   0.188797   1.292200  -0.232929  -0.345085
    47  H    0.000000  -0.000001   0.199181  -0.232929   1.532510  -0.273417
    48  H    0.000000  -0.000002   0.208907  -0.345085  -0.273417   1.321013
 Mulliken charges:
               1
     1  C    0.363116
     2  C    1.218881
     3  C    0.189243
     4  C    1.008633
     5  H   -0.812439
     6  C   -0.046477
     7  C    1.083951
     8  H   -0.827275
     9  C    0.111483
    10  C    0.576178
    11  H   -0.724710
    12  C    0.407135
    13  O   -0.861828
    14  C    1.569363
    15  C   -3.591369
    16  N   -0.455843
    17  N   -0.068068
    18  C   -3.593303
    19  C    1.652929
    20  N   -0.066248
    21  N   -0.430749
    22  H   -0.285160
    23  H   -0.004605
    24  H    0.017030
    25  H   -0.004662
    26  H    0.012784
    27  H   -0.617654
    28  H   -0.641253
    29  C    1.427990
    30  C    1.419849
    31  H   -0.253498
    32  H   -0.130355
    33  H    0.038881
    34  H    0.005116
    35  H   -0.048281
    36  H   -0.254558
    37  H   -0.128148
    38  H    0.000023
    39  H   -0.030980
    40  H   -0.033430
    41  C    1.424787
    42  H   -0.045532
    43  H    0.038377
    44  H    0.007039
    45  C    1.441314
    46  H   -0.028773
    47  H    0.003486
    48  H   -0.032388
 Sum of Mulliken charges =   0.00000
 Mulliken charges with hydrogens summed into heavy atoms:
               1
     1  C    0.363116
     2  C    0.933721
     3  C   -0.623197
     4  C    1.008633
     6  C   -0.873752
     7  C    1.083951
     9  C   -0.613227
    10  C   -0.065075
    12  C   -0.210520
    13  O   -0.861828
    14  C    1.186657
    15  C   -3.591369
    16  N   -0.455843
    17  N   -0.059946
    18  C   -3.593303
    19  C    1.269076
    20  N   -0.053823
    21  N   -0.430749
    29  C    1.363604
    30  C    1.415565
    41  C    1.424671
    45  C    1.383638
 Electronic spatial extent (au):  <R**2>=          11938.6696
 Charge=              0.0000 electrons
 Dipole moment (field-independent basis, Debye):
    X=              0.6180    Y=             -2.2589    Z=             -3.1216  Tot=              3.9024
 Quadrupole moment (field-independent basis, Debye-Ang):
   XX=           -133.7934   YY=           -160.8576   ZZ=           -140.6421
   XY=              5.2448   XZ=              4.3612   YZ=              2.8367
 Traceless Quadrupole moment (field-independent basis, Debye-Ang):
   XX=             11.3043   YY=            -15.7599   ZZ=              4.4556
   XY=              5.2448   XZ=              4.3612   YZ=              2.8367
 Octapole moment (field-independent basis, Debye-Ang**2):
  XXX=             95.9646  YYY=           -141.3347  ZZZ=             -2.4054  XYY=            -55.4663
  XXY=             54.9696  XXZ=            -81.9744  XZZ=             10.3706  YZZ=             -7.3680
  YYZ=            -42.0784  XYZ=              9.4646
 Hexadecapole moment (field-independent basis, Debye-Ang**3):
 XXXX=         -12148.3204 YYYY=          -4867.8844 ZZZZ=           -669.9891 XXXY=             64.0378
 XXXZ=            302.4529 YYYX=             15.8945 YYYZ=            -74.2448 ZZZX=              4.1671
 ZZZY=             22.9553 XXYY=          -2605.8324 XXZZ=          -2166.2478 YYZZ=           -753.0877
 XXYZ=            119.0619 YYXZ=            -78.0909 ZZXY=            -22.3735
 N-N= 1.707540081842D+03 E-N=-5.636170555881D+03  KE= 9.511901047498D+02
 Leave Link  601 at Mon Oct 25 19:21:31 2021, MaxMem=  7864320000 cpu:              23.1 elap:               0.9
 (Enter /apps/gaussian/g16-c01-avx/g16/l9999.exe)
 Unable to Open any file for archive entry.
 1\1\GINC-CX3-2-25\SP\RMP2-FC\Aug-CC-pVDZ\C17H26N4O1\ATARZIA\25-Oct-202
 1\0\\#P MP2/aug-cc-pVDZ SP SCF=(YQC,MaxCycle=900) int=(Grid=Superfineg
 rid) SCRF=(PCM,Solvent=Chloroform)\\_1_alde1_2_ami2_2_opt_cfm_mp2\\0,1
 \C,0,-2.1249,1.4052,0.3148\C,0,-2.8063,0.6719,1.3915\C,0,-2.8578,2.031
 3,-0.6864\C,0,-2.2073,2.7281,-1.7051\H,0,-3.9364,1.9933,-0.6917\C,0,-0
 .8176,2.7882,-1.7064\C,0,-0.0693,2.1644,-0.7072\H,0,-0.2889,3.3233,-2.
 4809\C,0,-0.7312,1.4737,0.3013\C,0,1.3854,2.2339,-0.7155\H,0,-0.1826,0
 .9796,1.0903\C,0,-2.9691,3.3879,-2.7568\O,0,-2.2577,0.1035,2.3\C,0,-4.
 9555,3.977,-3.8326\C,0,-5.7917,2.914,-4.609\N,0,-4.2299,3.3519,-2.7815
 \N,0,-6.6453,2.1401,-3.7274\C,0,3.9768,2.2004,-2.9253\C,0,3.4353,2.876
 2,-1.6284\N,0,3.3998,2.7798,-4.1242\N,0,2.0134,2.8466,-1.6222\H,0,-3.9
 109,0.68,1.3042\H,0,3.6267,3.7666,-4.185\H,0,2.3896,2.6973,-4.0882\H,0
 ,-7.3033,2.7458,-3.2488\H,0,-6.0789,1.6814,-3.0222\H,0,-2.3776,3.9204,
 -3.5171\H,0,1.8949,1.7262,0.1172\C,0,-4.8475,1.9449,-5.323\C,0,5.4936,
 2.386,-2.9809\H,0,3.7373,3.9292,-1.6434\H,0,3.8782,2.3895,-0.7439\H,0,
 5.8763,1.9351,-3.8921\H,0,5.9708,1.9158,-2.1253\H,0,5.7511,3.4432,-2.9
 854\H,0,-5.6526,4.6837,-3.3692\H,0,-4.306,4.5243,-4.5357\H,0,-4.2354,2
 .4708,-6.0512\H,0,-5.4315,1.1842,-5.8329\H,0,-4.1941,1.4548,-4.6041\C,
 0,-6.6761,3.6325,-5.6288\H,0,-7.345,4.3318,-5.1316\H,0,-7.2775,2.9001,
 -6.1598\H,0,-6.0706,4.1806,-6.3457\C,0,3.6303,0.7104,-2.9066\H,0,2.553
 4,0.5732,-2.8349\H,0,4.1035,0.2165,-2.0617\H,0,3.9764,0.2491,-3.827\\V
 ersion=ES64L-G16RevC.01\State=1-A\HF=-951.6651607\MP2=-954.9606167\RMS
 D=7.580e-09\PG=C01 [X(C17H26N4O1)]\\@
 The archive entry for this job was punched.


 SCIENCE IS A VERY HUMAN FORM OF KNOWLEDGE.
 WE ARE ALWAYS AT THE BRINK OF THE KNOWN,
 WE ALWAYS FEEL FORWARD FOR WHAT IS HOPED.
 EVERY JUDGEMENT IN SCIENCE STANDS ON THE EDGE OF ERROR, AND IS PERSONAL.
 SCIENCE IS A TRIBUTE TO WHAT WE CAN KNOW ALTHOUGH WE ARE FALLIBLE.

                     -- J. BRONOWSKI
 Job cpu time:       0 days 22 hours 40 minutes 30.9 seconds.
 Elapsed time:       0 days  0 hours 43 minutes 58.6 seconds.
 File lengths (MBytes):  RWF= 221768 Int=      0 D2E=      0 Chk=     48 Scr=     16
 Normal termination of Gaussian 16 at Mon Oct 25 19:21:32 2021.
