 Entering Gaussian System, Link 0=g16
 Initial command:
 /apps/gaussian/g16-c01-avx/g16/l1.exe "/rds/general/ephemeral/user/atarzia/ephemeral/xtb_spe_DFT/Gau-2259090.inp" -scrdir="/rds/general/ephemeral/user/atarzia/ephemeral/xtb_spe_DFT/"
 Entering Link 1 = /apps/gaussian/g16-c01-avx/g16/l1.exe PID=   2259091.
  
 Copyright (c) 1988-2019, Gaussian, Inc.  All Rights Reserved.
  
 This is part of the Gaussian(R) 16 program.  It is based on
 the Gaussian(R) 09 system (copyright 2009, Gaussian, Inc.),
 the Gaussian(R) 03 system (copyright 2003, Gaussian, Inc.),
 the Gaussian(R) 98 system (copyright 1998, Gaussian, Inc.),
 the Gaussian(R) 94 system (copyright 1995, Gaussian, Inc.),
 the Gaussian 92(TM) system (copyright 1992, Gaussian, Inc.),
 the Gaussian 90(TM) system (copyright 1990, Gaussian, Inc.),
 the Gaussian 88(TM) system (copyright 1988, Gaussian, Inc.),
 the Gaussian 86(TM) system (copyright 1986, Carnegie Mellon
 University), and the Gaussian 82(TM) system (copyright 1983,
 Carnegie Mellon University). Gaussian is a federally registered
 trademark of Gaussian, Inc.
  
 This software contains proprietary and confidential information,
 including trade secrets, belonging to Gaussian, Inc.
  
 This software is provided under written license and may be
 used, copied, transmitted, or stored only in accord with that
 written license.
  
 The following legend is applicable only to US Government
 contracts under FAR:
  
                    RESTRICTED RIGHTS LEGEND
  
 Use, reproduction and disclosure by the US Government is
 subject to restrictions as set forth in subparagraphs (a)
 and (c) of the Commercial Computer Software - Restricted
 Rights clause in FAR 52.227-19.
  
 Gaussian, Inc.
 340 Quinnipiac St., Bldg. 40, Wallingford CT 06492
  
  
 ---------------------------------------------------------------
 Warning -- This program may not be used in any manner that
 competes with the business of Gaussian, Inc. or will provide
 assistance to any competitor of Gaussian, Inc.  The licensee
 of this program is prohibited from giving any competitor of
 Gaussian, Inc. access to this program.  By using this program,
 the user acknowledges that Gaussian, Inc. is engaged in the
 business of creating and licensing software in the field of
 computational chemistry and represents and warrants to the
 licensee that it is not a competitor of Gaussian, Inc. and that
 it will not use this program in any manner prohibited above.
 ---------------------------------------------------------------
  

 Cite this work as:
 Gaussian 16, Revision C.01,
 M. J. Frisch, G. W. Trucks, H. B. Schlegel, G. E. Scuseria, 
 M. A. Robb, J. R. Cheeseman, G. Scalmani, V. Barone, 
 G. A. Petersson, H. Nakatsuji, X. Li, M. Caricato, A. V. Marenich, 
 J. Bloino, B. G. Janesko, R. Gomperts, B. Mennucci, H. P. Hratchian, 
 J. V. Ortiz, A. F. Izmaylov, J. L. Sonnenberg, D. Williams-Young, 
 F. Ding, F. Lipparini, F. Egidi, J. Goings, B. Peng, A. Petrone, 
 T. Henderson, D. Ranasinghe, V. G. Zakrzewski, J. Gao, N. Rega, 
 G. Zheng, W. Liang, M. Hada, M. Ehara, K. Toyota, R. Fukuda, 
 J. Hasegawa, M. Ishida, T. Nakajima, Y. Honda, O. Kitao, H. Nakai, 
 T. Vreven, K. Throssell, J. A. Montgomery, Jr., J. E. Peralta, 
 F. Ogliaro, M. J. Bearpark, J. J. Heyd, E. N. Brothers, K. N. Kudin, 
 V. N. Staroverov, T. A. Keith, R. Kobayashi, J. Normand, 
 K. Raghavachari, A. P. Rendell, J. C. Burant, S. S. Iyengar, 
 J. Tomasi, M. Cossi, J. M. Millam, M. Klene, C. Adamo, R. Cammi, 
 J. W. Ochterski, R. L. Martin, K. Morokuma, O. Farkas, 
 J. B. Foresman, and D. J. Fox, Gaussian, Inc., Wallingford CT, 2019.
 
 ******************************************
 Gaussian 16:  ES64L-G16RevC.01  3-Jul-2019
                 9-Nov-2021 
 ******************************************
 %chk=_1_alde1_3_ami1_2_opt_dcm_mp2.chk
 %mem=60000mb
 %nprocshared=32
 Will use up to   32 processors via shared memory.
 ----------------------------------------------------------------------
 #P MP2/aug-cc-pVDZ SP SCF=(YQC,MaxCycle=900) int=(Grid=Superfinegrid) 
 SCRF=(PCM,Solvent=Dichloromethane)
 ----------------------------------------------------------------------
 1/38=1,172=1/1;
 2/12=2,17=6,18=5,40=1/2;
 3/5=16,7=10,11=9,25=1,30=1,70=2201,72=9,75=-7/1,2,3;
 4//1;
 5/5=2,7=900,8=4,13=1,38=1,53=9/8,2,8;
 8/10=1/1;
 9/16=-3/6;
 6/7=2,8=2,9=2,10=2/1;
 99/5=1,9=1/99;
 Leave Link    1 at Tue Nov  9 15:38:26 2021, MaxMem=  7864320000 cpu:               7.6 elap:               0.2
 (Enter /apps/gaussian/g16-c01-avx/g16/l101.exe)
 -----------------------------
 _1_alde1_3_ami1_2_opt_dcm_mp2
 -----------------------------
 Symbolic Z-matrix:
 Charge =  0 Multiplicity = 1
 C                    -2.1709   -0.9412   -1.247 
 C                    -2.7723   -1.9714   -0.3772 
 C                    -2.96     -0.2854   -2.182 
 C                    -2.4246    0.7279   -2.9791 
 H                    -4.0047   -0.5313   -2.2967 
 C                    -1.0863    1.0758   -2.8338 
 C                    -0.2777    0.4044   -1.9194 
 H                    -0.6514    1.8628   -3.4313 
 C                    -0.823    -0.6083   -1.1339 
 C                     1.1237    0.7552   -1.7488 
 H                    -0.2015   -1.1461   -0.4304 
 C                    -3.2591    1.4161   -3.9543 
 C                    -0.8616   -1.8019    2.4014 
 C                    -2.0643   -1.1112    1.7135 
 N                    -0.0529   -2.4485    1.3684 
 H                    -1.272    -2.5452    3.1048 
 C                     0.0145   -0.8196    3.2048 
 N                    -2.723    -2.0787    0.8762 
 H                    -1.6832   -0.2584    1.1335 
 C                    -3.1223   -0.5671    2.7008 
 H                    -0.6487   -0.2278    3.8424 
 C                     0.8027    0.13      2.3049 
 C                     0.9733   -1.5783    4.1251 
 H                    -2.6248    0.1338    3.3783 
 C                    -3.7835   -1.6726    3.5194 
 C                    -4.1819    0.21      1.9187 
 H                     1.4893   -0.881     4.7813 
 H                     1.7265   -2.1146    3.5517 
 H                     0.4334   -2.2922    4.7442 
 H                     1.4404    0.7707    2.91 
 H                     0.1382    0.7644    1.7243 
 H                     1.427    -0.4368    1.6201 
 H                    -4.7324   -0.4606    1.263 
 H                    -3.7215    0.9862    1.3099 
 H                    -4.8856    0.6807    2.6016 
 H                    -3.0874   -2.1059    4.2327 
 H                    -4.1401   -2.4554    2.8562 
 H                    -4.6268   -1.2685    4.0749 
 C                    -5.2728    1.8008   -5.0841 
 C                    -6.39      2.5197   -4.2903 
 N                    -4.4701    1.1082   -4.1215 
 H                    -4.6863    2.5772   -5.6068 
 C                    -5.7696    0.7735   -6.123 
 N                    -5.7431    3.5716   -3.5116 
 H                    -6.8615    1.7603   -3.6414 
 C                    -7.4886    3.1418   -5.1734 
 H                    -6.4021    1.2987   -6.8444 
 C                    -6.5689   -0.3533   -5.4748 
 C                    -4.5735    0.1981   -6.882 
 H                    -7.929     2.3419   -5.7758 
 C                    -6.9271    4.2194   -6.0967 
 C                    -8.6084    3.7265   -4.3093 
 H                    -4.9137   -0.4734   -7.6671 
 H                    -3.9283   -0.3593   -6.2064 
 H                    -3.9887    0.9933   -7.3405 
 H                    -6.8177   -1.1085   -6.2175 
 H                    -7.4942    0.0187   -5.0434 
 H                    -5.9787   -0.8152   -4.6885 
 H                    -8.9488    3.0015   -3.572 
 H                    -9.4558    3.9986   -4.9348 
 H                    -8.2723    4.6222   -3.793 
 H                    -6.2752    3.7878   -6.8513 
 H                    -6.3553    4.9347   -5.5125 
 H                    -7.7373    4.7398   -6.6025 
 C                     2.9993    2.1055   -2.0492 
 C                     3.0184    3.38     -1.1381 
 N                     1.6353    1.7651   -2.3033 
 H                     3.5084    1.2905   -1.5051 
 C                     3.7569    2.292    -3.3803 
 N                     1.8977    4.2733   -1.3687 
 H                     3.9334    3.9442   -1.355 
 C                     3.036     2.9829    0.3538 
 H                     4.782     2.5874   -3.1272 
 C                     3.1392    3.3604   -4.2779 
 C                     3.807     0.9558   -4.1222 
 H                     2.2279    2.2604    0.5207 
 C                     2.7821    4.2059    1.2344 
 C                     4.3651    2.3517    0.7653 
 H                     2.8012    0.6407   -4.392 
 H                     4.2544    0.1835   -3.4991 
 H                     4.3977    1.0473   -5.0308 
 H                     3.6087    3.3354   -5.2594 
 H                     3.2868    4.3552   -3.8643 
 H                     2.0754    3.1727   -4.398 
 H                     5.1806    3.0514    0.5946 
 H                     4.5792    1.4395    0.2142 
 H                     4.3431    2.1038    1.8243 
 H                     3.5789    4.933     1.0988 
 H                     2.7525    3.9126    2.2815 
 H                     1.8426    4.6797    0.9719 
 H                     1.0309    3.7631   -1.2274 
 H                     1.8952    4.5924   -2.3292 
 H                    -0.6185   -3.1475    0.8964 
 H                     0.7259   -2.9327    1.8024 
 H                    -6.4044    3.9768   -2.8591 
 H                    -4.9842    3.1756   -2.967 
 H                    -3.3618   -2.7292   -0.8907 
 H                    -2.7661    2.2153   -4.5299 
 H                     1.7017    0.0881   -1.0894 
 
 ITRead=  0  0  0  0  0  0  0  0  0  0  0  0  0  0  0  0  0  0  0  0
 ITRead=  0  0  0  0  0  0  0  0  0  0  0  0  0  0  0  0  0  0  0  0
 ITRead=  0  0  0  0  0  0  0  0  0  0  0  0  0  0  0  0  0  0  0  0
 ITRead=  0  0  0  0  0  0  0  0  0  0  0  0  0  0  0  0  0  0  0  0
 ITRead=  0  0  0  0  0  0  0  0  0  0  0  0  0  0  0  0  0  0  0
 MicOpt= -1 -1 -1 -1 -1 -1 -1 -1 -1 -1 -1 -1 -1 -1 -1 -1 -1 -1 -1 -1
 MicOpt= -1 -1 -1 -1 -1 -1 -1 -1 -1 -1 -1 -1 -1 -1 -1 -1 -1 -1 -1 -1
 MicOpt= -1 -1 -1 -1 -1 -1 -1 -1 -1 -1 -1 -1 -1 -1 -1 -1 -1 -1 -1 -1
 MicOpt= -1 -1 -1 -1 -1 -1 -1 -1 -1 -1 -1 -1 -1 -1 -1 -1 -1 -1 -1 -1
 MicOpt= -1 -1 -1 -1 -1 -1 -1 -1 -1 -1 -1 -1 -1 -1 -1 -1 -1 -1 -1
 NAtoms=     99 NQM=       99 NQMF=       0 NMMI=      0 NMMIF=      0
                NMic=       0 NMicF=      0.
                    Isotopes and Nuclear Properties:
 (Nuclear quadrupole moments (NQMom) in fm**2, nuclear magnetic moments (NMagM)
  in nuclear magnetons)

  Atom         1           2           3           4           5           6           7           8           9          10
 IAtWgt=          12          12          12          12           1          12          12           1          12          12
 AtmWgt=  12.0000000  12.0000000  12.0000000  12.0000000   1.0078250  12.0000000  12.0000000   1.0078250  12.0000000  12.0000000
 NucSpn=           0           0           0           0           1           0           0           1           0           0
 AtZEff=  -0.0000000  -0.0000000  -0.0000000  -0.0000000  -0.0000000  -0.0000000  -0.0000000  -0.0000000  -0.0000000  -0.0000000
 NQMom=    0.0000000   0.0000000   0.0000000   0.0000000   0.0000000   0.0000000   0.0000000   0.0000000   0.0000000   0.0000000
 NMagM=    0.0000000   0.0000000   0.0000000   0.0000000   2.7928460   0.0000000   0.0000000   2.7928460   0.0000000   0.0000000
 AtZNuc=   6.0000000   6.0000000   6.0000000   6.0000000   1.0000000   6.0000000   6.0000000   1.0000000   6.0000000   6.0000000

  Atom        11          12          13          14          15          16          17          18          19          20
 IAtWgt=           1          12          12          12          14           1          12          14           1          12
 AtmWgt=   1.0078250  12.0000000  12.0000000  12.0000000  14.0030740   1.0078250  12.0000000  14.0030740   1.0078250  12.0000000
 NucSpn=           1           0           0           0           2           1           0           2           1           0
 AtZEff=  -0.0000000  -0.0000000  -0.0000000  -0.0000000  -0.0000000  -0.0000000  -0.0000000  -0.0000000  -0.0000000  -0.0000000
 NQMom=    0.0000000   0.0000000   0.0000000   0.0000000   2.0440000   0.0000000   0.0000000   2.0440000   0.0000000   0.0000000
 NMagM=    2.7928460   0.0000000   0.0000000   0.0000000   0.4037610   2.7928460   0.0000000   0.4037610   2.7928460   0.0000000
 AtZNuc=   1.0000000   6.0000000   6.0000000   6.0000000   7.0000000   1.0000000   6.0000000   7.0000000   1.0000000   6.0000000

  Atom        21          22          23          24          25          26          27          28          29          30
 IAtWgt=           1          12          12           1          12          12           1           1           1           1
 AtmWgt=   1.0078250  12.0000000  12.0000000   1.0078250  12.0000000  12.0000000   1.0078250   1.0078250   1.0078250   1.0078250
 NucSpn=           1           0           0           1           0           0           1           1           1           1
 AtZEff=  -0.0000000  -0.0000000  -0.0000000  -0.0000000  -0.0000000  -0.0000000  -0.0000000  -0.0000000  -0.0000000  -0.0000000
 NQMom=    0.0000000   0.0000000   0.0000000   0.0000000   0.0000000   0.0000000   0.0000000   0.0000000   0.0000000   0.0000000
 NMagM=    2.7928460   0.0000000   0.0000000   2.7928460   0.0000000   0.0000000   2.7928460   2.7928460   2.7928460   2.7928460
 AtZNuc=   1.0000000   6.0000000   6.0000000   1.0000000   6.0000000   6.0000000   1.0000000   1.0000000   1.0000000   1.0000000

  Atom        31          32          33          34          35          36          37          38          39          40
 IAtWgt=           1           1           1           1           1           1           1           1          12          12
 AtmWgt=   1.0078250   1.0078250   1.0078250   1.0078250   1.0078250   1.0078250   1.0078250   1.0078250  12.0000000  12.0000000
 NucSpn=           1           1           1           1           1           1           1           1           0           0
 AtZEff=  -0.0000000  -0.0000000  -0.0000000  -0.0000000  -0.0000000  -0.0000000  -0.0000000  -0.0000000  -0.0000000  -0.0000000
 NQMom=    0.0000000   0.0000000   0.0000000   0.0000000   0.0000000   0.0000000   0.0000000   0.0000000   0.0000000   0.0000000
 NMagM=    2.7928460   2.7928460   2.7928460   2.7928460   2.7928460   2.7928460   2.7928460   2.7928460   0.0000000   0.0000000
 AtZNuc=   1.0000000   1.0000000   1.0000000   1.0000000   1.0000000   1.0000000   1.0000000   1.0000000   6.0000000   6.0000000

  Atom        41          42          43          44          45          46          47          48          49          50
 IAtWgt=          14           1          12          14           1          12           1          12          12           1
 AtmWgt=  14.0030740   1.0078250  12.0000000  14.0030740   1.0078250  12.0000000   1.0078250  12.0000000  12.0000000   1.0078250
 NucSpn=           2           1           0           2           1           0           1           0           0           1
 AtZEff=  -0.0000000  -0.0000000  -0.0000000  -0.0000000  -0.0000000  -0.0000000  -0.0000000  -0.0000000  -0.0000000  -0.0000000
 NQMom=    2.0440000   0.0000000   0.0000000   2.0440000   0.0000000   0.0000000   0.0000000   0.0000000   0.0000000   0.0000000
 NMagM=    0.4037610   2.7928460   0.0000000   0.4037610   2.7928460   0.0000000   2.7928460   0.0000000   0.0000000   2.7928460
 AtZNuc=   7.0000000   1.0000000   6.0000000   7.0000000   1.0000000   6.0000000   1.0000000   6.0000000   6.0000000   1.0000000

  Atom        51          52          53          54          55          56          57          58          59          60
 IAtWgt=          12          12           1           1           1           1           1           1           1           1
 AtmWgt=  12.0000000  12.0000000   1.0078250   1.0078250   1.0078250   1.0078250   1.0078250   1.0078250   1.0078250   1.0078250
 NucSpn=           0           0           1           1           1           1           1           1           1           1
 AtZEff=  -0.0000000  -0.0000000  -0.0000000  -0.0000000  -0.0000000  -0.0000000  -0.0000000  -0.0000000  -0.0000000  -0.0000000
 NQMom=    0.0000000   0.0000000   0.0000000   0.0000000   0.0000000   0.0000000   0.0000000   0.0000000   0.0000000   0.0000000
 NMagM=    0.0000000   0.0000000   2.7928460   2.7928460   2.7928460   2.7928460   2.7928460   2.7928460   2.7928460   2.7928460
 AtZNuc=   6.0000000   6.0000000   1.0000000   1.0000000   1.0000000   1.0000000   1.0000000   1.0000000   1.0000000   1.0000000

  Atom        61          62          63          64          65          66          67          68          69          70
 IAtWgt=           1           1           1           1          12          12          14           1          12          14
 AtmWgt=   1.0078250   1.0078250   1.0078250   1.0078250  12.0000000  12.0000000  14.0030740   1.0078250  12.0000000  14.0030740
 NucSpn=           1           1           1           1           0           0           2           1           0           2
 AtZEff=  -0.0000000  -0.0000000  -0.0000000  -0.0000000  -0.0000000  -0.0000000  -0.0000000  -0.0000000  -0.0000000  -0.0000000
 NQMom=    0.0000000   0.0000000   0.0000000   0.0000000   0.0000000   0.0000000   2.0440000   0.0000000   0.0000000   2.0440000
 NMagM=    2.7928460   2.7928460   2.7928460   2.7928460   0.0000000   0.0000000   0.4037610   2.7928460   0.0000000   0.4037610
 AtZNuc=   1.0000000   1.0000000   1.0000000   1.0000000   6.0000000   6.0000000   7.0000000   1.0000000   6.0000000   7.0000000

  Atom        71          72          73          74          75          76          77          78          79          80
 IAtWgt=           1          12           1          12          12           1          12          12           1           1
 AtmWgt=   1.0078250  12.0000000   1.0078250  12.0000000  12.0000000   1.0078250  12.0000000  12.0000000   1.0078250   1.0078250
 NucSpn=           1           0           1           0           0           1           0           0           1           1
 AtZEff=  -0.0000000  -0.0000000  -0.0000000  -0.0000000  -0.0000000  -0.0000000  -0.0000000  -0.0000000  -0.0000000  -0.0000000
 NQMom=    0.0000000   0.0000000   0.0000000   0.0000000   0.0000000   0.0000000   0.0000000   0.0000000   0.0000000   0.0000000
 NMagM=    2.7928460   0.0000000   2.7928460   0.0000000   0.0000000   2.7928460   0.0000000   0.0000000   2.7928460   2.7928460
 AtZNuc=   1.0000000   6.0000000   1.0000000   6.0000000   6.0000000   1.0000000   6.0000000   6.0000000   1.0000000   1.0000000

  Atom        81          82          83          84          85          86          87          88          89          90
 IAtWgt=           1           1           1           1           1           1           1           1           1           1
 AtmWgt=   1.0078250   1.0078250   1.0078250   1.0078250   1.0078250   1.0078250   1.0078250   1.0078250   1.0078250   1.0078250
 NucSpn=           1           1           1           1           1           1           1           1           1           1
 AtZEff=  -0.0000000  -0.0000000  -0.0000000  -0.0000000  -0.0000000  -0.0000000  -0.0000000  -0.0000000  -0.0000000  -0.0000000
 NQMom=    0.0000000   0.0000000   0.0000000   0.0000000   0.0000000   0.0000000   0.0000000   0.0000000   0.0000000   0.0000000
 NMagM=    2.7928460   2.7928460   2.7928460   2.7928460   2.7928460   2.7928460   2.7928460   2.7928460   2.7928460   2.7928460
 AtZNuc=   1.0000000   1.0000000   1.0000000   1.0000000   1.0000000   1.0000000   1.0000000   1.0000000   1.0000000   1.0000000

  Atom        91          92          93          94          95          96          97          98          99
 IAtWgt=           1           1           1           1           1           1           1           1           1
 AtmWgt=   1.0078250   1.0078250   1.0078250   1.0078250   1.0078250   1.0078250   1.0078250   1.0078250   1.0078250
 NucSpn=           1           1           1           1           1           1           1           1           1
 AtZEff=  -0.0000000  -0.0000000  -0.0000000  -0.0000000  -0.0000000  -0.0000000  -0.0000000  -0.0000000  -0.0000000
 NQMom=    0.0000000   0.0000000   0.0000000   0.0000000   0.0000000   0.0000000   0.0000000   0.0000000   0.0000000
 NMagM=    2.7928460   2.7928460   2.7928460   2.7928460   2.7928460   2.7928460   2.7928460   2.7928460   2.7928460
 AtZNuc=   1.0000000   1.0000000   1.0000000   1.0000000   1.0000000   1.0000000   1.0000000   1.0000000   1.0000000
 Leave Link  101 at Tue Nov  9 15:38:27 2021, MaxMem=  7864320000 cpu:               3.9 elap:               0.2
 (Enter /apps/gaussian/g16-c01-avx/g16/l202.exe)
 Stoichiometry    C33H60N6
 Framework group  C1[X(C33H60N6)]
 Deg. of freedom   291
 Full point group                 C1      NOp   1
 Largest Abelian subgroup         C1      NOp   1
 Largest concise Abelian subgroup C1      NOp   1
                         Standard orientation:                         
 ---------------------------------------------------------------------
 Center     Atomic      Atomic             Coordinates (Angstroms)
 Number     Number       Type             X           Y           Z
 ---------------------------------------------------------------------
      1          6           0        0.109299    1.555408   -1.350686
      2          6           0       -0.011570    2.994275   -1.658257
      3          6           0        1.357583    1.014216   -1.075232
      4          6           0        1.488846   -0.332407   -0.731466
      5          1           0        2.246025    1.626586   -1.101595
      6          6           0        0.355306   -1.135274   -0.670766
      7          6           0       -0.898839   -0.609912   -0.973843
      8          1           0        0.429424   -2.177090   -0.397565
      9          6           0       -1.015363    0.734023   -1.320518
     10          6           0       -2.097845   -1.431331   -0.912660
     11          1           0       -1.982119    1.149725   -1.571471
     12          6           0        2.800606   -0.892945   -0.438023
     13          6           0       -3.132273    3.719588   -0.592775
     14          6           0       -1.684337    3.544532   -0.073548
     15          7           0       -3.273402    2.944776   -1.825221
     16          1           0       -3.281859    4.795285   -0.783020
     17          6           0       -4.194329    3.264867    0.428588
     18          7           0       -0.778267    3.852788   -1.148272
     19          1           0       -1.569093    2.508413    0.275853
     20          6           0       -1.325614    4.476432    1.106727
     21          1           0       -3.952279    3.729389    1.388915
     22          6           0       -4.217305    1.748637    0.611179
     23          6           0       -5.583798    3.759760    0.020748
     24          1           0       -2.038980    4.289130    1.915307
     25          6           0       -1.376981    5.953085    0.724261
     26          6           0        0.069151    4.117100    1.620368
     27          1           0       -6.300477    3.550382    0.811705
     28          1           0       -5.929544    3.260316   -0.881876
     29          1           0       -5.576641    4.833522   -0.156488
     30          1           0       -5.010200    1.470198    1.301899
     31          1           0       -3.274888    1.386302    1.013276
     32          1           0       -4.398002    1.260563   -0.342286
     33          1           0        0.816595    4.331203    0.859983
     34          1           0        0.127756    3.059863    1.873169
     35          1           0        0.304883    4.696977    2.509906
     36          1           0       -2.398437    6.280350    0.549259
     37          1           0       -0.795559    6.117600   -0.178322
     38          1           0       -0.962378    6.558484    1.527149
     39          6           0        5.126637   -0.765226   -0.208469
     40          6           0        5.663296   -0.021579    1.038149
     41          7           0        3.847457   -0.193692   -0.504558
     42          1           0        5.033529   -1.833103    0.057922
     43          6           0        6.009224   -0.645314   -1.468679
     44          7           0        4.809621   -0.406687    2.158095
     45          1           0        5.592730    1.059252    0.821593
     46          6           0        7.130172   -0.345203    1.380699
     47          1           0        6.993740   -1.060329   -1.234587
     48          6           0        6.165058    0.803790   -1.920934
     49          6           0        5.404444   -1.483706   -2.595249
     50          1           0        7.743239   -0.086684    0.512371
     51          6           0        7.319289   -1.823044    1.711165
     52          6           0        7.613954    0.516949    2.549093
     53          1           0        6.054387   -1.467123   -3.467218
     54          1           0        4.432126   -1.088800   -2.881711
     55          1           0        5.278205   -2.518141   -2.281299
     56          1           0        6.707127    0.843580   -2.863489
     57          1           0        6.713598    1.387924   -1.187067
     58          1           0        5.185002    1.250996   -2.060411
     59          1           0        7.390094    1.567981    2.374942
     60          1           0        8.690593    0.413496    2.665368
     61          1           0        7.145520    0.206871    3.479807
     62          1           0        7.170946   -2.443190    0.831343
     63          1           0        6.600241   -2.119326    2.469509
     64          1           0        8.324988   -1.998003    2.086706
     65          6           0       -3.303237   -3.343854   -0.346343
     66          6           0       -3.696651   -3.422894    1.168185
     67          7           0       -2.085909   -2.603098   -0.447985
     68          1           0       -4.118417   -2.827452   -0.883244
     69          6           0       -3.140238   -4.726956   -1.010442
     70          7           0       -2.553687   -3.446231    2.062734
     71          1           0       -4.255086   -4.352633    1.330446
     72          6           0       -4.605730   -2.237229    1.557463
     73          1           0       -4.086137   -5.263434   -0.870377
     74          6           0       -2.006950   -5.552318   -0.407819
     75          6           0       -2.906479   -4.540615   -2.510105
     76          1           0       -4.123390   -1.314367    1.213134
     77          6           0       -4.765260   -2.163310    3.075599
     78          6           0       -5.992349   -2.343775    0.924858
     79          1           0       -1.968957   -4.015126   -2.679300
     80          1           0       -3.711735   -3.961483   -2.958475
     81          1           0       -2.859078   -5.505207   -3.010274
     82          1           0       -1.832274   -6.438937   -1.014277
     83          1           0       -2.252381   -5.881633    0.599054
     84          1           0       -1.093416   -4.963942   -0.383430
     85          1           0       -6.481078   -3.261102    1.246437
     86          1           0       -5.953759   -2.342264   -0.161497
     87          1           0       -6.605791   -1.501590    1.237639
     88          1           0       -5.255737   -3.061864    3.441640
     89          1           0       -5.370776   -1.301024    3.346029
     90          1           0       -3.798212   -2.083785    3.559899
     91          1           0       -1.985381   -2.620665    1.898171
     92          1           0       -1.968552   -4.247698    1.863587
     93          1           0       -2.621563    3.303315   -2.516483
     94          1           0       -4.208583    3.070016   -2.198166
     95          1           0        5.020896    0.164905    2.967975
     96          1           0        3.837379   -0.244141    1.917975
     97          1           0        0.676853    3.369125   -2.413913
     98          1           0        2.816300   -1.957783   -0.157027
     99          1           0       -3.018415   -0.953439   -1.284256
 ---------------------------------------------------------------------
 Rotational constants (GHZ):           0.0907765           0.0508119           0.0383111
 Leave Link  202 at Tue Nov  9 15:38:27 2021, MaxMem=  7864320000 cpu:               0.3 elap:               0.0
 (Enter /apps/gaussian/g16-c01-avx/g16/l301.exe)
 Standard basis: Aug-CC-pVDZ (5D, 7F)
 Ernie: Thresh=  0.10000D-02 Tol=  0.10000D-05 Strict=F.
 Ernie:  78 primitive shells out of 1395 were deleted.
 There are  1515 symmetry adapted cartesian basis functions of A   symmetry.
 There are  1437 symmetry adapted basis functions of A   symmetry.
  1437 basis functions,  2337 primitive gaussians,  1515 cartesian basis functions
   150 alpha electrons      150 beta electrons
       nuclear repulsion energy      4673.9581753957 Hartrees.
 IExCor=    0 DFT=F Ex=HF Corr=None ExCW=0 ScaHFX=  1.000000
 ScaDFX=  1.000000  1.000000  1.000000  1.000000 ScalE2=  1.000000  1.000000
 IRadAn=      7 IRanWt=     -1 IRanGd=            0 ICorTp=0 IEmpDi=  4
 NAtoms=   99 NActive=   99 NUniq=   99 SFac= 1.00D+00 NAtFMM=   60 NAOKFM=T Big=T
 Integral buffers will be    131072 words long.
 Raffenetti 1 integral format.
 Two-electron integral symmetry is turned on.
 ------------------------------------------------------------------------------
 Polarizable Continuum Model (PCM)
 =================================
 Model                : PCM.
 Atomic radii         : UFF (Universal Force Field).
 Polarization charges : Total charges.
 Charge compensation  : None.
 Solution method      : On-the-fly selection.
 Cavity type          : Scaled VdW (van der Waals Surface) (Alpha=1.100).
 Cavity algorithm     : GePol (No added spheres)
                        Default sphere list used, NSphG=   99.
                        Lebedev-Laikov grids with approx.  5.0 points / Ang**2.
                        Smoothing algorithm: York/Karplus (Gamma=1.0000).
                        Polarization charges: spherical gaussians, with
                                              point-specific exponents (IZeta= 3).
                        Self-potential: point-specific (ISelfS= 7).
                        Self-field    : sphere-specific E.n sum rule (ISelfD= 2).
 Solvent              : Dichloromethane, Eps=   8.930000 Eps(inf)=   2.028346
 ------------------------------------------------------------------------------
 GePol: Number of generator spheres                  =      99
 GePol: Total number of spheres                      =      99
 GePol: Number of exposed spheres                    =      99 (100.00%)
 GePol: Number of points                             =    5722
 GePol: Average weight of points                     =       0.13
 GePol: Minimum weight of points                     =   0.17D-11
 GePol: Maximum weight of points                     =    0.20577
 GePol: Number of points with low weight             =     416
 GePol: Fraction of low-weight points (<1% of avg)   =       7.27%
 GePol: Cavity surface area                          =    741.706 Ang**2
 GePol: Cavity volume                                =    871.222 Ang**3
 Leave Link  301 at Tue Nov  9 15:38:28 2021, MaxMem=  7864320000 cpu:               4.5 elap:               0.2
 (Enter /apps/gaussian/g16-c01-avx/g16/l302.exe)
 NPDir=0 NMtPBC=     1 NCelOv=     1 NCel=       1 NClECP=     1 NCelD=      1
         NCelK=      1 NCelE2=     1 NClLst=     1 CellRange=     0.0.
 One-electron integrals computed using PRISM.
 One-electron integral symmetry used in STVInt
 NBasis=  1437 RedAO= T EigKep=  1.03D-06  NBF=  1437
 NBsUse=  1429 1.00D-06 EigRej=  8.32D-07 NBFU=  1429
 Leave Link  302 at Tue Nov  9 15:38:33 2021, MaxMem=  7864320000 cpu:             172.6 elap:               5.5
 (Enter /apps/gaussian/g16-c01-avx/g16/l303.exe)
 DipDrv:  MaxL=1.
 Leave Link  303 at Tue Nov  9 15:38:34 2021, MaxMem=  7864320000 cpu:              14.2 elap:               0.6
 (Enter /apps/gaussian/g16-c01-avx/g16/l401.exe)
 ExpMin= 2.97D-02 ExpMax= 9.05D+03 ExpMxC= 3.09D+02 IAcc=3 IRadAn=         7 AccDes= 0.00D+00
 Harris functional with IExCor=  205 and IRadAn=       7 diagonalized for initial guess.
 HarFok:  IExCor=  205 AccDes= 0.00D+00 IRadAn=         7 IDoV= 1 UseB2=F ITyADJ=14
 ICtDFT=  3500011 ScaDFX=  1.000000  1.000000  1.000000  1.000000
 FoFCou: FMM=F IPFlag=           0 FMFlag=      100000 FMFlg1=        2001
         NFxFlg=           0 DoJE=T BraDBF=F KetDBF=T FulRan=T
         wScrn=  0.000000 ICntrl=       500 IOpCl=  0 I1Cent=   200000004 NGrid=           0
         NMat0=    1 NMatS0=      1 NMatT0=    0 NMatD0=    1 NMtDS0=    0 NMtDT0=    0
 Petite list used in FoFCou.
 Harris En= -1614.57892533753    
 JPrj=0 DoOrth=F DoCkMO=F.
 Leave Link  401 at Tue Nov  9 15:38:52 2021, MaxMem=  7864320000 cpu:             550.5 elap:              17.4
 (Enter /apps/gaussian/g16-c01-avx/g16/l508.exe)
 Integral symmetry usage will be decided dynamically.
 Tight linear equation convergence will be used.
 RHF wavefunction.
 Linear searches until partial convergence.
 Full line searches.
 Fock matrices will be formed incrementally for  20 cycles.
 Inv3:  Mode=1 IEnd=    98223852.
 Iteration    1 A*A^-1 deviation from unit magnitude is 3.49D-14 for   5718.
 Iteration    1 A*A^-1 deviation from orthogonality  is 2.61D-15 for   5712   4752.
 Iteration    1 A^-1*A deviation from unit magnitude is 3.49D-14 for   5718.
 Iteration    1 A^-1*A deviation from orthogonality  is 2.14D-15 for   3640   2242.
 FoFJK:  IHMeth= 1 ICntrl=       0 DoSepK=F KAlg= 0 I1Cent=           0 FoldK=F
 IRaf= 990000000 NMat=       1 IRICut=       1 DoRegI=T DoRafI=F ISym2E= 1 IDoP0=0 IntGTp=1.
 Iteration   1 EE= -1609.47557876292                                    Grad=2.151D+00 Max rot=    1.9080 deg.
 Gradient too large for Newton-Raphson -- use scaled steepest descent instead.
 Alpha Gap=     0.451 HL deriv= 5.00D-04
     ILin= 1 X=0.000D+00 Y=-1.609475578763D+03 DE= 0.00D+00 F= -6.44D+00
 RMSU=  5.80D-03    CP:  7.63D-01
     ILin= 2 X=3.000D-01 Y=-1.610895577901D+03 DE=-1.42D+00 F= -3.02D+00 OKLS=F
 RMSU=  1.30D-03    CP:  6.33D-01  1.50D+00
     ILin= 3 X=5.000D-01 Y=-1.611270041489D+03 DE=-1.79D+00 F= -7.25D-01
 RMSU=  3.09D-03    CP:  4.46D-01  2.12D+00  3.00D+00
     ILin= 4 X=9.000D-01 Y=-1.610648819076D+03 DE=-1.17D+00 F=  3.81D+00
     An  expanding polynomial of degree  4 produced  0.5639
 RMSU=  3.33D-06    CP:  5.97D-01  1.64D+00  1.49D+00  2.49D-05
 Iteration   2 EE= -1611.29296247593     Delta-E=       -1.817383713006 Grad=6.974D-01 Max rot=    1.0270 deg.
 Gradient too large for Newton-Raphson -- use scaled steepest descent instead.
 Alpha Gap=     0.477 HL deriv= 1.25D-04
     ILin= 1 X=0.000D+00 Y=-1.611292962476D+03 DE= 0.00D+00 F= -2.54D-01
 RMSU=  1.89D-03    CP:  5.23D-01  1.73D+00  2.36D+00  6.49D-03  3.00D+00
     ILin= 2 X=4.000D-01 Y=-1.611371557337D+03 DE=-7.86D-02 F= -1.39D-01 OKLS=F
 RMSU=  3.31D-04    CP:  4.60D-01  1.78D+00  3.00D+00  2.49D-01  3.00D+00
                    CP:  1.88D+00
     ILin= 3 X=8.000D-01 Y=-1.611403868058D+03 DE=-1.11D-01 F= -2.31D-02
 RMSU=  1.11D-03    CP:  3.73D-01  1.73D+00  3.00D+00  1.69D+00  3.00D+00
                    CP:  3.00D+00  3.00D+00
     ILin= 4 X=1.600D+00 Y=-1.611330316288D+03 DE=-3.74D-02 F=  2.07D-01
     An  expanding polynomial of degree  4 produced  0.8801
     Minimum is close to point  3 DX=  8.01D-02 DF= -9.23D-04 DXR=  9.10D-02 DFR=  8.32D-03 which will be used.
 Iteration   3 EE= -1611.40386805774     Delta-E=       -0.110905581812 Grad=1.904D-01 Max rot=    0.3339 deg.
 Gradient too large for Newton-Raphson -- use scaled steepest descent instead.
 Alpha Gap=     0.465 HL deriv= 2.86D-04
     ILin= 1 X=0.000D+00 Y=-1.611403868058D+03 DE= 0.00D+00 F= -3.07D-02
 RMSU=  8.22D-04    CP:  4.32D-01  1.78D+00  3.00D+00  5.85D-01  3.00D+00
                    CP:  2.04D+00  1.77D+00  5.15D-03
     ILin= 2 X=7.000D-01 Y=-1.611415776319D+03 DE=-1.19D-02 F= -3.29D-03 OKLS=T
     Reject lnstep IMin12=  1  2 Big=T Turn=F Min= 1.333D+00 FVal=-1.611418030954D+03 Lims=  0.00D+00  7.00D-01
 RMSU=  1.01D-04    CP:  4.07D-01  1.77D+00  3.00D+00  9.46D-01  3.00D+00
                    CP:  2.18D+00  2.63D+00  9.31D-03  1.97D+00
     ILin= 3 X=1.400D+00 Y=-1.611408471186D+03 DE=-4.60D-03 F=  2.42D-02
     An  expanding polynomial of degree  3 produced  0.7839
 RMSU=  3.68D-09    CP:  4.29D-01  1.78D+00  3.00D+00  6.27D-01  3.00D+00
                    CP:  2.05D+00  1.87D+00  5.70D-03  1.12D+00  6.71D-02
 Iteration   4 EE= -1611.41591434049     Delta-E=       -0.012046282747 Grad=6.954D-02 Max rot=    0.1821 deg.
 Gradient too large for Newton-Raphson -- use scaled steepest descent instead.
 Alpha Gap=     0.476 HL deriv= 2.96D-04
     ILin= 1 X=0.000D+00 Y=-1.611415914340D+03 DE= 0.00D+00 F= -5.59D-03
 RMSU=  3.15D-04    CP:  4.18D-01  1.76D+00  3.00D+00  6.80D-01  3.00D+00
                    CP:  2.20D+00  2.20D+00  4.88D-03  1.35D+00  1.00D+00
                    CP:  3.00D+00
     ILin= 2 X=8.000D-01 Y=-1.611417920769D+03 DE=-2.01D-03 F=  5.72D-04 OKLS=T
     Accept linear search using points  1 and  2.
     An  expanding polynomial of degree  2 produced  0.6781
 RMSU=  1.05D-06    CP:  4.19D-01  1.76D+00  3.00D+00  6.72D-01  3.00D+00
                    CP:  2.18D+00  2.15D+00  5.01D-03  1.32D+00  8.53D-01
                    CP:  3.00D+00  8.49D-01
 Iteration   5 EE= -1611.41793330284     Delta-E=       -0.002018962347 Grad=2.680D-02 Max rot=    0.1033 deg.
 Gradient too large for Newton-Raphson -- use scaled steepest descent instead.
 Alpha Gap=     0.473 HL deriv= 4.53D-05
     ILin= 1 X=0.000D+00 Y=-1.611417933303D+03 DE= 0.00D+00 F= -9.53D-04
 RMSU=  5.65D-05    CP:  4.16D-01  1.75D+00  3.00D+00  7.12D-01  3.00D+00
                    CP:  2.20D+00  2.26D+00  5.04D-03  1.55D+00  1.21D+00
                    CP:  3.00D+00  1.09D+00  3.00D+00
     ILin= 2 X=7.000D-01 Y=-1.611418345119D+03 DE=-4.12D-04 F= -2.24D-04 OKLS=T
     Reject lnstep IMin12=  1  2 Big=T Turn=F Min= 1.210D+00 FVal=-1.611418469066D+03 Lims=  0.00D+00  7.00D-01
 RMSU=  1.95D-06    CP:  4.11D-01  1.74D+00  3.00D+00  7.58D-01  3.00D+00
                    CP:  2.23D+00  2.38D+00  5.04D-03  1.81D+00  1.65D+00
                    CP:  3.00D+00  1.36D+00  3.00D+00  2.13D+00
     ILin= 3 X=1.500D+00 Y=-1.611418190404D+03 DE=-2.57D-04 F=  6.10D-04
     An  expanding polynomial of degree  3 produced  0.9144
 RMSU=  2.47D-07    CP:  4.14D-01  1.75D+00  3.00D+00  7.24D-01  3.00D+00
                    CP:  2.21D+00  2.29D+00  5.05D-03  1.62D+00  1.32D+00
                    CP:  3.00D+00  1.16D+00  3.00D+00  1.30D+00  1.84D-01
 Iteration   6 EE= -1611.41836910084     Delta-E=       -0.000435798005 Grad=1.299D-02 Max rot=    0.0633 deg.
 Gradient too large for Newton-Raphson -- use scaled steepest descent instead.
 Alpha Gap=     0.476 HL deriv= 2.93D-04
     ILin= 1 X=0.000D+00 Y=-1.611418369101D+03 DE= 0.00D+00 F= -3.00D-04
 RMSU=  2.97D-05    CP:  4.13D-01  1.74D+00  3.00D+00  7.21D-01  3.00D+00
                    CP:  2.23D+00  2.33D+00  4.86D-03  1.66D+00  1.50D+00
                    CP:  3.00D+00  1.43D+00  3.00D+00  1.50D+00  3.54D-01
                    CP:  3.00D+00
     ILin= 2 X=8.000D-01 Y=-1.611418458666D+03 DE=-8.96D-05 F=  7.64D-05 OKLS=T
     Accept linear search using points  1 and  2.
     An  expanding polynomial of degree  2 produced  0.5828
 RMSU=  6.94D-08    CP:  4.13D-01  1.75D+00  3.00D+00  7.22D-01  3.00D+00
                    CP:  2.22D+00  2.32D+00  4.91D-03  1.65D+00  1.45D+00
                    CP:  3.00D+00  1.36D+00  3.00D+00  1.45D+00  3.02D-01
                    CP:  3.00D+00  7.29D-01
 Iteration   7 EE= -1611.41846416152     Delta-E=       -0.000095060674 Grad=4.940D-03 Max rot=    0.0339 deg.
 SCF Done:  E(RHF) =  -1611.41846416     a.u. after    7 cycles
            Convg  =    0.4940D-02                    18 Fock formations.
              S**2 =  0.0000                  -V/T =  2.0003
 Leave Link  508 at Tue Nov  9 16:23:05 2021, MaxMem=  7864320000 cpu:           83989.7 elap:            2652.6
 (Enter /apps/gaussian/g16-c01-avx/g16/l502.exe)
 Integral symmetry usage will be decided dynamically.
 Closed shell SCF:
 Using DIIS extrapolation, IDIIS=  1040.
 NGot=  7864320000 LenX=  7859664380 LenY=  7857367640
 Requested convergence on RMS density matrix=1.00D-08 within 128 cycles.
 Requested convergence on MAX density matrix=1.00D-06.
 Requested convergence on             energy=1.00D-06.
 No special actions if energy rises.
 Fock matrices will be formed incrementally for  20 cycles.

 Cycle   1  Pass 1  IDiag  1:
 FoFJK:  IHMeth= 1 ICntrl=       0 DoSepK=F KAlg= 0 I1Cent=           0 FoldK=F
 IRaf= 990000000 NMat=       1 IRICut=       1 DoRegI=T DoRafI=F ISym2E= 0 IDoP0=0 IntGTp=1.
 FoFCou: FMM=T IPFlag=           0 FMFlag=      100000 FMFlg1=        2001
         NFxFlg=           0 DoJE=F BraDBF=F KetDBF=F FulRan=T
         wScrn=  0.000000 ICntrl=         0 IOpCl=  0 I1Cent=           0 NGrid=           0
         NMat0=    1 NMatS0=      1 NMatT0=    0 NMatD0=    1 NMtDS0=    0 NMtDT0=    0
 Symmetry not used in FoFCou.
 FMM levels:  10  Number of levels for PrismC:   9
 E= -1611.41846416677    
 DIIS: error= 4.18D-05 at cycle   1 NSaved=   1.
 NSaved= 1 IEnMin= 1 EnMin= -1611.41846416677     IErMin= 1 ErrMin= 4.18D-05
 ErrMax= 4.18D-05  0.00D+00 EMaxC= 1.00D-01 BMatC= 1.22D-05 BMatP= 1.22D-05
 IDIUse=1 WtCom= 1.00D+00 WtEn= 0.00D+00
 Coeff-Com:  0.100D+01
 Coeff:      0.100D+01
 Gap=     0.475 Goal=   None    Shift=    0.000
 RMSDP=1.08D-04 MaxDP=1.80D-02              OVMax= 1.83D-03

 Cycle   2  Pass 1  IDiag  1:
 RMSU=  9.43D-05    CP:  9.98D-01
 E= -1611.41849482398     Delta-E=       -0.000030657206 Rises=F Damp=F
 DIIS: error= 1.92D-05 at cycle   2 NSaved=   2.
 NSaved= 2 IEnMin= 2 EnMin= -1611.41849482398     IErMin= 2 ErrMin= 1.92D-05
 ErrMax= 1.92D-05  0.00D+00 EMaxC= 1.00D-01 BMatC= 2.58D-06 BMatP= 1.22D-05
 IDIUse=1 WtCom= 1.00D+00 WtEn= 0.00D+00
 Coeff-Com:  0.799D-01 0.920D+00
 Coeff:      0.799D-01 0.920D+00
 Gap=     0.352 Goal=   None    Shift=    0.000
 RMSDP=2.71D-05 MaxDP=4.17D-03 DE=-3.07D-05 OVMax= 8.11D-04

 Cycle   3  Pass 1  IDiag  1:
 RMSU=  1.41D-05    CP:  9.98D-01  1.18D+00
 E= -1611.41850030429     Delta-E=       -0.000005480318 Rises=F Damp=F
 DIIS: error= 1.15D-05 at cycle   3 NSaved=   3.
 NSaved= 3 IEnMin= 3 EnMin= -1611.41850030429     IErMin= 3 ErrMin= 1.15D-05
 ErrMax= 1.15D-05  0.00D+00 EMaxC= 1.00D-01 BMatC= 9.30D-07 BMatP= 2.58D-06
 IDIUse=1 WtCom= 1.00D+00 WtEn= 0.00D+00
 Coeff-Com: -0.217D+00 0.286D+00 0.931D+00
 Coeff:     -0.217D+00 0.286D+00 0.931D+00
 Gap=     0.352 Goal=   None    Shift=    0.000
 RMSDP=1.30D-05 MaxDP=1.90D-03 DE=-5.48D-06 OVMax= 6.76D-04

 Cycle   4  Pass 1  IDiag  1:
 RMSU=  7.36D-06    CP:  9.98D-01  1.28D+00  1.23D+00
 E= -1611.41850259723     Delta-E=       -0.000002292936 Rises=F Damp=F
 DIIS: error= 5.45D-06 at cycle   4 NSaved=   4.
 NSaved= 4 IEnMin= 4 EnMin= -1611.41850259723     IErMin= 4 ErrMin= 5.45D-06
 ErrMax= 5.45D-06  0.00D+00 EMaxC= 1.00D-01 BMatC= 8.22D-08 BMatP= 9.30D-07
 IDIUse=1 WtCom= 1.00D+00 WtEn= 0.00D+00
 Coeff-Com:  0.852D-01-0.186D+00-0.397D+00 0.150D+01
 Coeff:      0.852D-01-0.186D+00-0.397D+00 0.150D+01
 Gap=     0.352 Goal=   None    Shift=    0.000
 RMSDP=5.12D-06 MaxDP=7.51D-04 DE=-2.29D-06 OVMax= 4.72D-04

 Cycle   5  Pass 1  IDiag  1:
 RMSU=  3.30D-06    CP:  9.98D-01  1.28D+00  1.37D+00  1.44D+00
 E= -1611.41850313795     Delta-E=       -0.000000540718 Rises=F Damp=F
 DIIS: error= 2.91D-06 at cycle   5 NSaved=   5.
 NSaved= 5 IEnMin= 5 EnMin= -1611.41850313795     IErMin= 5 ErrMin= 2.91D-06
 ErrMax= 2.91D-06  0.00D+00 EMaxC= 1.00D-01 BMatC= 2.51D-08 BMatP= 8.22D-08
 IDIUse=1 WtCom= 1.00D+00 WtEn= 0.00D+00
 Coeff-Com:  0.645D-01-0.933D-01-0.292D+00 0.290D+00 0.103D+01
 Coeff:      0.645D-01-0.933D-01-0.292D+00 0.290D+00 0.103D+01
 Gap=     0.352 Goal=   None    Shift=    0.000
 RMSDP=2.90D-06 MaxDP=3.71D-04 DE=-5.41D-07 OVMax= 2.34D-04

 Cycle   6  Pass 1  IDiag  1:
 RMSU=  1.33D-06    CP:  9.98D-01  1.27D+00  1.41D+00  1.67D+00  1.51D+00
 E= -1611.41850326763     Delta-E=       -0.000000129678 Rises=F Damp=F
 DIIS: error= 1.23D-06 at cycle   6 NSaved=   6.
 NSaved= 6 IEnMin= 6 EnMin= -1611.41850326763     IErMin= 6 ErrMin= 1.23D-06
 ErrMax= 1.23D-06  0.00D+00 EMaxC= 1.00D-01 BMatC= 4.15D-09 BMatP= 2.51D-08
 IDIUse=1 WtCom= 1.00D+00 WtEn= 0.00D+00
 Coeff-Com: -0.308D-01 0.683D-01 0.136D+00-0.462D+00-0.182D+00 0.147D+01
 Coeff:     -0.308D-01 0.683D-01 0.136D+00-0.462D+00-0.182D+00 0.147D+01
 Gap=     0.352 Goal=   None    Shift=    0.000
 RMSDP=1.98D-06 MaxDP=3.04D-04 DE=-1.30D-07 OVMax= 1.64D-04

 Cycle   7  Pass 1  IDiag  1:
 RMSU=  6.52D-07    CP:  9.98D-01  1.28D+00  1.41D+00  1.79D+00  1.91D+00
                    CP:  1.63D+00
 E= -1611.41850329886     Delta-E=       -0.000000031237 Rises=F Damp=F
 DIIS: error= 2.69D-07 at cycle   7 NSaved=   7.
 NSaved= 7 IEnMin= 7 EnMin= -1611.41850329886     IErMin= 7 ErrMin= 2.69D-07
 ErrMax= 2.69D-07  0.00D+00 EMaxC= 1.00D-01 BMatC= 2.78D-10 BMatP= 4.15D-09
 IDIUse=1 WtCom= 1.00D+00 WtEn= 0.00D+00
 Coeff-Com: -0.333D-02 0.601D-02 0.114D-01-0.163D-02-0.760D-01 0.124D-01
 Coeff-Com:  0.105D+01
 Coeff:     -0.333D-02 0.601D-02 0.114D-01-0.163D-02-0.760D-01 0.124D-01
 Coeff:      0.105D+01
 Gap=     0.352 Goal=   None    Shift=    0.000
 RMSDP=3.06D-07 MaxDP=2.44D-05 DE=-3.12D-08 OVMax= 1.98D-05

 Cycle   8  Pass 1  IDiag  1:
 RMSU=  1.71D-07    CP:  9.98D-01  1.28D+00  1.41D+00  1.81D+00  1.92D+00
                    CP:  1.73D+00  1.21D+00
 E= -1611.41850329989     Delta-E=       -0.000000001029 Rises=F Damp=F
 DIIS: error= 9.89D-08 at cycle   8 NSaved=   8.
 NSaved= 8 IEnMin= 8 EnMin= -1611.41850329989     IErMin= 8 ErrMin= 9.89D-08
 ErrMax= 9.89D-08  0.00D+00 EMaxC= 1.00D-01 BMatC= 8.74D-11 BMatP= 2.78D-10
 IDIUse=1 WtCom= 1.00D+00 WtEn= 0.00D+00
 Coeff-Com:  0.549D-02-0.118D-01-0.275D-01 0.973D-01 0.803D-02-0.293D+00
 Coeff-Com:  0.275D+00 0.946D+00
 Coeff:      0.549D-02-0.118D-01-0.275D-01 0.973D-01 0.803D-02-0.293D+00
 Coeff:      0.275D+00 0.946D+00
 Gap=     0.352 Goal=   None    Shift=    0.000
 RMSDP=1.78D-07 MaxDP=2.06D-05 DE=-1.03D-09 OVMax= 1.10D-05

 Cycle   9  Pass 1  IDiag  1:
 RMSU=  7.42D-08    CP:  9.98D-01  1.28D+00  1.41D+00  1.83D+00  1.92D+00
                    CP:  1.78D+00  1.34D+00  1.14D+00
 E= -1611.41850330036     Delta-E=       -0.000000000464 Rises=F Damp=F
 DIIS: error= 5.37D-08 at cycle   9 NSaved=   9.
 NSaved= 9 IEnMin= 9 EnMin= -1611.41850330036     IErMin= 9 ErrMin= 5.37D-08
 ErrMax= 5.37D-08  0.00D+00 EMaxC= 1.00D-01 BMatC= 1.49D-11 BMatP= 8.74D-11
 IDIUse=1 WtCom= 1.00D+00 WtEn= 0.00D+00
 Coeff-Com:  0.149D-03 0.440D-03-0.138D-02-0.494D-02 0.722D-02 0.233D-01
 Coeff-Com: -0.193D+00-0.815D-01 0.125D+01
 Coeff:      0.149D-03 0.440D-03-0.138D-02-0.494D-02 0.722D-02 0.233D-01
 Coeff:     -0.193D+00-0.815D-01 0.125D+01
 Gap=     0.352 Goal=   None    Shift=    0.000
 RMSDP=7.07D-08 MaxDP=7.39D-06 DE=-4.64D-10 OVMax= 5.10D-06

 Cycle  10  Pass 1  IDiag  1:
 RMSU=  3.33D-08    CP:  9.98D-01  1.28D+00  1.41D+00  1.83D+00  1.93D+00
                    CP:  1.80D+00  1.36D+00  1.30D+00  1.35D+00
 E= -1611.41850330032     Delta-E=        0.000000000034 Rises=F Damp=F
 DIIS: error= 2.30D-08 at cycle  10 NSaved=  10.
 NSaved=10 IEnMin= 9 EnMin= -1611.41850330036     IErMin=10 ErrMin= 2.30D-08
 ErrMax= 2.30D-08  0.00D+00 EMaxC= 1.00D-01 BMatC= 2.77D-12 BMatP= 1.49D-11
 IDIUse=1 WtCom= 1.00D+00 WtEn= 0.00D+00
 Coeff-Com: -0.129D-02 0.310D-02 0.603D-02-0.233D-01-0.135D-02 0.771D-01
 Coeff-Com: -0.969D-01-0.239D+00 0.192D+00 0.108D+01
 Coeff:     -0.129D-02 0.310D-02 0.603D-02-0.233D-01-0.135D-02 0.771D-01
 Coeff:     -0.969D-01-0.239D+00 0.192D+00 0.108D+01
 Gap=     0.352 Goal=   None    Shift=    0.000
 RMSDP=2.59D-08 MaxDP=3.37D-06 DE= 3.37D-11 OVMax= 2.44D-06

 Cycle  11  Pass 1  IDiag  1:
 RMSU=  1.30D-08    CP:  9.98D-01  1.28D+00  1.41D+00  1.83D+00  1.93D+00
                    CP:  1.80D+00  1.36D+00  1.34D+00  1.51D+00  1.41D+00
 E= -1611.41850330023     Delta-E=        0.000000000095 Rises=F Damp=F
 DIIS: error= 9.34D-09 at cycle  11 NSaved=  11.
 NSaved=11 IEnMin= 9 EnMin= -1611.41850330036     IErMin=11 ErrMin= 9.34D-09
 ErrMax= 9.34D-09  0.00D+00 EMaxC= 1.00D-01 BMatC= 3.49D-13 BMatP= 2.77D-12
 IDIUse=1 WtCom= 1.00D+00 WtEn= 0.00D+00
 Coeff-Com:  0.167D-04-0.145D-03 0.106D-04 0.144D-02-0.125D-02-0.557D-02
 Coeff-Com:  0.330D-01 0.197D-01-0.211D+00 0.182D-01 0.115D+01
 Coeff:      0.167D-04-0.145D-03 0.106D-04 0.144D-02-0.125D-02-0.557D-02
 Coeff:      0.330D-01 0.197D-01-0.211D+00 0.182D-01 0.115D+01
 Gap=     0.352 Goal=   None    Shift=    0.000
 RMSDP=1.29D-08 MaxDP=1.22D-06 DE= 9.55D-11 OVMax= 8.56D-07

 Cycle  12  Pass 1  IDiag  1:
 RMSU=  8.81D-09    CP:  9.98D-01  1.28D+00  1.41D+00  1.83D+00  1.93D+00
                    CP:  1.80D+00  1.36D+00  1.33D+00  1.53D+00  1.57D+00
                    CP:  1.32D+00
 E= -1611.41850330038     Delta-E=       -0.000000000154 Rises=F Damp=F
 DIIS: error= 4.59D-09 at cycle  12 NSaved=  12.
 NSaved=12 IEnMin=12 EnMin= -1611.41850330038     IErMin=12 ErrMin= 4.59D-09
 ErrMax= 4.59D-09  0.00D+00 EMaxC= 1.00D-01 BMatC= 5.22D-14 BMatP= 3.49D-13
 IDIUse=1 WtCom= 1.00D+00 WtEn= 0.00D+00
 Coeff-Com:  0.194D-03-0.490D-03-0.869D-03 0.355D-02-0.568D-05-0.121D-01
 Coeff-Com:  0.184D-01 0.365D-01-0.530D-01-0.146D+00 0.705D-01 0.108D+01
 Coeff:      0.194D-03-0.490D-03-0.869D-03 0.355D-02-0.568D-05-0.121D-01
 Coeff:      0.184D-01 0.365D-01-0.530D-01-0.146D+00 0.705D-01 0.108D+01
 Gap=     0.352 Goal=   None    Shift=    0.000
 RMSDP=1.36D-08 MaxDP=1.44D-06 DE=-1.54D-10 OVMax= 3.55D-07

 Cycle  13  Pass 1  IDiag  1:
 RMSU=  1.11D-08    CP:  9.98D-01  1.28D+00  1.41D+00  1.83D+00  1.93D+00
                    CP:  1.80D+00  1.36D+00  1.34D+00  1.52D+00  1.62D+00
                    CP:  1.59D+00  1.56D+00
 E= -1611.41850330053     Delta-E=       -0.000000000151 Rises=F Damp=F
 DIIS: error= 1.44D-09 at cycle  13 NSaved=  13.
 NSaved=13 IEnMin=13 EnMin= -1611.41850330053     IErMin=13 ErrMin= 1.44D-09
 ErrMax= 1.44D-09  0.00D+00 EMaxC= 1.00D-01 BMatC= 9.76D-15 BMatP= 5.22D-14
 IDIUse=1 WtCom= 1.00D+00 WtEn= 0.00D+00
 Coeff-Com:  0.159D-04-0.349D-04-0.583D-04 0.148D-03 0.173D-03-0.306D-03
 Coeff-Com: -0.221D-02-0.479D-03 0.232D-01-0.949D-02-0.163D+00 0.107D+00
 Coeff-Com:  0.105D+01
 Coeff:      0.159D-04-0.349D-04-0.583D-04 0.148D-03 0.173D-03-0.306D-03
 Coeff:     -0.221D-02-0.479D-03 0.232D-01-0.949D-02-0.163D+00 0.107D+00
 Coeff:      0.105D+01
 Gap=     0.352 Goal=   None    Shift=    0.000
 RMSDP=1.35D-08 MaxDP=2.23D-06 DE=-1.51D-10 OVMax= 1.26D-07

 Cycle  14  Pass 1  IDiag  1:
 RMSU=  9.31D-09    CP:  9.98D-01  1.28D+00  1.41D+00  1.83D+00  1.93D+00
                    CP:  1.80D+00  1.36D+00  1.34D+00  1.52D+00  1.62D+00
                    CP:  1.71D+00  2.41D+00  1.52D+00
 E= -1611.41850330030     Delta-E=        0.000000000234 Rises=F Damp=F
 DIIS: error= 1.75D-09 at cycle  14 NSaved=  14.
 NSaved=14 IEnMin=13 EnMin= -1611.41850330053     IErMin=13 ErrMin= 1.44D-09
 ErrMax= 1.75D-09  0.00D+00 EMaxC= 1.00D-01 BMatC= 3.21D-15 BMatP= 9.76D-15
 IDIUse=1 WtCom= 1.00D+00 WtEn= 0.00D+00
 Coeff-Com: -0.254D-04 0.599D-04 0.129D-03-0.492D-03 0.706D-05 0.166D-02
 Coeff-Com: -0.260D-02-0.589D-02 0.104D-01 0.221D-01-0.362D-01-0.145D+00
 Coeff-Com:  0.172D+00 0.984D+00
 Coeff:     -0.254D-04 0.599D-04 0.129D-03-0.492D-03 0.706D-05 0.166D-02
 Coeff:     -0.260D-02-0.589D-02 0.104D-01 0.221D-01-0.362D-01-0.145D+00
 Coeff:      0.172D+00 0.984D+00
 Gap=     0.352 Goal=   None    Shift=    0.000
 RMSDP=2.54D-08 MaxDP=2.73D-06 DE= 2.34D-10 OVMax= 4.50D-08

 Cycle  15  Pass 1  IDiag  1:
 RMSU=  1.09D-08    CP:  9.98D-01  1.28D+00  1.41D+00  1.83D+00  1.93D+00
                    CP:  1.81D+00  1.37D+00  1.34D+00  1.51D+00  1.68D+00
                    CP:  2.01D+00  3.00D+00  3.00D+00  1.66D+00
 E= -1611.41850330037     Delta-E=       -0.000000000071 Rises=F Damp=F
 DIIS: error= 2.57D-09 at cycle  15 NSaved=  15.
 NSaved=15 IEnMin=13 EnMin= -1611.41850330053     IErMin=13 ErrMin= 1.44D-09
 ErrMax= 2.57D-09  0.00D+00 EMaxC= 1.00D-01 BMatC= 3.70D-15 BMatP= 3.21D-15
 IDIUse=1 WtCom= 1.00D+00 WtEn= 0.00D+00
 Coeff-Com: -0.234D-04 0.549D-04 0.119D-03-0.452D-03 0.470D-05 0.153D-02
 Coeff-Com: -0.236D-02-0.543D-02 0.941D-02 0.204D-01-0.323D-01-0.134D+00
 Coeff-Com:  0.152D+00 0.903D+00 0.877D-01
 Coeff:     -0.234D-04 0.549D-04 0.119D-03-0.452D-03 0.470D-05 0.153D-02
 Coeff:     -0.236D-02-0.543D-02 0.941D-02 0.204D-01-0.323D-01-0.134D+00
 Coeff:      0.152D+00 0.903D+00 0.877D-01
 Gap=     0.352 Goal=   None    Shift=    0.000
 RMSDP=2.37D-09 MaxDP=3.21D-07 DE=-7.09D-11 OVMax= 1.40D-09

 Error on total polarization charges =  0.02379
 SCF Done:  E(RHF) =  -1611.41850330     A.U. after   15 cycles
            NFock= 15  Conv=0.24D-08     -V/T= 2.0003
 KE= 1.610941256542D+03 PE=-1.310298002826D+04 EE= 5.206662093022D+03
 Leave Link  502 at Tue Nov  9 16:54:48 2021, MaxMem=  7864320000 cpu:           60322.9 elap:            1902.8
 (Enter /apps/gaussian/g16-c01-avx/g16/l508.exe)
 QCSCF skips out because SCF is already converged.
 Leave Link  508 at Tue Nov  9 16:54:48 2021, MaxMem=  7864320000 cpu:               0.1 elap:               0.0
 (Enter /apps/gaussian/g16-c01-avx/g16/l801.exe)
 ExpMin= 2.97D-02 ExpMax= 9.05D+03 ExpMxC= 3.09D+02 IAcc=3 IRadAn=         7 AccDes= 0.00D+00
 HarFok:  IExCor=  205 AccDes= 0.00D+00 IRadAn=         7 IDoV=-2 UseB2=F ITyADJ=14
 ICtDFT= 12500011 ScaDFX=  1.000000  1.000000  1.000000  1.000000
 GSVD:  LWork=       -1833 too small for GESVD, short by        8190 words or        8190 for optimal perf.
 Largest valence mixing into a core orbital is  1.14D-04
 Largest core mixing into a valence orbital is  4.32D-05
 Range of M.O.s used for correlation:    40  1429
 NBasis=  1437 NAE=   150 NBE=   150 NFC=    39 NFV=     0
 NROrb=   1390 NOA=   111 NOB=   111 NVA=  1279 NVB=  1279

 **** Warning!!: The largest alpha MO coefficient is  0.16132604D+03

 Leave Link  801 at Tue Nov  9 16:54:49 2021, MaxMem=  7864320000 cpu:              16.9 elap:               0.6
 (Enter /apps/gaussian/g16-c01-avx/g16/l906.exe)
 FulOut=F Deriv=F AODrv=F NAtomX=    99
   MMem=           1  MDisk=         111 MDiskD=         111
  W3Min=   215083035 MinDsk=   201138521 NBas6D=        1515
 NBas2D=     1150251    NTT=     1148370    LW2=     2000000
    MDV=  7852851207 MDiskM=       71973 NBas2p=      813938
 Disk-based method using OVN memory for111 occupieds at a time.
 Estimated scratch disk usage=354517905138 words.
 IMap=   1   2   3   4   5   6   7   8   9  10  11  12  13  14  15  16  17  18  19  20
 IMap=  21  22  23  24  25  26  27  28  29  30  31  32  33  34  35  36  37  38  39  40
 IMap=  41  42  43  44  45  46  47  48  49  50  51  52  53  54  55  56  57  58  59  60
 IMap=  61  62  63  64  65  66  67  68  69  70  71  72  73  74  75  76  77  78  79  80
 IMap=  81  82  83  84  85  86  87  88  89  90  91  92  93  94  95  96  97  98  99 100
 IMap= 101 102 103 104 105 106 107 108 109 110 111
 Actual    scratch disk usage=346677225346 words.
 JobTyp=1 Pass  1:  I=   1 to 111 NPSUse= 32 ParTrn=T ParDer=T DoDerP=F.
 Spin components of T(2) and E(2):
     alpha-alpha T2 =       0.2715388784D+00 E2=     -0.7442058034D+00
     alpha-beta  T2 =       0.1507642281D+01 E2=     -0.4434329499D+01
     beta-beta   T2 =       0.2715388784D+00 E2=     -0.7442058034D+00
 The integrals were generated   1 times.
 ANorm=    0.1746631054D+01
 E2 =    -0.5922741106D+01 EUMP2 =    -0.16173412444065D+04
 Leave Link  906 at Wed Nov 10 01:50:00 2021, MaxMem=  7864320000 cpu:         1003609.1 elap:           32110.6
 (Enter /apps/gaussian/g16-c01-avx/g16/l601.exe)
 Copying SCF densities to generalized density rwf, IOpCl= 0 IROHF=0.

 **********************************************************************

            Population analysis using the SCF Density.

 **********************************************************************

 Orbital symmetries:
       Occupied  (A) (A) (A) (A) (A) (A) (A) (A) (A) (A) (A) (A)
                 (A) (A) (A) (A) (A) (A) (A) (A) (A) (A) (A) (A)
                 (A) (A) (A) (A) (A) (A) (A) (A) (A) (A) (A) (A)
                 (A) (A) (A) (A) (A) (A) (A) (A) (A) (A) (A) (A)
                 (A) (A) (A) (A) (A) (A) (A) (A) (A) (A) (A) (A)
                 (A) (A) (A) (A) (A) (A) (A) (A) (A) (A) (A) (A)
                 (A) (A) (A) (A) (A) (A) (A) (A) (A) (A) (A) (A)
                 (A) (A) (A) (A) (A) (A) (A) (A) (A) (A) (A) (A)
                 (A) (A) (A) (A) (A) (A) (A) (A) (A) (A) (A) (A)
                 (A) (A) (A) (A) (A) (A) (A) (A) (A) (A) (A) (A)
                 (A) (A) (A) (A) (A) (A) (A) (A) (A) (A) (A) (A)
                 (A) (A) (A) (A) (A) (A) (A) (A) (A) (A) (A) (A)
                 (A) (A) (A) (A) (A) (A)
       Virtual   (A) (A) (A) (A) (A) (A) (A) (A) (A) (A) (A) (A)
                 (A) (A) (A) (A) (A) (A) (A) (A) (A) (A) (A) (A)
                 (A) (A) (A) (A) (A) (A) (A) (A) (A) (A) (A) (A)
                 (A) (A) (A) (A) (A) (A) (A) (A) (A) (A) (A) (A)
                 (A) (A) (A) (A) (A) (A) (A) (A) (A) (A) (A) (A)
                 (A) (A) (A) (A) (A) (A) (A) (A) (A) (A) (A) (A)
                 (A) (A) (A) (A) (A) (A) (A) (A) (A) (A) (A) (A)
                 (A) (A) (A) (A) (A) (A) (A) (A) (A) (A) (A) (A)
                 (A) (A) (A) (A) (A) (A) (A) (A) (A) (A) (A) (A)
                 (A) (A) (A) (A) (A) (A) (A) (A) (A) (A) (A) (A)
                 (A) (A) (A) (A) (A) (A) (A) (A) (A) (A) (A) (A)
                 (A) (A) (A) (A) (A) (A) (A) (A) (A) (A) (A) (A)
                 (A) (A) (A) (A) (A) (A) (A) (A) (A) (A) (A) (A)
                 (A) (A) (A) (A) (A) (A) (A) (A) (A) (A) (A) (A)
                 (A) (A) (A) (A) (A) (A) (A) (A) (A) (A) (A) (A)
                 (A) (A) (A) (A) (A) (A) (A) (A) (A) (A) (A) (A)
                 (A) (A) (A) (A) (A) (A) (A) (A) (A) (A) (A) (A)
                 (A) (A) (A) (A) (A) (A) (A) (A) (A) (A) (A) (A)
                 (A) (A) (A) (A) (A) (A) (A) (A) (A) (A) (A) (A)
                 (A) (A) (A) (A) (A) (A) (A) (A) (A) (A) (A) (A)
                 (A) (A) (A) (A) (A) (A) (A) (A) (A) (A) (A) (A)
                 (A) (A) (A) (A) (A) (A) (A) (A) (A) (A) (A) (A)
                 (A) (A) (A) (A) (A) (A) (A) (A) (A) (A) (A) (A)
                 (A) (A) (A) (A) (A) (A) (A) (A) (A) (A) (A) (A)
                 (A) (A) (A) (A) (A) (A) (A) (A) (A) (A) (A) (A)
                 (A) (A) (A) (A) (A) (A) (A) (A) (A) (A) (A) (A)
                 (A) (A) (A) (A) (A) (A) (A) (A) (A) (A) (A) (A)
                 (A) (A) (A) (A) (A) (A) (A) (A) (A) (A) (A) (A)
                 (A) (A) (A) (A) (A) (A) (A) (A) (A) (A) (A) (A)
                 (A) (A) (A) (A) (A) (A) (A) (A) (A) (A) (A) (A)
                 (A) (A) (A) (A) (A) (A) (A) (A) (A) (A) (A) (A)
                 (A) (A) (A) (A) (A) (A) (A) (A) (A) (A) (A) (A)
                 (A) (A) (A) (A) (A) (A) (A) (A) (A) (A) (A) (A)
                 (A) (A) (A) (A) (A) (A) (A) (A) (A) (A) (A) (A)
                 (A) (A) (A) (A) (A) (A) (A) (A) (A) (A) (A) (A)
                 (A) (A) (A) (A) (A) (A) (A) (A) (A) (A) (A) (A)
                 (A) (A) (A) (A) (A) (A) (A) (A) (A) (A) (A) (A)
                 (A) (A) (A) (A) (A) (A) (A) (A) (A) (A) (A) (A)
                 (A) (A) (A) (A) (A) (A) (A) (A) (A) (A) (A) (A)
                 (A) (A) (A) (A) (A) (A) (A) (A) (A) (A) (A) (A)
                 (A) (A) (A) (A) (A) (A) (A) (A) (A) (A) (A) (A)
                 (A) (A) (A) (A) (A) (A) (A) (A) (A) (A) (A) (A)
                 (A) (A) (A) (A) (A) (A) (A) (A) (A) (A) (A) (A)
                 (A) (A) (A) (A) (A) (A) (A) (A) (A) (A) (A) (A)
                 (A) (A) (A) (A) (A) (A) (A) (A) (A) (A) (A) (A)
                 (A) (A) (A) (A) (A) (A) (A) (A) (A) (A) (A) (A)
                 (A) (A) (A) (A) (A) (A) (A) (A) (A) (A) (A) (A)
                 (A) (A) (A) (A) (A) (A) (A) (A) (A) (A) (A) (A)
                 (A) (A) (A) (A) (A) (A) (A) (A) (A) (A) (A) (A)
                 (A) (A) (A) (A) (A) (A) (A) (A) (A) (A) (A) (A)
                 (A) (A) (A) (A) (A) (A) (A) (A) (A) (A) (A) (A)
                 (A) (A) (A) (A) (A) (A) (A) (A) (A) (A) (A) (A)
                 (A) (A) (A) (A) (A) (A) (A) (A) (A) (A) (A) (A)
                 (A) (A) (A) (A) (A) (A) (A) (A) (A) (A) (A) (A)
                 (A) (A) (A) (A) (A) (A) (A) (A) (A) (A) (A) (A)
                 (A) (A) (A) (A) (A) (A) (A) (A) (A) (A) (A) (A)
                 (A) (A) (A) (A) (A) (A) (A) (A) (A) (A) (A) (A)
                 (A) (A) (A) (A) (A) (A) (A) (A) (A) (A) (A) (A)
                 (A) (A) (A) (A) (A) (A) (A) (A) (A) (A) (A) (A)
                 (A) (A) (A) (A) (A) (A) (A) (A) (A) (A) (A) (A)
                 (A) (A) (A) (A) (A) (A) (A) (A) (A) (A) (A) (A)
                 (A) (A) (A) (A) (A) (A) (A) (A) (A) (A) (A) (A)
                 (A) (A) (A) (A) (A) (A) (A) (A) (A) (A) (A) (A)
                 (A) (A) (A) (A) (A) (A) (A) (A) (A) (A) (A) (A)
                 (A) (A) (A) (A) (A) (A) (A) (A) (A) (A) (A) (A)
                 (A) (A) (A) (A) (A) (A) (A) (A) (A) (A) (A) (A)
                 (A) (A) (A) (A) (A) (A) (A) (A) (A) (A) (A) (A)
                 (A) (A) (A) (A) (A) (A) (A) (A) (A) (A) (A) (A)
                 (A) (A) (A) (A) (A) (A) (A) (A) (A) (A) (A) (A)
                 (A) (A) (A) (A) (A) (A) (A) (A) (A) (A) (A) (A)
                 (A) (A) (A) (A) (A) (A) (A) (A) (A) (A) (A) (A)
                 (A) (A) (A) (A) (A) (A) (A) (A) (A) (A) (A) (A)
                 (A) (A) (A) (A) (A) (A) (A) (A) (A) (A) (A) (A)
                 (A) (A) (A) (A) (A) (A) (A) (A) (A) (A) (A) (A)
                 (A) (A) (A) (A) (A) (A) (A) (A) (A) (A) (A) (A)
                 (A) (A) (A) (A) (A) (A) (A) (A) (A) (A) (A) (A)
                 (A) (A) (A) (A) (A) (A) (A) (A) (A) (A) (A) (A)
                 (A) (A) (A) (A) (A) (A) (A) (A) (A) (A) (A) (A)
                 (A) (A) (A) (A) (A) (A) (A) (A) (A) (A) (A) (A)
                 (A) (A) (A) (A) (A) (A) (A) (A) (A) (A) (A) (A)
                 (A) (A) (A) (A) (A) (A) (A) (A) (A) (A) (A) (A)
                 (A) (A) (A) (A) (A) (A) (A) (A) (A) (A) (A) (A)
                 (A) (A) (A) (A) (A) (A) (A) (A) (A) (A) (A) (A)
                 (A) (A) (A) (A) (A) (A) (A) (A) (A) (A) (A) (A)
                 (A) (A) (A) (A) (A) (A) (A) (A) (A) (A) (A) (A)
                 (A) (A) (A) (A) (A) (A) (A) (A) (A) (A) (A) (A)
                 (A) (A) (A) (A) (A) (A) (A) (A) (A) (A) (A) (A)
                 (A) (A) (A) (A) (A) (A) (A) (A) (A) (A) (A) (A)
                 (A) (A) (A) (A) (A) (A) (A) (A) (A) (A) (A) (A)
                 (A) (A) (A) (A) (A) (A) (A) (A) (A) (A) (A) (A)
                 (A) (A) (A) (A) (A) (A) (A) (A) (A) (A) (A) (A)
                 (A) (A) (A) (A) (A) (A) (A) (A) (A) (A) (A) (A)
                 (A) (A) (A) (A) (A) (A) (A) (A) (A) (A) (A) (A)
                 (A) (A) (A) (A) (A) (A) (A) (A) (A) (A) (A) (A)
                 (A) (A) (A) (A) (A) (A) (A) (A) (A) (A) (A) (A)
                 (A) (A) (A) (A) (A) (A) (A) (A) (A) (A) (A) (A)
                 (A) (A) (A) (A) (A) (A) (A) (A) (A) (A) (A) (A)
                 (A) (A) (A) (A) (A) (A) (A) (A) (A) (A) (A) (A)
                 (A) (A) (A) (A) (A) (A) (A) (A) (A) (A) (A) (A)
                 (A) (A) (A) (A) (A) (A) (A) (A) (A) (A) (A) (A)
                 (A) (A) (A) (A) (A) (A) (A) (A) (A) (A) (A) (A)
                 (A) (A) (A) (A) (A) (A) (A) (A) (A) (A) (A) (A)
                 (A) (A) (A) (A) (A) (A) (A) (A) (A) (A) (A) (A)
                 (A) (A) (A) (A) (A) (A) (A) (A) (A) (A) (A) (A)
                 (A) (A) (A) (A) (A) (A) (A) (A) (A) (A) (A) (A)
                 (A) (A) (A) (A) (A) (A) (A) (A) (A) (A) (A) (A)
                 (A) (A) (A) (A) (A) (A) (A)
 The electronic state is 1-A.
 Alpha  occ. eigenvalues --  -15.56210 -15.55933 -15.55753 -15.54238 -15.54018
 Alpha  occ. eigenvalues --  -15.53338 -11.28626 -11.28603 -11.28522 -11.25360
 Alpha  occ. eigenvalues --  -11.25273 -11.25272 -11.25213 -11.25130 -11.25095
 Alpha  occ. eigenvalues --  -11.25015 -11.25005 -11.24991 -11.24941 -11.24882
 Alpha  occ. eigenvalues --  -11.24722 -11.22621 -11.22586 -11.22559 -11.22523
 Alpha  occ. eigenvalues --  -11.22304 -11.22213 -11.21456 -11.21253 -11.21133
 Alpha  occ. eigenvalues --  -11.21021 -11.20998 -11.20986 -11.20915 -11.20888
 Alpha  occ. eigenvalues --  -11.20738 -11.20588 -11.20528 -11.20262  -1.25796
 Alpha  occ. eigenvalues --   -1.25475  -1.25365  -1.18933  -1.18431  -1.18199
 Alpha  occ. eigenvalues --   -1.16605  -1.08949  -1.08727  -1.07904  -1.06137
 Alpha  occ. eigenvalues --   -1.06067  -1.05842  -1.04562  -1.04550  -0.96873
 Alpha  occ. eigenvalues --   -0.96462  -0.95844  -0.92974  -0.92790  -0.92775
 Alpha  occ. eigenvalues --   -0.92553  -0.92513  -0.92146  -0.89065  -0.88883
 Alpha  occ. eigenvalues --   -0.87577  -0.85064  -0.84311  -0.82648  -0.79161
 Alpha  occ. eigenvalues --   -0.78605  -0.76586  -0.76305  -0.75356  -0.74388
 Alpha  occ. eigenvalues --   -0.73445  -0.72209  -0.69479  -0.68703  -0.68313
 Alpha  occ. eigenvalues --   -0.67811  -0.67050  -0.66792  -0.66088  -0.66039
 Alpha  occ. eigenvalues --   -0.63778  -0.63558  -0.63100  -0.62798  -0.61949
 Alpha  occ. eigenvalues --   -0.61228  -0.60508  -0.59998  -0.59805  -0.59204
 Alpha  occ. eigenvalues --   -0.59110  -0.58629  -0.57999  -0.57920  -0.57659
 Alpha  occ. eigenvalues --   -0.57305  -0.56955  -0.56757  -0.56715  -0.56252
 Alpha  occ. eigenvalues --   -0.54457  -0.54385  -0.54302  -0.53999  -0.53576
 Alpha  occ. eigenvalues --   -0.53433  -0.53258  -0.53134  -0.52660  -0.52605
 Alpha  occ. eigenvalues --   -0.52572  -0.52215  -0.52118  -0.51343  -0.51121
 Alpha  occ. eigenvalues --   -0.50483  -0.48809  -0.48567  -0.47930  -0.47787
 Alpha  occ. eigenvalues --   -0.47509  -0.47270  -0.47133  -0.47047  -0.46832
 Alpha  occ. eigenvalues --   -0.46753  -0.46545  -0.46243  -0.46149  -0.45813
 Alpha  occ. eigenvalues --   -0.45637  -0.44995  -0.44529  -0.43951  -0.42958
 Alpha  occ. eigenvalues --   -0.42216  -0.40662  -0.40400  -0.40012  -0.39303
 Alpha  occ. eigenvalues --   -0.38258  -0.37946  -0.37007  -0.33156  -0.32170
 Alpha virt. eigenvalues --    0.03057   0.03413   0.03498   0.03659   0.04049
 Alpha virt. eigenvalues --    0.04115   0.04400   0.04501   0.04668   0.05115
 Alpha virt. eigenvalues --    0.05208   0.05335   0.05636   0.05713   0.05864
 Alpha virt. eigenvalues --    0.06120   0.06415   0.06422   0.06675   0.06730
 Alpha virt. eigenvalues --    0.06839   0.07010   0.07417   0.07654   0.07776
 Alpha virt. eigenvalues --    0.07848   0.07977   0.08119   0.08264   0.08520
 Alpha virt. eigenvalues --    0.08570   0.08756   0.08891   0.08980   0.09519
 Alpha virt. eigenvalues --    0.09576   0.09934   0.10001   0.10257   0.10305
 Alpha virt. eigenvalues --    0.10348   0.10784   0.10907   0.11080   0.11287
 Alpha virt. eigenvalues --    0.11454   0.11586   0.11851   0.12051   0.12239
 Alpha virt. eigenvalues --    0.12343   0.12695   0.12788   0.12891   0.13240
 Alpha virt. eigenvalues --    0.13435   0.13586   0.13741   0.13966   0.14094
 Alpha virt. eigenvalues --    0.14395   0.14544   0.14732   0.14840   0.14892
 Alpha virt. eigenvalues --    0.15011   0.15136   0.15406   0.15454   0.15829
 Alpha virt. eigenvalues --    0.16017   0.16104   0.16172   0.16462   0.16662
 Alpha virt. eigenvalues --    0.16745   0.16850   0.16976   0.17027   0.17228
 Alpha virt. eigenvalues --    0.17439   0.17473   0.17698   0.17719   0.17983
 Alpha virt. eigenvalues --    0.18110   0.18212   0.18297   0.18657   0.18755
 Alpha virt. eigenvalues --    0.18810   0.19166   0.19212   0.19250   0.19426
 Alpha virt. eigenvalues --    0.19619   0.19746   0.19870   0.20007   0.20169
 Alpha virt. eigenvalues --    0.20192   0.20550   0.20609   0.20801   0.20906
 Alpha virt. eigenvalues --    0.21047   0.21171   0.21290   0.21420   0.21583
 Alpha virt. eigenvalues --    0.21617   0.21775   0.22009   0.22232   0.22412
 Alpha virt. eigenvalues --    0.22490   0.22599   0.22783   0.22862   0.22972
 Alpha virt. eigenvalues --    0.23125   0.23283   0.23425   0.23599   0.23661
 Alpha virt. eigenvalues --    0.23886   0.23902   0.24067   0.24170   0.24314
 Alpha virt. eigenvalues --    0.24351   0.24589   0.24814   0.25000   0.25059
 Alpha virt. eigenvalues --    0.25302   0.25436   0.25708   0.25740   0.25827
 Alpha virt. eigenvalues --    0.25859   0.26090   0.26352   0.26419   0.26785
 Alpha virt. eigenvalues --    0.26945   0.27018   0.27352   0.27537   0.27632
 Alpha virt. eigenvalues --    0.27931   0.28050   0.28103   0.28447   0.28690
 Alpha virt. eigenvalues --    0.28799   0.28966   0.29108   0.29201   0.29206
 Alpha virt. eigenvalues --    0.29543   0.29874   0.30083   0.30341   0.30506
 Alpha virt. eigenvalues --    0.30615   0.30931   0.31120   0.31210   0.31283
 Alpha virt. eigenvalues --    0.31442   0.31680   0.31730   0.31847   0.32046
 Alpha virt. eigenvalues --    0.32227   0.32615   0.32844   0.33108   0.33214
 Alpha virt. eigenvalues --    0.33427   0.33520   0.33690   0.33756   0.34123
 Alpha virt. eigenvalues --    0.34334   0.34433   0.34648   0.34692   0.34830
 Alpha virt. eigenvalues --    0.34995   0.35051   0.35284   0.35511   0.35712
 Alpha virt. eigenvalues --    0.35827   0.36123   0.36243   0.36391   0.36630
 Alpha virt. eigenvalues --    0.36655   0.36760   0.37026   0.37145   0.37320
 Alpha virt. eigenvalues --    0.37486   0.37648   0.37789   0.38003   0.38161
 Alpha virt. eigenvalues --    0.38438   0.38491   0.38798   0.38976   0.39197
 Alpha virt. eigenvalues --    0.39278   0.39456   0.39624   0.39883   0.40036
 Alpha virt. eigenvalues --    0.40067   0.40180   0.40412   0.40440   0.40547
 Alpha virt. eigenvalues --    0.40679   0.40949   0.41032   0.41166   0.41413
 Alpha virt. eigenvalues --    0.41527   0.41686   0.41778   0.42110   0.42189
 Alpha virt. eigenvalues --    0.42265   0.42324   0.42415   0.42624   0.42915
 Alpha virt. eigenvalues --    0.43056   0.43312   0.43415   0.43772   0.43820
 Alpha virt. eigenvalues --    0.43983   0.44083   0.44151   0.44478   0.44545
 Alpha virt. eigenvalues --    0.44691   0.44844   0.44988   0.45194   0.45309
 Alpha virt. eigenvalues --    0.45382   0.45549   0.45759   0.45959   0.45989
 Alpha virt. eigenvalues --    0.46357   0.46533   0.46660   0.46755   0.46832
 Alpha virt. eigenvalues --    0.47103   0.47292   0.47425   0.47628   0.47920
 Alpha virt. eigenvalues --    0.48044   0.48292   0.48405   0.48476   0.48582
 Alpha virt. eigenvalues --    0.48728   0.48854   0.49090   0.49229   0.49357
 Alpha virt. eigenvalues --    0.49524   0.49653   0.49893   0.50105   0.50283
 Alpha virt. eigenvalues --    0.50335   0.50556   0.50633   0.50807   0.50946
 Alpha virt. eigenvalues --    0.51045   0.51267   0.51469   0.51585   0.51659
 Alpha virt. eigenvalues --    0.51897   0.52014   0.52197   0.52376   0.52408
 Alpha virt. eigenvalues --    0.52524   0.52830   0.52928   0.53039   0.53217
 Alpha virt. eigenvalues --    0.53276   0.53351   0.53618   0.53661   0.53742
 Alpha virt. eigenvalues --    0.54042   0.54165   0.54285   0.54450   0.54566
 Alpha virt. eigenvalues --    0.54754   0.55052   0.55127   0.55298   0.55501
 Alpha virt. eigenvalues --    0.55604   0.55750   0.56012   0.56068   0.56309
 Alpha virt. eigenvalues --    0.56372   0.56438   0.56622   0.56832   0.57040
 Alpha virt. eigenvalues --    0.57229   0.57358   0.57711   0.57837   0.57933
 Alpha virt. eigenvalues --    0.57992   0.58230   0.58524   0.58578   0.58842
 Alpha virt. eigenvalues --    0.58962   0.59059   0.59427   0.59573   0.59858
 Alpha virt. eigenvalues --    0.60032   0.60268   0.60386   0.60652   0.60796
 Alpha virt. eigenvalues --    0.60885   0.60972   0.61252   0.61300   0.61494
 Alpha virt. eigenvalues --    0.61972   0.62016   0.62132   0.62316   0.62410
 Alpha virt. eigenvalues --    0.62728   0.62826   0.62898   0.63195   0.63362
 Alpha virt. eigenvalues --    0.63546   0.63733   0.63842   0.64022   0.64293
 Alpha virt. eigenvalues --    0.64583   0.64650   0.64893   0.65115   0.65295
 Alpha virt. eigenvalues --    0.65433   0.65592   0.65761   0.66080   0.66198
 Alpha virt. eigenvalues --    0.66261   0.66299   0.66524   0.66529   0.66738
 Alpha virt. eigenvalues --    0.66813   0.66985   0.67211   0.67332   0.67717
 Alpha virt. eigenvalues --    0.67850   0.67969   0.68095   0.68145   0.68430
 Alpha virt. eigenvalues --    0.68461   0.68528   0.68828   0.68871   0.69105
 Alpha virt. eigenvalues --    0.69353   0.69516   0.69858   0.69887   0.70052
 Alpha virt. eigenvalues --    0.70228   0.70461   0.70526   0.70882   0.70994
 Alpha virt. eigenvalues --    0.71206   0.71350   0.71541   0.71839   0.71872
 Alpha virt. eigenvalues --    0.71984   0.72076   0.72304   0.72463   0.72724
 Alpha virt. eigenvalues --    0.72796   0.72880   0.73170   0.73281   0.73560
 Alpha virt. eigenvalues --    0.73634   0.73871   0.74012   0.74276   0.74378
 Alpha virt. eigenvalues --    0.74450   0.74621   0.74739   0.75068   0.75223
 Alpha virt. eigenvalues --    0.75455   0.75566   0.75712   0.75721   0.76055
 Alpha virt. eigenvalues --    0.76168   0.76252   0.76608   0.76699   0.76898
 Alpha virt. eigenvalues --    0.76993   0.77201   0.77255   0.77355   0.77500
 Alpha virt. eigenvalues --    0.77930   0.77971   0.78073   0.78238   0.78471
 Alpha virt. eigenvalues --    0.78620   0.78802   0.78860   0.79198   0.79396
 Alpha virt. eigenvalues --    0.79465   0.79588   0.79780   0.79841   0.80291
 Alpha virt. eigenvalues --    0.80417   0.80457   0.80623   0.80853   0.80937
 Alpha virt. eigenvalues --    0.81020   0.81231   0.81320   0.81684   0.81707
 Alpha virt. eigenvalues --    0.82047   0.82166   0.82467   0.82659   0.82779
 Alpha virt. eigenvalues --    0.82830   0.83049   0.83140   0.83518   0.83605
 Alpha virt. eigenvalues --    0.83811   0.83828   0.84224   0.84343   0.84486
 Alpha virt. eigenvalues --    0.84691   0.84816   0.84961   0.85280   0.85402
 Alpha virt. eigenvalues --    0.85574   0.85755   0.85916   0.86028   0.86240
 Alpha virt. eigenvalues --    0.86465   0.86555   0.86729   0.86844   0.87054
 Alpha virt. eigenvalues --    0.87100   0.87246   0.87480   0.87746   0.87810
 Alpha virt. eigenvalues --    0.88115   0.88279   0.88471   0.88732   0.88763
 Alpha virt. eigenvalues --    0.89030   0.89257   0.89436   0.89525   0.89621
 Alpha virt. eigenvalues --    0.89905   0.90064   0.90239   0.90461   0.90585
 Alpha virt. eigenvalues --    0.90848   0.91098   0.91203   0.91473   0.91740
 Alpha virt. eigenvalues --    0.91797   0.91963   0.92183   0.92597   0.92799
 Alpha virt. eigenvalues --    0.92831   0.92958   0.93260   0.93551   0.93824
 Alpha virt. eigenvalues --    0.93908   0.94205   0.94245   0.94554   0.94605
 Alpha virt. eigenvalues --    0.94843   0.94941   0.95082   0.95396   0.95588
 Alpha virt. eigenvalues --    0.95649   0.95790   0.96160   0.96389   0.96539
 Alpha virt. eigenvalues --    0.96739   0.96814   0.97038   0.97141   0.97312
 Alpha virt. eigenvalues --    0.97632   0.97848   0.97872   0.98139   0.98441
 Alpha virt. eigenvalues --    0.98717   0.98863   0.98937   0.99109   0.99294
 Alpha virt. eigenvalues --    0.99600   0.99869   1.00045   1.00277   1.00546
 Alpha virt. eigenvalues --    1.00842   1.01120   1.01214   1.01338   1.01532
 Alpha virt. eigenvalues --    1.01704   1.01853   1.02028   1.02314   1.02609
 Alpha virt. eigenvalues --    1.02935   1.02978   1.03255   1.03530   1.03763
 Alpha virt. eigenvalues --    1.03936   1.04164   1.04270   1.04564   1.04990
 Alpha virt. eigenvalues --    1.05330   1.05355   1.05499   1.05824   1.06192
 Alpha virt. eigenvalues --    1.06272   1.06593   1.06727   1.06943   1.07176
 Alpha virt. eigenvalues --    1.07456   1.07705   1.08097   1.08385   1.08788
 Alpha virt. eigenvalues --    1.08894   1.09319   1.09366   1.09635   1.09847
 Alpha virt. eigenvalues --    1.10320   1.10365   1.10497   1.10667   1.10915
 Alpha virt. eigenvalues --    1.11055   1.11471   1.11728   1.11861   1.12239
 Alpha virt. eigenvalues --    1.12310   1.12821   1.13458   1.13866   1.13993
 Alpha virt. eigenvalues --    1.14143   1.14436   1.14590   1.15212   1.15488
 Alpha virt. eigenvalues --    1.15657   1.15786   1.16131   1.16211   1.16358
 Alpha virt. eigenvalues --    1.16686   1.16970   1.17229   1.17314   1.17434
 Alpha virt. eigenvalues --    1.17838   1.18243   1.18687   1.19023   1.19223
 Alpha virt. eigenvalues --    1.19486   1.19978   1.20343   1.20670   1.20701
 Alpha virt. eigenvalues --    1.21342   1.21591   1.22044   1.22079   1.22342
 Alpha virt. eigenvalues --    1.22408   1.22795   1.23230   1.23983   1.24021
 Alpha virt. eigenvalues --    1.24131   1.24308   1.25106   1.25333   1.25530
 Alpha virt. eigenvalues --    1.26180   1.26541   1.26888   1.27412   1.27592
 Alpha virt. eigenvalues --    1.27993   1.28190   1.28648   1.28808   1.29445
 Alpha virt. eigenvalues --    1.29598   1.29762   1.30231   1.30453   1.31024
 Alpha virt. eigenvalues --    1.31251   1.31482   1.31988   1.32166   1.32594
 Alpha virt. eigenvalues --    1.32749   1.33042   1.33439   1.33737   1.34093
 Alpha virt. eigenvalues --    1.34203   1.34460   1.34616   1.35366   1.35531
 Alpha virt. eigenvalues --    1.36360   1.36521   1.36909   1.37479   1.37804
 Alpha virt. eigenvalues --    1.37926   1.38144   1.38525   1.38780   1.39318
 Alpha virt. eigenvalues --    1.39709   1.39836   1.40418   1.40680   1.41268
 Alpha virt. eigenvalues --    1.41648   1.41945   1.42236   1.42637   1.43082
 Alpha virt. eigenvalues --    1.43197   1.43701   1.43785   1.44402   1.44583
 Alpha virt. eigenvalues --    1.44825   1.45471   1.45669   1.46007   1.46364
 Alpha virt. eigenvalues --    1.46612   1.46912   1.47199   1.47435   1.48030
 Alpha virt. eigenvalues --    1.48409   1.49258   1.49339   1.49638   1.50149
 Alpha virt. eigenvalues --    1.50335   1.50946   1.51243   1.51466   1.51596
 Alpha virt. eigenvalues --    1.52130   1.52571   1.52936   1.53583   1.54260
 Alpha virt. eigenvalues --    1.54594   1.54918   1.55436   1.55713   1.56217
 Alpha virt. eigenvalues --    1.56366   1.56812   1.57349   1.57740   1.57865
 Alpha virt. eigenvalues --    1.58430   1.58635   1.58969   1.60281   1.60686
 Alpha virt. eigenvalues --    1.61657   1.61772   1.62510   1.62692   1.63126
 Alpha virt. eigenvalues --    1.63391   1.63940   1.64815   1.64979   1.65453
 Alpha virt. eigenvalues --    1.66247   1.66343   1.67356   1.67802   1.68150
 Alpha virt. eigenvalues --    1.68899   1.69174   1.69519   1.69763   1.70339
 Alpha virt. eigenvalues --    1.70611   1.70908   1.71499   1.71617   1.72279
 Alpha virt. eigenvalues --    1.72585   1.72917   1.73486   1.73988   1.74109
 Alpha virt. eigenvalues --    1.74638   1.74872   1.74977   1.75326   1.75835
 Alpha virt. eigenvalues --    1.76032   1.76402   1.76885   1.77100   1.77375
 Alpha virt. eigenvalues --    1.77742   1.78007   1.78588   1.78773   1.79169
 Alpha virt. eigenvalues --    1.79663   1.79705   1.80145   1.80259   1.81212
 Alpha virt. eigenvalues --    1.81511   1.81703   1.81998   1.82345   1.82606
 Alpha virt. eigenvalues --    1.82771   1.83589   1.83727   1.84275   1.84356
 Alpha virt. eigenvalues --    1.84555   1.85058   1.85434   1.85771   1.85921
 Alpha virt. eigenvalues --    1.86239   1.86395   1.86780   1.87044   1.87969
 Alpha virt. eigenvalues --    1.88458   1.88580   1.88886   1.89302   1.89786
 Alpha virt. eigenvalues --    1.90109   1.90310   1.90742   1.91063   1.91429
 Alpha virt. eigenvalues --    1.91617   1.91707   1.91894   1.92042   1.93009
 Alpha virt. eigenvalues --    1.93168   1.93350   1.93880   1.93943   1.94288
 Alpha virt. eigenvalues --    1.94607   1.95205   1.95388   1.95572   1.96023
 Alpha virt. eigenvalues --    1.96381   1.96615   1.96913   1.97316   1.97698
 Alpha virt. eigenvalues --    1.98049   1.98133   1.98622   1.98794   1.98999
 Alpha virt. eigenvalues --    1.99380   1.99414   1.99821   2.00452   2.00625
 Alpha virt. eigenvalues --    2.00902   2.01205   2.01450   2.01786   2.02421
 Alpha virt. eigenvalues --    2.02466   2.02862   2.03213   2.03445   2.03963
 Alpha virt. eigenvalues --    2.04213   2.04429   2.04699   2.04870   2.05239
 Alpha virt. eigenvalues --    2.05560   2.06001   2.06143   2.06681   2.07111
 Alpha virt. eigenvalues --    2.07424   2.07678   2.08013   2.08648   2.08832
 Alpha virt. eigenvalues --    2.08917   2.09138   2.09715   2.09978   2.10087
 Alpha virt. eigenvalues --    2.10486   2.11127   2.11219   2.11406   2.11564
 Alpha virt. eigenvalues --    2.11908   2.12215   2.12358   2.13034   2.13169
 Alpha virt. eigenvalues --    2.13375   2.13973   2.13999   2.14259   2.14799
 Alpha virt. eigenvalues --    2.15256   2.15756   2.15930   2.16652   2.16851
 Alpha virt. eigenvalues --    2.17160   2.17586   2.17648   2.17855   2.18098
 Alpha virt. eigenvalues --    2.18241   2.18478   2.18757   2.18822   2.19349
 Alpha virt. eigenvalues --    2.19629   2.20038   2.20502   2.20691   2.20913
 Alpha virt. eigenvalues --    2.21078   2.21296   2.21952   2.22225   2.22427
 Alpha virt. eigenvalues --    2.22686   2.22915   2.23045   2.23706   2.24175
 Alpha virt. eigenvalues --    2.24473   2.24685   2.24788   2.25059   2.25513
 Alpha virt. eigenvalues --    2.25925   2.26073   2.26415   2.26799   2.27074
 Alpha virt. eigenvalues --    2.27383   2.27512   2.28019   2.28323   2.28980
 Alpha virt. eigenvalues --    2.29173   2.29308   2.29735   2.30330   2.30527
 Alpha virt. eigenvalues --    2.30820   2.31064   2.31343   2.31592   2.31831
 Alpha virt. eigenvalues --    2.32196   2.32758   2.33392   2.33468   2.33823
 Alpha virt. eigenvalues --    2.34091   2.34166   2.34956   2.35320   2.35462
 Alpha virt. eigenvalues --    2.35659   2.36027   2.36133   2.36543   2.36867
 Alpha virt. eigenvalues --    2.37019   2.37483   2.37794   2.38493   2.38611
 Alpha virt. eigenvalues --    2.38865   2.39120   2.39577   2.40151   2.40524
 Alpha virt. eigenvalues --    2.40626   2.41133   2.41777   2.42095   2.42453
 Alpha virt. eigenvalues --    2.42691   2.43198   2.43305   2.43733   2.43877
 Alpha virt. eigenvalues --    2.44036   2.44479   2.44638   2.45197   2.45658
 Alpha virt. eigenvalues --    2.45923   2.46143   2.46670   2.46905   2.47266
 Alpha virt. eigenvalues --    2.47380   2.48099   2.48498   2.48651   2.48711
 Alpha virt. eigenvalues --    2.48926   2.49320   2.49772   2.49846   2.50199
 Alpha virt. eigenvalues --    2.50397   2.50686   2.50964   2.51543   2.51747
 Alpha virt. eigenvalues --    2.51833   2.52202   2.52721   2.52895   2.53438
 Alpha virt. eigenvalues --    2.53712   2.53893   2.54338   2.54725   2.55087
 Alpha virt. eigenvalues --    2.55314   2.55415   2.55732   2.56112   2.56410
 Alpha virt. eigenvalues --    2.57065   2.57239   2.57322   2.57580   2.57945
 Alpha virt. eigenvalues --    2.58292   2.58732   2.59269   2.59588   2.59959
 Alpha virt. eigenvalues --    2.60188   2.60294   2.60632   2.60910   2.61203
 Alpha virt. eigenvalues --    2.61542   2.61807   2.61827   2.62414   2.62615
 Alpha virt. eigenvalues --    2.63104   2.63317   2.63530   2.63769   2.63902
 Alpha virt. eigenvalues --    2.64466   2.64587   2.64797   2.65024   2.65408
 Alpha virt. eigenvalues --    2.65526   2.65950   2.66108   2.66217   2.66388
 Alpha virt. eigenvalues --    2.66741   2.67000   2.67354   2.68121   2.68422
 Alpha virt. eigenvalues --    2.68644   2.69169   2.69619   2.69682   2.70038
 Alpha virt. eigenvalues --    2.70644   2.70753   2.71138   2.71485   2.72309
 Alpha virt. eigenvalues --    2.73039   2.73614   2.73968   2.74259   2.74646
 Alpha virt. eigenvalues --    2.75144   2.75340   2.75861   2.76476   2.77260
 Alpha virt. eigenvalues --    2.77718   2.78126   2.78638   2.78947   2.79284
 Alpha virt. eigenvalues --    2.79392   2.80333   2.80985   2.81440   2.81782
 Alpha virt. eigenvalues --    2.82751   2.82946   2.83020   2.83334   2.83431
 Alpha virt. eigenvalues --    2.83989   2.84370   2.84713   2.84989   2.85340
 Alpha virt. eigenvalues --    2.85679   2.86205   2.86555   2.86769   2.87036
 Alpha virt. eigenvalues --    2.87198   2.87529   2.87843   2.88465   2.88547
 Alpha virt. eigenvalues --    2.88991   2.89776   2.90684   2.91618   2.92103
 Alpha virt. eigenvalues --    2.92188   2.92787   2.92956   2.93298   2.93630
 Alpha virt. eigenvalues --    2.94231   2.94641   2.95234   2.95515   2.96015
 Alpha virt. eigenvalues --    2.96123   2.96622   2.97200   2.97572   2.98269
 Alpha virt. eigenvalues --    2.98378   2.98785   2.99445   2.99482   3.00040
 Alpha virt. eigenvalues --    3.00233   3.01054   3.01624   3.01762   3.02144
 Alpha virt. eigenvalues --    3.03060   3.03301   3.03969   3.04321   3.05233
 Alpha virt. eigenvalues --    3.05868   3.06566   3.07276   3.07456   3.08194
 Alpha virt. eigenvalues --    3.08381   3.09376   3.09770   3.10122   3.10621
 Alpha virt. eigenvalues --    3.11529   3.11681   3.12455   3.12526   3.12915
 Alpha virt. eigenvalues --    3.14246   3.14781   3.15013   3.15289   3.15824
 Alpha virt. eigenvalues --    3.15939   3.16754   3.17445   3.17753   3.19183
 Alpha virt. eigenvalues --    3.19843   3.20139   3.20859   3.21698   3.22495
 Alpha virt. eigenvalues --    3.22526   3.22790   3.23473   3.23697   3.24289
 Alpha virt. eigenvalues --    3.25320   3.25926   3.26922   3.27316   3.27435
 Alpha virt. eigenvalues --    3.28085   3.29011   3.29271   3.30005   3.30407
 Alpha virt. eigenvalues --    3.31420   3.31830   3.32792   3.34071   3.34882
 Alpha virt. eigenvalues --    3.36165   3.37936   3.38415   3.39369   3.40130
 Alpha virt. eigenvalues --    3.40893   3.43266   3.44864   3.45903   3.46770
 Alpha virt. eigenvalues --    3.48551   3.49355   3.49932   3.52233   3.53331
 Alpha virt. eigenvalues --    3.53946   3.55722   3.56456   3.57999   3.59600
 Alpha virt. eigenvalues --    3.60280   3.65040   3.65888   3.66761   3.67179
 Alpha virt. eigenvalues --    3.69708   3.70576   3.77708   3.83254   3.84374
 Alpha virt. eigenvalues --    3.86732   3.88417   3.89671   3.91559   3.92840
 Alpha virt. eigenvalues --    3.96497   4.01448   4.05602   4.09186   4.10669
 Alpha virt. eigenvalues --    4.16702   4.17574   4.25631   4.33535   4.36611
 Alpha virt. eigenvalues --    4.42354   4.46240   4.56918   4.63218   4.67676
 Alpha virt. eigenvalues --    4.86624   5.04698   5.07514   5.28476
          Condensed to atoms (all electrons):
 Mulliken charges:
               1
     1  C    0.601174
     2  C    0.345220
     3  C   -0.098675
     4  C    0.990921
     5  H   -0.949128
     6  C    0.736865
     7  C    0.475022
     8  H   -1.022240
     9  C    1.088703
    10  C    0.368810
    11  H   -0.756459
    12  C    0.156852
    13  C    0.836942
    14  C    0.682850
    15  N   -0.322675
    16  H   -0.378342
    17  C   -0.797963
    18  N   -0.535731
    19  H   -0.873561
    20  C   -1.108798
    21  H   -0.323432
    22  C    0.885378
    23  C    1.181130
    24  H   -0.269443
    25  C    1.227046
    26  C    1.036384
    27  H   -0.069889
    28  H   -0.077161
    29  H   -0.130471
    30  H   -0.317414
    31  H   -0.136096
    32  H    0.006835
    33  H    0.016556
    34  H   -0.053047
    35  H   -0.224373
    36  H   -0.079118
    37  H   -0.008868
    38  H   -0.147384
    39  C   -0.862409
    40  C    0.891422
    41  N   -0.014871
    42  H   -0.398252
    43  C   -1.221587
    44  N   -0.304256
    45  H   -0.315776
    46  C   -1.271661
    47  H   -0.323502
    48  C    1.238099
    49  C    1.334251
    50  H   -0.310942
    51  C    1.262323
    52  C    1.215028
    53  H   -0.145378
    54  H    0.074714
    55  H   -0.051860
    56  H   -0.126471
    57  H   -0.079874
    58  H   -0.150611
    59  H   -0.064065
    60  H   -0.085419
    61  H   -0.068265
    62  H   -0.113714
    63  H    0.049929
    64  H   -0.167292
    65  C   -0.368396
    66  C    1.040120
    67  N   -0.177228
    68  H   -0.591744
    69  C   -0.627766
    70  N   -0.385973
    71  H   -0.557695
    72  C   -2.107068
    73  H   -0.395805
    74  C    1.178313
    75  C    1.255274
    76  H   -0.377994
    77  C    1.591154
    78  C    1.679468
    79  H    0.028246
    80  H   -0.070464
    81  H   -0.160485
    82  H   -0.198522
    83  H   -0.061298
    84  H   -0.045579
    85  H   -0.070315
    86  H   -0.101648
    87  H   -0.133295
    88  H   -0.067028
    89  H   -0.066099
    90  H   -0.034382
    91  H    0.071798
    92  H   -0.037484
    93  H    0.008018
    94  H    0.018109
    95  H   -0.016001
    96  H   -0.013121
    97  H   -0.486532
    98  H   -0.704496
    99  H   -0.960064
 Sum of Mulliken charges =   0.00000
 Mulliken charges with hydrogens summed into heavy atoms:
               1
     1  C    0.601174
     2  C   -0.141312
     3  C   -1.047802
     4  C    0.990921
     6  C   -0.285376
     7  C    0.475022
     9  C    0.332243
    10  C   -0.591253
    12  C   -0.547644
    13  C    0.458600
    14  C   -0.190710
    15  N   -0.296549
    17  C   -1.121395
    18  N   -0.535731
    20  C   -1.378241
    22  C    0.438703
    23  C    0.903608
    25  C    0.991676
    26  C    0.775520
    39  C   -1.260661
    40  C    0.575646
    41  N   -0.014871
    43  C   -1.545089
    44  N   -0.333378
    46  C   -1.582602
    48  C    0.881144
    49  C    1.211727
    51  C    1.031246
    52  C    0.997279
    65  C   -0.960140
    66  C    0.482426
    67  N   -0.177228
    69  C   -1.023571
    70  N   -0.351659
    72  C   -2.485063
    74  C    0.872914
    75  C    1.052571
    77  C    1.423645
    78  C    1.374209
 Electronic spatial extent (au):  <R**2>=          30025.5604
 Charge=              0.0000 electrons
 Dipole moment (field-independent basis, Debye):
    X=             -1.5315    Y=              0.8720    Z=             -2.0852  Tot=              2.7302
 Quadrupole moment (field-independent basis, Debye-Ang):
   XX=           -237.8312   YY=           -256.4515   ZZ=           -258.8928
   XY=             -3.2943   XZ=              7.0981   YZ=              9.7180
 Traceless Quadrupole moment (field-independent basis, Debye-Ang):
   XX=             13.2273   YY=             -5.3930   ZZ=             -7.8343
   XY=             -3.2943   XZ=              7.0981   YZ=              9.7180
 Octapole moment (field-independent basis, Debye-Ang**2):
  XXX=             -1.9550  YYY=            -66.9117  ZZZ=            -23.6909  XYY=            -35.7350
  XXY=             41.9562  XXZ=            -46.7308  XZZ=              7.8626  YZZ=             55.8975
  YYZ=            -13.0710  XYZ=              1.1421
 Hexadecapole moment (field-independent basis, Debye-Ang**3):
 XXXX=         -24981.0735 YYYY=         -13100.5176 ZZZZ=          -3793.9097 XXXY=             -2.8993
 XXXZ=             82.6331 YYYX=             58.2311 YYYZ=            107.7867 ZZZX=            165.9883
 ZZZY=             42.8895 XXYY=          -6300.2076 XXZZ=          -4939.0417 YYZZ=          -2834.2351
 XXYZ=            129.9506 YYXZ=             44.4594 ZZXY=            -79.1392
 N-N= 4.673958175396D+03 E-N=-1.310298002826D+04  KE= 1.610941256542D+03
 Leave Link  601 at Wed Nov 10 01:50:02 2021, MaxMem=  7864320000 cpu:              38.6 elap:               1.5
 (Enter /apps/gaussian/g16-c01-avx/g16/l9999.exe)
 Unable to Open any file for archive entry.
 1\1\GINC-CX3-5-28\SP\RMP2-FC\Aug-CC-pVDZ\C33H60N6\ATARZIA\10-Nov-2021\
 0\\#P MP2/aug-cc-pVDZ SP SCF=(YQC,MaxCycle=900) int=(Grid=Superfinegri
 d) SCRF=(PCM,Solvent=Dichloromethane)\\_1_alde1_3_ami1_2_opt_dcm_mp2\\
 0,1\C,0,-2.1709,-0.9412,-1.247\C,0,-2.7723,-1.9714,-0.3772\C,0,-2.96,-
 0.2854,-2.182\C,0,-2.4246,0.7279,-2.9791\H,0,-4.0047,-0.5313,-2.2967\C
 ,0,-1.0863,1.0758,-2.8338\C,0,-0.2777,0.4044,-1.9194\H,0,-0.6514,1.862
 8,-3.4313\C,0,-0.823,-0.6083,-1.1339\C,0,1.1237,0.7552,-1.7488\H,0,-0.
 2015,-1.1461,-0.4304\C,0,-3.2591,1.4161,-3.9543\C,0,-0.8616,-1.8019,2.
 4014\C,0,-2.0643,-1.1112,1.7135\N,0,-0.0529,-2.4485,1.3684\H,0,-1.272,
 -2.5452,3.1048\C,0,0.0145,-0.8196,3.2048\N,0,-2.723,-2.0787,0.8762\H,0
 ,-1.6832,-0.2584,1.1335\C,0,-3.1223,-0.5671,2.7008\H,0,-0.6487,-0.2278
 ,3.8424\C,0,0.8027,0.13,2.3049\C,0,0.9733,-1.5783,4.1251\H,0,-2.6248,0
 .1338,3.3783\C,0,-3.7835,-1.6726,3.5194\C,0,-4.1819,0.21,1.9187\H,0,1.
 4893,-0.881,4.7813\H,0,1.7265,-2.1146,3.5517\H,0,0.4334,-2.2922,4.7442
 \H,0,1.4404,0.7707,2.91\H,0,0.1382,0.7644,1.7243\H,0,1.427,-0.4368,1.6
 201\H,0,-4.7324,-0.4606,1.263\H,0,-3.7215,0.9862,1.3099\H,0,-4.8856,0.
 6807,2.6016\H,0,-3.0874,-2.1059,4.2327\H,0,-4.1401,-2.4554,2.8562\H,0,
 -4.6268,-1.2685,4.0749\C,0,-5.2728,1.8008,-5.0841\C,0,-6.39,2.5197,-4.
 2903\N,0,-4.4701,1.1082,-4.1215\H,0,-4.6863,2.5772,-5.6068\C,0,-5.7696
 ,0.7735,-6.123\N,0,-5.7431,3.5716,-3.5116\H,0,-6.8615,1.7603,-3.6414\C
 ,0,-7.4886,3.1418,-5.1734\H,0,-6.4021,1.2987,-6.8444\C,0,-6.5689,-0.35
 33,-5.4748\C,0,-4.5735,0.1981,-6.882\H,0,-7.929,2.3419,-5.7758\C,0,-6.
 9271,4.2194,-6.0967\C,0,-8.6084,3.7265,-4.3093\H,0,-4.9137,-0.4734,-7.
 6671\H,0,-3.9283,-0.3593,-6.2064\H,0,-3.9887,0.9933,-7.3405\H,0,-6.817
 7,-1.1085,-6.2175\H,0,-7.4942,0.0187,-5.0434\H,0,-5.9787,-0.8152,-4.68
 85\H,0,-8.9488,3.0015,-3.572\H,0,-9.4558,3.9986,-4.9348\H,0,-8.2723,4.
 6222,-3.793\H,0,-6.2752,3.7878,-6.8513\H,0,-6.3553,4.9347,-5.5125\H,0,
 -7.7373,4.7398,-6.6025\C,0,2.9993,2.1055,-2.0492\C,0,3.0184,3.38,-1.13
 81\N,0,1.6353,1.7651,-2.3033\H,0,3.5084,1.2905,-1.5051\C,0,3.7569,2.29
 2,-3.3803\N,0,1.8977,4.2733,-1.3687\H,0,3.9334,3.9442,-1.355\C,0,3.036
 ,2.9829,0.3538\H,0,4.782,2.5874,-3.1272\C,0,3.1392,3.3604,-4.2779\C,0,
 3.807,0.9558,-4.1222\H,0,2.2279,2.2604,0.5207\C,0,2.7821,4.2059,1.2344
 \C,0,4.3651,2.3517,0.7653\H,0,2.8012,0.6407,-4.392\H,0,4.2544,0.1835,-
 3.4991\H,0,4.3977,1.0473,-5.0308\H,0,3.6087,3.3354,-5.2594\H,0,3.2868,
 4.3552,-3.8643\H,0,2.0754,3.1727,-4.398\H,0,5.1806,3.0514,0.5946\H,0,4
 .5792,1.4395,0.2142\H,0,4.3431,2.1038,1.8243\H,0,3.5789,4.933,1.0988\H
 ,0,2.7525,3.9126,2.2815\H,0,1.8426,4.6797,0.9719\H,0,1.0309,3.7631,-1.
 2274\H,0,1.8952,4.5924,-2.3292\H,0,-0.6185,-3.1475,0.8964\H,0,0.7259,-
 2.9327,1.8024\H,0,-6.4044,3.9768,-2.8591\H,0,-4.9842,3.1756,-2.967\H,0
 ,-3.3618,-2.7292,-0.8907\H,0,-2.7661,2.2153,-4.5299\H,0,1.7017,0.0881,
 -1.0894\\Version=ES64L-G16RevC.01\State=1-A\HF=-1611.4185033\MP2=-1617
 .3412444\RMSD=2.372e-09\PG=C01 [X(C33H60N6)]\\@
 The archive entry for this job was punched.


 "I COULD HAVE DONE IT IN A MUCH MORE COMPLICATED WAY"
 SAID THE RED QUEEN, IMMENSELY PROUD.

                                      -- LEWIS CARROLL
 Job cpu time:      13 days  7 hours  6 minutes  2.6 seconds.
 Elapsed time:       0 days 10 hours 11 minutes 33.3 seconds.
 File lengths (MBytes):  RWF=2646288 Int=      0 D2E=      0 Chk=    144 Scr=     16
 Normal termination of Gaussian 16 at Wed Nov 10 01:50:03 2021.
