 Entering Gaussian System, Link 0=g16
 Initial command:
 /apps/gaussian/g16-c01-avx/g16/l1.exe "/rds/general/ephemeral/user/atarzia/ephemeral/xtb_spe_DFT/Gau-2147306.inp" -scrdir="/rds/general/ephemeral/user/atarzia/ephemeral/xtb_spe_DFT/"
 Entering Link 1 = /apps/gaussian/g16-c01-avx/g16/l1.exe PID=   2147307.
  
 Copyright (c) 1988-2019, Gaussian, Inc.  All Rights Reserved.
  
 This is part of the Gaussian(R) 16 program.  It is based on
 the Gaussian(R) 09 system (copyright 2009, Gaussian, Inc.),
 the Gaussian(R) 03 system (copyright 2003, Gaussian, Inc.),
 the Gaussian(R) 98 system (copyright 1998, Gaussian, Inc.),
 the Gaussian(R) 94 system (copyright 1995, Gaussian, Inc.),
 the Gaussian 92(TM) system (copyright 1992, Gaussian, Inc.),
 the Gaussian 90(TM) system (copyright 1990, Gaussian, Inc.),
 the Gaussian 88(TM) system (copyright 1988, Gaussian, Inc.),
 the Gaussian 86(TM) system (copyright 1986, Carnegie Mellon
 University), and the Gaussian 82(TM) system (copyright 1983,
 Carnegie Mellon University). Gaussian is a federally registered
 trademark of Gaussian, Inc.
  
 This software contains proprietary and confidential information,
 including trade secrets, belonging to Gaussian, Inc.
  
 This software is provided under written license and may be
 used, copied, transmitted, or stored only in accord with that
 written license.
  
 The following legend is applicable only to US Government
 contracts under FAR:
  
                    RESTRICTED RIGHTS LEGEND
  
 Use, reproduction and disclosure by the US Government is
 subject to restrictions as set forth in subparagraphs (a)
 and (c) of the Commercial Computer Software - Restricted
 Rights clause in FAR 52.227-19.
  
 Gaussian, Inc.
 340 Quinnipiac St., Bldg. 40, Wallingford CT 06492
  
  
 ---------------------------------------------------------------
 Warning -- This program may not be used in any manner that
 competes with the business of Gaussian, Inc. or will provide
 assistance to any competitor of Gaussian, Inc.  The licensee
 of this program is prohibited from giving any competitor of
 Gaussian, Inc. access to this program.  By using this program,
 the user acknowledges that Gaussian, Inc. is engaged in the
 business of creating and licensing software in the field of
 computational chemistry and represents and warrants to the
 licensee that it is not a competitor of Gaussian, Inc. and that
 it will not use this program in any manner prohibited above.
 ---------------------------------------------------------------
  

 Cite this work as:
 Gaussian 16, Revision C.01,
 M. J. Frisch, G. W. Trucks, H. B. Schlegel, G. E. Scuseria, 
 M. A. Robb, J. R. Cheeseman, G. Scalmani, V. Barone, 
 G. A. Petersson, H. Nakatsuji, X. Li, M. Caricato, A. V. Marenich, 
 J. Bloino, B. G. Janesko, R. Gomperts, B. Mennucci, H. P. Hratchian, 
 J. V. Ortiz, A. F. Izmaylov, J. L. Sonnenberg, D. Williams-Young, 
 F. Ding, F. Lipparini, F. Egidi, J. Goings, B. Peng, A. Petrone, 
 T. Henderson, D. Ranasinghe, V. G. Zakrzewski, J. Gao, N. Rega, 
 G. Zheng, W. Liang, M. Hada, M. Ehara, K. Toyota, R. Fukuda, 
 J. Hasegawa, M. Ishida, T. Nakajima, Y. Honda, O. Kitao, H. Nakai, 
 T. Vreven, K. Throssell, J. A. Montgomery, Jr., J. E. Peralta, 
 F. Ogliaro, M. J. Bearpark, J. J. Heyd, E. N. Brothers, K. N. Kudin, 
 V. N. Staroverov, T. A. Keith, R. Kobayashi, J. Normand, 
 K. Raghavachari, A. P. Rendell, J. C. Burant, S. S. Iyengar, 
 J. Tomasi, M. Cossi, J. M. Millam, M. Klene, C. Adamo, R. Cammi, 
 J. W. Ochterski, R. L. Martin, K. Morokuma, O. Farkas, 
 J. B. Foresman, and D. J. Fox, Gaussian, Inc., Wallingford CT, 2019.
 
 ******************************************
 Gaussian 16:  ES64L-G16RevC.01  3-Jul-2019
                 8-Nov-2021 
 ******************************************
 %chk=_1_alde1_2_ami2_2_opt_gas_mp2.chk
 %mem=60000mb
 %nprocshared=32
 Will use up to   32 processors via shared memory.
 ---------------------------------------------------------------------
 #P MP2/aug-cc-pVDZ SP SCF=(YQC,MaxCycle=900) int=(Grid=Superfinegrid)
 ---------------------------------------------------------------------
 1/38=1,172=1/1;
 2/12=2,17=6,18=5,40=1/2;
 3/5=16,7=10,11=9,25=1,30=1,75=-7/1,2,3;
 4//1;
 5/5=2,7=900,8=4,13=1,38=1/8,2,8;
 8/10=1/1;
 9/16=-3/6;
 6/7=2,8=2,9=2,10=2/1;
 99/5=1,9=1/99;
 Leave Link    1 at Mon Nov  8 15:51:25 2021, MaxMem=  7864320000 cpu:              12.3 elap:               0.4
 (Enter /apps/gaussian/g16-c01-avx/g16/l101.exe)
 -----------------------------
 _1_alde1_2_ami2_2_opt_gas_mp2
 -----------------------------
 Symbolic Z-matrix:
 Charge =  0 Multiplicity = 1
 C                    -2.1249    1.4052    0.3148 
 C                    -2.8063    0.6719    1.3915 
 C                    -2.8578    2.0313   -0.6864 
 C                    -2.2073    2.7281   -1.7051 
 H                    -3.9364    1.9933   -0.6917 
 C                    -0.8176    2.7882   -1.7064 
 C                    -0.0693    2.1644   -0.7072 
 H                    -0.2889    3.3233   -2.4809 
 C                    -0.7312    1.4737    0.3013 
 C                     1.3854    2.2339   -0.7155 
 H                    -0.1826    0.9796    1.0903 
 C                    -2.9691    3.3879   -2.7568 
 O                    -2.2577    0.1035    2.3 
 C                    -4.9555    3.977    -3.8326 
 C                    -5.7917    2.914    -4.609 
 N                    -4.2299    3.3519   -2.7815 
 N                    -6.6453    2.1401   -3.7274 
 C                     3.9768    2.2004   -2.9253 
 C                     3.4353    2.8762   -1.6284 
 N                     3.3998    2.7798   -4.1242 
 N                     2.0134    2.8466   -1.6222 
 H                    -3.9109    0.68      1.3042 
 H                     3.6267    3.7666   -4.185 
 H                     2.3896    2.6973   -4.0882 
 H                    -7.3033    2.7458   -3.2488 
 H                    -6.0789    1.6814   -3.0222 
 H                    -2.3776    3.9204   -3.5171 
 H                     1.8949    1.7262    0.1172 
 C                    -4.8475    1.9449   -5.323 
 C                     5.4936    2.386    -2.9809 
 H                     3.7373    3.9292   -1.6434 
 H                     3.8782    2.3895   -0.7439 
 H                     5.8763    1.9351   -3.8921 
 H                     5.9708    1.9158   -2.1253 
 H                     5.7511    3.4432   -2.9854 
 H                    -5.6526    4.6837   -3.3692 
 H                    -4.306     4.5243   -4.5357 
 H                    -4.2354    2.4708   -6.0512 
 H                    -5.4315    1.1842   -5.8329 
 H                    -4.1941    1.4548   -4.6041 
 C                    -6.6761    3.6325   -5.6288 
 H                    -7.345     4.3318   -5.1316 
 H                    -7.2775    2.9001   -6.1598 
 H                    -6.0706    4.1806   -6.3457 
 C                     3.6303    0.7104   -2.9066 
 H                     2.5534    0.5732   -2.8349 
 H                     4.1035    0.2165   -2.0617 
 H                     3.9764    0.2491   -3.827 
 
 ITRead=  0  0  0  0  0  0  0  0  0  0  0  0  0  0  0  0  0  0  0  0
 ITRead=  0  0  0  0  0  0  0  0  0  0  0  0  0  0  0  0  0  0  0  0
 ITRead=  0  0  0  0  0  0  0  0
 MicOpt= -1 -1 -1 -1 -1 -1 -1 -1 -1 -1 -1 -1 -1 -1 -1 -1 -1 -1 -1 -1
 MicOpt= -1 -1 -1 -1 -1 -1 -1 -1 -1 -1 -1 -1 -1 -1 -1 -1 -1 -1 -1 -1
 MicOpt= -1 -1 -1 -1 -1 -1 -1 -1
 NAtoms=     48 NQM=       48 NQMF=       0 NMMI=      0 NMMIF=      0
                NMic=       0 NMicF=      0.
                    Isotopes and Nuclear Properties:
 (Nuclear quadrupole moments (NQMom) in fm**2, nuclear magnetic moments (NMagM)
  in nuclear magnetons)

  Atom         1           2           3           4           5           6           7           8           9          10
 IAtWgt=          12          12          12          12           1          12          12           1          12          12
 AtmWgt=  12.0000000  12.0000000  12.0000000  12.0000000   1.0078250  12.0000000  12.0000000   1.0078250  12.0000000  12.0000000
 NucSpn=           0           0           0           0           1           0           0           1           0           0
 AtZEff=  -0.0000000  -0.0000000  -0.0000000  -0.0000000  -0.0000000  -0.0000000  -0.0000000  -0.0000000  -0.0000000  -0.0000000
 NQMom=    0.0000000   0.0000000   0.0000000   0.0000000   0.0000000   0.0000000   0.0000000   0.0000000   0.0000000   0.0000000
 NMagM=    0.0000000   0.0000000   0.0000000   0.0000000   2.7928460   0.0000000   0.0000000   2.7928460   0.0000000   0.0000000
 AtZNuc=   6.0000000   6.0000000   6.0000000   6.0000000   1.0000000   6.0000000   6.0000000   1.0000000   6.0000000   6.0000000

  Atom        11          12          13          14          15          16          17          18          19          20
 IAtWgt=           1          12          16          12          12          14          14          12          12          14
 AtmWgt=   1.0078250  12.0000000  15.9949146  12.0000000  12.0000000  14.0030740  14.0030740  12.0000000  12.0000000  14.0030740
 NucSpn=           1           0           0           0           0           2           2           0           0           2
 AtZEff=  -0.0000000  -0.0000000  -0.0000000  -0.0000000  -0.0000000  -0.0000000  -0.0000000  -0.0000000  -0.0000000  -0.0000000
 NQMom=    0.0000000   0.0000000   0.0000000   0.0000000   0.0000000   2.0440000   2.0440000   0.0000000   0.0000000   2.0440000
 NMagM=    2.7928460   0.0000000   0.0000000   0.0000000   0.0000000   0.4037610   0.4037610   0.0000000   0.0000000   0.4037610
 AtZNuc=   1.0000000   6.0000000   8.0000000   6.0000000   6.0000000   7.0000000   7.0000000   6.0000000   6.0000000   7.0000000

  Atom        21          22          23          24          25          26          27          28          29          30
 IAtWgt=          14           1           1           1           1           1           1           1          12          12
 AtmWgt=  14.0030740   1.0078250   1.0078250   1.0078250   1.0078250   1.0078250   1.0078250   1.0078250  12.0000000  12.0000000
 NucSpn=           2           1           1           1           1           1           1           1           0           0
 AtZEff=  -0.0000000  -0.0000000  -0.0000000  -0.0000000  -0.0000000  -0.0000000  -0.0000000  -0.0000000  -0.0000000  -0.0000000
 NQMom=    2.0440000   0.0000000   0.0000000   0.0000000   0.0000000   0.0000000   0.0000000   0.0000000   0.0000000   0.0000000
 NMagM=    0.4037610   2.7928460   2.7928460   2.7928460   2.7928460   2.7928460   2.7928460   2.7928460   0.0000000   0.0000000
 AtZNuc=   7.0000000   1.0000000   1.0000000   1.0000000   1.0000000   1.0000000   1.0000000   1.0000000   6.0000000   6.0000000

  Atom        31          32          33          34          35          36          37          38          39          40
 IAtWgt=           1           1           1           1           1           1           1           1           1           1
 AtmWgt=   1.0078250   1.0078250   1.0078250   1.0078250   1.0078250   1.0078250   1.0078250   1.0078250   1.0078250   1.0078250
 NucSpn=           1           1           1           1           1           1           1           1           1           1
 AtZEff=  -0.0000000  -0.0000000  -0.0000000  -0.0000000  -0.0000000  -0.0000000  -0.0000000  -0.0000000  -0.0000000  -0.0000000
 NQMom=    0.0000000   0.0000000   0.0000000   0.0000000   0.0000000   0.0000000   0.0000000   0.0000000   0.0000000   0.0000000
 NMagM=    2.7928460   2.7928460   2.7928460   2.7928460   2.7928460   2.7928460   2.7928460   2.7928460   2.7928460   2.7928460
 AtZNuc=   1.0000000   1.0000000   1.0000000   1.0000000   1.0000000   1.0000000   1.0000000   1.0000000   1.0000000   1.0000000

  Atom        41          42          43          44          45          46          47          48
 IAtWgt=          12           1           1           1          12           1           1           1
 AtmWgt=  12.0000000   1.0078250   1.0078250   1.0078250  12.0000000   1.0078250   1.0078250   1.0078250
 NucSpn=           0           1           1           1           0           1           1           1
 AtZEff=  -0.0000000  -0.0000000  -0.0000000  -0.0000000  -0.0000000  -0.0000000  -0.0000000  -0.0000000
 NQMom=    0.0000000   0.0000000   0.0000000   0.0000000   0.0000000   0.0000000   0.0000000   0.0000000
 NMagM=    0.0000000   2.7928460   2.7928460   2.7928460   0.0000000   2.7928460   2.7928460   2.7928460
 AtZNuc=   6.0000000   1.0000000   1.0000000   1.0000000   6.0000000   1.0000000   1.0000000   1.0000000
 Leave Link  101 at Mon Nov  8 15:51:26 2021, MaxMem=  7864320000 cpu:               3.3 elap:               0.1
 (Enter /apps/gaussian/g16-c01-avx/g16/l202.exe)
                          Input orientation:                          
 ---------------------------------------------------------------------
 Center     Atomic      Atomic             Coordinates (Angstroms)
 Number     Number       Type             X           Y           Z
 ---------------------------------------------------------------------
      1          6           0       -2.124900    1.405200    0.314800
      2          6           0       -2.806300    0.671900    1.391500
      3          6           0       -2.857800    2.031300   -0.686400
      4          6           0       -2.207300    2.728100   -1.705100
      5          1           0       -3.936400    1.993300   -0.691700
      6          6           0       -0.817600    2.788200   -1.706400
      7          6           0       -0.069300    2.164400   -0.707200
      8          1           0       -0.288900    3.323300   -2.480900
      9          6           0       -0.731200    1.473700    0.301300
     10          6           0        1.385400    2.233900   -0.715500
     11          1           0       -0.182600    0.979600    1.090300
     12          6           0       -2.969100    3.387900   -2.756800
     13          8           0       -2.257700    0.103500    2.300000
     14          6           0       -4.955500    3.977000   -3.832600
     15          6           0       -5.791700    2.914000   -4.609000
     16          7           0       -4.229900    3.351900   -2.781500
     17          7           0       -6.645300    2.140100   -3.727400
     18          6           0        3.976800    2.200400   -2.925300
     19          6           0        3.435300    2.876200   -1.628400
     20          7           0        3.399800    2.779800   -4.124200
     21          7           0        2.013400    2.846600   -1.622200
     22          1           0       -3.910900    0.680000    1.304200
     23          1           0        3.626700    3.766600   -4.185000
     24          1           0        2.389600    2.697300   -4.088200
     25          1           0       -7.303300    2.745800   -3.248800
     26          1           0       -6.078900    1.681400   -3.022200
     27          1           0       -2.377600    3.920400   -3.517100
     28          1           0        1.894900    1.726200    0.117200
     29          6           0       -4.847500    1.944900   -5.323000
     30          6           0        5.493600    2.386000   -2.980900
     31          1           0        3.737300    3.929200   -1.643400
     32          1           0        3.878200    2.389500   -0.743900
     33          1           0        5.876300    1.935100   -3.892100
     34          1           0        5.970800    1.915800   -2.125300
     35          1           0        5.751100    3.443200   -2.985400
     36          1           0       -5.652600    4.683700   -3.369200
     37          1           0       -4.306000    4.524300   -4.535700
     38          1           0       -4.235400    2.470800   -6.051200
     39          1           0       -5.431500    1.184200   -5.832900
     40          1           0       -4.194100    1.454800   -4.604100
     41          6           0       -6.676100    3.632500   -5.628800
     42          1           0       -7.345000    4.331800   -5.131600
     43          1           0       -7.277500    2.900100   -6.159800
     44          1           0       -6.070600    4.180600   -6.345700
     45          6           0        3.630300    0.710400   -2.906600
     46          1           0        2.553400    0.573200   -2.834900
     47          1           0        4.103500    0.216500   -2.061700
     48          1           0        3.976400    0.249100   -3.827000
 ---------------------------------------------------------------------
                    Distance matrix (angstroms):
                    1          2          3          4          5
     1  C    0.000000
     2  C    1.470142   0.000000
     3  C    1.389800   2.483604   0.000000
     4  C    2.415957   3.765062   1.395145   0.000000
     5  H    2.154167   2.713475   1.079282   2.134642   0.000000
     6  C    2.776143   4.246250   2.403271   1.391000   3.374670
     7  C    2.417925   3.758094   2.791752   2.425821   3.870914
     8  H    3.855638   5.325665   3.389505   2.153227   4.274856
     9  C    1.395448   2.477390   2.410165   2.788912   3.395488
    10  C    3.751062   4.944658   4.248134   3.759127   5.327289
    11  H    2.134260   2.658797   3.379265   3.869228   4.277163
    12  C    3.752133   4.961003   2.477763   1.456622   2.673054
    13  O    2.377620   1.203916   3.604874   4.788725   3.916586
    14  C    5.641576   6.544766   4.252607   3.693049   3.852127
    15  C    6.321844   7.067222   4.977320   4.616830   4.431147
    16  N    4.219922   5.159745   2.831269   2.374589   2.509821
    17  N    6.108476   6.564805   4.858464   4.912360   4.071261
    18  C    6.954231   8.184224   7.193958   6.325381   8.224998
    19  C    6.070889   7.275734   6.419060   5.645064   7.483240
    20  N    7.219180   8.566322   7.178877   6.106905   8.137596
    21  N    4.791151   6.086150   5.026831   4.223177   6.082275
    22  H    2.166708   1.108074   2.626313   4.019061   2.389356
    23  H    7.674980   9.058588   7.569690   6.423702   8.517524
    24  H    6.437130   7.818359   6.288959   5.177992   7.214576
    25  H    6.427463   6.786491   5.180625   5.324710   4.294302
    26  H    5.181310   5.586569   3.994230   4.221329   3.181009
    27  H    4.590593   5.901770   3.436881   2.175759   3.758518
    28  H    4.037435   4.983640   4.829805   4.599198   5.893193
    29  C    6.283997   7.132429   5.046229   4.546786   4.720316
    30  C    8.358538   9.536475   8.668127   7.813358   9.711825
    31  H    6.676115   7.914501   6.929157   6.065041   7.971143
    32  H    6.174699   7.224446   6.745762   6.170240   7.824811
    33  H    9.055275  10.242053   9.304315   8.411683  10.321581
    34  H    8.470842   9.536910   8.945834   8.229078  10.010686
    35  H    8.779302  10.003322   9.021753   8.092383  10.060364
    36  H    6.063422   6.845453   4.695056   4.296940   4.165645
    37  H    6.165495   7.226464   4.809308   3.955145   4.617240
    38  H    6.790852   7.789233   5.556260   4.802914   5.389030
    39  H    6.984029   7.703641   5.816182   5.460570   5.414970
    40  H    5.336631   6.203720   4.179285   3.738030   3.957684
    41  C    7.810292   8.545473   6.447525   6.015275   5.879446
    42  H    8.091829   8.749028   6.722133   6.380338   6.066288
    43  H    8.408594   9.054205   7.088488   6.751360   6.471889
    44  H    8.223968   9.101148   6.853412   6.210476   6.427037
    45  C    6.631930   7.739830   6.983517   6.292240   7.987901
    46  H    5.700818   6.826315   6.001932   5.346429   6.980508
    47  H    6.771538   7.738043   7.324251   6.801580   8.347090
    48  H    7.464378   8.568344   7.729547   6.991856   8.688196
                    6          7          8          9         10
     6  C    0.000000
     7  C    1.395521   0.000000
     8  H    1.079679   2.130090   0.000000
     9  C    2.401299   1.390054   3.370057   0.000000
    10  C    2.478375   1.456383   2.665841   2.468154   0.000000
    11  H    3.390544   2.155828   4.272903   1.080564   2.700520
    12  C    2.468184   3.755882   2.695137   4.245507   4.945735
    13  O    5.033164   4.252018   6.091001   2.863992   5.186909
    14  C    4.801686   6.076890   4.902201   6.418750   7.277481
    15  C    5.760433   6.966477   5.914148   7.196817   8.193451
    16  N    3.621794   4.798278   3.952551   5.027146   6.086861
    17  N    6.202142   7.236434   6.584645   7.186869   8.577440
    18  C    4.981716   4.614346   4.433350   5.753634   3.405832
    19  C    4.254525   3.692897   3.846599   4.801091   2.334101
    20  N    4.861305   4.908081   4.074596   6.193231   3.996880
    21  N    2.832854   2.374923   2.503037   3.621814   1.261701
    22  H    4.803824   4.583346   5.867955   3.427282   5.877464
    23  H    5.181942   5.321894   4.293297   6.661499   4.405681
    24  H    3.995919   4.214420   3.185852   5.523070   3.549403
    25  H    6.666716   7.689507   7.079900   7.577199   9.064941
    26  H    5.535125   6.458158   6.042594   6.299737   7.832107
    27  H    2.644638   4.038233   2.406846   4.824640   4.985320
    28  H    3.436716   2.174796   3.750978   2.644627   1.100336
    29  C    5.480059   6.647179   5.546021   6.985607   7.756392
    30  C    6.451152   6.013707   5.879272   7.096003   4.693877
    31  H    4.696058   4.298976   4.156779   5.456998   3.044088
    32  H    4.809980   3.954083   4.610192   4.814322   2.497813
    33  H    7.093191   6.748802   6.475205   7.839423   5.508925
    34  H    6.857035   6.209317   6.425835   7.141474   4.807766
    35  H    6.724038   6.379857   6.062219   7.530043   5.066970
    36  H    5.452985   6.678799   5.604377   6.927976   7.910568
    37  H    4.815383   6.178687   4.669229   6.744029   7.227164
    38  H    5.537092   6.782964   5.389681   7.323106   7.753658
    39  H    6.394442   7.482432   6.500614   7.733372   8.588351
    40  H    4.644930   5.718683   4.821811   6.004580   6.845365
    41  C    7.100710   8.368230   7.127496   8.669968   9.543814
    42  H    7.531377   8.786851   7.604724   9.023718  10.006148
    43  H    7.847012   9.068090   7.909104   9.307764  10.253295
    44  H    7.145341   8.477815   7.007118   8.945340   9.543622
    45  C    5.053865   4.542963   4.729545   5.467717   3.487341
    46  H    4.188482   3.733307   3.970773   4.629822   2.934962
    47  H    5.563911   4.800130   5.396398   5.526178   3.642832
    48  H    5.824638   5.456117   5.427290   6.379969   4.509340
                   11         12         13         14         15
    11  H    0.000000
    12  C    5.325849   0.000000
    13  O    2.556749   6.071622   0.000000
    14  C    7.483310   2.334560   7.738922   0.000000
    15  C    8.227146   3.409149   8.253626   1.559486   0.000000
    16  N    6.082703   1.261556   6.345338   1.421990   2.443508
    17  N    8.143923   4.001689   7.728410   2.498138   1.450783
    18  C    5.908977   7.048693   8.400580   9.152349   9.938192
    19  C    4.906895   6.523148   7.451875   8.745043   9.696542
    20  N    6.577638   6.542359   8.968848   8.445671   9.205255
    21  N    3.958000   5.138641   6.414869   7.397921   8.357338
    22  H    3.746430   4.971059   2.014210   6.192585   6.595006
    23  H    7.078625   6.759271   9.492086   8.592009   9.466412
    24  H    6.031879   5.564640   8.314704   7.460124   8.200723
    25  H    8.523592   4.409041   7.951667   2.714561   2.040434
    26  H    7.222986   3.557167   6.739225   2.681148   2.029710
    27  H    5.890201   1.100675   6.958574   2.597751   3.723059
    28  H    2.412538   5.888940   4.964057   8.221618   9.101190
    29  C    7.988962   3.492280   8.258810   2.522377   1.529858
    30  C    7.125439   8.524747   9.652998  10.603790  11.414355
    31  H    5.615948   6.819712   8.131815   8.964355  10.031314
    32  H    4.673564   7.206531   7.220830   9.491811  10.426939
    33  H    7.902377   9.035521  10.385510  11.022740  11.730917
    34  H    7.005775   9.082273   9.517138  11.249331  12.063232
    35  H    7.608512   8.723371  10.160213  10.753324  11.668434
    36  H    7.970470   3.042253   8.040112   1.095497   2.165246
    37  H    7.824270   2.498638   8.394391   1.102605   2.192201
    38  H    8.345651   3.646596   8.902693   2.776575   2.167588
    39  H    8.690426   4.514654   8.796873   3.468070   2.149391
    40  H    6.981700   2.941091   7.296729   2.745257   2.163704
    41  C    9.713379   4.695749   9.738684   2.511071   1.529182
    42  H   10.062269   5.067457   9.949262   2.742808   2.167028
    43  H   10.324237   5.511866  10.226807   3.459372   2.147737
    44  H   10.010447   4.809145  10.291214   2.756914   2.167530
    45  C    5.530451   7.123449   7.883245   9.232774   9.824872
    46  H    4.801880   6.198923   7.052269   8.304507   8.846890
    47  H    5.374763   7.782198   7.713758   9.967092  10.567887
    48  H    6.481570   7.696581   8.742158   9.678642  10.155245
                   16         17         18         19         20
    16  N    0.000000
    17  N    2.863100   0.000000
    18  C    8.288339  10.652512   0.000000
    19  C    7.766030  10.323088   1.559448   0.000000
    20  N    7.768041  10.073267   1.451205   2.497913   0.000000
    21  N    6.370094   8.938909   2.443478   1.422222   2.861218
    22  H    4.892214   5.909808   9.078331   8.209147   9.344679
    23  H    7.991743  10.410038   2.040195   2.713973   1.014374
    24  H    6.778919   9.059253   2.029396   2.678826   1.014202
    25  H    3.167257   1.014344  11.297910  10.860950  10.738893
    26  H    2.503459   1.014161  10.069551   9.689697   9.605553
    27  H    2.072514   4.628926   6.609616   6.200593   5.920126
    28  H    6.968396   9.374822   3.716985   2.596623   4.622150
    29  C    2.969899   2.411665   9.147815   9.117136   8.375687
    30  C    9.773391  12.164318   1.529124   2.511205   2.417894
    31  H    8.068756  10.739754   2.165497   1.095554   2.754886
    32  H    8.415421  10.941093   2.191800   1.102442   3.436223
    33  H   10.265283  12.524361   2.147833   3.459550   2.626869
    34  H   10.322173  12.719395   2.167264   2.756454   3.369293
    35  H    9.983500  12.486768   2.167096   2.743331   2.695473
    36  H    2.035475   2.753845   9.954354   9.428010   9.281207
    37  H    2.111286   3.436580   8.752067   8.431865   7.911508
    38  H    3.386341   3.364079   8.791166   8.863698   7.880678
    39  H    3.931133   2.611548   9.899642   9.957953   9.135505
    40  H    2.630996   2.691955   8.374837   8.311613   7.723551
    41  C    3.764273   2.417339  11.083506  10.900257  10.223242
    42  H    4.023310   2.695349  11.730038  11.428300  10.902948
    43  H    4.572188   2.625614  11.730765  11.631777  10.870275
    44  H    4.096150   3.368889  10.796785  10.691890   9.827806
    45  C    8.293125  10.407003   1.529873   2.522402   2.412073
    46  H    7.330565   9.373783   2.163797   2.745396   2.692168
    47  H    8.932771  11.045881   2.167422   2.776372   3.364462
    48  H    8.835372  10.789176   2.149566   3.468182   2.612516
                   21         22         23         24         25
    21  N    0.000000
    22  H    6.953798   0.000000
    23  H    3.164977   9.822109   0.000000
    24  H    2.498994   8.534857   1.638044   0.000000
    25  H    9.458165   6.041996  11.017414   9.729299   0.000000
    26  H    8.294758   4.941737   9.994940   8.595575   1.638124
    27  H    4.901487   6.008006   6.043291   4.954627   5.070916
    28  H    2.072402   6.017542   5.066684   4.344324   9.847661
    29  C    7.847352   6.811532   8.742179   7.380139   3.312808
    30  C    3.764307  10.474595   2.615574   3.310262  12.804760
    31  H    2.035756   8.817064   2.549196   3.051380  11.219296
    32  H    2.111357   8.233297   3.714946   3.673556  11.464180
    33  H    4.572229  11.151955   2.915627   3.574420  13.220171
    34  H    4.096402  10.532648   3.628034   4.157970  13.347392
    35  H    4.023015  10.926582   2.461037   3.615552  13.075668
    36  H    8.074311   6.395608   9.360129   8.315030   2.548483
    37  H    7.158071   7.002798   7.976517   6.954800   3.715236
    38  H    7.668427   7.577214   8.183790   6.913414   4.164262
    39  H    8.713214   7.314686   9.562183   8.154941   3.552436
    40  H    7.025802   5.965612   8.166087   6.719752   3.629138
    41  C    9.600932   8.026835  10.404337   9.243104   2.616107
    42  H   10.104522   8.157708  11.026953   9.925861   2.462127
    43  H   10.339898   8.483757  11.115405   9.888654   2.915201
    44  H    9.457381   8.685590   9.943724   8.880961   3.628910
    45  C    2.971094   8.637214   3.312805   2.623602  11.126705
    46  H    2.632601   7.676635   3.629400   2.471718  10.101784
    47  H    3.388083   8.704868   4.164007   3.632977  11.744005
    48  H    3.932114   9.419362   3.552923   2.929137  11.567172
                   26         27         28         29         30
    26  H    0.000000
    27  H    4.354041   0.000000
    28  H    8.569675   6.023031   0.000000
    29  C    2.622872   3.642016   8.666231   0.000000
    30  C   11.594004   8.037268   4.794184  10.612179   0.000000
    31  H   10.164225   6.395532   3.368584   9.548596   2.693504
    32  H   10.238940   7.012084   2.261623   9.864262   2.759293
    33  H   11.989491   8.497582   5.654173  10.818847   1.086304
    34  H   12.085307   8.697776   4.655933  11.281035   1.086673
    35  H   11.960526   8.160036   5.238749  10.956258   1.088117
    36  H    3.052203   3.366025   8.824202   3.459270  11.387185
    37  H    3.676403   2.262956   8.241966   2.750703  10.149970
    38  H    3.632697   3.460408   8.728354   1.086974  10.202322
    39  H    2.926836   4.709143   9.453761   1.086148  11.355001
    40  H    2.471078   3.249681   7.709750   1.088093   9.866785
    41  C    3.310257   4.797840  10.493452   2.507047  12.516658
    42  H    3.616241   5.239363  10.941426   3.459976  13.162116
    43  H    3.573011   5.659849  11.176390   2.741814  13.170828
    44  H    4.158332   4.659070  10.547149   2.745950  12.176748
    45  C    9.758318   6.838982   3.631367   8.901465   2.506999
    46  H    8.705159   5.998659   3.236962   7.927517   3.457215
    47  H   10.331978   7.605375   3.450321   9.682141   2.735697
    48  H   10.188633   7.344916   4.697997   9.109059   2.753929
                   31         32         33         34         35
    31  H    0.000000
    32  H    1.788751   0.000000
    33  H    3.688958   3.756334   0.000000
    34  H    3.045411   2.551790   1.769431   0.000000
    35  H    2.468309   3.105215   1.764127   1.766633   0.000000
    36  H    9.576945  10.148483  11.863548  12.012992  11.477392
    37  H    8.568210   9.269102  10.526035  10.873220  10.233155
    38  H    9.226027   9.695594  10.353510  10.949303  10.491657
    39  H   10.447671  10.678070  11.497691  12.012243  11.758481
    40  H    8.820176   8.996490  10.106957  10.472925  10.270391
    41  C   11.153938  11.696177  12.785149  13.235016  12.706640
    42  H   11.625274  12.205927  13.493825  13.863096  13.300512
    43  H   11.949173  12.411379  13.382681  13.883929  13.420737
    44  H   10.879785  11.557111  12.401244  12.959028  12.312106
    45  C    3.459450   2.749200   2.741462   2.746154   3.460086
    46  H    3.752869   3.070232   3.743542   3.739616   4.299399
    47  H    3.754094   2.551330   3.073560   2.525564   3.738904
    48  H    4.285839   3.754525   2.540955   3.106655   3.749683
                   36         37         38         39         40
    36  H    0.000000
    37  H    1.788704   0.000000
    38  H    3.754798   2.553152   0.000000
    39  H    4.285464   3.755762   1.770212   0.000000
    40  H    3.752065   3.072301   1.768632   1.764747   0.000000
    41  C    2.694135   2.758179   2.735870   2.754062   3.457269
    42  H    2.468624   3.102849   3.738796   3.749759   4.299251
    43  H    3.689035   3.755734   3.074161   2.541435   3.743855
    44  H    3.047521   2.551087   2.525491   3.106417   3.739573
    45  C   10.108083   8.954589   8.651980   9.534356   8.040950
    46  H    9.193483   8.096622   7.748114   8.551021   7.031077
    47  H   10.809575   9.767165   9.515000  10.299253   8.766262
    48  H   10.610980   9.347606   8.792990   9.664711   8.295461
                   41         42         43         44         45
    41  C    0.000000
    42  H    1.087959   0.000000
    43  H    1.086302   1.763949   0.000000
    44  H    1.086733   1.766634   1.769420   0.000000
    45  C   11.053096  11.769553  11.591298  10.861729   0.000000
    46  H   10.116762  10.834216  10.635601   9.985611   1.087970
    47  H   11.857193  12.547037  12.390452  11.729410   1.087066
    48  H   11.321203  12.105557  11.794915  11.078933   1.086149
                   46         47         48
    46  H    0.000000
    47  H    1.768582   0.000000
    48  H    1.764719   1.770170   0.000000
 Stoichiometry    C17H26N4O
 Framework group  C1[X(C17H26N4O)]
 Deg. of freedom   138
 Full point group                 C1      NOp   1
 Largest Abelian subgroup         C1      NOp   1
 Largest concise Abelian subgroup C1      NOp   1
                         Standard orientation:                         
 ---------------------------------------------------------------------
 Center     Atomic      Atomic             Coordinates (Angstroms)
 Number     Number       Type             X           Y           Z
 ---------------------------------------------------------------------
      1          6           0       -0.418655    2.824876    0.044975
      2          6           0       -0.849522    4.185819    0.396407
      3          6           0       -1.356420    1.831369   -0.210148
      4          6           0       -0.943280    0.541703   -0.545568
      5          1           0       -2.414191    2.039220   -0.157550
      6          6           0        0.417372    0.262802   -0.621216
      7          6           0        1.369753    1.250853   -0.367828
      8          1           0        0.764619   -0.725757   -0.881745
      9          6           0        0.943216    2.531218   -0.034690
     10          6           0        2.792371    0.950361   -0.450979
     11          1           0        1.653820    3.319767    0.167423
     12          6           0       -1.920575   -0.504091   -0.815675
     13          8           0       -0.112961    5.109090    0.629778
     14          6           0       -4.099896   -1.321946   -0.994119
     15          6           0       -4.976335   -1.550069    0.275452
     16          7           0       -3.160821   -0.281009   -0.756114
     17          7           0       -5.606844   -0.325547    0.731276
     18          6           0        4.961820   -1.575489    0.265448
     19          6           0        4.602487   -0.484000   -0.788787
     20          7           0        4.146754   -2.766943    0.116781
     21          7           0        3.208798   -0.204253   -0.743120
     22          1           0       -1.950289    4.307616    0.432534
     23          1           0        4.286647   -3.179512   -0.799281
     24          1           0        3.166537   -2.519272    0.197025
     25          1           0       -6.215785    0.049185    0.011789
     26          1           0       -4.895726    0.370528    0.927011
     27          1           0       -1.509004   -1.490307   -1.079248
     28          1           0        3.473056    1.791136   -0.249721
     29          6           0       -4.099848   -2.081321    1.411237
     30          6           0        6.428795   -1.968431    0.087121
     31          1           0        4.819143   -0.889019   -1.783401
     32          1           0        5.225078    0.410644   -0.623348
     33          1           0        6.681706   -2.743333    0.805188
     34          1           0        7.078915   -1.112283    0.245913
     35          1           0        6.603225   -2.356744   -0.914270
     36          1           0       -4.757287   -0.986190   -1.803574
     37          1           0       -3.622625   -2.270485   -1.291141
     38          1           0       -3.662049   -3.039430    1.143147
     39          1           0       -4.705059   -2.204760    2.304657
     40          1           0       -3.298598   -1.378712    1.630978
     41          6           0       -6.072926   -2.562063   -0.058843
     42          1           0       -6.696272   -2.197779   -0.872718
     43          1           0       -6.700932   -2.710880    0.814950
     44          1           0       -5.641307   -3.515500   -0.351511
     45          6           0        4.734229   -1.019773    1.672534
     46          1           0        3.698628   -0.709107    1.793763
     47          1           0        5.380328   -0.165291    1.857273
     48          1           0        4.950370   -1.793110    2.403939
 ---------------------------------------------------------------------
 Rotational constants (GHZ):           0.3261128           0.1151022           0.0901901
 Leave Link  202 at Mon Nov  8 15:51:26 2021, MaxMem=  7864320000 cpu:               0.3 elap:               0.0
 (Enter /apps/gaussian/g16-c01-avx/g16/l301.exe)
 Standard basis: Aug-CC-pVDZ (5D, 7F)
 Ernie: Thresh=  0.10000D-02 Tol=  0.10000D-05 Strict=F.
 Ernie:  44 primitive shells out of 732 were deleted.
 There are   784 symmetry adapted cartesian basis functions of A   symmetry.
 There are   740 symmetry adapted basis functions of A   symmetry.
   740 basis functions,  1232 primitive gaussians,   784 cartesian basis functions
    82 alpha electrons       82 beta electrons
       nuclear repulsion energy      1707.5400818421 Hartrees.
 IExCor=    0 DFT=F Ex=HF Corr=None ExCW=0 ScaHFX=  1.000000
 ScaDFX=  1.000000  1.000000  1.000000  1.000000 ScalE2=  1.000000  1.000000
 IRadAn=      7 IRanWt=     -1 IRanGd=            0 ICorTp=0 IEmpDi=  4
 NAtoms=   48 NActive=   48 NUniq=   48 SFac= 1.00D+00 NAtFMM=   60 NAOKFM=F Big=F
 Integral buffers will be    131072 words long.
 Raffenetti 1 integral format.
 Two-electron integral symmetry is turned on.
 Leave Link  301 at Mon Nov  8 15:51:27 2021, MaxMem=  7864320000 cpu:               3.5 elap:               0.1
 (Enter /apps/gaussian/g16-c01-avx/g16/l302.exe)
 NPDir=0 NMtPBC=     1 NCelOv=     1 NCel=       1 NClECP=     1 NCelD=      1
         NCelK=      1 NCelE2=     1 NClLst=     1 CellRange=     0.0.
 One-electron integrals computed using PRISM.
 One-electron integral symmetry used in STVInt
 NBasis=   740 RedAO= T EigKep=  1.30D-06  NBF=   740
 NBsUse=   738 1.00D-06 EigRej=  9.94D-07 NBFU=   738
 Leave Link  302 at Mon Nov  8 15:51:28 2021, MaxMem=  7864320000 cpu:              32.9 elap:               1.1
 (Enter /apps/gaussian/g16-c01-avx/g16/l303.exe)
 DipDrv:  MaxL=1.
 Leave Link  303 at Mon Nov  8 15:51:29 2021, MaxMem=  7864320000 cpu:               5.0 elap:               0.2
 (Enter /apps/gaussian/g16-c01-avx/g16/l401.exe)
 ExpMin= 2.97D-02 ExpMax= 1.17D+04 ExpMxC= 4.01D+02 IAcc=3 IRadAn=         7 AccDes= 0.00D+00
 Harris functional with IExCor=  205 and IRadAn=       7 diagonalized for initial guess.
 HarFok:  IExCor=  205 AccDes= 0.00D+00 IRadAn=         7 IDoV= 1 UseB2=F ITyADJ=14
 ICtDFT=  3500011 ScaDFX=  1.000000  1.000000  1.000000  1.000000
 FoFCou: FMM=F IPFlag=           0 FMFlag=      100000 FMFlg1=           0
         NFxFlg=           0 DoJE=T BraDBF=F KetDBF=T FulRan=T
         wScrn=  0.000000 ICntrl=       500 IOpCl=  0 I1Cent=   200000004 NGrid=           0
         NMat0=    1 NMatS0=      1 NMatT0=    0 NMatD0=    1 NMtDS0=    0 NMtDT0=    0
 Petite list used in FoFCou.
 Harris En= -953.071994383502    
 JPrj=0 DoOrth=F DoCkMO=F.
 Leave Link  401 at Mon Nov  8 15:51:35 2021, MaxMem=  7864320000 cpu:             189.0 elap:               6.0
 (Enter /apps/gaussian/g16-c01-avx/g16/l508.exe)
 Integral symmetry usage will be decided dynamically.
 Tight linear equation convergence will be used.
 RHF wavefunction.
 Linear searches until partial convergence.
 Full line searches.
 Fock matrices will be formed incrementally for  20 cycles.
 FoFJK:  IHMeth= 1 ICntrl=       0 DoSepK=F KAlg= 0 I1Cent=           0 FoldK=F
 IRaf= 860000000 NMat=       1 IRICut=       1 DoRegI=T DoRafI=F ISym2E= 1 IDoP0=0 IntGTp=1.
 FoFCou: FMM=F IPFlag=           0 FMFlag=      100000 FMFlg1=           0
         NFxFlg=           0 DoJE=F BraDBF=F KetDBF=F FulRan=T
         wScrn=  0.000000 ICntrl=         0 IOpCl=  0 I1Cent=           0 NGrid=           0
         NMat0=    1 NMatS0=      1 NMatT0=    0 NMatD0=    1 NMtDS0=    0 NMtDT0=    0
 Petite list used in FoFCou.
 Iteration   1 EE= -950.719727803949                                    Grad=1.526D+00 Max rot=    2.6562 deg.
 Gradient too large for Newton-Raphson -- use scaled steepest descent instead.
 Alpha Gap=     0.378 HL deriv= 1.97D-03
     ILin= 1 X=0.000D+00 Y=-9.507197278039D+02 DE= 0.00D+00 F= -3.01D+00
 RMSU=  7.07D-03    CP:  7.81D-01
     ILin= 2 X=3.000D-01 Y=-9.513883059586D+02 DE=-6.69D-01 F= -1.44D+00 OKLS=F
 RMSU=  1.43D-03    CP:  6.63D-01  1.48D+00
     ILin= 3 X=5.000D-01 Y=-9.515712106857D+02 DE=-8.51D-01 F= -3.87D-01
 RMSU=  1.42D-03    CP:  5.26D-01  1.91D+00  3.00D+00
     ILin= 4 X=8.000D-01 Y=-9.514504151979D+02 DE=-7.31D-01 F=  1.19D+00
     An  expanding polynomial of degree  4 produced  0.5737
 RMSU=  2.56D-06    CP:  6.24D-01  1.61D+00  1.57D+00  3.26D-05
 Iteration   2 EE= -951.585381157391     Delta-E=       -0.865653353442 Grad=5.116D-01 Max rot=    1.4968 deg.
 Gradient too large for Newton-Raphson -- use scaled steepest descent instead.
 Alpha Gap=     0.432 HL deriv= 1.04D-03
     ILin= 1 X=0.000D+00 Y=-9.515853811574D+02 DE= 0.00D+00 F= -1.42D-01
 RMSU=  1.55D-03    CP:  5.52D-01  1.72D+00  2.69D+00  2.03D-03  3.00D+00
     ILin= 2 X=4.000D-01 Y=-9.516285153892D+02 DE=-4.31D-02 F= -7.34D-02 OKLS=F
 RMSU=  2.64D-04    CP:  4.91D-01  1.77D+00  3.00D+00  1.12D+00  3.00D+00
                    CP:  1.88D+00
     ILin= 3 X=8.000D-01 Y=-9.516441252221D+02 DE=-5.87D-02 F= -4.74D-03
 RMSU=  3.71D-03    CP:  3.95D-01  1.66D+00  3.00D+00  3.00D+00  3.00D+00
                    CP:  3.00D+00  3.00D+00
     ILin= 4 X=1.700D+00 Y=-9.515794486146D+02 DE= 5.93D-03 F=  1.48D-01
     An  expanding polynomial of degree  4 produced  0.8278
     Minimum is close to point  3 DX=  2.78D-02 DF= -6.61D-05 DXR=  3.36D-02 DFR=  1.12D-03 which will be used.
 Iteration   3 EE= -951.644125222115     Delta-E=       -0.058744064724 Grad=1.500D-01 Max rot=    0.3112 deg.
 Gradient too large for Newton-Raphson -- use scaled steepest descent instead.
 Alpha Gap=     0.416 HL deriv= 2.27D-04
     ILin= 1 X=0.000D+00 Y=-9.516441252221D+02 DE= 0.00D+00 F= -2.11D-02
 RMSU=  7.86D-04    CP:  4.69D-01  1.76D+00  3.00D+00  2.03D+00  3.00D+00
                    CP:  2.18D+00  1.54D+00 -5.23D-04
     ILin= 2 X=7.000D-01 Y=-9.516512341012D+02 DE=-7.11D-03 F=  7.80D-04 OKLS=T
     Accept linear search using points  1 and  2.
     An  expanding polynomial of degree  2 produced  0.6265
 RMSU=  3.33D-06    CP:  4.71D-01  1.76D+00  3.00D+00  1.93D+00  3.00D+00
                    CP:  2.15D+00  1.48D+00 -4.72D-04  8.98D-01
 Iteration   4 EE= -951.651207079257     Delta-E=       -0.007081857142 Grad=6.025D-02 Max rot=    0.1624 deg.
 Gradient too large for Newton-Raphson -- use scaled steepest descent instead.
 Alpha Gap=     0.425 HL deriv= 1.14D-03
     ILin= 1 X=0.000D+00 Y=-9.516512070793D+02 DE= 0.00D+00 F= -3.02D-03
 RMSU=  1.86D-04    CP:  4.60D-01  1.76D+00  3.00D+00  2.25D+00  3.00D+00
                    CP:  2.36D+00  2.08D+00 -5.88D-04  1.09D+00 -3.00D+00
     ILin= 2 X=7.000D-01 Y=-9.516525116595D+02 DE=-1.30D-03 F= -7.12D-04 OKLS=T
     Reject lnstep IMin12=  1  2 Big=T Turn=F Min= 1.207D+00 FVal=-9.516529033664D+02 Lims=  0.00D+00  7.00D-01
 RMSU=  2.56D-05    CP:  4.48D-01  1.75D+00  3.00D+00  2.59D+00  3.00D+00
                    CP:  2.56D+00  2.76D+00 -6.89D-04  1.27D+00 -3.00D+00
                    CP:  2.00D+00
     ILin= 3 X=1.400D+00 Y=-9.516522054345D+02 DE=-9.98D-04 F=  1.59D-03
     An  expanding polynomial of degree  3 produced  0.9169
 RMSU=  7.30D-07    CP:  4.56D-01  1.75D+00  3.00D+00  2.36D+00  3.00D+00
                    CP:  2.42D+00  2.29D+00 -6.21D-04  1.14D+00 -3.00D+00
                    CP:  1.31D+00  2.51D-01
 Iteration   5 EE= -951.652588791869     Delta-E=       -0.001381712611 Grad=2.341D-02 Max rot=    0.1019 deg.
 Gradient too large for Newton-Raphson -- use scaled steepest descent instead.
 Alpha Gap=     0.424 HL deriv= 4.99D-04
     ILin= 1 X=0.000D+00 Y=-9.516525887919D+02 DE= 0.00D+00 F= -8.64D-04
 RMSU=  8.21D-05    CP:  4.54D-01  1.75D+00  3.00D+00  2.45D+00  3.00D+00
                    CP:  2.45D+00  2.36D+00 -7.22D-04  1.36D+00 -3.00D+00
                    CP:  1.40D+00  9.29D-01  3.00D+00
     ILin= 2 X=8.000D-01 Y=-9.516528167982D+02 DE=-2.28D-04 F=  2.94D-04 OKLS=T
     Accept linear search using points  1 and  2.
     An  expanding polynomial of degree  2 produced  0.5466
 RMSU=  5.31D-07    CP:  4.55D-01  1.75D+00  3.00D+00  2.42D+00  3.00D+00
                    CP:  2.44D+00  2.33D+00 -6.90D-04  1.29D+00 -3.00D+00
                    CP:  1.37D+00  7.05D-01  3.00D+00  6.82D-01
 Iteration   6 EE= -951.652844878819     Delta-E=       -0.000256086950 Grad=8.285D-03 Max rot=    0.0394 deg.
 SCF Done:  E(RHF) =  -951.652844879     a.u. after    6 cycles
            Convg  =    0.8285D-02                    15 Fock formations.
              S**2 =  0.0000                  -V/T =  2.0005
 Leave Link  508 at Mon Nov  8 15:58:01 2021, MaxMem=  7864320000 cpu:           12187.5 elap:             385.1
 (Enter /apps/gaussian/g16-c01-avx/g16/l502.exe)
 Integral symmetry usage will be decided dynamically.
 Closed shell SCF:
 Using DIIS extrapolation, IDIIS=  1040.
 NGot=  7864320000 LenX=  7863057070 LenY=  7862441630
 Requested convergence on RMS density matrix=1.00D-08 within 128 cycles.
 Requested convergence on MAX density matrix=1.00D-06.
 Requested convergence on             energy=1.00D-06.
 No special actions if energy rises.
 Fock matrices will be formed incrementally for  20 cycles.

 Cycle   1  Pass 1  IDiag  1:
 FoFJK:  IHMeth= 1 ICntrl=       0 DoSepK=F KAlg= 0 I1Cent=           0 FoldK=F
 IRaf= 860000000 NMat=       1 IRICut=       1 DoRegI=T DoRafI=F ISym2E= 0 IDoP0=0 IntGTp=1.
 FoFCou: FMM=F IPFlag=           0 FMFlag=      100000 FMFlg1=           0
         NFxFlg=           0 DoJE=F BraDBF=F KetDBF=F FulRan=T
         wScrn=  0.000000 ICntrl=         0 IOpCl=  0 I1Cent=           0 NGrid=           0
         NMat0=    1 NMatS0=      1 NMatT0=    0 NMatD0=    1 NMtDS0=    0 NMtDT0=    0
 Symmetry not used in FoFCou.
 E= -951.652844880401    
 DIIS: error= 1.29D-04 at cycle   1 NSaved=   1.
 NSaved= 1 IEnMin= 1 EnMin= -951.652844880401     IErMin= 1 ErrMin= 1.29D-04
 ErrMax= 1.29D-04  0.00D+00 EMaxC= 1.00D-01 BMatC= 3.43D-05 BMatP= 3.43D-05
 IDIUse=3 WtCom= 9.99D-01 WtEn= 1.29D-03
 Coeff-Com:  0.100D+01
 Coeff-En:   0.100D+01
 Coeff:      0.100D+01
 Gap=     0.426 Goal=   None    Shift=    0.000
 RMSDP=2.15D-04 MaxDP=3.06D-02              OVMax= 2.95D-03

 Cycle   2  Pass 1  IDiag  1:
 RMSU=  1.81D-04    CP:  9.97D-01
 E= -951.652918815955     Delta-E=       -0.000073935555 Rises=F Damp=F
 DIIS: error= 8.20D-05 at cycle   2 NSaved=   2.
 NSaved= 2 IEnMin= 2 EnMin= -951.652918815955     IErMin= 2 ErrMin= 8.20D-05
 ErrMax= 8.20D-05  0.00D+00 EMaxC= 1.00D-01 BMatC= 6.29D-06 BMatP= 3.43D-05
 IDIUse=1 WtCom= 1.00D+00 WtEn= 0.00D+00
 Coeff-Com:  0.241D-01 0.976D+00
 Coeff:      0.241D-01 0.976D+00
 Gap=     0.365 Goal=   None    Shift=    0.000
 RMSDP=4.13D-05 MaxDP=4.46D-03 DE=-7.39D-05 OVMax= 1.40D-03

 Cycle   3  Pass 1  IDiag  1:
 RMSU=  2.94D-05    CP:  9.97D-01  1.16D+00
 E= -951.652931342110     Delta-E=       -0.000012526155 Rises=F Damp=F
 DIIS: error= 3.79D-05 at cycle   3 NSaved=   3.
 NSaved= 3 IEnMin= 3 EnMin= -951.652931342110     IErMin= 3 ErrMin= 3.79D-05
 ErrMax= 3.79D-05  0.00D+00 EMaxC= 1.00D-01 BMatC= 2.61D-06 BMatP= 6.29D-06
 IDIUse=1 WtCom= 1.00D+00 WtEn= 0.00D+00
 Coeff-Com: -0.189D+00 0.372D+00 0.817D+00
 Coeff:     -0.189D+00 0.372D+00 0.817D+00
 Gap=     0.365 Goal=   None    Shift=    0.000
 RMSDP=1.94D-05 MaxDP=1.96D-03 DE=-1.25D-05 OVMax= 1.01D-03

 Cycle   4  Pass 1  IDiag  1:
 RMSU=  1.29D-05    CP:  9.97D-01  1.23D+00  1.22D+00
 E= -951.652936099922     Delta-E=       -0.000004757811 Rises=F Damp=F
 DIIS: error= 1.75D-05 at cycle   4 NSaved=   4.
 NSaved= 4 IEnMin= 4 EnMin= -951.652936099922     IErMin= 4 ErrMin= 1.75D-05
 ErrMax= 1.75D-05  0.00D+00 EMaxC= 1.00D-01 BMatC= 1.82D-07 BMatP= 2.61D-06
 IDIUse=1 WtCom= 1.00D+00 WtEn= 0.00D+00
 Coeff-Com:  0.625D-01-0.213D+00-0.289D+00 0.144D+01
 Coeff:      0.625D-01-0.213D+00-0.289D+00 0.144D+01
 Gap=     0.365 Goal=   None    Shift=    0.000
 RMSDP=1.41D-05 MaxDP=1.50D-03 DE=-4.76D-06 OVMax= 6.87D-04

 Cycle   5  Pass 1  IDiag  1:
 RMSU=  6.08D-06    CP:  9.97D-01  1.23D+00  1.51D+00  1.57D+00
 E= -951.652937219546     Delta-E=       -0.000001119625 Rises=F Damp=F
 DIIS: error= 7.35D-06 at cycle   5 NSaved=   5.
 NSaved= 5 IEnMin= 5 EnMin= -951.652937219546     IErMin= 5 ErrMin= 7.35D-06
 ErrMax= 7.35D-06  0.00D+00 EMaxC= 1.00D-01 BMatC= 4.47D-08 BMatP= 1.82D-07
 IDIUse=1 WtCom= 1.00D+00 WtEn= 0.00D+00
 Coeff-Com:  0.352D-01-0.804D-01-0.160D+00 0.201D+00 0.101D+01
 Coeff:      0.352D-01-0.804D-01-0.160D+00 0.201D+00 0.101D+01
 Gap=     0.365 Goal=   None    Shift=    0.000
 RMSDP=5.46D-06 MaxDP=5.83D-04 DE=-1.12D-06 OVMax= 3.22D-04

 Cycle   6  Pass 1  IDiag  1:
 RMSU=  1.85D-06    CP:  9.97D-01  1.23D+00  1.59D+00  1.83D+00  1.41D+00
 E= -951.652937439904     Delta-E=       -0.000000220357 Rises=F Damp=F
 DIIS: error= 4.65D-06 at cycle   6 NSaved=   6.
 NSaved= 6 IEnMin= 6 EnMin= -951.652937439904     IErMin= 6 ErrMin= 4.65D-06
 ErrMax= 4.65D-06  0.00D+00 EMaxC= 1.00D-01 BMatC= 1.13D-08 BMatP= 4.47D-08
 IDIUse=1 WtCom= 1.00D+00 WtEn= 0.00D+00
 Coeff-Com: -0.213D-01 0.765D-01 0.103D+00-0.539D+00 0.489D-01 0.133D+01
 Coeff:     -0.213D-01 0.765D-01 0.103D+00-0.539D+00 0.489D-01 0.133D+01
 Gap=     0.365 Goal=   None    Shift=    0.000
 RMSDP=4.55D-06 MaxDP=4.29D-04 DE=-2.20D-07 OVMax= 2.33D-04

 Cycle   7  Pass 1  IDiag  1:
 RMSU=  1.33D-06    CP:  9.97D-01  1.24D+00  1.65D+00  2.01D+00  1.90D+00
                    CP:  1.49D+00
 E= -951.652937515204     Delta-E=       -0.000000075300 Rises=F Damp=F
 DIIS: error= 1.11D-06 at cycle   7 NSaved=   7.
 NSaved= 7 IEnMin= 7 EnMin= -951.652937515204     IErMin= 7 ErrMin= 1.11D-06
 ErrMax= 1.11D-06  0.00D+00 EMaxC= 1.00D-01 BMatC= 1.27D-09 BMatP= 1.13D-08
 IDIUse=1 WtCom= 1.00D+00 WtEn= 0.00D+00
 Coeff-Com: -0.725D-02 0.207D-01 0.384D-01-0.124D+00-0.830D-01 0.258D+00
 Coeff-Com:  0.897D+00
 Coeff:     -0.725D-02 0.207D-01 0.384D-01-0.124D+00-0.830D-01 0.258D+00
 Coeff:      0.897D+00
 Gap=     0.365 Goal=   None    Shift=    0.000
 RMSDP=8.99D-07 MaxDP=7.26D-05 DE=-7.53D-08 OVMax= 4.17D-05

 Cycle   8  Pass 1  IDiag  1:
 RMSU=  3.31D-07    CP:  9.97D-01  1.24D+00  1.67D+00  2.04D+00  1.95D+00
                    CP:  1.70D+00  1.18D+00
 E= -951.652937519204     Delta-E=       -0.000000004001 Rises=F Damp=F
 DIIS: error= 4.79D-07 at cycle   8 NSaved=   8.
 NSaved= 8 IEnMin= 8 EnMin= -951.652937519204     IErMin= 8 ErrMin= 4.79D-07
 ErrMax= 4.79D-07  0.00D+00 EMaxC= 1.00D-01 BMatC= 2.67D-10 BMatP= 1.27D-09
 IDIUse=1 WtCom= 1.00D+00 WtEn= 0.00D+00
 Coeff-Com:  0.440D-02-0.180D-01-0.176D-01 0.119D+00-0.279D-01-0.302D+00
 Coeff-Com:  0.126D+00 0.112D+01
 Coeff:      0.440D-02-0.180D-01-0.176D-01 0.119D+00-0.279D-01-0.302D+00
 Coeff:      0.126D+00 0.112D+01
 Gap=     0.365 Goal=   None    Shift=    0.000
 RMSDP=4.90D-07 MaxDP=3.66D-05 DE=-4.00D-09 OVMax= 2.19D-05

 Cycle   9  Pass 1  IDiag  1:
 RMSU=  1.89D-07    CP:  9.97D-01  1.24D+00  1.67D+00  2.05D+00  1.98D+00
                    CP:  1.78D+00  1.36D+00  1.34D+00
 E= -951.652937520319     Delta-E=       -0.000000001115 Rises=F Damp=F
 DIIS: error= 1.67D-07 at cycle   9 NSaved=   9.
 NSaved= 9 IEnMin= 9 EnMin= -951.652937520319     IErMin= 9 ErrMin= 1.67D-07
 ErrMax= 1.67D-07  0.00D+00 EMaxC= 1.00D-01 BMatC= 3.72D-11 BMatP= 2.67D-10
 IDIUse=1 WtCom= 1.00D+00 WtEn= 0.00D+00
 Coeff-Com:  0.123D-03-0.188D-03 0.498D-04-0.553D-02 0.100D-01 0.181D-01
 Coeff-Com: -0.132D+00-0.132D+00 0.124D+01
 Coeff:      0.123D-03-0.188D-03 0.498D-04-0.553D-02 0.100D-01 0.181D-01
 Coeff:     -0.132D+00-0.132D+00 0.124D+01
 Gap=     0.365 Goal=   None    Shift=    0.000
 RMSDP=1.78D-07 MaxDP=1.28D-05 DE=-1.11D-09 OVMax= 6.89D-06

 Cycle  10  Pass 1  IDiag  1:
 RMSU=  5.73D-08    CP:  9.97D-01  1.24D+00  1.68D+00  2.06D+00  1.99D+00
                    CP:  1.81D+00  1.39D+00  1.48D+00  1.49D+00
 E= -951.652937520464     Delta-E=       -0.000000000145 Rises=F Damp=F
 DIIS: error= 7.48D-08 at cycle  10 NSaved=  10.
 NSaved=10 IEnMin=10 EnMin= -951.652937520464     IErMin=10 ErrMin= 7.48D-08
 ErrMax= 7.48D-08  0.00D+00 EMaxC= 1.00D-01 BMatC= 6.29D-12 BMatP= 3.72D-11
 IDIUse=1 WtCom= 1.00D+00 WtEn= 0.00D+00
 Coeff-Com: -0.937D-03 0.377D-02 0.448D-02-0.265D-01 0.684D-02 0.704D-01
 Coeff-Com: -0.404D-01-0.243D+00 0.102D+00 0.112D+01
 Coeff:     -0.937D-03 0.377D-02 0.448D-02-0.265D-01 0.684D-02 0.704D-01
 Coeff:     -0.404D-01-0.243D+00 0.102D+00 0.112D+01
 Gap=     0.365 Goal=   None    Shift=    0.000
 RMSDP=5.60D-08 MaxDP=4.17D-06 DE=-1.45D-10 OVMax= 2.81D-06

 Cycle  11  Pass 1  IDiag  1:
 RMSU=  2.46D-08    CP:  9.97D-01  1.24D+00  1.68D+00  2.06D+00  1.99D+00
                    CP:  1.83D+00  1.39D+00  1.54D+00  1.67D+00  1.35D+00
 E= -951.652937520442     Delta-E=        0.000000000022 Rises=F Damp=F
 DIIS: error= 2.80D-08 at cycle  11 NSaved=  11.
 NSaved=11 IEnMin=10 EnMin= -951.652937520464     IErMin=11 ErrMin= 2.80D-08
 ErrMax= 2.80D-08  0.00D+00 EMaxC= 1.00D-01 BMatC= 8.30D-13 BMatP= 6.29D-12
 IDIUse=1 WtCom= 1.00D+00 WtEn= 0.00D+00
 Coeff-Com:  0.602D-05-0.105D-03 0.114D-04 0.124D-02-0.186D-02-0.416D-02
 Coeff-Com:  0.207D-01 0.240D-01-0.178D+00-0.281D-02 0.114D+01
 Coeff:      0.602D-05-0.105D-03 0.114D-04 0.124D-02-0.186D-02-0.416D-02
 Coeff:      0.207D-01 0.240D-01-0.178D+00-0.281D-02 0.114D+01
 Gap=     0.365 Goal=   None    Shift=    0.000
 RMSDP=2.20D-08 MaxDP=1.57D-06 DE= 2.23D-11 OVMax= 1.16D-06

 Cycle  12  Pass 1  IDiag  1:
 RMSU=  9.51D-09    CP:  9.97D-01  1.24D+00  1.68D+00  2.06D+00  1.99D+00
                    CP:  1.83D+00  1.40D+00  1.55D+00  1.70D+00  1.52D+00
                    CP:  1.33D+00
 E= -951.652937520452     Delta-E=       -0.000000000010 Rises=F Damp=F
 DIIS: error= 1.60D-08 at cycle  12 NSaved=  12.
 NSaved=12 IEnMin=10 EnMin= -951.652937520464     IErMin=12 ErrMin= 1.60D-08
 ErrMax= 1.60D-08  0.00D+00 EMaxC= 1.00D-01 BMatC= 1.75D-13 BMatP= 8.30D-13
 IDIUse=1 WtCom= 1.00D+00 WtEn= 0.00D+00
 Coeff-Com:  0.176D-03-0.731D-03-0.837D-03 0.529D-02-0.179D-02-0.142D-01
 Coeff-Com:  0.134D-01 0.504D-01-0.675D-01-0.200D+00 0.236D+00 0.980D+00
 Coeff:      0.176D-03-0.731D-03-0.837D-03 0.529D-02-0.179D-02-0.142D-01
 Coeff:      0.134D-01 0.504D-01-0.675D-01-0.200D+00 0.236D+00 0.980D+00
 Gap=     0.365 Goal=   None    Shift=    0.000
 RMSDP=9.70D-09 MaxDP=6.10D-07 DE=-1.00D-11 OVMax= 5.71D-07

 SCF Done:  E(RHF) =  -951.652937520     A.U. after   12 cycles
            NFock= 12  Conv=0.97D-08     -V/T= 2.0005
 KE= 9.511851682846D+02 PE=-5.636224124686D+03 EE= 2.025845937038D+03
 Leave Link  502 at Mon Nov  8 16:02:48 2021, MaxMem=  7864320000 cpu:            9042.3 elap:             286.4
 (Enter /apps/gaussian/g16-c01-avx/g16/l508.exe)
 QCSCF skips out because SCF is already converged.
 Leave Link  508 at Mon Nov  8 16:02:48 2021, MaxMem=  7864320000 cpu:               0.1 elap:               0.0
 (Enter /apps/gaussian/g16-c01-avx/g16/l801.exe)
 ExpMin= 2.97D-02 ExpMax= 1.17D+04 ExpMxC= 4.01D+02 IAcc=3 IRadAn=         7 AccDes= 0.00D+00
 HarFok:  IExCor=  205 AccDes= 0.00D+00 IRadAn=         7 IDoV=-2 UseB2=F ITyADJ=14
 ICtDFT= 12500011 ScaDFX=  1.000000  1.000000  1.000000  1.000000
 GSVD:  LWork=        -660 too small for GESVD, short by        2750 words or        2750 for optimal perf.
 Largest valence mixing into a core orbital is  1.10D-04
 Largest core mixing into a valence orbital is  4.17D-05
 Range of M.O.s used for correlation:    23   738
 NBasis=   740 NAE=    82 NBE=    82 NFC=    22 NFV=     0
 NROrb=    716 NOA=    60 NOB=    60 NVA=   656 NVB=   656

 **** Warning!!: The largest alpha MO coefficient is  0.11732678D+03

 Leave Link  801 at Mon Nov  8 16:02:49 2021, MaxMem=  7864320000 cpu:              11.2 elap:               0.4
 (Enter /apps/gaussian/g16-c01-avx/g16/l906.exe)
 FulOut=F Deriv=F AODrv=F NAtomX=    48
   MMem=           7  MDisk=          60 MDiskD=          60
  W3Min=    30858240 MinDsk=    31095128 NBas6D=         784
 NBas2D=      308734    NTT=      307720    LW2=     2000000
    MDV=  7860929502 MDiskM=      139224 NBas2p=      245621
 Disk-based method using OVN memory for 60 occupieds at a time.
 Estimated scratch disk usage= 34070965624 words.
 IMap=   1   2   3   4   5   6   7   8   9  10  11  12  13  14  15  16  17  18  19  20
 IMap=  21  22  23  24  25  26  27  28  29  30  31  32  33  34  35  36  37  38  39  40
 IMap=  41  42  43  44  45  46  47  48  49  50  51  52  53  54  55  56  57  58  59  60
 Actual    scratch disk usage= 29004285048 words.
 JobTyp=1 Pass  1:  I=   1 to  60 NPSUse= 32 ParTrn=T ParDer=T DoDerP=F.
 Spin components of T(2) and E(2):
     alpha-alpha T2 =       0.1549844984D+00 E2=     -0.4258767820D+00
     alpha-beta  T2 =       0.8375321318D+00 E2=     -0.2446392722D+01
     beta-beta   T2 =       0.1549844984D+00 E2=     -0.4258767820D+00
 The integrals were generated   1 times.
 ANorm=    0.1465435474D+01
 E2 =    -0.3298146286D+01 EUMP2 =    -0.95495108380615D+03
 Leave Link  906 at Mon Nov  8 16:36:36 2021, MaxMem=  7864320000 cpu:           63414.7 elap:            2026.7
 (Enter /apps/gaussian/g16-c01-avx/g16/l601.exe)
 Copying SCF densities to generalized density rwf, IOpCl= 0 IROHF=0.

 **********************************************************************

            Population analysis using the SCF Density.

 **********************************************************************

 Orbital symmetries:
       Occupied  (A) (A) (A) (A) (A) (A) (A) (A) (A) (A) (A) (A)
                 (A) (A) (A) (A) (A) (A) (A) (A) (A) (A) (A) (A)
                 (A) (A) (A) (A) (A) (A) (A) (A) (A) (A) (A) (A)
                 (A) (A) (A) (A) (A) (A) (A) (A) (A) (A) (A) (A)
                 (A) (A) (A) (A) (A) (A) (A) (A) (A) (A) (A) (A)
                 (A) (A) (A) (A) (A) (A) (A) (A) (A) (A) (A) (A)
                 (A) (A) (A) (A) (A) (A) (A) (A) (A) (A)
       Virtual   (A) (A) (A) (A) (A) (A) (A) (A) (A) (A) (A) (A)
                 (A) (A) (A) (A) (A) (A) (A) (A) (A) (A) (A) (A)
                 (A) (A) (A) (A) (A) (A) (A) (A) (A) (A) (A) (A)
                 (A) (A) (A) (A) (A) (A) (A) (A) (A) (A) (A) (A)
                 (A) (A) (A) (A) (A) (A) (A) (A) (A) (A) (A) (A)
                 (A) (A) (A) (A) (A) (A) (A) (A) (A) (A) (A) (A)
                 (A) (A) (A) (A) (A) (A) (A) (A) (A) (A) (A) (A)
                 (A) (A) (A) (A) (A) (A) (A) (A) (A) (A) (A) (A)
                 (A) (A) (A) (A) (A) (A) (A) (A) (A) (A) (A) (A)
                 (A) (A) (A) (A) (A) (A) (A) (A) (A) (A) (A) (A)
                 (A) (A) (A) (A) (A) (A) (A) (A) (A) (A) (A) (A)
                 (A) (A) (A) (A) (A) (A) (A) (A) (A) (A) (A) (A)
                 (A) (A) (A) (A) (A) (A) (A) (A) (A) (A) (A) (A)
                 (A) (A) (A) (A) (A) (A) (A) (A) (A) (A) (A) (A)
                 (A) (A) (A) (A) (A) (A) (A) (A) (A) (A) (A) (A)
                 (A) (A) (A) (A) (A) (A) (A) (A) (A) (A) (A) (A)
                 (A) (A) (A) (A) (A) (A) (A) (A) (A) (A) (A) (A)
                 (A) (A) (A) (A) (A) (A) (A) (A) (A) (A) (A) (A)
                 (A) (A) (A) (A) (A) (A) (A) (A) (A) (A) (A) (A)
                 (A) (A) (A) (A) (A) (A) (A) (A) (A) (A) (A) (A)
                 (A) (A) (A) (A) (A) (A) (A) (A) (A) (A) (A) (A)
                 (A) (A) (A) (A) (A) (A) (A) (A) (A) (A) (A) (A)
                 (A) (A) (A) (A) (A) (A) (A) (A) (A) (A) (A) (A)
                 (A) (A) (A) (A) (A) (A) (A) (A) (A) (A) (A) (A)
                 (A) (A) (A) (A) (A) (A) (A) (A) (A) (A) (A) (A)
                 (A) (A) (A) (A) (A) (A) (A) (A) (A) (A) (A) (A)
                 (A) (A) (A) (A) (A) (A) (A) (A) (A) (A) (A) (A)
                 (A) (A) (A) (A) (A) (A) (A) (A) (A) (A) (A) (A)
                 (A) (A) (A) (A) (A) (A) (A) (A) (A) (A) (A) (A)
                 (A) (A) (A) (A) (A) (A) (A) (A) (A) (A) (A) (A)
                 (A) (A) (A) (A) (A) (A) (A) (A) (A) (A) (A) (A)
                 (A) (A) (A) (A) (A) (A) (A) (A) (A) (A) (A) (A)
                 (A) (A) (A) (A) (A) (A) (A) (A) (A) (A) (A) (A)
                 (A) (A) (A) (A) (A) (A) (A) (A) (A) (A) (A) (A)
                 (A) (A) (A) (A) (A) (A) (A) (A) (A) (A) (A) (A)
                 (A) (A) (A) (A) (A) (A) (A) (A) (A) (A) (A) (A)
                 (A) (A) (A) (A) (A) (A) (A) (A) (A) (A) (A) (A)
                 (A) (A) (A) (A) (A) (A) (A) (A) (A) (A) (A) (A)
                 (A) (A) (A) (A) (A) (A) (A) (A) (A) (A) (A) (A)
                 (A) (A) (A) (A) (A) (A) (A) (A) (A) (A) (A) (A)
                 (A) (A) (A) (A) (A) (A) (A) (A) (A) (A) (A) (A)
                 (A) (A) (A) (A) (A) (A) (A) (A) (A) (A) (A) (A)
                 (A) (A) (A) (A) (A) (A) (A) (A) (A) (A) (A) (A)
                 (A) (A) (A) (A) (A) (A) (A) (A) (A) (A) (A) (A)
                 (A) (A) (A) (A) (A) (A) (A) (A) (A) (A) (A) (A)
                 (A) (A) (A) (A) (A) (A) (A) (A) (A) (A) (A) (A)
                 (A) (A) (A) (A) (A) (A) (A) (A) (A) (A) (A) (A)
                 (A) (A) (A) (A) (A) (A) (A) (A) (A) (A) (A) (A)
                 (A) (A) (A) (A) (A) (A) (A) (A) (A) (A) (A) (A)
                 (A) (A) (A) (A) (A) (A) (A) (A) (A) (A) (A) (A)
                 (A) (A) (A) (A) (A) (A) (A) (A) (A) (A) (A) (A)
                 (A) (A) (A) (A) (A) (A) (A) (A) (A) (A) (A) (A)
                 (A) (A) (A) (A) (A) (A) (A) (A) (A) (A) (A) (A)
                 (A) (A) (A) (A) (A) (A) (A) (A) (A) (A) (A) (A)
                 (A) (A) (A) (A) (A) (A) (A) (A)
 The electronic state is 1-A.
 Alpha  occ. eigenvalues --  -20.57273 -15.57441 -15.57388 -15.54147 -15.54123
 Alpha  occ. eigenvalues --  -11.34805 -11.30009 -11.29932 -11.27400 -11.27195
 Alpha  occ. eigenvalues --  -11.27185 -11.26703 -11.26691 -11.26637 -11.26568
 Alpha  occ. eigenvalues --  -11.26378 -11.25963 -11.25921 -11.21885 -11.21880
 Alpha  occ. eigenvalues --  -11.21531 -11.21507  -1.40813  -1.26566  -1.26274
 Alpha  occ. eigenvalues --   -1.20100  -1.19439  -1.18296  -1.07800  -1.07610
 Alpha  occ. eigenvalues --   -1.03141  -1.02857  -0.96178  -0.95802  -0.94061
 Alpha  occ. eigenvalues --   -0.94044  -0.91021  -0.88019  -0.85017  -0.77681
 Alpha  occ. eigenvalues --   -0.77080  -0.75734  -0.75174  -0.72772  -0.70307
 Alpha  occ. eigenvalues --   -0.67599  -0.67145  -0.66336  -0.66032  -0.65799
 Alpha  occ. eigenvalues --   -0.64745  -0.64216  -0.63120  -0.62583  -0.61011
 Alpha  occ. eigenvalues --   -0.60311  -0.60249  -0.57733  -0.57496  -0.56879
 Alpha  occ. eigenvalues --   -0.54330  -0.53936  -0.53413  -0.53295  -0.53238
 Alpha  occ. eigenvalues --   -0.52552  -0.52276  -0.51179  -0.51102  -0.50084
 Alpha  occ. eigenvalues --   -0.49533  -0.47501  -0.47044  -0.46011  -0.43629
 Alpha  occ. eigenvalues --   -0.43379  -0.41873  -0.41668  -0.38720  -0.38430
 Alpha  occ. eigenvalues --   -0.35035  -0.33524
 Alpha virt. eigenvalues --    0.02989   0.03395   0.03660   0.04010   0.04271
 Alpha virt. eigenvalues --    0.04465   0.04675   0.04902   0.05207   0.05446
 Alpha virt. eigenvalues --    0.05749   0.05981   0.06313   0.06363   0.06603
 Alpha virt. eigenvalues --    0.07039   0.07211   0.07394   0.07801   0.07921
 Alpha virt. eigenvalues --    0.08850   0.09081   0.09349   0.09949   0.10027
 Alpha virt. eigenvalues --    0.10473   0.10584   0.11007   0.11407   0.11826
 Alpha virt. eigenvalues --    0.12116   0.12519   0.12892   0.13311   0.13825
 Alpha virt. eigenvalues --    0.14127   0.14316   0.14505   0.14689   0.14847
 Alpha virt. eigenvalues --    0.15063   0.15640   0.15721   0.16191   0.16204
 Alpha virt. eigenvalues --    0.16517   0.16916   0.17068   0.17275   0.17732
 Alpha virt. eigenvalues --    0.17831   0.17988   0.18186   0.18231   0.18481
 Alpha virt. eigenvalues --    0.18626   0.18669   0.18954   0.19127   0.19600
 Alpha virt. eigenvalues --    0.20062   0.20261   0.20501   0.20577   0.20877
 Alpha virt. eigenvalues --    0.21196   0.21518   0.21711   0.22094   0.22316
 Alpha virt. eigenvalues --    0.22568   0.22824   0.23272   0.23546   0.23647
 Alpha virt. eigenvalues --    0.23949   0.24344   0.24528   0.25047   0.25268
 Alpha virt. eigenvalues --    0.25604   0.25980   0.26242   0.26325   0.26663
 Alpha virt. eigenvalues --    0.26841   0.27314   0.27951   0.28191   0.28439
 Alpha virt. eigenvalues --    0.28890   0.28987   0.29323   0.30182   0.30596
 Alpha virt. eigenvalues --    0.30818   0.31260   0.31404   0.31615   0.31813
 Alpha virt. eigenvalues --    0.32129   0.32375   0.32998   0.33270   0.33474
 Alpha virt. eigenvalues --    0.33910   0.34361   0.34680   0.34865   0.34987
 Alpha virt. eigenvalues --    0.35537   0.35973   0.36040   0.36185   0.36430
 Alpha virt. eigenvalues --    0.36663   0.36893   0.37205   0.37991   0.38093
 Alpha virt. eigenvalues --    0.38279   0.39014   0.39221   0.39405   0.39430
 Alpha virt. eigenvalues --    0.39891   0.40295   0.40523   0.40651   0.40906
 Alpha virt. eigenvalues --    0.41071   0.41495   0.41898   0.42056   0.42268
 Alpha virt. eigenvalues --    0.42778   0.42976   0.43139   0.43403   0.43805
 Alpha virt. eigenvalues --    0.43867   0.44148   0.44331   0.44623   0.45047
 Alpha virt. eigenvalues --    0.45640   0.45667   0.46001   0.46459   0.46679
 Alpha virt. eigenvalues --    0.47060   0.47521   0.48131   0.48185   0.48274
 Alpha virt. eigenvalues --    0.48564   0.48761   0.49383   0.49603   0.49875
 Alpha virt. eigenvalues --    0.50065   0.50273   0.50455   0.50943   0.51223
 Alpha virt. eigenvalues --    0.51293   0.51712   0.51979   0.52691   0.52989
 Alpha virt. eigenvalues --    0.53307   0.53354   0.53548   0.54139   0.54589
 Alpha virt. eigenvalues --    0.54714   0.55057   0.55563   0.55661   0.56098
 Alpha virt. eigenvalues --    0.56328   0.56619   0.57439   0.57534   0.57925
 Alpha virt. eigenvalues --    0.58276   0.58771   0.59028   0.59473   0.59570
 Alpha virt. eigenvalues --    0.59652   0.60050   0.60278   0.60440   0.61115
 Alpha virt. eigenvalues --    0.61242   0.61813   0.62209   0.62526   0.62584
 Alpha virt. eigenvalues --    0.63170   0.63419   0.63648   0.64317   0.64354
 Alpha virt. eigenvalues --    0.64729   0.64750   0.65110   0.65703   0.65986
 Alpha virt. eigenvalues --    0.66136   0.66299   0.66672   0.66831   0.67242
 Alpha virt. eigenvalues --    0.67507   0.67948   0.68227   0.68638   0.69066
 Alpha virt. eigenvalues --    0.69082   0.69486   0.69573   0.69864   0.70100
 Alpha virt. eigenvalues --    0.70515   0.70842   0.71483   0.71792   0.72022
 Alpha virt. eigenvalues --    0.72410   0.72979   0.73068   0.73312   0.73582
 Alpha virt. eigenvalues --    0.73973   0.74159   0.74476   0.74917   0.75098
 Alpha virt. eigenvalues --    0.75173   0.75363   0.75531   0.76123   0.76592
 Alpha virt. eigenvalues --    0.76906   0.77395   0.77707   0.77740   0.78239
 Alpha virt. eigenvalues --    0.78558   0.78719   0.79079   0.79180   0.80229
 Alpha virt. eigenvalues --    0.80544   0.80933   0.81297   0.81437   0.81801
 Alpha virt. eigenvalues --    0.82315   0.82562   0.83148   0.83337   0.84285
 Alpha virt. eigenvalues --    0.84692   0.85033   0.85241   0.85387   0.86242
 Alpha virt. eigenvalues --    0.86809   0.86984   0.87142   0.87234   0.87519
 Alpha virt. eigenvalues --    0.88273   0.88518   0.88885   0.88978   0.89326
 Alpha virt. eigenvalues --    0.89739   0.89973   0.90620   0.90934   0.91394
 Alpha virt. eigenvalues --    0.92135   0.92456   0.92680   0.93249   0.93314
 Alpha virt. eigenvalues --    0.93644   0.93989   0.94396   0.94666   0.94863
 Alpha virt. eigenvalues --    0.95328   0.95855   0.96091   0.96268   0.96707
 Alpha virt. eigenvalues --    0.97373   0.97573   0.98064   0.98486   0.98702
 Alpha virt. eigenvalues --    0.99172   0.99425   0.99829   1.00701   1.01299
 Alpha virt. eigenvalues --    1.01706   1.02006   1.02604   1.02843   1.03280
 Alpha virt. eigenvalues --    1.03575   1.04181   1.04375   1.04708   1.05194
 Alpha virt. eigenvalues --    1.05583   1.06234   1.07301   1.07758   1.08074
 Alpha virt. eigenvalues --    1.08290   1.08583   1.09042   1.09363   1.09745
 Alpha virt. eigenvalues --    1.10542   1.11700   1.12490   1.13089   1.13823
 Alpha virt. eigenvalues --    1.14173   1.14956   1.15430   1.16098   1.16528
 Alpha virt. eigenvalues --    1.16792   1.17189   1.17910   1.18676   1.18840
 Alpha virt. eigenvalues --    1.19621   1.20262   1.20955   1.21449   1.22251
 Alpha virt. eigenvalues --    1.23290   1.23918   1.24317   1.25097   1.25709
 Alpha virt. eigenvalues --    1.26305   1.26509   1.27138   1.28620   1.29443
 Alpha virt. eigenvalues --    1.30528   1.31009   1.31350   1.33064   1.33868
 Alpha virt. eigenvalues --    1.34886   1.35204   1.35539   1.36014   1.36742
 Alpha virt. eigenvalues --    1.37841   1.37908   1.39164   1.39501   1.40306
 Alpha virt. eigenvalues --    1.41076   1.41510   1.42601   1.43625   1.44264
 Alpha virt. eigenvalues --    1.44681   1.45497   1.46357   1.46704   1.47988
 Alpha virt. eigenvalues --    1.49158   1.50888   1.51117   1.51684   1.53441
 Alpha virt. eigenvalues --    1.53802   1.54712   1.54910   1.55241   1.57113
 Alpha virt. eigenvalues --    1.58188   1.59488   1.59889   1.60897   1.61636
 Alpha virt. eigenvalues --    1.63471   1.63850   1.65032   1.65632   1.66058
 Alpha virt. eigenvalues --    1.66368   1.66976   1.67724   1.67973   1.68771
 Alpha virt. eigenvalues --    1.69573   1.70459   1.70708   1.70981   1.71888
 Alpha virt. eigenvalues --    1.72355   1.72843   1.74066   1.74115   1.75113
 Alpha virt. eigenvalues --    1.75634   1.76057   1.76396   1.76486   1.77906
 Alpha virt. eigenvalues --    1.78448   1.78972   1.79230   1.80058   1.80611
 Alpha virt. eigenvalues --    1.81556   1.82121   1.83242   1.84318   1.84796
 Alpha virt. eigenvalues --    1.85289   1.85727   1.86311   1.86594   1.87418
 Alpha virt. eigenvalues --    1.87730   1.88294   1.88599   1.89326   1.89647
 Alpha virt. eigenvalues --    1.90141   1.90408   1.90795   1.91861   1.92477
 Alpha virt. eigenvalues --    1.93311   1.93588   1.94623   1.94895   1.95368
 Alpha virt. eigenvalues --    1.95848   1.96249   1.96984   1.97020   1.97557
 Alpha virt. eigenvalues --    1.98421   1.99231   1.99691   1.99878   2.00576
 Alpha virt. eigenvalues --    2.01414   2.02045   2.02820   2.03225   2.03425
 Alpha virt. eigenvalues --    2.04596   2.06445   2.07257   2.08504   2.09011
 Alpha virt. eigenvalues --    2.10448   2.10970   2.11265   2.12085   2.12743
 Alpha virt. eigenvalues --    2.13664   2.13699   2.14584   2.15020   2.15870
 Alpha virt. eigenvalues --    2.16177   2.16979   2.17484   2.17794   2.19080
 Alpha virt. eigenvalues --    2.19458   2.20534   2.20623   2.20989   2.21291
 Alpha virt. eigenvalues --    2.22254   2.23591   2.23818   2.24092   2.24365
 Alpha virt. eigenvalues --    2.24611   2.26287   2.26847   2.27408   2.27978
 Alpha virt. eigenvalues --    2.28452   2.29042   2.29348   2.29555   2.30435
 Alpha virt. eigenvalues --    2.30842   2.31232   2.31962   2.32910   2.33356
 Alpha virt. eigenvalues --    2.34573   2.34814   2.35293   2.36143   2.36555
 Alpha virt. eigenvalues --    2.37596   2.37886   2.38471   2.39809   2.39871
 Alpha virt. eigenvalues --    2.40148   2.40954   2.41668   2.42382   2.42717
 Alpha virt. eigenvalues --    2.43829   2.44145   2.44704   2.45357   2.45976
 Alpha virt. eigenvalues --    2.46786   2.47994   2.48369   2.48999   2.49697
 Alpha virt. eigenvalues --    2.50003   2.51226   2.52149   2.52637   2.52833
 Alpha virt. eigenvalues --    2.53711   2.54042   2.54946   2.55416   2.55815
 Alpha virt. eigenvalues --    2.56267   2.57118   2.57792   2.59165   2.59988
 Alpha virt. eigenvalues --    2.60595   2.60857   2.61839   2.62306   2.62811
 Alpha virt. eigenvalues --    2.64077   2.64163   2.65018   2.66052   2.67183
 Alpha virt. eigenvalues --    2.67389   2.68131   2.68772   2.69570   2.69734
 Alpha virt. eigenvalues --    2.72433   2.72641   2.73956   2.74347   2.75048
 Alpha virt. eigenvalues --    2.75248   2.76890   2.78124   2.78605   2.79937
 Alpha virt. eigenvalues --    2.80437   2.82347   2.82772   2.84589   2.84723
 Alpha virt. eigenvalues --    2.85154   2.87406   2.88352   2.89212   2.89339
 Alpha virt. eigenvalues --    2.90026   2.91070   2.92953   2.93281   2.94294
 Alpha virt. eigenvalues --    2.94491   2.97379   2.98140   2.99774   3.00718
 Alpha virt. eigenvalues --    3.01972   3.02627   3.02736   3.03691   3.06080
 Alpha virt. eigenvalues --    3.06515   3.07298   3.08198   3.09487   3.10357
 Alpha virt. eigenvalues --    3.11738   3.12309   3.13700   3.14044   3.15858
 Alpha virt. eigenvalues --    3.19929   3.20545   3.21684   3.22446   3.23493
 Alpha virt. eigenvalues --    3.25294   3.28432   3.30440   3.31385   3.32524
 Alpha virt. eigenvalues --    3.32780   3.40004   3.41233   3.44781   3.46154
 Alpha virt. eigenvalues --    3.47726   3.49682   3.50356   3.55239   3.56153
 Alpha virt. eigenvalues --    3.58945   3.59595   3.62718   3.69125   3.74861
 Alpha virt. eigenvalues --    3.78457   3.78750   3.81317   3.81602   3.86579
 Alpha virt. eigenvalues --    3.87629   3.87885   3.89881   3.92325   3.93509
 Alpha virt. eigenvalues --    4.06537   4.14228   4.17935   4.21266   4.24845
 Alpha virt. eigenvalues --    4.78644
          Condensed to atoms (all electrons):
               1          2          3          4          5          6
     1  C   17.149080  -2.311213  -2.491509  -1.725321   0.624219  -1.140590
     2  C   -2.311213   8.342281  -1.249046  -0.282779   0.061565   0.458775
     3  C   -2.491509  -1.249046  21.478615  -4.289858  -1.659081  -3.249630
     4  C   -1.725321  -0.282779  -4.289858  18.990546   0.541288  -4.121496
     5  H    0.624219   0.061565  -1.659081   0.541288   2.625843  -0.138487
     6  C   -1.140590   0.458775  -3.249630  -4.121496  -0.138487  23.715016
     7  C    0.392300  -0.275645  -0.640821  -2.080545  -0.102713  -2.757207
     8  H   -0.095016  -0.033557   0.248188   0.536595   0.004409  -1.516511
     9  C   -4.647790   0.280535  -2.774033  -0.600906   0.261716  -2.157854
    10  C   -0.539206  -0.247832   0.055810   0.778096   0.011012  -1.377947
    11  H    0.445198  -0.062829   0.088244  -0.128569   0.008678   0.190280
    12  C   -0.061603  -0.185948   0.243652  -2.413520  -0.153430  -2.850590
    13  O   -0.151618   0.411933  -0.024788  -0.010587   0.007688   0.001748
    14  C    0.021837   0.004671   0.067005   0.011340  -0.126635   0.080688
    15  C    0.010752   0.003856  -0.150715   0.240200   0.045773  -0.063170
    16  N   -0.168451   0.013221   0.167731  -0.290155  -0.164690   0.656859
    17  N    0.000907   0.000548   0.050678  -0.094361  -0.003730   0.024471
    18  C    0.030266  -0.002927  -0.005981   0.048516  -0.000610  -0.074476
    19  C   -0.056475  -0.007453  -0.055010   0.111850   0.000693  -0.350375
    20  N   -0.004905   0.000306   0.004497  -0.011227   0.000130   0.039058
    21  N    0.012807   0.023743  -0.041708  -0.245870   0.006318   0.272121
    22  H    0.300337  -0.113311   0.106072   0.016811  -0.039020   0.009434
    23  H   -0.000428   0.000007   0.000826  -0.001687   0.000002   0.004088
    24  H   -0.003345   0.000177   0.002916   0.001870  -0.000219  -0.017844
    25  H   -0.000228   0.000033  -0.003039   0.002032   0.000605   0.002167
    26  H    0.003603  -0.001407  -0.008879  -0.013425  -0.017312   0.005571
    27  H   -0.010506   0.005076  -0.081374   0.090035   0.020038   0.173161
    28  H    0.054767  -0.022937   0.015600  -0.144683   0.001324   0.311410
    29  C   -0.007436  -0.005399   0.052106  -0.086000   0.009497  -0.001487
    30  C    0.001006  -0.000242  -0.001011  -0.005485  -0.000009  -0.011588
    31  H   -0.004511  -0.000760  -0.001335   0.019161  -0.000031  -0.013667
    32  H   -0.000640   0.003307  -0.002185  -0.008542  -0.000121  -0.024028
    33  H    0.000053  -0.000008  -0.000136   0.000455  -0.000007  -0.002751
    34  H    0.000039  -0.000090   0.000135  -0.000517   0.000005   0.003064
    35  H    0.000150  -0.000020  -0.000127  -0.000999   0.000009   0.001911
    36  H    0.007238   0.001479   0.000956  -0.046669  -0.005440  -0.003167
    37  H    0.000351  -0.000201  -0.021128   0.098084  -0.005667   0.008384
    38  H    0.002469  -0.000313   0.004743  -0.008988  -0.001751   0.006626
    39  H   -0.000146  -0.000552  -0.001014  -0.006117   0.003567   0.001187
    40  H   -0.003854   0.001169   0.000871   0.097953  -0.005217  -0.033043
    41  C    0.000517   0.000823  -0.020676   0.032298   0.001931  -0.006221
    42  H   -0.000028   0.000004  -0.000466   0.001810   0.001921   0.000531
    43  H   -0.000177   0.000056  -0.001302   0.002652  -0.001434  -0.001389
    44  H    0.000039   0.000055   0.000474  -0.003088   0.000692   0.001885
    45  C   -0.000056  -0.000228  -0.000880  -0.000439   0.000224  -0.001208
    46  H   -0.001364   0.000661  -0.014181   0.013791   0.000339  -0.021558
    47  H   -0.000852   0.000633   0.001100   0.000474   0.000030   0.005973
    48  H    0.000661  -0.000152  -0.000192  -0.002025   0.000043   0.001767
               7          8          9         10         11         12
     1  C    0.392300  -0.095016  -4.647790  -0.539206   0.445198  -0.061603
     2  C   -0.275645  -0.033557   0.280535  -0.247832  -0.062829  -0.185948
     3  C   -0.640821   0.248188  -2.774033   0.055810   0.088244   0.243652
     4  C   -2.080545   0.536595  -0.600906   0.778096  -0.128569  -2.413520
     5  H   -0.102713   0.004409   0.261716   0.011012   0.008678  -0.153430
     6  C   -2.757207  -1.516511  -2.157854  -1.377947   0.190280  -2.850590
     7  C   16.732072  -0.009529  -5.918954  -2.021548   1.067199   0.114987
     8  H   -0.009529   2.824286  -0.096237   0.071786  -0.011361   0.229308
     9  C   -5.918954  -0.096237  25.411489  -1.934145  -1.920193  -0.544741
    10  C   -2.021548   0.071786  -1.934145  13.090736  -0.076503   0.096127
    11  H    1.067199  -0.011361  -1.920193  -0.076503   2.191951   0.015066
    12  C    0.114987   0.229308  -0.544741   0.096127   0.015066  13.699535
    13  O   -0.057667   0.001230   0.025442   0.024338  -0.005939   0.002855
    14  C   -0.002322   0.046425  -0.036671  -0.066577   0.000789  -1.551658
    15  C    0.035778  -0.000875  -0.004361   0.005605  -0.000448   0.117530
    16  N   -0.048458   0.025422   0.064654  -0.058290   0.003286  -0.535780
    17  N   -0.010443   0.000824   0.007772   0.000069   0.000162   0.084773
    18  C   -0.015338   0.019251  -0.077507   0.424136   0.001243   0.023472
    19  C    0.380745  -0.160844   0.135536  -1.375791  -0.012673  -0.105236
    20  N   -0.023934   0.007606   0.014972   0.013021   0.001215  -0.000315
    21  N    0.138879  -0.159650   0.425413  -0.656875  -0.002265  -0.067783
    22  H   -0.000923  -0.002793  -0.091832  -0.004279  -0.006566   0.001312
    23  H   -0.008243   0.001462   0.001275   0.014872  -0.000013   0.001987
    24  H   -0.008813  -0.024112   0.007977   0.018659  -0.000357   0.000010
    25  H   -0.000918   0.000047   0.001600   0.000234  -0.000009   0.007975
[...]
     8  H    0.000047  -0.000840  -0.163914   0.063214   0.005020   0.002318
     9  C    0.001600   0.003482   0.009331   0.077317  -0.007833  -0.005149
    10  C    0.000234   0.001136   0.056867  -0.637438  -0.002690  -0.127533
    11  H   -0.000009  -0.000006   0.000785  -0.058646  -0.000125  -0.000211
    12  C    0.007975   0.012708  -0.353204   0.039523  -0.131959  -0.000478
    13  O    0.000013  -0.000074  -0.000284   0.002507  -0.000036   0.000004
    14  C   -0.046023   0.015897  -0.003263  -0.001656   0.152314  -0.000033
    15  C    0.160039   0.121236  -0.053649   0.000131  -0.851827   0.000015
    16  N   -0.019786  -0.032273   0.097158  -0.001889   0.072958   0.000067
    17  N    0.244797   0.275403   0.000180  -0.000006   0.327353   0.000000
    18  C   -0.000001  -0.000019   0.010986  -0.044678  -0.000239  -0.322921
    19  C    0.000010   0.000026   0.013442  -0.001110   0.000077   0.076016
    20  N   -0.000000   0.000003  -0.003864  -0.000429   0.000030   0.079818
    21  N   -0.000004  -0.000070  -0.010563   0.159788   0.000119   0.000769
    22  H    0.000051   0.000353   0.000603  -0.000281  -0.001649  -0.000017
    23  H   -0.000000  -0.000004  -0.000360  -0.001078  -0.000021  -0.037037
    24  H   -0.000002   0.000050   0.001820  -0.000923   0.000168   0.009112
    25  H    0.846271  -0.114190  -0.001203   0.000006  -0.026214   0.000000
    26  H   -0.114190   0.806788  -0.000949   0.000032  -0.063852   0.000001
    27  H   -0.001203  -0.000949   1.967980  -0.005233   0.033756  -0.000156
    28  H    0.000006   0.000032  -0.005233   1.951444   0.000013   0.010138
    29  C   -0.026214  -0.063852   0.033756   0.000013   4.676247  -0.000001
    30  C    0.000000   0.000001  -0.000156   0.010138  -0.000001   4.611550
    31  H    0.000001   0.000001   0.003171  -0.008507  -0.000012  -0.060539
    32  H   -0.000000  -0.000002  -0.000243  -0.076420   0.000001  -0.057360
    33  H    0.000000   0.000000   0.000304  -0.001022  -0.000000   0.238430
    34  H   -0.000000   0.000000  -0.000109   0.004474  -0.000000   0.123539
    35  H   -0.000000   0.000000  -0.000230   0.001342   0.000002   0.224144
    36  H   -0.001669   0.010181  -0.011984  -0.000026   0.030790  -0.000002
    37  H    0.008514  -0.008828  -0.103431  -0.000017  -0.016567   0.000003
    38  H   -0.008156   0.022423  -0.016967   0.000014   0.180913  -0.000011
    39  H    0.009658  -0.031453   0.006476   0.000003   0.240794   0.000001
    40  H   -0.000064   0.001880  -0.007949  -0.000019   0.170190  -0.000018
    41  C   -0.039578   0.006755   0.009401  -0.000071  -0.145612   0.000000
    42  H    0.003844  -0.003831   0.000344  -0.000004  -0.023035  -0.000000
    43  H   -0.026370   0.010111  -0.001717  -0.000004   0.030778  -0.000000
    44  H    0.016829  -0.004985   0.009810  -0.000000  -0.039662   0.000001
    45  C   -0.000001   0.000001  -0.002922   0.038239   0.000070  -0.123199
    46  H    0.000007  -0.000013   0.001919  -0.006379  -0.000122  -0.037040
    47  H   -0.000000   0.000001  -0.000140  -0.012113   0.000000  -0.108189
    48  H   -0.000000  -0.000003  -0.000444   0.003753   0.000009   0.103866
              31         32         33         34         35         36
     1  C   -0.004511  -0.000640   0.000053   0.000039   0.000150   0.007238
     2  C   -0.000760   0.003307  -0.000008  -0.000090  -0.000020   0.001479
     3  C   -0.001335  -0.002185  -0.000136   0.000135  -0.000127   0.000956
     4  C    0.019161  -0.008542   0.000455  -0.000517  -0.000999  -0.046669
     5  H   -0.000031  -0.000121  -0.000007   0.000005   0.000009  -0.005440
     6  C   -0.013667  -0.024028  -0.002751   0.003064   0.001911  -0.003167
     7  C   -0.091726   0.139592   0.002368  -0.000896  -0.001743   0.001942
     8  H   -0.014431  -0.002665  -0.003382   0.002141   0.003040   0.001149
     9  C    0.011536  -0.003918  -0.001037   0.000705   0.001214  -0.002049
    10  C    0.260656  -0.209143  -0.032577   0.065473   0.011944  -0.000360
    11  H   -0.000337   0.002624   0.000020  -0.000128  -0.000011  -0.000029
    12  C   -0.003137  -0.002800  -0.000421   0.000262   0.000390   0.214146
    13  O   -0.000008  -0.000157  -0.000000   0.000005   0.000000  -0.000023
    14  C   -0.000583   0.000079  -0.000018   0.000003   0.000015   0.316354
    15  C    0.000034  -0.000012   0.000002   0.000001  -0.000002  -0.015480
    16  N   -0.000198   0.000112  -0.000001   0.000006   0.000003  -0.486836
    17  N    0.000001   0.000001   0.000000   0.000000   0.000000   0.007832
    18  C   -0.010286   0.158211   0.215070  -0.176165   0.164503   0.000029
    19  C    0.338783   0.042785  -0.003829  -0.033037  -0.041638  -0.000081
    20  N    0.006053  -0.020981  -0.065491   0.104496  -0.052842  -0.000006
    21  N   -0.511998   0.039516  -0.016006   0.010570   0.033145  -0.000082
    22  H   -0.000046   0.000148  -0.000001  -0.000004  -0.000001   0.000357
    23  H   -0.001465   0.008533  -0.026592   0.016755   0.004596   0.000002
    24  H    0.011349  -0.008316   0.011117  -0.005316  -0.004823   0.000051
    25  H    0.000001  -0.000000   0.000000  -0.000000  -0.000000  -0.001669
    26  H    0.000001  -0.000002   0.000000   0.000000   0.000000   0.010181
    27  H    0.003171  -0.000243   0.000304  -0.000109  -0.000230  -0.011984
    28  H   -0.008507  -0.076420  -0.001022   0.004474   0.001342  -0.000026
    29  C   -0.000012   0.000001  -0.000000  -0.000000   0.000002   0.030790
    30  C   -0.060539  -0.057360   0.238430   0.123539   0.224144  -0.000002
    31  H    1.582481  -0.266283   0.013398  -0.036687  -0.007256  -0.000011
    32  H   -0.266283   1.459157  -0.000348   0.011469  -0.014658   0.000003
    33  H    0.013398  -0.000348   1.139125  -0.213694  -0.323773  -0.000000
    34  H   -0.036687   0.011469  -0.213694   1.424935  -0.229997  -0.000000
    35  H   -0.007256  -0.014658  -0.323773  -0.229997   1.306229  -0.000000
    36  H   -0.000011   0.000003  -0.000000  -0.000000  -0.000000   1.571975
    37  H   -0.000189  -0.000005  -0.000013   0.000004   0.000009  -0.253124
    38  H   -0.000029  -0.000005  -0.000005  -0.000000   0.000003   0.016758
    39  H    0.000002   0.000000  -0.000000   0.000000   0.000000  -0.010033
    40  H   -0.000011  -0.000018  -0.000003   0.000002  -0.000002   0.015389
    41  C   -0.000003   0.000003  -0.000000   0.000000  -0.000000  -0.071921
    42  H   -0.000000   0.000000  -0.000000  -0.000000   0.000000  -0.004405
    43  H   -0.000001  -0.000000  -0.000000   0.000000   0.000000   0.010983
    44  H    0.000006   0.000001   0.000000   0.000000  -0.000000  -0.035592
    45  C    0.023438  -0.016547   0.027926  -0.032156  -0.027722  -0.000006
    46  H    0.016056  -0.008307   0.017105   0.008184  -0.017306  -0.000025
    47  H    0.016840  -0.007633  -0.011997  -0.040833   0.005887   0.000001
    48  H   -0.011093   0.006013  -0.011496  -0.007845   0.019618   0.000000
              37         38         39         40         41         42
     1  C    0.000351   0.002469  -0.000146  -0.003854   0.000517  -0.000028
     2  C   -0.000201  -0.000313  -0.000552   0.001169   0.000823   0.000004
     3  C   -0.021128   0.004743  -0.001014   0.000871  -0.020676  -0.000466
     4  C    0.098084  -0.008988  -0.006117   0.097953   0.032298   0.001810
     5  H   -0.005667  -0.001751   0.003567  -0.005217   0.001931   0.001921
     6  C    0.008384   0.006626   0.001187  -0.033043  -0.006221   0.000531
     7  C   -0.001802  -0.002450   0.000069   0.017410  -0.002468  -0.000032
     8  H    0.017592   0.005376  -0.000536   0.000712  -0.000507   0.000162
     9  C   -0.000219   0.000095  -0.000486  -0.018493   0.001826  -0.000075
    10  C   -0.007523  -0.000315  -0.000096  -0.003445  -0.001156  -0.000064
    11  H    0.000031   0.000014   0.000001   0.000251   0.000076   0.000004
    12  C   -0.216038   0.069873  -0.035823  -0.031777  -0.158249   0.008363
    13  O   -0.000010   0.000002  -0.000009  -0.000067   0.000005  -0.000000
    14  C    0.058338  -0.051671   0.005218  -0.022458   0.097313  -0.040196
    15  C    0.196131  -0.197348   0.086261   0.334526  -0.342996   0.161272
    16  N    0.029392  -0.024211   0.031702  -0.075875   0.012353   0.031975
    17  N   -0.028436   0.122491  -0.056605  -0.089024   0.090643  -0.051489
    18  C   -0.000585  -0.000114  -0.000028   0.000953  -0.000013  -0.000003
    19  C   -0.000673  -0.000151   0.000034  -0.000870   0.000030   0.000003
    20  N    0.000191   0.000052   0.000003  -0.000151   0.000003   0.000000
    21  N    0.001385   0.000269   0.000015  -0.000772   0.000142   0.000013
    22  H   -0.000069  -0.000054  -0.000157   0.000299   0.000353  -0.000051
    23  H    0.000052   0.000006  -0.000001   0.000041   0.000005   0.000000
    24  H   -0.000186  -0.000217   0.000004  -0.000186  -0.000003  -0.000001
    25  H    0.008514  -0.008156   0.009658  -0.000064  -0.039578   0.003844
    26  H   -0.008828   0.022423  -0.031453   0.001880   0.006755  -0.003831
    27  H   -0.103431  -0.016967   0.006476  -0.007949   0.009401   0.000344
    28  H   -0.000017   0.000014   0.000003  -0.000019  -0.000071  -0.000004
    29  C   -0.016567   0.180913   0.240794   0.170190  -0.145612  -0.023035
    30  C    0.000003  -0.000011   0.000001  -0.000018   0.000000  -0.000000
    31  H   -0.000189  -0.000029   0.000002  -0.000011  -0.000003  -0.000000
    32  H   -0.000005  -0.000005   0.000000  -0.000018   0.000003   0.000000
    33  H   -0.000013  -0.000005  -0.000000  -0.000003  -0.000000  -0.000000
    34  H    0.000004  -0.000000   0.000000   0.000002   0.000000  -0.000000
    35  H    0.000009   0.000003   0.000000  -0.000002  -0.000000   0.000000
    36  H   -0.253124   0.016758  -0.010033   0.015389  -0.071921  -0.004405
    37  H    1.461352  -0.002560   0.003203  -0.006912  -0.059848  -0.014371
    38  H   -0.002560   1.552551  -0.269343  -0.238508  -0.107450   0.006103
    39  H    0.003203  -0.269343   1.288467  -0.339069   0.094070   0.018870
    40  H   -0.006912  -0.238508  -0.339069   1.303216  -0.038265  -0.016038
    41  C   -0.059848  -0.107450   0.094070  -0.038265   4.659471   0.218760
    42  H   -0.014371   0.006103   0.018870  -0.016038   0.218760   1.303692
    43  H    0.001258  -0.012071  -0.010435   0.016643   0.231782  -0.319018
    44  H    0.002373  -0.043481  -0.007793   0.007328   0.123193  -0.232514
    45  C    0.000116   0.000105   0.000002  -0.000254  -0.000002   0.000001
    46  H   -0.000142  -0.000049   0.000007  -0.000166   0.000020  -0.000000
    47  H    0.000004   0.000006  -0.000001  -0.000015  -0.000000   0.000000
    48  H    0.000025   0.000025   0.000001   0.000001  -0.000001   0.000000
              43         44         45         46         47         48
     1  C   -0.000177   0.000039  -0.000056  -0.001364  -0.000852   0.000661
     2  C    0.000056   0.000055  -0.000228   0.000661   0.000633  -0.000152
     3  C   -0.001302   0.000474  -0.000880  -0.014181   0.001100  -0.000192
     4  C    0.002652  -0.003088  -0.000439   0.013791   0.000474  -0.002025
     5  H   -0.001434   0.000692   0.000224   0.000339   0.000030   0.000043
     6  C   -0.001389   0.001885  -0.001208  -0.021558   0.005973   0.001767
     7  C    0.000027   0.000052   0.019067   0.067844   0.004482  -0.002137
     8  H    0.000099  -0.001273   0.012528  -0.005730  -0.001083   0.004053
     9  C   -0.000090   0.000438  -0.006074  -0.002121  -0.006266   0.003338
    10  C   -0.000112   0.000137  -0.190009  -0.020165   0.064283  -0.038332
    11  H    0.000001   0.000005   0.000439  -0.002962   0.001583  -0.000080
    12  C   -0.033161   0.071173  -0.009141  -0.010253   0.000112   0.000722
    13  O    0.000000   0.000001   0.000083   0.000018  -0.000046   0.000013
    14  C   -0.009969  -0.027992   0.000159  -0.000916   0.000034   0.000057
    15  C    0.222063  -0.170396  -0.000141   0.000354  -0.000013  -0.000015
    16  N   -0.013192   0.009101   0.000249  -0.000113  -0.000001   0.000012
    17  N   -0.067365   0.104391  -0.000001   0.000014  -0.000000  -0.000001
    18  C    0.000001   0.000013  -0.891415   0.315122  -0.220182   0.091070
    19  C   -0.000004   0.000032   0.179491   0.000410  -0.040485   0.000482
    20  N    0.000000  -0.000003   0.350880  -0.084530   0.125976  -0.056223
    21  N    0.000008  -0.000002   0.070760  -0.080802  -0.021793   0.032637
    22  H    0.000079   0.000012  -0.000044  -0.000060   0.000022  -0.000007
    23  H    0.000001  -0.000001  -0.029290  -0.000585  -0.008377   0.009978
    24  H   -0.000000   0.000001  -0.061633   0.002748   0.022291  -0.031689
    25  H   -0.026370   0.016829  -0.000001   0.000007  -0.000000  -0.000000
    26  H    0.010111  -0.004985   0.000001  -0.000013   0.000001  -0.000003
    27  H   -0.001717   0.009810  -0.002922   0.001919  -0.000140  -0.000444
    28  H   -0.000004  -0.000000   0.038239  -0.006379  -0.012113   0.003753
    29  C    0.030778  -0.039662   0.000070  -0.000122   0.000000   0.000009
    30  C   -0.000000   0.000001  -0.123199  -0.037040  -0.108189   0.103866
    31  H   -0.000001   0.000006   0.023438   0.016056   0.016840  -0.011093
    32  H   -0.000000   0.000001  -0.016547  -0.008307  -0.007633   0.006013
    33  H   -0.000000   0.000000   0.027926   0.017105  -0.011997  -0.011496
    34  H    0.000000   0.000000  -0.032156   0.008184  -0.040833  -0.007845
    35  H    0.000000  -0.000000  -0.027722  -0.017306   0.005887   0.019618
    36  H    0.010983  -0.035592  -0.000006  -0.000025   0.000001   0.000000
    37  H    0.001258   0.002373   0.000116  -0.000142   0.000004   0.000025
    38  H   -0.012071  -0.043481   0.000105  -0.000049   0.000006   0.000025
    39  H   -0.010435  -0.007793   0.000002   0.000007  -0.000001   0.000001
    40  H    0.016643   0.007328  -0.000254  -0.000166  -0.000015   0.000001
    41  C    0.231782   0.123193  -0.000002   0.000020  -0.000000  -0.000001
    42  H   -0.319018  -0.232514   0.000001  -0.000000   0.000000   0.000000
    43  H    1.136468  -0.213991  -0.000000  -0.000003   0.000000   0.000000
    44  H   -0.213991   1.429731  -0.000007   0.000018  -0.000001  -0.000002
    45  C   -0.000000  -0.000007   4.628747   0.184979   0.195791   0.218342
    46  H   -0.000003   0.000018   0.184979   1.290720  -0.233938  -0.339872
    47  H    0.000000  -0.000001   0.195791  -0.233938   1.535470  -0.266138
    48  H    0.000000  -0.000002   0.218342  -0.339872  -0.266138   1.292852
 Mulliken charges:
               1
     1  C    0.368672
     2  C    1.189936
     3  C    0.199885
     4  C    0.987999
     5  H   -0.813954
     6  C   -0.039890
     7  C    1.074572
     8  H   -0.829398
     9  C    0.111367
    10  C    0.564954
    11  H   -0.728885
    12  C    0.401186
    13  O   -0.812123
    14  C    1.565229
    15  C   -3.597724
    16  N   -0.429130
    17  N   -0.020040
    18  C   -3.599999
    19  C    1.648908
    20  N   -0.017623
    21  N   -0.404981
    22  H   -0.301952
    23  H   -0.017516
    24  H    0.012086
    25  H   -0.017279
    26  H    0.007724
    27  H   -0.627370
    28  H   -0.649953
    29  C    1.427719
    30  C    1.407304
    31  H   -0.257827
    32  H   -0.140220
    33  H    0.049232
    34  H    0.001206
    35  H   -0.055003
    36  H   -0.258597
    37  H   -0.138251
    38  H   -0.004697
    39  H   -0.019914
    40  H   -0.036295
    41  C    1.413268
    42  H   -0.052050
    43  H    0.048796
    44  H    0.002990
    45  C    1.441740
    46  H   -0.031613
    47  H   -0.000901
    48  H   -0.021591
 Sum of Mulliken charges =   0.00000
 Mulliken charges with hydrogens summed into heavy atoms:
               1
     1  C    0.368672
     2  C    0.887984
     3  C   -0.614069
     4  C    0.987999
     6  C   -0.869288
     7  C    1.074572
     9  C   -0.617518
    10  C   -0.084999
    12  C   -0.226184
    13  O   -0.812123
    14  C    1.168381
    15  C   -3.597724
    16  N   -0.429130
    17  N   -0.029595
    18  C   -3.599999
    19  C    1.250862
    20  N   -0.023052
    21  N   -0.404981
    29  C    1.366813
    30  C    1.402739
    41  C    1.413004
    45  C    1.387635
 Electronic spatial extent (au):  <R**2>=          11935.2176
 Charge=              0.0000 electrons
 Dipole moment (field-independent basis, Debye):
    X=              0.4739    Y=             -1.9861    Z=             -2.5305  Tot=              3.2516
 Quadrupole moment (field-independent basis, Debye-Ang):
   XX=           -133.0310   YY=           -157.4449   ZZ=           -140.1742
   XY=              4.0697   XZ=              3.6670   YZ=              2.1968
 Traceless Quadrupole moment (field-independent basis, Debye-Ang):
   XX=             10.5190   YY=            -13.8949   ZZ=              3.3758
   XY=              4.0697   XZ=              3.6670   YZ=              2.1968
 Octapole moment (field-independent basis, Debye-Ang**2):
  XXX=             75.9633  YYY=           -122.9255  ZZZ=             -0.0766  XYY=            -46.9247
  XXY=             44.3963  XXZ=            -66.9542  XZZ=              8.9436  YZZ=             -7.1435
  YYZ=            -36.0282  XYZ=              9.0996
 Hexadecapole moment (field-independent basis, Debye-Ang**3):
 XXXX=         -12085.3920 YYYY=          -4728.3287 ZZZZ=           -666.6843 XXXY=             39.5062
 XXXZ=            266.3475 YYYX=              3.3599 YYYZ=            -64.9311 ZZZX=              0.5287
 ZZZY=             19.8257 XXYY=          -2594.4956 XXZZ=          -2154.2030 YYZZ=           -748.0465
 XXYZ=             92.2029 YYXZ=            -72.4822 ZZXY=            -23.3827
 N-N= 1.707540081842D+03 E-N=-5.636224126636D+03  KE= 9.511851682846D+02
 Leave Link  601 at Mon Nov  8 16:36:39 2021, MaxMem=  7864320000 cpu:              20.8 elap:               0.9
 (Enter /apps/gaussian/g16-c01-avx/g16/l9999.exe)
 Unable to Open any file for archive entry.
 1\1\GINC-CX3-6-28\SP\RMP2-FC\Aug-CC-pVDZ\C17H26N4O1\ATARZIA\08-Nov-202
 1\0\\#P MP2/aug-cc-pVDZ SP SCF=(YQC,MaxCycle=900) int=(Grid=Superfineg
 rid)\\_1_alde1_2_ami2_2_opt_gas_mp2\\0,1\C,0,-2.1249,1.4052,0.3148\C,0
 ,-2.8063,0.6719,1.3915\C,0,-2.8578,2.0313,-0.6864\C,0,-2.2073,2.7281,-
 1.7051\H,0,-3.9364,1.9933,-0.6917\C,0,-0.8176,2.7882,-1.7064\C,0,-0.06
 93,2.1644,-0.7072\H,0,-0.2889,3.3233,-2.4809\C,0,-0.7312,1.4737,0.3013
 \C,0,1.3854,2.2339,-0.7155\H,0,-0.1826,0.9796,1.0903\C,0,-2.9691,3.387
 9,-2.7568\O,0,-2.2577,0.1035,2.3\C,0,-4.9555,3.977,-3.8326\C,0,-5.7917
 ,2.914,-4.609\N,0,-4.2299,3.3519,-2.7815\N,0,-6.6453,2.1401,-3.7274\C,
 0,3.9768,2.2004,-2.9253\C,0,3.4353,2.8762,-1.6284\N,0,3.3998,2.7798,-4
 .1242\N,0,2.0134,2.8466,-1.6222\H,0,-3.9109,0.68,1.3042\H,0,3.6267,3.7
 666,-4.185\H,0,2.3896,2.6973,-4.0882\H,0,-7.3033,2.7458,-3.2488\H,0,-6
 .0789,1.6814,-3.0222\H,0,-2.3776,3.9204,-3.5171\H,0,1.8949,1.7262,0.11
 72\C,0,-4.8475,1.9449,-5.323\C,0,5.4936,2.386,-2.9809\H,0,3.7373,3.929
 2,-1.6434\H,0,3.8782,2.3895,-0.7439\H,0,5.8763,1.9351,-3.8921\H,0,5.97
 08,1.9158,-2.1253\H,0,5.7511,3.4432,-2.9854\H,0,-5.6526,4.6837,-3.3692
 \H,0,-4.306,4.5243,-4.5357\H,0,-4.2354,2.4708,-6.0512\H,0,-5.4315,1.18
 42,-5.8329\H,0,-4.1941,1.4548,-4.6041\C,0,-6.6761,3.6325,-5.6288\H,0,-
 7.345,4.3318,-5.1316\H,0,-7.2775,2.9001,-6.1598\H,0,-6.0706,4.1806,-6.
 3457\C,0,3.6303,0.7104,-2.9066\H,0,2.5534,0.5732,-2.8349\H,0,4.1035,0.
 2165,-2.0617\H,0,3.9764,0.2491,-3.827\\Version=ES64L-G16RevC.01\State=
 1-A\HF=-951.6529375\MP2=-954.9510838\RMSD=9.705e-09\PG=C01 [X(C17H26N4
 O1)]\\@
 The archive entry for this job was punched.


 We're simply so accustomed to the marvels of everyday thought
 that we never wonder about it.
 -- Marvin Minsky in "Why people think computers are smart"
 Job cpu time:       0 days 23 hours 35 minutes 41.3 seconds.
 Elapsed time:       0 days  0 hours 45 minutes  8.2 seconds.
 File lengths (MBytes):  RWF= 221592 Int=      0 D2E=      0 Chk=     48 Scr=     16
 Normal termination of Gaussian 16 at Mon Nov  8 16:36:41 2021.
