 Entering Gaussian System, Link 0=g16
 Initial command:
 /apps/gaussian/g16-c01-avx/g16/l1.exe "/rds/general/ephemeral/user/atarzia/ephemeral/xtb_spe_DFT/Gau-390542.inp" -scrdir="/rds/general/ephemeral/user/atarzia/ephemeral/xtb_spe_DFT/"
 Entering Link 1 = /apps/gaussian/g16-c01-avx/g16/l1.exe PID=    390543.
  
 Copyright (c) 1988-2019, Gaussian, Inc.  All Rights Reserved.
  
 This is part of the Gaussian(R) 16 program.  It is based on
 the Gaussian(R) 09 system (copyright 2009, Gaussian, Inc.),
 the Gaussian(R) 03 system (copyright 2003, Gaussian, Inc.),
 the Gaussian(R) 98 system (copyright 1998, Gaussian, Inc.),
 the Gaussian(R) 94 system (copyright 1995, Gaussian, Inc.),
 the Gaussian 92(TM) system (copyright 1992, Gaussian, Inc.),
 the Gaussian 90(TM) system (copyright 1990, Gaussian, Inc.),
 the Gaussian 88(TM) system (copyright 1988, Gaussian, Inc.),
 the Gaussian 86(TM) system (copyright 1986, Carnegie Mellon
 University), and the Gaussian 82(TM) system (copyright 1983,
 Carnegie Mellon University). Gaussian is a federally registered
 trademark of Gaussian, Inc.
  
 This software contains proprietary and confidential information,
 including trade secrets, belonging to Gaussian, Inc.
  
 This software is provided under written license and may be
 used, copied, transmitted, or stored only in accord with that
 written license.
  
 The following legend is applicable only to US Government
 contracts under FAR:
  
                    RESTRICTED RIGHTS LEGEND
  
 Use, reproduction and disclosure by the US Government is
 subject to restrictions as set forth in subparagraphs (a)
 and (c) of the Commercial Computer Software - Restricted
 Rights clause in FAR 52.227-19.
  
 Gaussian, Inc.
 340 Quinnipiac St., Bldg. 40, Wallingford CT 06492
  
  
 ---------------------------------------------------------------
 Warning -- This program may not be used in any manner that
 competes with the business of Gaussian, Inc. or will provide
 assistance to any competitor of Gaussian, Inc.  The licensee
 of this program is prohibited from giving any competitor of
 Gaussian, Inc. access to this program.  By using this program,
 the user acknowledges that Gaussian, Inc. is engaged in the
 business of creating and licensing software in the field of
 computational chemistry and represents and warrants to the
 licensee that it is not a competitor of Gaussian, Inc. and that
 it will not use this program in any manner prohibited above.
 ---------------------------------------------------------------
  

 Cite this work as:
 Gaussian 16, Revision C.01,
 M. J. Frisch, G. W. Trucks, H. B. Schlegel, G. E. Scuseria, 
 M. A. Robb, J. R. Cheeseman, G. Scalmani, V. Barone, 
 G. A. Petersson, H. Nakatsuji, X. Li, M. Caricato, A. V. Marenich, 
 J. Bloino, B. G. Janesko, R. Gomperts, B. Mennucci, H. P. Hratchian, 
 J. V. Ortiz, A. F. Izmaylov, J. L. Sonnenberg, D. Williams-Young, 
 F. Ding, F. Lipparini, F. Egidi, J. Goings, B. Peng, A. Petrone, 
 T. Henderson, D. Ranasinghe, V. G. Zakrzewski, J. Gao, N. Rega, 
 G. Zheng, W. Liang, M. Hada, M. Ehara, K. Toyota, R. Fukuda, 
 J. Hasegawa, M. Ishida, T. Nakajima, Y. Honda, O. Kitao, H. Nakai, 
 T. Vreven, K. Throssell, J. A. Montgomery, Jr., J. E. Peralta, 
 F. Ogliaro, M. J. Bearpark, J. J. Heyd, E. N. Brothers, K. N. Kudin, 
 V. N. Staroverov, T. A. Keith, R. Kobayashi, J. Normand, 
 K. Raghavachari, A. P. Rendell, J. C. Burant, S. S. Iyengar, 
 J. Tomasi, M. Cossi, J. M. Millam, M. Klene, C. Adamo, R. Cammi, 
 J. W. Ochterski, R. L. Martin, K. Morokuma, O. Farkas, 
 J. B. Foresman, and D. J. Fox, Gaussian, Inc., Wallingford CT, 2019.
 
 ******************************************
 Gaussian 16:  ES64L-G16RevC.01  3-Jul-2019
                 8-Nov-2021 
 ******************************************
 %chk=_1_alde1_3_ami3_1_opt_cfm_mp2.chk
 %mem=60000mb
 %nprocshared=32
 Will use up to   32 processors via shared memory.
 ----------------------------------------------------------------------
 #P MP2/aug-cc-pVDZ SP SCF=(YQC,MaxCycle=900) int=(Grid=Superfinegrid) 
 SCRF=(PCM,Solvent=Chloroform)
 ----------------------------------------------------------------------
 1/38=1,172=1/1;
 2/12=2,17=6,18=5,40=1/2;
 3/5=16,7=10,11=9,25=1,30=1,70=2201,72=7,75=-7/1,2,3;
 4//1;
 5/5=2,7=900,8=4,13=1,38=1,53=7/8,2,8;
 8/10=1/1;
 9/16=-3/6;
 6/7=2,8=2,9=2,10=2/1;
 99/5=1,9=1/99;
 Leave Link    1 at Mon Nov  8 15:39:50 2021, MaxMem=  7864320000 cpu:               5.5 elap:               0.2
 (Enter /apps/gaussian/g16-c01-avx/g16/l101.exe)
 -----------------------------
 _1_alde1_3_ami3_1_opt_cfm_mp2
 -----------------------------
 Symbolic Z-matrix:
 Charge =  0 Multiplicity = 1
 C                    -1.4505    0.7346   -1.771 
 C                    -1.3763    0.3993   -0.3011 
 C                    -2.6569    1.0252   -2.3846 
 C                    -2.6959    1.3696   -3.7309 
 H                    -3.5705    0.9683   -1.8143 
 C                    -1.5186    1.4255   -4.4572 
 C                    -0.3027    1.1355   -3.8489 
 H                    -1.5517    1.6814   -5.5044 
 C                    -0.2731    0.7932   -2.5078 
 C                     0.9654    1.2485   -4.6599 
 H                     0.6697    0.5571   -2.0401 
 C                    -4.0234    1.7214   -4.3575 
 C                    -1.5759    1.6816    1.6251 
 C                    -2.9772    1.2854    1.1279 
 N                    -0.748     1.52      0.4393 
 N                    -2.7083    0.1377    0.274 
 C                    -4.0581    3.2353   -6.1171 
 C                    -4.9843    3.7375   -4.9956 
 N                    -3.9334    1.8147   -5.826 
 N                    -4.5027    3.0198   -3.8249 
 C                     2.9334    1.8259   -3.5727 
 C                     2.6701    2.8256   -4.7125 
 N                     2.1258    0.6764   -3.9534 
 N                     1.2443    2.6737   -4.9607 
 H                     2.6548    0.0779   -4.5792 
 H                     0.8206    0.7276   -5.6166 
 H                     0.7226    3.2567   -4.3103 
 H                    -0.7372   -0.4854   -0.1724 
 H                    -0.8012    2.3622   -0.129 
 H                    -4.7007    1.3081   -6.2553 
 H                    -3.7157    3.5212   -3.4194 
 H                    -4.7597    0.9544   -4.0795 
 C                    -3.9241    1.1116    2.2974 
 H                    -2.6866   -0.7085    0.8336 
 C                    -4.5925    3.6526   -7.4717 
 C                     4.4223    1.6305   -3.3734 
 H                    -3.3543    2.0868    0.4755 
 C                    -3.9814    2.4478    3.0451 
 H                    -3.5553    0.3251    2.961 
 H                    -4.9199    0.8282    1.9526 
 C                    -2.5943    2.9315    3.4789 
 H                    -4.6187    2.3486    3.9259 
 H                    -4.4328    3.1969    2.3903 
 C                    -1.6201    3.0369    2.3009 
 H                    -2.6889    3.9046    3.9649 
 H                    -2.1846    2.2324    4.2118 
 H                    -0.6296    3.3286    2.6539 
 H                    -1.9677    3.7931    1.5922 
 H                    -1.2346    0.9283    2.351 
 H                    -3.0624    3.6794   -5.9707 
 C                    -4.6654    5.1831   -7.4854 
 H                    -5.5877    3.2275   -7.6261 
 H                    -3.9416    3.2979   -8.2724 
 C                    -5.5024    5.7357   -6.3278 
 H                    -5.0929    5.5218   -8.4312 
 H                    -3.6512    5.5831   -7.4164 
 C                    -4.9997    5.2521   -4.9634 
 H                    -6.5401    5.4173   -6.4526 
 H                    -5.4838    6.8269   -6.3599 
 H                    -6.0034    3.3711   -5.191 
 H                    -5.6516    5.6183   -4.1685 
 H                    -3.9903    5.6292   -4.7797 
 H                     2.4965    2.2302   -2.6476 
 C                     5.0238    2.9981   -3.033 
 H                     4.8722    1.2396   -4.2898 
 H                     4.6169    0.9207   -2.5679 
 C                     4.7067    4.0539   -4.0963 
 H                     6.1068    2.9072   -2.929 
 H                     4.6236    3.3275   -2.0712 
 C                     3.2013    4.1959   -4.3447 
 H                     5.1924    3.7742   -5.0342 
 H                     5.1191    5.0149   -3.7826 
 H                     3.016     4.9134   -5.1457 
 H                     2.7036    4.5558   -3.4405 
 H                     3.1858    2.4705   -5.6175 
 
 ITRead=  0  0  0  0  0  0  0  0  0  0  0  0  0  0  0  0  0  0  0  0
 ITRead=  0  0  0  0  0  0  0  0  0  0  0  0  0  0  0  0  0  0  0  0
 ITRead=  0  0  0  0  0  0  0  0  0  0  0  0  0  0  0  0  0  0  0  0
 ITRead=  0  0  0  0  0  0  0  0  0  0  0  0  0  0  0
 MicOpt= -1 -1 -1 -1 -1 -1 -1 -1 -1 -1 -1 -1 -1 -1 -1 -1 -1 -1 -1 -1
 MicOpt= -1 -1 -1 -1 -1 -1 -1 -1 -1 -1 -1 -1 -1 -1 -1 -1 -1 -1 -1 -1
 MicOpt= -1 -1 -1 -1 -1 -1 -1 -1 -1 -1 -1 -1 -1 -1 -1 -1 -1 -1 -1 -1
 MicOpt= -1 -1 -1 -1 -1 -1 -1 -1 -1 -1 -1 -1 -1 -1 -1
 NAtoms=     75 NQM=       75 NQMF=       0 NMMI=      0 NMMIF=      0
                NMic=       0 NMicF=      0.
                    Isotopes and Nuclear Properties:
 (Nuclear quadrupole moments (NQMom) in fm**2, nuclear magnetic moments (NMagM)
  in nuclear magnetons)

  Atom         1           2           3           4           5           6           7           8           9          10
 IAtWgt=          12          12          12          12           1          12          12           1          12          12
 AtmWgt=  12.0000000  12.0000000  12.0000000  12.0000000   1.0078250  12.0000000  12.0000000   1.0078250  12.0000000  12.0000000
 NucSpn=           0           0           0           0           1           0           0           1           0           0
 AtZEff=  -0.0000000  -0.0000000  -0.0000000  -0.0000000  -0.0000000  -0.0000000  -0.0000000  -0.0000000  -0.0000000  -0.0000000
 NQMom=    0.0000000   0.0000000   0.0000000   0.0000000   0.0000000   0.0000000   0.0000000   0.0000000   0.0000000   0.0000000
 NMagM=    0.0000000   0.0000000   0.0000000   0.0000000   2.7928460   0.0000000   0.0000000   2.7928460   0.0000000   0.0000000
 AtZNuc=   6.0000000   6.0000000   6.0000000   6.0000000   1.0000000   6.0000000   6.0000000   1.0000000   6.0000000   6.0000000

  Atom        11          12          13          14          15          16          17          18          19          20
 IAtWgt=           1          12          12          12          14          14          12          12          14          14
 AtmWgt=   1.0078250  12.0000000  12.0000000  12.0000000  14.0030740  14.0030740  12.0000000  12.0000000  14.0030740  14.0030740
 NucSpn=           1           0           0           0           2           2           0           0           2           2
 AtZEff=  -0.0000000  -0.0000000  -0.0000000  -0.0000000  -0.0000000  -0.0000000  -0.0000000  -0.0000000  -0.0000000  -0.0000000
 NQMom=    0.0000000   0.0000000   0.0000000   0.0000000   2.0440000   2.0440000   0.0000000   0.0000000   2.0440000   2.0440000
 NMagM=    2.7928460   0.0000000   0.0000000   0.0000000   0.4037610   0.4037610   0.0000000   0.0000000   0.4037610   0.4037610
 AtZNuc=   1.0000000   6.0000000   6.0000000   6.0000000   7.0000000   7.0000000   6.0000000   6.0000000   7.0000000   7.0000000

  Atom        21          22          23          24          25          26          27          28          29          30
 IAtWgt=          12          12          14          14           1           1           1           1           1           1
 AtmWgt=  12.0000000  12.0000000  14.0030740  14.0030740   1.0078250   1.0078250   1.0078250   1.0078250   1.0078250   1.0078250
 NucSpn=           0           0           2           2           1           1           1           1           1           1
 AtZEff=  -0.0000000  -0.0000000  -0.0000000  -0.0000000  -0.0000000  -0.0000000  -0.0000000  -0.0000000  -0.0000000  -0.0000000
 NQMom=    0.0000000   0.0000000   2.0440000   2.0440000   0.0000000   0.0000000   0.0000000   0.0000000   0.0000000   0.0000000
 NMagM=    0.0000000   0.0000000   0.4037610   0.4037610   2.7928460   2.7928460   2.7928460   2.7928460   2.7928460   2.7928460
 AtZNuc=   6.0000000   6.0000000   7.0000000   7.0000000   1.0000000   1.0000000   1.0000000   1.0000000   1.0000000   1.0000000

  Atom        31          32          33          34          35          36          37          38          39          40
 IAtWgt=           1           1          12           1          12          12           1          12           1           1
 AtmWgt=   1.0078250   1.0078250  12.0000000   1.0078250  12.0000000  12.0000000   1.0078250  12.0000000   1.0078250   1.0078250
 NucSpn=           1           1           0           1           0           0           1           0           1           1
 AtZEff=  -0.0000000  -0.0000000  -0.0000000  -0.0000000  -0.0000000  -0.0000000  -0.0000000  -0.0000000  -0.0000000  -0.0000000
 NQMom=    0.0000000   0.0000000   0.0000000   0.0000000   0.0000000   0.0000000   0.0000000   0.0000000   0.0000000   0.0000000
 NMagM=    2.7928460   2.7928460   0.0000000   2.7928460   0.0000000   0.0000000   2.7928460   0.0000000   2.7928460   2.7928460
 AtZNuc=   1.0000000   1.0000000   6.0000000   1.0000000   6.0000000   6.0000000   1.0000000   6.0000000   1.0000000   1.0000000

  Atom        41          42          43          44          45          46          47          48          49          50
 IAtWgt=          12           1           1          12           1           1           1           1           1           1
 AtmWgt=  12.0000000   1.0078250   1.0078250  12.0000000   1.0078250   1.0078250   1.0078250   1.0078250   1.0078250   1.0078250
 NucSpn=           0           1           1           0           1           1           1           1           1           1
 AtZEff=  -0.0000000  -0.0000000  -0.0000000  -0.0000000  -0.0000000  -0.0000000  -0.0000000  -0.0000000  -0.0000000  -0.0000000
 NQMom=    0.0000000   0.0000000   0.0000000   0.0000000   0.0000000   0.0000000   0.0000000   0.0000000   0.0000000   0.0000000
 NMagM=    0.0000000   2.7928460   2.7928460   0.0000000   2.7928460   2.7928460   2.7928460   2.7928460   2.7928460   2.7928460
 AtZNuc=   6.0000000   1.0000000   1.0000000   6.0000000   1.0000000   1.0000000   1.0000000   1.0000000   1.0000000   1.0000000

  Atom        51          52          53          54          55          56          57          58          59          60
 IAtWgt=          12           1           1          12           1           1          12           1           1           1
 AtmWgt=  12.0000000   1.0078250   1.0078250  12.0000000   1.0078250   1.0078250  12.0000000   1.0078250   1.0078250   1.0078250
 NucSpn=           0           1           1           0           1           1           0           1           1           1
 AtZEff=  -0.0000000  -0.0000000  -0.0000000  -0.0000000  -0.0000000  -0.0000000  -0.0000000  -0.0000000  -0.0000000  -0.0000000
 NQMom=    0.0000000   0.0000000   0.0000000   0.0000000   0.0000000   0.0000000   0.0000000   0.0000000   0.0000000   0.0000000
 NMagM=    0.0000000   2.7928460   2.7928460   0.0000000   2.7928460   2.7928460   0.0000000   2.7928460   2.7928460   2.7928460
 AtZNuc=   6.0000000   1.0000000   1.0000000   6.0000000   1.0000000   1.0000000   6.0000000   1.0000000   1.0000000   1.0000000

  Atom        61          62          63          64          65          66          67          68          69          70
 IAtWgt=           1           1           1          12           1           1          12           1           1          12
 AtmWgt=   1.0078250   1.0078250   1.0078250  12.0000000   1.0078250   1.0078250  12.0000000   1.0078250   1.0078250  12.0000000
 NucSpn=           1           1           1           0           1           1           0           1           1           0
 AtZEff=  -0.0000000  -0.0000000  -0.0000000  -0.0000000  -0.0000000  -0.0000000  -0.0000000  -0.0000000  -0.0000000  -0.0000000
 NQMom=    0.0000000   0.0000000   0.0000000   0.0000000   0.0000000   0.0000000   0.0000000   0.0000000   0.0000000   0.0000000
 NMagM=    2.7928460   2.7928460   2.7928460   0.0000000   2.7928460   2.7928460   0.0000000   2.7928460   2.7928460   0.0000000
 AtZNuc=   1.0000000   1.0000000   1.0000000   6.0000000   1.0000000   1.0000000   6.0000000   1.0000000   1.0000000   6.0000000

  Atom        71          72          73          74          75
 IAtWgt=           1           1           1           1           1
 AtmWgt=   1.0078250   1.0078250   1.0078250   1.0078250   1.0078250
 NucSpn=           1           1           1           1           1
 AtZEff=  -0.0000000  -0.0000000  -0.0000000  -0.0000000  -0.0000000
 NQMom=    0.0000000   0.0000000   0.0000000   0.0000000   0.0000000
 NMagM=    2.7928460   2.7928460   2.7928460   2.7928460   2.7928460
 AtZNuc=   1.0000000   1.0000000   1.0000000   1.0000000   1.0000000
 Leave Link  101 at Mon Nov  8 15:39:50 2021, MaxMem=  7864320000 cpu:               2.7 elap:               0.1
 (Enter /apps/gaussian/g16-c01-avx/g16/l202.exe)
 Stoichiometry    C27H42N6
 Framework group  C1[X(C27H42N6)]
 Deg. of freedom   219
 Full point group                 C1      NOp   1
 Largest Abelian subgroup         C1      NOp   1
 Largest concise Abelian subgroup C1      NOp   1
                         Standard orientation:                         
 ---------------------------------------------------------------------
 Center     Atomic      Atomic             Coordinates (Angstroms)
 Number     Number       Type             X           Y           Z
 ---------------------------------------------------------------------
      1          6           0        1.329728   -0.402172   -1.350807
      2          6           0        2.784498   -0.802552   -1.307453
      3          6           0        0.320392   -1.349581   -1.347463
      4          6           0       -1.013010   -0.956269   -1.348170
      5          1           0        0.575086   -2.397501   -1.359316
      6          6           0       -1.328735    0.391688   -1.347591
      7          6           0       -0.321473    1.349789   -1.350650
      8          1           0       -2.363578    0.695258   -1.359988
      9          6           0        1.003725    0.949234   -1.350178
     10          6           0       -0.701746    2.809918   -1.306139
     11          1           0        1.784097    1.693665   -1.364351
     12          6           0       -2.087752   -2.015242   -1.301752
     13          6           0        4.143180   -1.644057    0.377846
     14          6           0        3.362151   -2.799134   -0.273011
     15          7           0        3.357598   -0.472596    0.019803
     16          7           0        2.968918   -2.243332   -1.559525
     17          6           0       -4.107376   -1.508153   -0.275463
     18          6           0       -3.501088   -2.758823    0.384880
     19          7           0       -3.426525   -1.454979   -1.560768
     20          7           0       -2.092849   -2.668754    0.029461
     21          6           0        0.744947    4.305315   -0.276921
     22          6           0       -0.642531    4.405686    0.380880
     23          7           0        0.452898    3.689565   -1.563024
     24          7           0       -1.268334    3.141408    0.023730
     25          1           0        0.202680    4.405643   -2.237035
     26          1           0       -1.482463    2.994793   -2.057059
     27          1           0       -0.989282    2.424564    0.689572
     28          1           0        3.333433   -0.221502   -2.061613
     29          1           0        2.598769   -0.355949    0.687387
     30          1           0       -3.920929   -2.030343   -2.234721
     31          1           0       -1.612744   -2.066921    0.694666
     32          1           0       -1.857336   -2.785631   -2.050832
     33          6           0        4.185057   -4.070768   -0.254809
     34          1           0        3.711153   -2.386853   -2.236406
     35          6           0       -5.620308   -1.582083   -0.260083
     36          6           0        1.437542    5.652440   -0.259867
     37          1           0        2.437502   -2.960556    0.300608
     38          6           0        4.496495   -4.395955    1.209783
     39          1           0        5.113434   -3.921146   -0.812204
     40          1           0        3.638316   -4.894326   -0.717028
     41          6           0        5.192032   -3.235543    1.928021
     42          1           0        5.131229   -5.282624    1.262034
     43          1           0        3.560621   -4.625750    1.724574
     44          6           0        4.387897   -1.933899    1.844680
     45          1           0        5.349081   -3.503341    2.974773
     46          1           0        6.173170   -3.071602    1.476103
     47          1           0        4.938298   -1.118190    2.316344
     48          1           0        3.432872   -2.048186    2.364090
     49          1           0        5.111211   -1.541376   -0.135233
     50          1           0       -3.784530   -0.623605    0.293237
     51          6           0       -6.060861   -1.678719    1.204330
     52          1           0       -5.955345   -2.463959   -0.812367
     53          1           0       -6.057383   -0.699043   -0.728920
     54          6           0       -5.407462   -2.857837    1.931464
     55          1           0       -7.146506   -1.782744    1.254976
     56          1           0       -5.791349   -0.750604    1.713573
     57          6           0       -3.877773   -2.815671    1.851224
     58          1           0       -5.756822   -3.791756    1.484791
     59          1           0       -5.720224   -2.852749    2.977527
     60          1           0       -3.896505   -3.651209   -0.123340
     61          1           0       -3.449353   -3.698014    2.329626
     62          1           0       -3.498870   -1.928880    2.365881
     63          1           0        1.348474    3.583153    0.292629
     64          6           0        1.571476    6.081831    1.204950
     65          1           0        0.842418    6.383785   -0.813007
     66          1           0        2.421580    5.589637   -0.727029
     67          6           0        0.222455    6.105299    1.929840
     68          1           0        2.024250    7.073940    1.256742
     69          1           0        2.239691    5.384019    1.715117
     70          6           0       -0.505936    4.759648    1.847585
     71          1           0       -0.410752    6.875142    1.482421
     72          1           0        0.381480    6.373112    2.976257
     73          1           0       -1.485038    4.829620    2.324248
     74          1           0        0.071529    3.987723    2.362830
     75          1           0       -1.216454    5.194789   -0.128037
 ---------------------------------------------------------------------
 Rotational constants (GHZ):           0.0977689           0.0974421           0.0568513
 Leave Link  202 at Mon Nov  8 15:39:50 2021, MaxMem=  7864320000 cpu:               0.2 elap:               0.0
 (Enter /apps/gaussian/g16-c01-avx/g16/l301.exe)
 Standard basis: Aug-CC-pVDZ (5D, 7F)
 Ernie: Thresh=  0.10000D-02 Tol=  0.10000D-05 Strict=F.
 Ernie:  66 primitive shells out of 1119 were deleted.
 There are  1203 symmetry adapted cartesian basis functions of A   symmetry.
 There are  1137 symmetry adapted basis functions of A   symmetry.
  1137 basis functions,  1881 primitive gaussians,  1203 cartesian basis functions
   123 alpha electrons      123 beta electrons
       nuclear repulsion energy      3503.1326476083 Hartrees.
 IExCor=    0 DFT=F Ex=HF Corr=None ExCW=0 ScaHFX=  1.000000
 ScaDFX=  1.000000  1.000000  1.000000  1.000000 ScalE2=  1.000000  1.000000
 IRadAn=      7 IRanWt=     -1 IRanGd=            0 ICorTp=0 IEmpDi=  4
 NAtoms=   75 NActive=   75 NUniq=   75 SFac= 1.00D+00 NAtFMM=   60 NAOKFM=T Big=T
 Integral buffers will be    131072 words long.
 Raffenetti 1 integral format.
 Two-electron integral symmetry is turned on.
 ------------------------------------------------------------------------------
 Polarizable Continuum Model (PCM)
 =================================
 Model                : PCM.
 Atomic radii         : UFF (Universal Force Field).
 Polarization charges : Total charges.
 Charge compensation  : None.
 Solution method      : On-the-fly selection.
 Cavity type          : Scaled VdW (van der Waals Surface) (Alpha=1.100).
 Cavity algorithm     : GePol (No added spheres)
                        Default sphere list used, NSphG=   75.
                        Lebedev-Laikov grids with approx.  5.0 points / Ang**2.
                        Smoothing algorithm: York/Karplus (Gamma=1.0000).
                        Polarization charges: spherical gaussians, with
                                              point-specific exponents (IZeta= 3).
                        Self-potential: point-specific (ISelfS= 7).
                        Self-field    : sphere-specific E.n sum rule (ISelfD= 2).
 Solvent              : Chloroform, Eps=   4.711300 Eps(inf)=   2.090627
 ------------------------------------------------------------------------------
 GePol: Number of generator spheres                  =      75
 GePol: Total number of spheres                      =      75
 GePol: Number of exposed spheres                    =      75 (100.00%)
 GePol: Number of points                             =    4445
 GePol: Average weight of points                     =       0.13
 GePol: Minimum weight of points                     =   0.10D-10
 GePol: Maximum weight of points                     =    0.20577
 GePol: Number of points with low weight             =     382
 GePol: Fraction of low-weight points (<1% of avg)   =       8.59%
 GePol: Cavity surface area                          =    573.625 Ang**2
 GePol: Cavity volume                                =    657.662 Ang**3
 Leave Link  301 at Mon Nov  8 15:39:50 2021, MaxMem=  7864320000 cpu:               1.5 elap:               0.1
 (Enter /apps/gaussian/g16-c01-avx/g16/l302.exe)
 NPDir=0 NMtPBC=     1 NCelOv=     1 NCel=       1 NClECP=     1 NCelD=      1
         NCelK=      1 NCelE2=     1 NClLst=     1 CellRange=     0.0.
 One-electron integrals computed using PRISM.
 One-electron integral symmetry used in STVInt
 NBasis=  1137 RedAO= T EigKep=  1.14D-06  NBF=  1137
 NBsUse=  1132 1.00D-06 EigRej=  9.18D-07 NBFU=  1132
 Leave Link  302 at Mon Nov  8 15:39:53 2021, MaxMem=  7864320000 cpu:              96.8 elap:               3.1
 (Enter /apps/gaussian/g16-c01-avx/g16/l303.exe)
 DipDrv:  MaxL=1.
 Leave Link  303 at Mon Nov  8 15:39:54 2021, MaxMem=  7864320000 cpu:              10.2 elap:               0.4
 (Enter /apps/gaussian/g16-c01-avx/g16/l401.exe)
 ExpMin= 2.97D-02 ExpMax= 9.05D+03 ExpMxC= 3.09D+02 IAcc=3 IRadAn=         7 AccDes= 0.00D+00
 Harris functional with IExCor=  205 and IRadAn=       7 diagonalized for initial guess.
 HarFok:  IExCor=  205 AccDes= 0.00D+00 IRadAn=         7 IDoV= 1 UseB2=F ITyADJ=14
 ICtDFT=  3500011 ScaDFX=  1.000000  1.000000  1.000000  1.000000
 FoFCou: FMM=F IPFlag=           0 FMFlag=      100000 FMFlg1=        2001
         NFxFlg=           0 DoJE=T BraDBF=F KetDBF=T FulRan=T
         wScrn=  0.000000 ICntrl=       500 IOpCl=  0 I1Cent=   200000004 NGrid=           0
         NMat0=    1 NMatS0=      1 NMatT0=    0 NMatD0=    1 NMtDS0=    0 NMtDT0=    0
 Petite list used in FoFCou.
 Harris En= -1376.06916289592    
 JPrj=0 DoOrth=F DoCkMO=F.
 Leave Link  401 at Mon Nov  8 15:40:05 2021, MaxMem=  7864320000 cpu:             365.4 elap:              11.6
 (Enter /apps/gaussian/g16-c01-avx/g16/l508.exe)
 Integral symmetry usage will be decided dynamically.
 Tight linear equation convergence will be used.
 RHF wavefunction.
 Linear searches until partial convergence.
 Full line searches.
 Fock matrices will be formed incrementally for  20 cycles.
 Inv3:  Mode=1 IEnd=    59274075.
 Iteration    1 A*A^-1 deviation from unit magnitude is 1.65D-14 for   4432.
 Iteration    1 A*A^-1 deviation from orthogonality  is 5.19D-15 for   4440   3982.
 Iteration    1 A^-1*A deviation from unit magnitude is 1.65D-14 for   4432.
 Iteration    1 A^-1*A deviation from orthogonality  is 2.16D-15 for   4415   4404.
 FoFJK:  IHMeth= 1 ICntrl=       0 DoSepK=F KAlg= 0 I1Cent=           0 FoldK=F
 IRaf= 990000000 NMat=       1 IRICut=       1 DoRegI=T DoRafI=F ISym2E= 1 IDoP0=0 IntGTp=1.
 Iteration   1 EE= -1372.38930420225                                    Grad=1.842D+00 Max rot=    2.1565 deg.
 Gradient too large for Newton-Raphson -- use scaled steepest descent instead.
 Alpha Gap=     0.533 HL deriv= 7.84D-03
     ILin= 1 X=0.000D+00 Y=-1.372389304202D+03 DE= 0.00D+00 F= -4.31D+00
 RMSU=  6.36D-03    CP:  7.76D-01
     ILin= 2 X=3.000D-01 Y=-1.373352457399D+03 DE=-9.63D-01 F= -2.10D+00 OKLS=F
 RMSU=  1.41D-03    CP:  6.54D-01  1.47D+00
     ILin= 3 X=5.000D-01 Y=-1.373623126275D+03 DE=-1.23D+00 F= -6.05D-01
 RMSU=  3.37D-03    CP:  4.79D-01  1.95D+00  3.00D+00
     ILin= 4 X=9.000D-01 Y=-1.373266402475D+03 DE=-8.77D-01 F=  2.38D+00
     An  expanding polynomial of degree  4 produced  0.5812
 RMSU=  2.69D-06    CP:  6.11D-01  1.62D+00  1.63D+00  9.94D-06
 Iteration   2 EE= -1373.64754582541     Delta-E=       -1.258241623162 Grad=6.310D-01 Max rot=    0.7527 deg.
 Gradient too large for Newton-Raphson -- use scaled steepest descent instead.
 Alpha Gap=     0.530 HL deriv= 7.67D-04
     ILin= 1 X=0.000D+00 Y=-1.373647545825D+03 DE= 0.00D+00 F= -2.23D-01
 RMSU=  2.14D-03    CP:  5.33D-01  1.68D+00  2.85D+00 -6.44D-04 -3.00D+00
     ILin= 2 X=4.000D-01 Y=-1.373714945688D+03 DE=-6.74D-02 F= -1.14D-01 OKLS=F
 RMSU=  4.16D-04    CP:  4.68D-01  1.70D+00  3.00D+00  5.62D-01 -3.00D+00
                    CP:  1.86D+00
     ILin= 3 X=8.000D-01 Y=-1.373739128268D+03 DE=-9.16D-02 F= -6.56D-03
 RMSU=  1.75D-03    CP:  3.75D-01  1.61D+00  3.00D+00  2.39D+00 -3.00D+00
                    CP:  3.00D+00  3.00D+00
     ILin= 4 X=1.700D+00 Y=-1.373636409423D+03 DE= 1.11D-02 F=  2.34D-01
     An  expanding polynomial of degree  4 produced  0.8244
     Minimum is close to point  3 DX=  2.44D-02 DF= -8.04D-05 DXR=  2.97D-02 DFR=  8.78D-04 which will be used.
 Iteration   3 EE= -1373.73912826838     Delta-E=       -0.091582442970 Grad=1.785D-01 Max rot=    0.2888 deg.
 Gradient too large for Newton-Raphson -- use scaled steepest descent instead.
 Alpha Gap=     0.523 HL deriv= 1.20D-03
     ILin= 1 X=0.000D+00 Y=-1.373739128268D+03 DE= 0.00D+00 F= -3.08D-02
 RMSU=  8.17D-04    CP:  4.42D-01  1.69D+00  3.00D+00  9.09D-01 -3.00D+00
                    CP:  2.09D+00  1.65D+00 -1.26D-04
     ILin= 2 X=7.000D-01 Y=-1.373749887376D+03 DE=-1.08D-02 F=  1.11D-05 OKLS=T
     Accept linear search using points  1 and  2.
     An  expanding polynomial of degree  2 produced  0.6990
     Minimum is close to point  2 DX= -1.02D-03 DF= -8.13D-09 DXR=  1.47D-03 DFR=  7.56D-07 which will be used.
 Iteration   4 EE= -1373.74988737576     Delta-E=       -0.010759107383 Grad=6.920D-02 Max rot=    0.0843 deg.
 Gradient too large for Newton-Raphson -- use scaled steepest descent instead.
 Alpha Gap=     0.527 HL deriv= 2.65D-04
     ILin= 1 X=0.000D+00 Y=-1.373749887376D+03 DE= 0.00D+00 F= -4.62D-03
 RMSU=  3.07D-04    CP:  4.29D-01  1.67D+00  3.00D+00  1.04D+00 -3.00D+00
                    CP:  2.28D+00  2.01D+00  7.94D-04  1.37D+00
     ILin= 2 X=8.000D-01 Y=-1.373751718076D+03 DE=-1.83D-03 F=  4.15D-05 OKLS=T
     Accept linear search using points  1 and  2.
     An  expanding polynomial of degree  2 produced  0.7851
     Minimum is close to point  2 DX= -1.49D-02 DF= -3.90D-07 DXR=  1.90D-02 DFR=  2.13D-04 which will be used.
 Iteration   5 EE= -1373.75171807572     Delta-E=       -0.001830699963 Grad=2.542D-02 Max rot=    0.0591 deg.
 Gradient too large for Newton-Raphson -- use scaled steepest descent instead.
 Alpha Gap=     0.527 HL deriv= 3.03D-04
     ILin= 1 X=0.000D+00 Y=-1.373751718076D+03 DE= 0.00D+00 F= -1.01D-03
 RMSU=  6.76D-05    CP:  4.25D-01  1.67D+00  3.00D+00  1.07D+00 -3.00D+00
                    CP:  2.31D+00  2.10D+00  8.21D-04  1.61D+00  1.22D+00
     ILin= 2 X=7.000D-01 Y=-1.373752073695D+03 DE=-3.56D-04 F= -7.92D-06 OKLS=T
     Reject lnstep IMin12=  1  2 Big=T Turn=F Min= 7.252D-01 FVal=-1.373752073835D+03 Lims=  0.00D+00  7.00D-01
 RMSU=  5.48D-06    CP:  4.21D-01  1.66D+00  3.00D+00  1.12D+00 -3.00D+00
                    CP:  2.34D+00  2.20D+00  8.87D-04  1.89D+00  1.47D+00
                    CP:  2.16D+00
     ILin= 3 X=1.500D+00 Y=-1.373751622941D+03 DE= 9.51D-05 F=  1.13D-03
     An  expanding polynomial of degree  3 produced  0.7056
     Minimum is close to point  2 DX=  5.61D-03 DF= -2.24D-08 DXR=  7.94D-03 DFR=  6.31D-05 which will be used.
 Iteration   6 EE= -1373.75207369548     Delta-E=       -0.000355619754 Grad=1.108D-02 Max rot=    0.0206 deg.
 Gradient too large for Newton-Raphson -- use scaled steepest descent instead.
 Alpha Gap=     0.527 HL deriv= 1.53D-04
     ILin= 1 X=0.000D+00 Y=-1.373752073695D+03 DE= 0.00D+00 F= -1.86D-04
 RMSU=  1.99D-05    CP:  4.23D-01  1.66D+00  3.00D+00  1.09D+00 -3.00D+00
                    CP:  2.33D+00  2.14D+00  8.65D-04  1.70D+00  1.46D+00
                    CP:  1.32D+00 -4.82D-01
     ILin= 2 X=7.000D-01 Y=-1.373752149770D+03 DE=-7.61D-05 F= -3.12D-05 OKLS=T
     Reject lnstep IMin12=  1  2 Big=T Turn=F Min= 1.293D+00 FVal=-1.373752170608D+03 Lims=  0.00D+00  7.00D-01
 RMSU=  8.47D-07    CP:  4.21D-01  1.66D+00  3.00D+00  1.10D+00 -3.00D+00
                    CP:  2.36D+00  2.20D+00  9.22D-04  1.80D+00  1.74D+00
                    CP:  1.69D+00 -8.12D-01  2.15D+00
     ILin= 3 X=1.500D+00 Y=-1.373752103934D+03 DE=-3.02D-05 F=  1.46D-04
     An  expanding polynomial of degree  3 produced  0.8411
 RMSU=  7.86D-12    CP:  4.23D-01  1.66D+00  3.00D+00  1.09D+00 -3.00D+00
                    CP:  2.34D+00  2.15D+00  8.75D-04  1.72D+00  1.51D+00
                    CP:  1.39D+00 -5.57D-01  1.20D+00  9.89D-02
 Iteration   7 EE= -1373.75215197049     Delta-E=       -0.000078275014 Grad=5.200D-03 Max rot=    0.0132 deg.
 SCF Done:  E(RHF) =  -1373.75215197     a.u. after    7 cycles
            Convg  =    0.5200D-02                    15 Fock formations.
              S**2 =  0.0000                  -V/T =  2.0004
 Leave Link  508 at Mon Nov  8 16:00:39 2021, MaxMem=  7864320000 cpu:           38940.8 elap:            1233.6
 (Enter /apps/gaussian/g16-c01-avx/g16/l502.exe)
 Integral symmetry usage will be decided dynamically.
 Closed shell SCF:
 Using DIIS extrapolation, IDIIS=  1040.
 NGot=  7864320000 LenX=  7861374008 LenY=  7859925596
 Requested convergence on RMS density matrix=1.00D-08 within 128 cycles.
 Requested convergence on MAX density matrix=1.00D-06.
 Requested convergence on             energy=1.00D-06.
 No special actions if energy rises.
 Fock matrices will be formed incrementally for  20 cycles.

 Cycle   1  Pass 1  IDiag  1:
 FoFJK:  IHMeth= 1 ICntrl=       0 DoSepK=F KAlg= 0 I1Cent=           0 FoldK=F
 IRaf= 990000000 NMat=       1 IRICut=       1 DoRegI=T DoRafI=F ISym2E= 0 IDoP0=0 IntGTp=1.
 FoFCou: FMM=T IPFlag=           0 FMFlag=      100000 FMFlg1=        2001
         NFxFlg=           0 DoJE=F BraDBF=F KetDBF=F FulRan=T
         wScrn=  0.000000 ICntrl=         0 IOpCl=  0 I1Cent=           0 NGrid=           0
         NMat0=    1 NMatS0=      1 NMatT0=    0 NMatD0=    1 NMtDS0=    0 NMtDT0=    0
 Symmetry not used in FoFCou.
 FMM levels:  10  Number of levels for PrismC:   9
 E= -1373.75215197070    
 DIIS: error= 7.15D-05 at cycle   1 NSaved=   1.
 NSaved= 1 IEnMin= 1 EnMin= -1373.75215197070     IErMin= 1 ErrMin= 7.15D-05
 ErrMax= 7.15D-05  0.00D+00 EMaxC= 1.00D-01 BMatC= 1.35D-05 BMatP= 1.35D-05
 IDIUse=1 WtCom= 1.00D+00 WtEn= 0.00D+00
 Coeff-Com:  0.100D+01
 Coeff:      0.100D+01
 Gap=     0.527 Goal=   None    Shift=    0.000
 RMSDP=1.10D-04 MaxDP=1.45D-02              OVMax= 9.38D-04

 Cycle   2  Pass 1  IDiag  1:
 RMSU=  1.01D-04    CP:  9.99D-01
 E= -1373.75217231266     Delta-E=       -0.000020341959 Rises=F Damp=F
 DIIS: error= 4.55D-05 at cycle   2 NSaved=   2.
 NSaved= 2 IEnMin= 2 EnMin= -1373.75217231266     IErMin= 2 ErrMin= 4.55D-05
 ErrMax= 4.55D-05  0.00D+00 EMaxC= 1.00D-01 BMatC= 4.25D-06 BMatP= 1.35D-05
 IDIUse=1 WtCom= 1.00D+00 WtEn= 0.00D+00
 Coeff-Com:  0.312D+00 0.688D+00
 Coeff:      0.312D+00 0.688D+00
 Gap=     0.350 Goal=   None    Shift=    0.000
 RMSDP=1.88D-05 MaxDP=2.60D-03 DE=-2.03D-05 OVMax= 3.01D-04

 Cycle   3  Pass 1  IDiag  1:
 RMSU=  1.40D-05    CP:  9.98D-01  1.09D+00
 E= -1373.75217710333     Delta-E=       -0.000004790671 Rises=F Damp=F
 DIIS: error= 1.00D-05 at cycle   3 NSaved=   3.
 NSaved= 3 IEnMin= 3 EnMin= -1373.75217710333     IErMin= 3 ErrMin= 1.00D-05
 ErrMax= 1.00D-05  0.00D+00 EMaxC= 1.00D-01 BMatC= 2.73D-07 BMatP= 4.25D-06
 IDIUse=1 WtCom= 1.00D+00 WtEn= 0.00D+00
 Coeff-Com: -0.173D+00-0.112D+00 0.128D+01
 Coeff:     -0.173D+00-0.112D+00 0.128D+01
 Gap=     0.350 Goal=   None    Shift=    0.000
 RMSDP=1.51D-05 MaxDP=2.12D-03 DE=-4.79D-06 OVMax= 4.64D-04

 Cycle   4  Pass 1  IDiag  1:
 RMSU=  5.76D-06    CP:  9.98D-01  1.21D+00  1.26D+00
 E= -1373.75217813292     Delta-E=       -0.000001029581 Rises=F Damp=F
 DIIS: error= 2.87D-06 at cycle   4 NSaved=   4.
 NSaved= 4 IEnMin= 4 EnMin= -1373.75217813292     IErMin= 4 ErrMin= 2.87D-06
 ErrMax= 2.87D-06  0.00D+00 EMaxC= 1.00D-01 BMatC= 2.13D-08 BMatP= 2.73D-07
 IDIUse=1 WtCom= 1.00D+00 WtEn= 0.00D+00
 Coeff-Com:  0.346D-01 0.276D-02-0.332D+00 0.129D+01
 Coeff:      0.346D-01 0.276D-02-0.332D+00 0.129D+01
 Gap=     0.350 Goal=   None    Shift=    0.000
 RMSDP=2.18D-06 MaxDP=2.53D-04 DE=-1.03D-06 OVMax= 2.19D-04

 Cycle   5  Pass 1  IDiag  1:
 RMSU=  1.59D-06    CP:  9.98D-01  1.20D+00  1.27D+00  1.23D+00
 E= -1373.75217825911     Delta-E=       -0.000000126198 Rises=F Damp=F
 DIIS: error= 1.48D-06 at cycle   5 NSaved=   5.
 NSaved= 5 IEnMin= 5 EnMin= -1373.75217825911     IErMin= 5 ErrMin= 1.48D-06
 ErrMax= 1.48D-06  0.00D+00 EMaxC= 1.00D-01 BMatC= 6.51D-09 BMatP= 2.13D-08
 IDIUse=1 WtCom= 1.00D+00 WtEn= 0.00D+00
 Coeff-Com:  0.401D-01 0.224D-01-0.302D+00 0.173D+00 0.107D+01
 Coeff:      0.401D-01 0.224D-01-0.302D+00 0.173D+00 0.107D+01
 Gap=     0.350 Goal=   None    Shift=    0.000
 RMSDP=1.20D-06 MaxDP=1.00D-04 DE=-1.26D-07 OVMax= 1.30D-04

 Cycle   6  Pass 1  IDiag  1:
 RMSU=  7.07D-07    CP:  9.98D-01  1.20D+00  1.29D+00  1.31D+00  1.47D+00
 E= -1373.75217829559     Delta-E=       -0.000000036479 Rises=F Damp=F
 DIIS: error= 6.65D-07 at cycle   6 NSaved=   6.
 NSaved= 6 IEnMin= 6 EnMin= -1373.75217829559     IErMin= 6 ErrMin= 6.65D-07
 ErrMax= 6.65D-07  0.00D+00 EMaxC= 1.00D-01 BMatC= 1.22D-09 BMatP= 6.51D-09
 IDIUse=1 WtCom= 1.00D+00 WtEn= 0.00D+00
 Coeff-Com: -0.160D-01-0.486D-02 0.144D+00-0.410D+00-0.185D+00 0.147D+01
 Coeff:     -0.160D-01-0.486D-02 0.144D+00-0.410D+00-0.185D+00 0.147D+01
 Gap=     0.350 Goal=   None    Shift=    0.000
 RMSDP=8.77D-07 MaxDP=6.44D-05 DE=-3.65D-08 OVMax= 9.38D-05

 Cycle   7  Pass 1  IDiag  1:
 RMSU=  3.60D-07    CP:  9.98D-01  1.20D+00  1.30D+00  1.34D+00  1.89D+00
                    CP:  1.48D+00
 E= -1373.75217830505     Delta-E=       -0.000000009456 Rises=F Damp=F
 DIIS: error= 9.77D-08 at cycle   7 NSaved=   7.
 NSaved= 7 IEnMin= 7 EnMin= -1373.75217830505     IErMin= 7 ErrMin= 9.77D-08
 ErrMax= 9.77D-08  0.00D+00 EMaxC= 1.00D-01 BMatC= 5.10D-11 BMatP= 1.22D-09
 IDIUse=1 WtCom= 1.00D+00 WtEn= 0.00D+00
 Coeff-Com: -0.240D-02-0.156D-02 0.181D-01 0.499D-03-0.776D-01-0.272D-01
 Coeff-Com:  0.109D+01
 Coeff:     -0.240D-02-0.156D-02 0.181D-01 0.499D-03-0.776D-01-0.272D-01
 Coeff:      0.109D+01
 Gap=     0.350 Goal=   None    Shift=    0.000
 RMSDP=1.78D-07 MaxDP=1.33D-05 DE=-9.46D-09 OVMax= 1.16D-05

 Cycle   8  Pass 1  IDiag  1:
 RMSU=  8.66D-08    CP:  9.98D-01  1.20D+00  1.30D+00  1.35D+00  1.93D+00
                    CP:  1.52D+00  1.25D+00
 E= -1373.75217830519     Delta-E=       -0.000000000144 Rises=F Damp=F
 DIIS: error= 5.54D-08 at cycle   8 NSaved=   8.
 NSaved= 8 IEnMin= 8 EnMin= -1373.75217830519     IErMin= 8 ErrMin= 5.54D-08
 ErrMax= 5.54D-08  0.00D+00 EMaxC= 1.00D-01 BMatC= 7.76D-12 BMatP= 5.10D-11
 IDIUse=1 WtCom= 1.00D+00 WtEn= 0.00D+00
 Coeff-Com:  0.139D-02 0.252D-03-0.129D-01 0.428D-01 0.689D-02-0.153D+00
 Coeff-Com:  0.128D+00 0.987D+00
 Coeff:      0.139D-02 0.252D-03-0.129D-01 0.428D-01 0.689D-02-0.153D+00
 Coeff:      0.128D+00 0.987D+00
 Gap=     0.350 Goal=   None    Shift=    0.000
 RMSDP=6.74D-08 MaxDP=6.24D-06 DE=-1.44D-10 OVMax= 2.66D-06

 Cycle   9  Pass 1  IDiag  1:
 RMSU=  2.91D-08    CP:  9.98D-01  1.20D+00  1.30D+00  1.36D+00  1.94D+00
                    CP:  1.52D+00  1.36D+00  1.32D+00
 E= -1373.75217830532     Delta-E=       -0.000000000125 Rises=F Damp=F
 DIIS: error= 1.51D-08 at cycle   9 NSaved=   9.
 NSaved= 9 IEnMin= 9 EnMin= -1373.75217830532     IErMin= 9 ErrMin= 1.51D-08
 ErrMax= 1.51D-08  0.00D+00 EMaxC= 1.00D-01 BMatC= 1.08D-12 BMatP= 7.76D-12
 IDIUse=1 WtCom= 1.00D+00 WtEn= 0.00D+00
 Coeff-Com:  0.353D-03 0.181D-03-0.281D-02 0.197D-02 0.871D-02 0.874D-03
 Coeff-Com: -0.126D+00-0.703D-02 0.112D+01
 Coeff:      0.353D-03 0.181D-03-0.281D-02 0.197D-02 0.871D-02 0.874D-03
 Coeff:     -0.126D+00-0.703D-02 0.112D+01
 Gap=     0.350 Goal=   None    Shift=    0.000
 RMSDP=2.24D-08 MaxDP=2.74D-06 DE=-1.25D-10 OVMax= 1.14D-06

 Cycle  10  Pass 1  IDiag  1:
 RMSU=  1.06D-08    CP:  9.98D-01  1.20D+00  1.30D+00  1.36D+00  1.94D+00
                    CP:  1.52D+00  1.37D+00  1.48D+00  1.18D+00
 E= -1373.75217830527     Delta-E=        0.000000000050 Rises=F Damp=F
 DIIS: error= 8.24D-09 at cycle  10 NSaved=  10.
 NSaved=10 IEnMin= 9 EnMin= -1373.75217830532     IErMin=10 ErrMin= 8.24D-09
 ErrMax= 8.24D-09  0.00D+00 EMaxC= 1.00D-01 BMatC= 2.31D-13 BMatP= 1.08D-12
 IDIUse=1 WtCom= 1.00D+00 WtEn= 0.00D+00
 Coeff-Com: -0.349D-03-0.104D-03 0.316D-02-0.782D-02-0.498D-02 0.274D-01
 Coeff-Com:  0.169D-01-0.193D+00-0.271D+00 0.143D+01
 Coeff:     -0.349D-03-0.104D-03 0.316D-02-0.782D-02-0.498D-02 0.274D-01
 Coeff:      0.169D-01-0.193D+00-0.271D+00 0.143D+01
 Gap=     0.350 Goal=   None    Shift=    0.000
 RMSDP=1.23D-08 MaxDP=1.10D-06 DE= 5.05D-11 OVMax= 8.34D-07

 Cycle  11  Pass 1  IDiag  1:
 RMSU=  5.59D-09    CP:  9.98D-01  1.20D+00  1.30D+00  1.36D+00  1.95D+00
                    CP:  1.52D+00  1.37D+00  1.54D+00  1.35D+00  1.54D+00
 E= -1373.75217830549     Delta-E=       -0.000000000220 Rises=F Damp=F
 DIIS: error= 3.40D-09 at cycle  11 NSaved=  11.
 NSaved=11 IEnMin=11 EnMin= -1373.75217830549     IErMin=11 ErrMin= 3.40D-09
 ErrMax= 3.40D-09  0.00D+00 EMaxC= 1.00D-01 BMatC= 3.17D-14 BMatP= 2.31D-13
 IDIUse=1 WtCom= 1.00D+00 WtEn= 0.00D+00
 Coeff-Com: -0.114D-04-0.209D-04 0.709D-04 0.535D-03-0.841D-03-0.214D-02
 Coeff-Com:  0.137D-01 0.162D-01-0.864D-01-0.180D+00 0.124D+01
 Coeff:     -0.114D-04-0.209D-04 0.709D-04 0.535D-03-0.841D-03-0.214D-02
 Coeff:      0.137D-01 0.162D-01-0.864D-01-0.180D+00 0.124D+01
 Gap=     0.350 Goal=   None    Shift=    0.000
 RMSDP=4.65D-09 MaxDP=4.84D-07 DE=-2.20D-10 OVMax= 3.25D-07

 Error on total polarization charges =  0.01941
 SCF Done:  E(RHF) =  -1373.75217831     A.U. after   11 cycles
            NFock= 11  Conv=0.47D-08     -V/T= 2.0004
 KE= 1.373197212055D+03 PE=-1.021174674084D+04 EE= 3.961664702869D+03
 Leave Link  502 at Mon Nov  8 16:13:44 2021, MaxMem=  7864320000 cpu:           24842.4 elap:             785.6
 (Enter /apps/gaussian/g16-c01-avx/g16/l508.exe)
 QCSCF skips out because SCF is already converged.
 Leave Link  508 at Mon Nov  8 16:13:44 2021, MaxMem=  7864320000 cpu:               0.7 elap:               0.0
 (Enter /apps/gaussian/g16-c01-avx/g16/l801.exe)
 ExpMin= 2.97D-02 ExpMax= 9.05D+03 ExpMxC= 3.09D+02 IAcc=3 IRadAn=         7 AccDes= 0.00D+00
 HarFok:  IExCor=  205 AccDes= 0.00D+00 IRadAn=         7 IDoV=-2 UseB2=F ITyADJ=14
 ICtDFT= 12500011 ScaDFX=  1.000000  1.000000  1.000000  1.000000
 GSVD:  LWork=       -1353 too small for GESVD, short by        5940 words or        5940 for optimal perf.
 Largest valence mixing into a core orbital is  1.21D-04
 Largest core mixing into a valence orbital is  4.08D-05
 Range of M.O.s used for correlation:    34  1132
 NBasis=  1137 NAE=   123 NBE=   123 NFC=    33 NFV=     0
 NROrb=   1099 NOA=    90 NOB=    90 NVA=  1009 NVB=  1009

 **** Warning!!: The largest alpha MO coefficient is  0.22554691D+03

 Leave Link  801 at Mon Nov  8 16:13:45 2021, MaxMem=  7864320000 cpu:               9.6 elap:               0.3
 (Enter /apps/gaussian/g16-c01-avx/g16/l906.exe)
 FulOut=F Deriv=F AODrv=F NAtomX=    75
   MMem=           2  MDisk=          90 MDiskD=          90
  W3Min=   109244430 MinDsk=   103979168 NBas6D=        1203
 NBas2D=      725745    NTT=      724206    LW2=     2000000
    MDV=  7856747888 MDiskM=       90684 NBas2p=      554235
 Disk-based method using OVN memory for 90 occupieds at a time.
 Estimated scratch disk usage=158847476918 words.
 IMap=   1   2   3   4   5   6   7   8   9  10  11  12  13  14  15  16  17  18  19  20
 IMap=  21  22  23  24  25  26  27  28  29  30  31  32  33  34  35  36  37  38  39  40
 IMap=  41  42  43  44  45  46  47  48  49  50  51  52  53  54  55  56  57  58  59  60
 IMap=  61  62  63  64  65  66  67  68  69  70  71  72  73  74  75  76  77  78  79  80
 IMap=  81  82  83  84  85  86  87  88  89  90
 Actual    scratch disk usage=150996802622 words.
 JobTyp=1 Pass  1:  I=   1 to  90 NPSUse= 32 ParTrn=T ParDer=T DoDerP=F.
 Spin components of T(2) and E(2):
     alpha-alpha T2 =       0.2281895623D+00 E2=     -0.6360829436D+00
     alpha-beta  T2 =       0.1223072097D+01 E2=     -0.3653034762D+01
     beta-beta   T2 =       0.2281895623D+00 E2=     -0.6360829436D+00
 The integrals were generated   1 times.
 ANorm=    0.1636902936D+01
 E2 =    -0.4925200650D+01 EUMP2 =    -0.13786773789551D+04
 Leave Link  906 at Mon Nov  8 19:56:57 2021, MaxMem=  7864320000 cpu:          416768.8 elap:           13392.2
 (Enter /apps/gaussian/g16-c01-avx/g16/l601.exe)
 Copying SCF densities to generalized density rwf, IOpCl= 0 IROHF=0.

 **********************************************************************

            Population analysis using the SCF Density.

 **********************************************************************

 Orbital symmetries:
       Occupied  (A) (A) (A) (A) (A) (A) (A) (A) (A) (A) (A) (A)
                 (A) (A) (A) (A) (A) (A) (A) (A) (A) (A) (A) (A)
                 (A) (A) (A) (A) (A) (A) (A) (A) (A) (A) (A) (A)
                 (A) (A) (A) (A) (A) (A) (A) (A) (A) (A) (A) (A)
                 (A) (A) (A) (A) (A) (A) (A) (A) (A) (A) (A) (A)
                 (A) (A) (A) (A) (A) (A) (A) (A) (A) (A) (A) (A)
                 (A) (A) (A) (A) (A) (A) (A) (A) (A) (A) (A) (A)
                 (A) (A) (A) (A) (A) (A) (A) (A) (A) (A) (A) (A)
                 (A) (A) (A) (A) (A) (A) (A) (A) (A) (A) (A) (A)
                 (A) (A) (A) (A) (A) (A) (A) (A) (A) (A) (A) (A)
                 (A) (A) (A)
       Virtual   (A) (A) (A) (A) (A) (A) (A) (A) (A) (A) (A) (A)
                 (A) (A) (A) (A) (A) (A) (A) (A) (A) (A) (A) (A)
                 (A) (A) (A) (A) (A) (A) (A) (A) (A) (A) (A) (A)
                 (A) (A) (A) (A) (A) (A) (A) (A) (A) (A) (A) (A)
                 (A) (A) (A) (A) (A) (A) (A) (A) (A) (A) (A) (A)
                 (A) (A) (A) (A) (A) (A) (A) (A) (A) (A) (A) (A)
                 (A) (A) (A) (A) (A) (A) (A) (A) (A) (A) (A) (A)
                 (A) (A) (A) (A) (A) (A) (A) (A) (A) (A) (A) (A)
                 (A) (A) (A) (A) (A) (A) (A) (A) (A) (A) (A) (A)
                 (A) (A) (A) (A) (A) (A) (A) (A) (A) (A) (A) (A)
                 (A) (A) (A) (A) (A) (A) (A) (A) (A) (A) (A) (A)
                 (A) (A) (A) (A) (A) (A) (A) (A) (A) (A) (A) (A)
                 (A) (A) (A) (A) (A) (A) (A) (A) (A) (A) (A) (A)
                 (A) (A) (A) (A) (A) (A) (A) (A) (A) (A) (A) (A)
                 (A) (A) (A) (A) (A) (A) (A) (A) (A) (A) (A) (A)
                 (A) (A) (A) (A) (A) (A) (A) (A) (A) (A) (A) (A)
                 (A) (A) (A) (A) (A) (A) (A) (A) (A) (A) (A) (A)
                 (A) (A) (A) (A) (A) (A) (A) (A) (A) (A) (A) (A)
                 (A) (A) (A) (A) (A) (A) (A) (A) (A) (A) (A) (A)
                 (A) (A) (A) (A) (A) (A) (A) (A) (A) (A) (A) (A)
                 (A) (A) (A) (A) (A) (A) (A) (A) (A) (A) (A) (A)
                 (A) (A) (A) (A) (A) (A) (A) (A) (A) (A) (A) (A)
                 (A) (A) (A) (A) (A) (A) (A) (A) (A) (A) (A) (A)
                 (A) (A) (A) (A) (A) (A) (A) (A) (A) (A) (A) (A)
                 (A) (A) (A) (A) (A) (A) (A) (A) (A) (A) (A) (A)
                 (A) (A) (A) (A) (A) (A) (A) (A) (A) (A) (A) (A)
                 (A) (A) (A) (A) (A) (A) (A) (A) (A) (A) (A) (A)
                 (A) (A) (A) (A) (A) (A) (A) (A) (A) (A) (A) (A)
                 (A) (A) (A) (A) (A) (A) (A) (A) (A) (A) (A) (A)
                 (A) (A) (A) (A) (A) (A) (A) (A) (A) (A) (A) (A)
                 (A) (A) (A) (A) (A) (A) (A) (A) (A) (A) (A) (A)
                 (A) (A) (A) (A) (A) (A) (A) (A) (A) (A) (A) (A)
                 (A) (A) (A) (A) (A) (A) (A) (A) (A) (A) (A) (A)
                 (A) (A) (A) (A) (A) (A) (A) (A) (A) (A) (A) (A)
                 (A) (A) (A) (A) (A) (A) (A) (A) (A) (A) (A) (A)
                 (A) (A) (A) (A) (A) (A) (A) (A) (A) (A) (A) (A)
                 (A) (A) (A) (A) (A) (A) (A) (A) (A) (A) (A) (A)
                 (A) (A) (A) (A) (A) (A) (A) (A) (A) (A) (A) (A)
                 (A) (A) (A) (A) (A) (A) (A) (A) (A) (A) (A) (A)
                 (A) (A) (A) (A) (A) (A) (A) (A) (A) (A) (A) (A)
                 (A) (A) (A) (A) (A) (A) (A) (A) (A) (A) (A) (A)
                 (A) (A) (A) (A) (A) (A) (A) (A) (A) (A) (A) (A)
                 (A) (A) (A) (A) (A) (A) (A) (A) (A) (A) (A) (A)
                 (A) (A) (A) (A) (A) (A) (A) (A) (A) (A) (A) (A)
                 (A) (A) (A) (A) (A) (A) (A) (A) (A) (A) (A) (A)
                 (A) (A) (A) (A) (A) (A) (A) (A) (A) (A) (A) (A)
                 (A) (A) (A) (A) (A) (A) (A) (A) (A) (A) (A) (A)
                 (A) (A) (A) (A) (A) (A) (A) (A) (A) (A) (A) (A)
                 (A) (A) (A) (A) (A) (A) (A) (A) (A) (A) (A) (A)
                 (A) (A) (A) (A) (A) (A) (A) (A) (A) (A) (A) (A)
                 (A) (A) (A) (A) (A) (A) (A) (A) (A) (A) (A) (A)
                 (A) (A) (A) (A) (A) (A) (A) (A) (A) (A) (A) (A)
                 (A) (A) (A) (A) (A) (A) (A) (A) (A) (A) (A) (A)
                 (A) (A) (A) (A) (A) (A) (A) (A) (A) (A) (A) (A)
                 (A) (A) (A) (A) (A) (A) (A) (A) (A) (A) (A) (A)
                 (A) (A) (A) (A) (A) (A) (A) (A) (A) (A) (A) (A)
                 (A) (A) (A) (A) (A) (A) (A) (A) (A) (A) (A) (A)
                 (A) (A) (A) (A) (A) (A) (A) (A) (A) (A) (A) (A)
                 (A) (A) (A) (A) (A) (A) (A) (A) (A) (A) (A) (A)
                 (A) (A) (A) (A) (A) (A) (A) (A) (A) (A) (A) (A)
                 (A) (A) (A) (A) (A) (A) (A) (A) (A) (A) (A) (A)
                 (A) (A) (A) (A) (A) (A) (A) (A) (A) (A) (A) (A)
                 (A) (A) (A) (A) (A) (A) (A) (A) (A) (A) (A) (A)
                 (A) (A) (A) (A) (A) (A) (A) (A) (A) (A) (A) (A)
                 (A) (A) (A) (A) (A) (A) (A) (A) (A) (A) (A) (A)
                 (A) (A) (A) (A) (A) (A) (A) (A) (A) (A) (A) (A)
                 (A) (A) (A) (A) (A) (A) (A) (A) (A) (A) (A) (A)
                 (A) (A) (A) (A) (A) (A) (A) (A) (A) (A) (A) (A)
                 (A) (A) (A) (A) (A) (A) (A) (A) (A) (A) (A) (A)
                 (A) (A) (A) (A) (A) (A) (A) (A) (A) (A) (A) (A)
                 (A) (A) (A) (A) (A) (A) (A) (A) (A) (A) (A) (A)
                 (A) (A) (A) (A) (A) (A) (A) (A) (A) (A) (A) (A)
                 (A) (A) (A) (A) (A) (A) (A) (A) (A) (A) (A) (A)
                 (A) (A) (A) (A) (A) (A) (A) (A) (A) (A) (A) (A)
                 (A) (A) (A) (A) (A) (A) (A) (A) (A) (A) (A) (A)
                 (A) (A) (A) (A) (A) (A) (A) (A) (A) (A) (A) (A)
                 (A) (A) (A) (A) (A) (A) (A) (A) (A) (A) (A) (A)
                 (A) (A) (A) (A) (A) (A) (A) (A) (A) (A) (A) (A)
                 (A) (A) (A) (A) (A) (A) (A) (A) (A) (A) (A) (A)
                 (A) (A) (A) (A) (A) (A) (A) (A) (A) (A) (A) (A)
                 (A) (A) (A) (A) (A) (A) (A) (A) (A) (A) (A) (A)
                 (A) (A) (A) (A) (A) (A) (A) (A) (A) (A) (A) (A)
                 (A) (A) (A) (A) (A) (A) (A) (A) (A) (A) (A) (A)
                 (A) (A) (A) (A) (A) (A) (A) (A) (A) (A) (A) (A)
                 (A)
 The electronic state is 1-A.
 Alpha  occ. eigenvalues --  -15.54852 -15.54850 -15.54845 -15.54640 -15.54637
 Alpha  occ. eigenvalues --  -15.54634 -11.28562 -11.28561 -11.28558 -11.24592
 Alpha  occ. eigenvalues --  -11.24591 -11.24589 -11.24531 -11.24530 -11.24527
 Alpha  occ. eigenvalues --  -11.23239 -11.23232 -11.23231 -11.22261 -11.22260
 Alpha  occ. eigenvalues --  -11.22259 -11.22219 -11.22217 -11.22215 -11.22185
 Alpha  occ. eigenvalues --  -11.22183 -11.22181 -11.22153 -11.22151 -11.22149
 Alpha  occ. eigenvalues --  -11.21980 -11.21979 -11.21969  -1.27589  -1.27404
 Alpha  occ. eigenvalues --   -1.27401  -1.15773  -1.14526  -1.14524  -1.14483
 Alpha  occ. eigenvalues --   -1.11147  -1.11145  -1.10358  -1.03892  -1.03890
 Alpha  occ. eigenvalues --   -0.99795  -0.99793  -0.99788  -0.98495  -0.96881
 Alpha  occ. eigenvalues --   -0.96880  -0.87257  -0.87256  -0.86100  -0.82528
 Alpha  occ. eigenvalues --   -0.82527  -0.82050  -0.81665  -0.81653  -0.81650
 Alpha  occ. eigenvalues --   -0.78129  -0.78127  -0.77798  -0.76155  -0.76152
 Alpha  occ. eigenvalues --   -0.69336  -0.68351  -0.66749  -0.66748  -0.66069
 Alpha  occ. eigenvalues --   -0.64936  -0.64931  -0.63231  -0.62870  -0.62868
 Alpha  occ. eigenvalues --   -0.62643  -0.61890  -0.61887  -0.60938  -0.60191
 Alpha  occ. eigenvalues --   -0.59439  -0.59435  -0.58244  -0.58242  -0.57969
 Alpha  occ. eigenvalues --   -0.55305  -0.55302  -0.55063  -0.54658  -0.54658
 Alpha  occ. eigenvalues --   -0.54402  -0.53388  -0.53202  -0.53198  -0.51064
 Alpha  occ. eigenvalues --   -0.50372  -0.50365  -0.49676  -0.49674  -0.49284
 Alpha  occ. eigenvalues --   -0.48758  -0.48757  -0.48749  -0.47060  -0.46997
 Alpha  occ. eigenvalues --   -0.46996  -0.46439  -0.46436  -0.46303  -0.44941
 Alpha  occ. eigenvalues --   -0.44939  -0.44859  -0.44690  -0.44689  -0.44433
 Alpha  occ. eigenvalues --   -0.37902  -0.37900  -0.37578  -0.37351  -0.36828
 Alpha  occ. eigenvalues --   -0.36825  -0.31871  -0.31868
 Alpha virt. eigenvalues --    0.03159   0.03570   0.03571   0.03757   0.04249
 Alpha virt. eigenvalues --    0.04250   0.04500   0.04537   0.04539   0.05293
 Alpha virt. eigenvalues --    0.05854   0.05856   0.05901   0.05979   0.05980
 Alpha virt. eigenvalues --    0.06116   0.06902   0.06902   0.07428   0.07753
 Alpha virt. eigenvalues --    0.07916   0.07921   0.08236   0.08239   0.08246
 Alpha virt. eigenvalues --    0.09255   0.09265   0.09267   0.09746   0.09750
 Alpha virt. eigenvalues --    0.09804   0.10225   0.10233   0.10595   0.11116
 Alpha virt. eigenvalues --    0.11119   0.11770   0.12080   0.12293   0.12299
 Alpha virt. eigenvalues --    0.13035   0.13041   0.13527   0.13870   0.13873
 Alpha virt. eigenvalues --    0.14086   0.14091   0.14255   0.14453   0.14665
 Alpha virt. eigenvalues --    0.14667   0.14846   0.14850   0.15134   0.15297
 Alpha virt. eigenvalues --    0.15672   0.15674   0.15893   0.15938   0.15941
 Alpha virt. eigenvalues --    0.16051   0.16056   0.16550   0.16984   0.17040
 Alpha virt. eigenvalues --    0.17043   0.17479   0.17483   0.17622   0.18024
 Alpha virt. eigenvalues --    0.18032   0.18138   0.18541   0.18548   0.18646
 Alpha virt. eigenvalues --    0.19145   0.19153   0.19366   0.19679   0.19681
 Alpha virt. eigenvalues --    0.19916   0.20398   0.20404   0.20530   0.20803
 Alpha virt. eigenvalues --    0.20811   0.21156   0.21421   0.21526   0.21531
 Alpha virt. eigenvalues --    0.21740   0.22087   0.22096   0.22331   0.22628
 Alpha virt. eigenvalues --    0.22668   0.22672   0.22931   0.22942   0.23307
 Alpha virt. eigenvalues --    0.23313   0.23395   0.23781   0.23797   0.23988
 Alpha virt. eigenvalues --    0.24868   0.24878   0.24945   0.25143   0.25451
 Alpha virt. eigenvalues --    0.25452   0.26428   0.26442   0.26606   0.26613
 Alpha virt. eigenvalues --    0.26924   0.27131   0.27370   0.27958   0.28318
 Alpha virt. eigenvalues --    0.28320   0.28919   0.28934   0.29260   0.29503
 Alpha virt. eigenvalues --    0.29512   0.29712   0.29929   0.29936   0.30239
 Alpha virt. eigenvalues --    0.30364   0.30548   0.30554   0.31088   0.31095
 Alpha virt. eigenvalues --    0.31602   0.31608   0.31680   0.32172   0.32294
 Alpha virt. eigenvalues --    0.32299   0.32630   0.33176   0.33186   0.33368
 Alpha virt. eigenvalues --    0.33375   0.33530   0.33942   0.33952   0.33988
 Alpha virt. eigenvalues --    0.34326   0.34331   0.34334   0.34875   0.34876
 Alpha virt. eigenvalues --    0.35119   0.35500   0.35924   0.35931   0.36063
 Alpha virt. eigenvalues --    0.36668   0.36806   0.36818   0.37163   0.37168
 Alpha virt. eigenvalues --    0.37507   0.37652   0.37660   0.38197   0.38288
 Alpha virt. eigenvalues --    0.38292   0.38715   0.38732   0.38739   0.39395
 Alpha virt. eigenvalues --    0.39504   0.39680   0.39683   0.39748   0.40274
 Alpha virt. eigenvalues --    0.40294   0.40522   0.40529   0.40757   0.40766
 Alpha virt. eigenvalues --    0.40830   0.41394   0.41579   0.41586   0.42099
 Alpha virt. eigenvalues --    0.42104   0.42429   0.42702   0.42717   0.42736
 Alpha virt. eigenvalues --    0.43268   0.43505   0.43513   0.44013   0.44202
 Alpha virt. eigenvalues --    0.44215   0.44717   0.44902   0.44910   0.45372
 Alpha virt. eigenvalues --    0.45382   0.45433   0.45729   0.46436   0.46440
 Alpha virt. eigenvalues --    0.46670   0.47081   0.47088   0.47341   0.47656
 Alpha virt. eigenvalues --    0.47668   0.47889   0.48029   0.48041   0.48265
 Alpha virt. eigenvalues --    0.48266   0.48468   0.49082   0.49089   0.49517
 Alpha virt. eigenvalues --    0.49667   0.49673   0.50132   0.50141   0.50159
 Alpha virt. eigenvalues --    0.50441   0.50808   0.50813   0.51040   0.51730
 Alpha virt. eigenvalues --    0.51735   0.51752   0.51976   0.52271   0.52279
 Alpha virt. eigenvalues --    0.52871   0.52874   0.52940   0.53197   0.53556
 Alpha virt. eigenvalues --    0.53560   0.53891   0.53895   0.53931   0.54132
 Alpha virt. eigenvalues --    0.54296   0.54306   0.54681   0.54684   0.54909
 Alpha virt. eigenvalues --    0.54994   0.55002   0.56031   0.56208   0.56211
 Alpha virt. eigenvalues --    0.56286   0.56417   0.56434   0.56956   0.57216
 Alpha virt. eigenvalues --    0.57231   0.57311   0.57809   0.57817   0.57960
 Alpha virt. eigenvalues --    0.58143   0.58602   0.58615   0.59073   0.59200
 Alpha virt. eigenvalues --    0.59248   0.59260   0.59570   0.59573   0.60352
 Alpha virt. eigenvalues --    0.60477   0.60485   0.60522   0.60898   0.61320
 Alpha virt. eigenvalues --    0.61326   0.61872   0.61904   0.62011   0.62239
 Alpha virt. eigenvalues --    0.62253   0.62536   0.62826   0.62842   0.62981
 Alpha virt. eigenvalues --    0.62983   0.63601   0.63742   0.64126   0.64158
 Alpha virt. eigenvalues --    0.64513   0.64568   0.64579   0.65247   0.65316
 Alpha virt. eigenvalues --    0.65333   0.66382   0.66552   0.66563   0.66746
 Alpha virt. eigenvalues --    0.66769   0.66780   0.67551   0.67834   0.67851
 Alpha virt. eigenvalues --    0.68236   0.68245   0.68396   0.69044   0.69538
 Alpha virt. eigenvalues --    0.69551   0.69988   0.69994   0.70070   0.70671
 Alpha virt. eigenvalues --    0.70684   0.71049   0.71338   0.71546   0.71559
 Alpha virt. eigenvalues --    0.71759   0.72130   0.72140   0.72645   0.72712
 Alpha virt. eigenvalues --    0.72715   0.72991   0.73236   0.73253   0.73579
 Alpha virt. eigenvalues --    0.73819   0.74192   0.74201   0.74813   0.74824
 Alpha virt. eigenvalues --    0.75214   0.75222   0.75630   0.75813   0.75823
 Alpha virt. eigenvalues --    0.75883   0.76538   0.76690   0.76696   0.76888
 Alpha virt. eigenvalues --    0.76992   0.77000   0.77501   0.77786   0.77795
 Alpha virt. eigenvalues --    0.78310   0.78326   0.78466   0.78940   0.78954
 Alpha virt. eigenvalues --    0.79054   0.79480   0.79548   0.79568   0.80306
 Alpha virt. eigenvalues --    0.80741   0.80754   0.80809   0.81146   0.81149
 Alpha virt. eigenvalues --    0.81640   0.81940   0.82003   0.82011   0.82346
 Alpha virt. eigenvalues --    0.82353   0.82823   0.82836   0.82886   0.83197
 Alpha virt. eigenvalues --    0.83206   0.83540   0.84033   0.84055   0.84489
 Alpha virt. eigenvalues --    0.84959   0.85339   0.85434   0.85443   0.85992
 Alpha virt. eigenvalues --    0.86059   0.86068   0.86333   0.86351   0.86997
 Alpha virt. eigenvalues --    0.87004   0.87448   0.87877   0.87889   0.88507
 Alpha virt. eigenvalues --    0.88518   0.88545   0.88570   0.89091   0.89096
 Alpha virt. eigenvalues --    0.89348   0.89760   0.89769   0.90304   0.90319
 Alpha virt. eigenvalues --    0.90541   0.90827   0.90845   0.90852   0.91090
 Alpha virt. eigenvalues --    0.91836   0.91848   0.92157   0.92409   0.92430
 Alpha virt. eigenvalues --    0.92734   0.93146   0.93156   0.93304   0.93501
 Alpha virt. eigenvalues --    0.94077   0.94096   0.94488   0.94504   0.94807
 Alpha virt. eigenvalues --    0.94989   0.94996   0.95692   0.95710   0.95723
 Alpha virt. eigenvalues --    0.96321   0.96344   0.96554   0.96913   0.97053
 Alpha virt. eigenvalues --    0.97068   0.97257   0.97860   0.97944   0.97960
 Alpha virt. eigenvalues --    0.98867   0.98873   0.99122   0.99133   0.99293
 Alpha virt. eigenvalues --    0.99711   0.99715   1.00328   1.01060   1.01072
 Alpha virt. eigenvalues --    1.01156   1.01516   1.01527   1.01716   1.02819
 Alpha virt. eigenvalues --    1.02939   1.02955   1.03531   1.03802   1.03818
 Alpha virt. eigenvalues --    1.04164   1.04616   1.05281   1.05306   1.05314
 Alpha virt. eigenvalues --    1.06135   1.06258   1.06274   1.06874   1.06886
 Alpha virt. eigenvalues --    1.08039   1.08046   1.08155   1.08656   1.08776
 Alpha virt. eigenvalues --    1.08787   1.09308   1.09543   1.09554   1.09741
 Alpha virt. eigenvalues --    1.10353   1.10835   1.10851   1.11174   1.11306
 Alpha virt. eigenvalues --    1.11328   1.11856   1.11864   1.12522   1.13683
 Alpha virt. eigenvalues --    1.13701   1.13892   1.14248   1.14609   1.14616
 Alpha virt. eigenvalues --    1.15181   1.15193   1.15806   1.15814   1.16739
 Alpha virt. eigenvalues --    1.16763   1.16807   1.18219   1.19066   1.19353
 Alpha virt. eigenvalues --    1.19393   1.19491   1.20115   1.20138   1.21063
 Alpha virt. eigenvalues --    1.21184   1.21191   1.21735   1.22015   1.22041
 Alpha virt. eigenvalues --    1.23291   1.23302   1.23520   1.24026   1.24035
 Alpha virt. eigenvalues --    1.24131   1.24876   1.26042   1.26055   1.27367
 Alpha virt. eigenvalues --    1.29064   1.29075   1.29209   1.29215   1.29528
 Alpha virt. eigenvalues --    1.30477   1.30495   1.31612   1.32183   1.32193
 Alpha virt. eigenvalues --    1.33620   1.33873   1.33889   1.34977   1.34988
 Alpha virt. eigenvalues --    1.35298   1.35840   1.36911   1.36924   1.37373
 Alpha virt. eigenvalues --    1.38611   1.38623   1.38717   1.39877   1.40140
 Alpha virt. eigenvalues --    1.40146   1.41691   1.41710   1.42593   1.42918
 Alpha virt. eigenvalues --    1.42921   1.43816   1.44236   1.44728   1.44751
 Alpha virt. eigenvalues --    1.46501   1.46518   1.46886   1.47758   1.48348
 Alpha virt. eigenvalues --    1.48360   1.49231   1.49245   1.50299   1.50331
 Alpha virt. eigenvalues --    1.50345   1.50908   1.51529   1.51544   1.52162
 Alpha virt. eigenvalues --    1.52678   1.53130   1.53141   1.53204   1.53564
 Alpha virt. eigenvalues --    1.53570   1.54593   1.54607   1.55628   1.56501
 Alpha virt. eigenvalues --    1.56790   1.56804   1.58567   1.58582   1.58753
 Alpha virt. eigenvalues --    1.60864   1.60937   1.60955   1.61845   1.62210
 Alpha virt. eigenvalues --    1.62225   1.62787   1.63153   1.63174   1.66002
 Alpha virt. eigenvalues --    1.66023   1.66662   1.67640   1.67676   1.67686
 Alpha virt. eigenvalues --    1.68164   1.68169   1.68677   1.70456   1.71265
 Alpha virt. eigenvalues --    1.71287   1.71685   1.72407   1.72412   1.73589
 Alpha virt. eigenvalues --    1.73643   1.73670   1.74042   1.75978   1.75985
 Alpha virt. eigenvalues --    1.75994   1.77600   1.77614   1.77942   1.78480
 Alpha virt. eigenvalues --    1.78502   1.78518   1.79445   1.79456   1.80215
 Alpha virt. eigenvalues --    1.80222   1.80516   1.81666   1.81674   1.81982
 Alpha virt. eigenvalues --    1.83458   1.83473   1.83751   1.85370   1.85378
 Alpha virt. eigenvalues --    1.85738   1.86023   1.86032   1.86210   1.87125
 Alpha virt. eigenvalues --    1.87134   1.87964   1.88115   1.88132   1.88332
 Alpha virt. eigenvalues --    1.88926   1.88938   1.89610   1.89767   1.89974
 Alpha virt. eigenvalues --    1.89982   1.90975   1.90991   1.91289   1.92345
 Alpha virt. eigenvalues --    1.92351   1.92798   1.93922   1.93931   1.94041
 Alpha virt. eigenvalues --    1.94551   1.94874   1.94897   1.95655   1.95667
 Alpha virt. eigenvalues --    1.95925   1.95942   1.96030   1.97715   1.97733
 Alpha virt. eigenvalues --    1.97972   1.98225   1.99219   1.99235   2.00245
 Alpha virt. eigenvalues --    2.00957   2.00976   2.02232   2.02243   2.02312
 Alpha virt. eigenvalues --    2.03194   2.03941   2.03971   2.04268   2.04280
 Alpha virt. eigenvalues --    2.04477   2.06622   2.06642   2.07007   2.07384
 Alpha virt. eigenvalues --    2.07824   2.07831   2.08589   2.09780   2.09786
 Alpha virt. eigenvalues --    2.09845   2.10752   2.10760   2.11115   2.11533
 Alpha virt. eigenvalues --    2.11535   2.11627   2.12247   2.13122   2.13134
 Alpha virt. eigenvalues --    2.13692   2.13697   2.13849   2.14349   2.14358
 Alpha virt. eigenvalues --    2.15628   2.15956   2.15973   2.17153   2.17168
 Alpha virt. eigenvalues --    2.17647   2.17854   2.18419   2.18443   2.19366
 Alpha virt. eigenvalues --    2.19523   2.19534   2.20730   2.20868   2.20871
 Alpha virt. eigenvalues --    2.21672   2.21948   2.21959   2.22067   2.22420
 Alpha virt. eigenvalues --    2.22432   2.22439   2.23637   2.24327   2.24338
 Alpha virt. eigenvalues --    2.24649   2.24665   2.24913   2.25978   2.26545
 Alpha virt. eigenvalues --    2.26558   2.26840   2.27073   2.27093   2.28537
 Alpha virt. eigenvalues --    2.28727   2.28748   2.29412   2.29417   2.29670
 Alpha virt. eigenvalues --    2.31357   2.31360   2.31662   2.32350   2.32361
 Alpha virt. eigenvalues --    2.32527   2.33364   2.33371   2.34534   2.35173
 Alpha virt. eigenvalues --    2.35193   2.35568   2.36336   2.36343   2.37126
 Alpha virt. eigenvalues --    2.37132   2.37262   2.38398   2.38433   2.38464
 Alpha virt. eigenvalues --    2.39992   2.39997   2.41717   2.42184   2.42200
 Alpha virt. eigenvalues --    2.42629   2.43709   2.43730   2.44918   2.44983
 Alpha virt. eigenvalues --    2.44991   2.45279   2.45484   2.45495   2.47016
 Alpha virt. eigenvalues --    2.47234   2.47253   2.48256   2.49109   2.49120
 Alpha virt. eigenvalues --    2.49940   2.49945   2.50004   2.51555   2.51647
 Alpha virt. eigenvalues --    2.51667   2.52580   2.52589   2.52981   2.53677
 Alpha virt. eigenvalues --    2.53686   2.55208   2.55297   2.55311   2.55648
 Alpha virt. eigenvalues --    2.56918   2.56940   2.58582   2.58813   2.58834
 Alpha virt. eigenvalues --    2.59540   2.59557   2.59885   2.60355   2.61653
 Alpha virt. eigenvalues --    2.61806   2.61823   2.62595   2.62614   2.62707
 Alpha virt. eigenvalues --    2.64398   2.64403   2.65069   2.66376   2.66393
 Alpha virt. eigenvalues --    2.67025   2.67447   2.67451   2.68258   2.68267
 Alpha virt. eigenvalues --    2.68354   2.69419   2.70238   2.70359   2.70374
 Alpha virt. eigenvalues --    2.70530   2.71423   2.71433   2.72181   2.72197
 Alpha virt. eigenvalues --    2.72285   2.73593   2.74226   2.74437   2.74463
 Alpha virt. eigenvalues --    2.76254   2.76266   2.76893   2.77792   2.78477
 Alpha virt. eigenvalues --    2.78783   2.78795   2.79669   2.79677   2.79869
 Alpha virt. eigenvalues --    2.80350   2.80369   2.81247   2.81407   2.81409
 Alpha virt. eigenvalues --    2.82542   2.82565   2.82693   2.82965   2.83902
 Alpha virt. eigenvalues --    2.83919   2.84878   2.84897   2.86553   2.87189
 Alpha virt. eigenvalues --    2.87404   2.87408   2.88334   2.88956   2.88967
 Alpha virt. eigenvalues --    2.89635   2.89641   2.89775   2.90215   2.90228
 Alpha virt. eigenvalues --    2.90743   2.92800   2.92825   2.94104   2.95355
 Alpha virt. eigenvalues --    2.95691   2.95710   2.96630   2.96639   2.97421
 Alpha virt. eigenvalues --    2.97762   2.98254   2.98259   2.99356   3.00772
 Alpha virt. eigenvalues --    3.00779   3.00952   3.01099   3.01121   3.01668
 Alpha virt. eigenvalues --    3.01673   3.02478   3.03774   3.04329   3.04337
 Alpha virt. eigenvalues --    3.04949   3.04958   3.06329   3.07102   3.07121
 Alpha virt. eigenvalues --    3.08302   3.08304   3.08314   3.09298   3.11174
 Alpha virt. eigenvalues --    3.11187   3.11532   3.12848   3.13268   3.13277
 Alpha virt. eigenvalues --    3.13561   3.13896   3.13903   3.15149   3.16047
 Alpha virt. eigenvalues --    3.16070   3.18436   3.18459   3.19515   3.20987
 Alpha virt. eigenvalues --    3.20998   3.21469   3.24829   3.24839   3.25140
 Alpha virt. eigenvalues --    3.25600   3.25605   3.26671   3.28270   3.28295
 Alpha virt. eigenvalues --    3.29368   3.29375   3.29377   3.29631   3.30735
 Alpha virt. eigenvalues --    3.30741   3.33389   3.33405   3.35495   3.39060
 Alpha virt. eigenvalues --    3.39071   3.39159   3.41894   3.43598   3.43616
 Alpha virt. eigenvalues --    3.45705   3.45711   3.46033   3.55469   3.58922
 Alpha virt. eigenvalues --    3.58936   3.65935   3.65966   3.66062   3.73795
 Alpha virt. eigenvalues --    3.73802   3.76624   3.78504   3.79247   3.79272
 Alpha virt. eigenvalues --    3.82551   3.89348   3.89377   3.90535   3.99239
 Alpha virt. eigenvalues --    3.99351   4.01301   4.08674   4.08738   4.09540
 Alpha virt. eigenvalues --    4.18287   4.18359   4.27441   4.30439   4.30492
 Alpha virt. eigenvalues --    4.47772   4.56648   4.56786   4.68857   4.71233
 Alpha virt. eigenvalues --    4.71296   5.05028   5.05257   5.34735
          Condensed to atoms (all electrons):
 Mulliken charges:
               1
     1  C   -0.174036
     2  C    1.147269
     3  C    0.711816
     4  C   -0.173876
     5  H   -0.975466
     6  C    0.712744
     7  C   -0.171598
     8  H   -0.976908
     9  C    0.702621
    10  C    1.148971
    11  H   -0.976942
    12  C    1.147403
    13  C    0.006411
    14  C    0.058254
    15  N   -0.540554
    16  N   -0.812698
    17  C    0.054095
    18  C    0.005652
    19  N   -0.813326
    20  N   -0.544180
    21  C    0.055746
    22  C    0.006917
    23  N   -0.812890
    24  N   -0.542260
    25  H    0.070039
    26  H   -0.286387
    27  H    0.142729
    28  H   -0.284951
    29  H    0.141231
    30  H    0.069436
    31  H    0.142664
    32  H   -0.287168
    33  C    0.776203
    34  H    0.070433
    35  C    0.777701
    36  C    0.777216
    37  H   -0.517739
    38  C    0.418246
    39  H   -0.031592
    40  H   -0.132978
    41  C    0.519486
    42  H   -0.155502
    43  H   -0.096107
    44  C    0.715272
    45  H   -0.146613
    46  H   -0.095650
    47  H   -0.130790
    48  H   -0.034396
    49  H   -0.428995
    50  H   -0.518505
    51  C    0.417975
    52  H   -0.031454
    53  H   -0.133116
    54  C    0.520733
    55  H   -0.155282
    56  H   -0.096973
    57  C    0.714508
    58  H   -0.095704
    59  H   -0.146793
    60  H   -0.427617
    61  H   -0.130522
    62  H   -0.034272
    63  H   -0.518326
    64  C    0.417718
    65  H   -0.031293
    66  H   -0.133409
    67  C    0.519995
    68  H   -0.155405
    69  H   -0.096441
    70  C    0.715046
    71  H   -0.095812
    72  H   -0.146857
    73  H   -0.130865
    74  H   -0.034024
    75  H   -0.428261
 Sum of Mulliken charges =   0.00000
 Mulliken charges with hydrogens summed into heavy atoms:
               1
     1  C   -0.174036
     2  C    0.862318
     3  C   -0.263650
     4  C   -0.173876
     6  C   -0.264164
     7  C   -0.171598
     9  C   -0.274321
    10  C    0.862584
    12  C    0.860235
    13  C   -0.422584
    14  C   -0.459485
    15  N   -0.399323
    16  N   -0.742265
    17  C   -0.464410
    18  C   -0.421964
    19  N   -0.743890
    20  N   -0.401516
    21  C   -0.462580
    22  C   -0.421344
    23  N   -0.742851
    24  N   -0.399531
    33  C    0.611633
    35  C    0.613132
    36  C    0.612515
    38  C    0.166636
    41  C    0.277224
    44  C    0.550086
    51  C    0.165721
    54  C    0.278236
    57  C    0.549714
    64  C    0.165872
    67  C    0.277327
    70  C    0.550157
 Electronic spatial extent (au):  <R**2>=          19859.4796
 Charge=              0.0000 electrons
 Dipole moment (field-independent basis, Debye):
    X=              0.0080    Y=              0.0035    Z=              2.5243  Tot=              2.5243
 Quadrupole moment (field-independent basis, Debye-Ang):
   XX=           -187.5244   YY=           -187.6208   ZZ=           -202.3225
   XY=             -0.0199   XZ=             -0.0004   YZ=              0.0222
 Traceless Quadrupole moment (field-independent basis, Debye-Ang):
   XX=              4.9648   YY=              4.8684   ZZ=             -9.8332
   XY=             -0.0199   XZ=             -0.0004   YZ=              0.0222
 Octapole moment (field-independent basis, Debye-Ang**2):
  XXX=            -11.5515  YYY=             98.3825  ZZZ=             10.0670  XYY=             11.5660
  XXY=            -98.6692  XXZ=            -10.7671  XZZ=              0.1472  YZZ=             -0.0359
  YYZ=            -11.1163  XYZ=              0.0530
 Hexadecapole moment (field-independent basis, Debye-Ang**3):
 XXXX=         -12113.9031 YYYY=         -12068.6325 ZZZZ=          -2324.3490 XXXY=             -0.2479
 XXXZ=            -77.1877 YYYX=              0.2427 YYYZ=            -48.9713 ZZZX=             -0.4874
 ZZZY=              0.0858 XXYY=          -4030.2389 XXZZ=          -2417.1646 YYZZ=          -2409.0786
 XXYZ=             49.1004 YYXZ=             77.6202 ZZXY=             -0.3890
 N-N= 3.503132647608D+03 E-N=-1.021174674044D+04  KE= 1.373197212055D+03
 Leave Link  601 at Mon Nov  8 19:57:00 2021, MaxMem=  7864320000 cpu:              40.3 elap:               1.5
 (Enter /apps/gaussian/g16-c01-avx/g16/l9999.exe)
 Unable to Open any file for archive entry.
 1\1\GINC-CX3-12-17\SP\RMP2-FC\Aug-CC-pVDZ\C27H42N6\ATARZIA\08-Nov-2021
 \0\\#P MP2/aug-cc-pVDZ SP SCF=(YQC,MaxCycle=900) int=(Grid=Superfinegr
 id) SCRF=(PCM,Solvent=Chloroform)\\_1_alde1_3_ami3_1_opt_cfm_mp2\\0,1\
 C,0,-1.4505,0.7346,-1.771\C,0,-1.3763,0.3993,-0.3011\C,0,-2.6569,1.025
 2,-2.3846\C,0,-2.6959,1.3696,-3.7309\H,0,-3.5705,0.9683,-1.8143\C,0,-1
 .5186,1.4255,-4.4572\C,0,-0.3027,1.1355,-3.8489\H,0,-1.5517,1.6814,-5.
 5044\C,0,-0.2731,0.7932,-2.5078\C,0,0.9654,1.2485,-4.6599\H,0,0.6697,0
 .5571,-2.0401\C,0,-4.0234,1.7214,-4.3575\C,0,-1.5759,1.6816,1.6251\C,0
 ,-2.9772,1.2854,1.1279\N,0,-0.748,1.52,0.4393\N,0,-2.7083,0.1377,0.274
 \C,0,-4.0581,3.2353,-6.1171\C,0,-4.9843,3.7375,-4.9956\N,0,-3.9334,1.8
 147,-5.826\N,0,-4.5027,3.0198,-3.8249\C,0,2.9334,1.8259,-3.5727\C,0,2.
 6701,2.8256,-4.7125\N,0,2.1258,0.6764,-3.9534\N,0,1.2443,2.6737,-4.960
 7\H,0,2.6548,0.0779,-4.5792\H,0,0.8206,0.7276,-5.6166\H,0,0.7226,3.256
 7,-4.3103\H,0,-0.7372,-0.4854,-0.1724\H,0,-0.8012,2.3622,-0.129\H,0,-4
 .7007,1.3081,-6.2553\H,0,-3.7157,3.5212,-3.4194\H,0,-4.7597,0.9544,-4.
 0795\C,0,-3.9241,1.1116,2.2974\H,0,-2.6866,-0.7085,0.8336\C,0,-4.5925,
 3.6526,-7.4717\C,0,4.4223,1.6305,-3.3734\H,0,-3.3543,2.0868,0.4755\C,0
 ,-3.9814,2.4478,3.0451\H,0,-3.5553,0.3251,2.961\H,0,-4.9199,0.8282,1.9
 526\C,0,-2.5943,2.9315,3.4789\H,0,-4.6187,2.3486,3.9259\H,0,-4.4328,3.
 1969,2.3903\C,0,-1.6201,3.0369,2.3009\H,0,-2.6889,3.9046,3.9649\H,0,-2
 .1846,2.2324,4.2118\H,0,-0.6296,3.3286,2.6539\H,0,-1.9677,3.7931,1.592
 2\H,0,-1.2346,0.9283,2.351\H,0,-3.0624,3.6794,-5.9707\C,0,-4.6654,5.18
 31,-7.4854\H,0,-5.5877,3.2275,-7.6261\H,0,-3.9416,3.2979,-8.2724\C,0,-
 5.5024,5.7357,-6.3278\H,0,-5.0929,5.5218,-8.4312\H,0,-3.6512,5.5831,-7
 .4164\C,0,-4.9997,5.2521,-4.9634\H,0,-6.5401,5.4173,-6.4526\H,0,-5.483
 8,6.8269,-6.3599\H,0,-6.0034,3.3711,-5.191\H,0,-5.6516,5.6183,-4.1685\
 H,0,-3.9903,5.6292,-4.7797\H,0,2.4965,2.2302,-2.6476\C,0,5.0238,2.9981
 ,-3.033\H,0,4.8722,1.2396,-4.2898\H,0,4.6169,0.9207,-2.5679\C,0,4.7067
 ,4.0539,-4.0963\H,0,6.1068,2.9072,-2.929\H,0,4.6236,3.3275,-2.0712\C,0
 ,3.2013,4.1959,-4.3447\H,0,5.1924,3.7742,-5.0342\H,0,5.1191,5.0149,-3.
 7826\H,0,3.016,4.9134,-5.1457\H,0,2.7036,4.5558,-3.4405\H,0,3.1858,2.4
 705,-5.6175\\Version=ES64L-G16RevC.01\State=1-A\HF=-1373.7521783\MP2=-
 1378.677379\RMSD=4.654e-09\PG=C01 [X(C27H42N6)]\\@
 The archive entry for this job was punched.


     "IF I COULD JUST GET IT ON PAPER"
 LIFE AND INK, THEY RUN OUT AT THE SAME TIME,
 OR SO SAID MY OLD FRIEND THE SQUID.
     -- JIMMY BUFFETT, 1981
 Job cpu time:       5 days 13 hours 38 minutes 25.8 seconds.
 Elapsed time:       0 days  4 hours 17 minutes  9.5 seconds.
 File lengths (MBytes):  RWF=1152896 Int=      0 D2E=      0 Chk=     96 Scr=     16
 Normal termination of Gaussian 16 at Mon Nov  8 19:57:01 2021.
