 Entering Gaussian System, Link 0=g16
 Initial command:
 /apps/gaussian/g16-c01-avx/g16/l1.exe "/rds/general/ephemeral/user/atarzia/ephemeral/xtb_spe_DFT/Gau-3206818.inp" -scrdir="/rds/general/ephemeral/user/atarzia/ephemeral/xtb_spe_DFT/"
 Entering Link 1 = /apps/gaussian/g16-c01-avx/g16/l1.exe PID=   3206819.
  
 Copyright (c) 1988-2019, Gaussian, Inc.  All Rights Reserved.
  
 This is part of the Gaussian(R) 16 program.  It is based on
 the Gaussian(R) 09 system (copyright 2009, Gaussian, Inc.),
 the Gaussian(R) 03 system (copyright 2003, Gaussian, Inc.),
 the Gaussian(R) 98 system (copyright 1998, Gaussian, Inc.),
 the Gaussian(R) 94 system (copyright 1995, Gaussian, Inc.),
 the Gaussian 92(TM) system (copyright 1992, Gaussian, Inc.),
 the Gaussian 90(TM) system (copyright 1990, Gaussian, Inc.),
 the Gaussian 88(TM) system (copyright 1988, Gaussian, Inc.),
 the Gaussian 86(TM) system (copyright 1986, Carnegie Mellon
 University), and the Gaussian 82(TM) system (copyright 1983,
 Carnegie Mellon University). Gaussian is a federally registered
 trademark of Gaussian, Inc.
  
 This software contains proprietary and confidential information,
 including trade secrets, belonging to Gaussian, Inc.
  
 This software is provided under written license and may be
 used, copied, transmitted, or stored only in accord with that
 written license.
  
 The following legend is applicable only to US Government
 contracts under FAR:
  
                    RESTRICTED RIGHTS LEGEND
  
 Use, reproduction and disclosure by the US Government is
 subject to restrictions as set forth in subparagraphs (a)
 and (c) of the Commercial Computer Software - Restricted
 Rights clause in FAR 52.227-19.
  
 Gaussian, Inc.
 340 Quinnipiac St., Bldg. 40, Wallingford CT 06492
  
  
 ---------------------------------------------------------------
 Warning -- This program may not be used in any manner that
 competes with the business of Gaussian, Inc. or will provide
 assistance to any competitor of Gaussian, Inc.  The licensee
 of this program is prohibited from giving any competitor of
 Gaussian, Inc. access to this program.  By using this program,
 the user acknowledges that Gaussian, Inc. is engaged in the
 business of creating and licensing software in the field of
 computational chemistry and represents and warrants to the
 licensee that it is not a competitor of Gaussian, Inc. and that
 it will not use this program in any manner prohibited above.
 ---------------------------------------------------------------
  

 Cite this work as:
 Gaussian 16, Revision C.01,
 M. J. Frisch, G. W. Trucks, H. B. Schlegel, G. E. Scuseria, 
 M. A. Robb, J. R. Cheeseman, G. Scalmani, V. Barone, 
 G. A. Petersson, H. Nakatsuji, X. Li, M. Caricato, A. V. Marenich, 
 J. Bloino, B. G. Janesko, R. Gomperts, B. Mennucci, H. P. Hratchian, 
 J. V. Ortiz, A. F. Izmaylov, J. L. Sonnenberg, D. Williams-Young, 
 F. Ding, F. Lipparini, F. Egidi, J. Goings, B. Peng, A. Petrone, 
 T. Henderson, D. Ranasinghe, V. G. Zakrzewski, J. Gao, N. Rega, 
 G. Zheng, W. Liang, M. Hada, M. Ehara, K. Toyota, R. Fukuda, 
 J. Hasegawa, M. Ishida, T. Nakajima, Y. Honda, O. Kitao, H. Nakai, 
 T. Vreven, K. Throssell, J. A. Montgomery, Jr., J. E. Peralta, 
 F. Ogliaro, M. J. Bearpark, J. J. Heyd, E. N. Brothers, K. N. Kudin, 
 V. N. Staroverov, T. A. Keith, R. Kobayashi, J. Normand, 
 K. Raghavachari, A. P. Rendell, J. C. Burant, S. S. Iyengar, 
 J. Tomasi, M. Cossi, J. M. Millam, M. Klene, C. Adamo, R. Cammi, 
 J. W. Ochterski, R. L. Martin, K. Morokuma, O. Farkas, 
 J. B. Foresman, and D. J. Fox, Gaussian, Inc., Wallingford CT, 2019.
 
 ******************************************
 Gaussian 16:  ES64L-G16RevC.01  3-Jul-2019
                11-Nov-2021 
 ******************************************
 %chk=_1_alde1_3_ami4_2_opt_cfm_mp2.chk
 %mem=60000mb
 %nprocshared=32
 Will use up to   32 processors via shared memory.
 ----------------------------------------------------------------------
 #P MP2/aug-cc-pVDZ SP SCF=(YQC,MaxCycle=900) int=(Grid=Superfinegrid) 
 SCRF=(PCM,Solvent=Chloroform)
 ----------------------------------------------------------------------
 1/38=1,172=1/1;
 2/12=2,17=6,18=5,40=1/2;
 3/5=16,7=10,11=9,25=1,30=1,70=2201,72=7,75=-7/1,2,3;
 4//1;
 5/5=2,7=900,8=4,13=1,38=1,53=7/8,2,8;
 8/10=1/1;
 9/16=-3/6;
 6/7=2,8=2,9=2,10=2/1;
 99/5=1,9=1/99;
 Leave Link    1 at Thu Nov 11 15:19:48 2021, MaxMem=  7864320000 cpu:               6.3 elap:               0.2
 (Enter /apps/gaussian/g16-c01-avx/g16/l101.exe)
 -----------------------------
 _1_alde1_3_ami4_2_opt_cfm_mp2
 -----------------------------
 Symbolic Z-matrix:
 Charge =  0 Multiplicity = 1
 C                    -0.872    -0.345    -1.1043 
 C                    -0.9763   -1.6702   -0.4649 
 C                    -1.9469    0.5299   -1.1924 
 C                    -1.8029    1.7806   -1.7969 
 H                    -2.924     0.2578   -0.8281 
 C                    -0.5718    2.1486   -2.3227 
 C                     0.5137    1.2753   -2.2575 
 H                    -0.4284    3.1084   -2.7946 
 C                     0.353     0.0323   -1.6541 
 C                     1.8029    1.654    -2.8188 
 H                     1.1917   -0.6484   -1.5975 
 C                    -2.9389    2.6896   -1.8681 
 C                    -3.7274   -1.4104    1.4381 
 C                    -2.2088   -1.1167    1.4918 
 N                    -4.0997   -2.7471    1.8404 
 N                    -1.5185   -2.0151    0.6181 
 H                    -1.8536   -1.3407    2.5044 
 C                    -5.1426    3.316    -1.3961 
 C                    -6.3839    2.5511   -1.8665 
 N                    -4.0378    2.4162   -1.3143 
 N                    -6.813     1.645    -0.817 
 C                     3.2595    3.1182   -3.9053 
 C                     3.7866    4.3718   -3.1965 
 N                     1.9813    2.771    -3.3759 
 H                     4.0027    2.3103   -3.8133 
 N                     5.0715    4.7461   -3.7608 
 H                     4.9631    5.0123   -4.7343 
 H                     5.4557    5.5417   -3.2633 
 H                    -3.8164   -2.9162    2.8003 
 H                    -3.6127   -3.4219    1.2592 
 H                    -7.5458    1.0294   -1.1527 
 H                    -6.0246    1.072    -0.534 
 H                    -0.4636   -2.4705   -0.9959 
 H                    -2.7701    3.6266   -2.4218 
 H                     2.6045    0.9037   -2.7295 
 H                    -2.0305   -0.0539    1.2782 
 H                     3.1215    3.3508   -4.9669 
 H                    -4.9446    4.1735   -2.0608 
 H                    -5.3425    3.6826   -0.3846 
 H                    -6.1419    2.0453   -2.8178 
 H                    -7.1936    3.2625   -2.0561 
 H                    -4.0831   -1.2657    0.4139 
 H                    -4.2426   -0.6965    2.0863 
 H                     3.0184    5.1587   -3.2671 
 H                     3.9381    4.1432   -2.1376 
 
 ITRead=  0  0  0  0  0  0  0  0  0  0  0  0  0  0  0  0  0  0  0  0
 ITRead=  0  0  0  0  0  0  0  0  0  0  0  0  0  0  0  0  0  0  0  0
 ITRead=  0  0  0  0  0
 MicOpt= -1 -1 -1 -1 -1 -1 -1 -1 -1 -1 -1 -1 -1 -1 -1 -1 -1 -1 -1 -1
 MicOpt= -1 -1 -1 -1 -1 -1 -1 -1 -1 -1 -1 -1 -1 -1 -1 -1 -1 -1 -1 -1
 MicOpt= -1 -1 -1 -1 -1
 NAtoms=     45 NQM=       45 NQMF=       0 NMMI=      0 NMMIF=      0
                NMic=       0 NMicF=      0.
                    Isotopes and Nuclear Properties:
 (Nuclear quadrupole moments (NQMom) in fm**2, nuclear magnetic moments (NMagM)
  in nuclear magnetons)

  Atom         1           2           3           4           5           6           7           8           9          10
 IAtWgt=          12          12          12          12           1          12          12           1          12          12
 AtmWgt=  12.0000000  12.0000000  12.0000000  12.0000000   1.0078250  12.0000000  12.0000000   1.0078250  12.0000000  12.0000000
 NucSpn=           0           0           0           0           1           0           0           1           0           0
 AtZEff=  -0.0000000  -0.0000000  -0.0000000  -0.0000000  -0.0000000  -0.0000000  -0.0000000  -0.0000000  -0.0000000  -0.0000000
 NQMom=    0.0000000   0.0000000   0.0000000   0.0000000   0.0000000   0.0000000   0.0000000   0.0000000   0.0000000   0.0000000
 NMagM=    0.0000000   0.0000000   0.0000000   0.0000000   2.7928460   0.0000000   0.0000000   2.7928460   0.0000000   0.0000000
 AtZNuc=   6.0000000   6.0000000   6.0000000   6.0000000   1.0000000   6.0000000   6.0000000   1.0000000   6.0000000   6.0000000

  Atom        11          12          13          14          15          16          17          18          19          20
 IAtWgt=           1          12          12          12          14          14           1          12          12          14
 AtmWgt=   1.0078250  12.0000000  12.0000000  12.0000000  14.0030740  14.0030740   1.0078250  12.0000000  12.0000000  14.0030740
 NucSpn=           1           0           0           0           2           2           1           0           0           2
 AtZEff=  -0.0000000  -0.0000000  -0.0000000  -0.0000000  -0.0000000  -0.0000000  -0.0000000  -0.0000000  -0.0000000  -0.0000000
 NQMom=    0.0000000   0.0000000   0.0000000   0.0000000   2.0440000   2.0440000   0.0000000   0.0000000   0.0000000   2.0440000
 NMagM=    2.7928460   0.0000000   0.0000000   0.0000000   0.4037610   0.4037610   2.7928460   0.0000000   0.0000000   0.4037610
 AtZNuc=   1.0000000   6.0000000   6.0000000   6.0000000   7.0000000   7.0000000   1.0000000   6.0000000   6.0000000   7.0000000

  Atom        21          22          23          24          25          26          27          28          29          30
 IAtWgt=          14          12          12          14           1          14           1           1           1           1
 AtmWgt=  14.0030740  12.0000000  12.0000000  14.0030740   1.0078250  14.0030740   1.0078250   1.0078250   1.0078250   1.0078250
 NucSpn=           2           0           0           2           1           2           1           1           1           1
 AtZEff=  -0.0000000  -0.0000000  -0.0000000  -0.0000000  -0.0000000  -0.0000000  -0.0000000  -0.0000000  -0.0000000  -0.0000000
 NQMom=    2.0440000   0.0000000   0.0000000   2.0440000   0.0000000   2.0440000   0.0000000   0.0000000   0.0000000   0.0000000
 NMagM=    0.4037610   0.0000000   0.0000000   0.4037610   2.7928460   0.4037610   2.7928460   2.7928460   2.7928460   2.7928460
 AtZNuc=   7.0000000   6.0000000   6.0000000   7.0000000   1.0000000   7.0000000   1.0000000   1.0000000   1.0000000   1.0000000

  Atom        31          32          33          34          35          36          37          38          39          40
 IAtWgt=           1           1           1           1           1           1           1           1           1           1
 AtmWgt=   1.0078250   1.0078250   1.0078250   1.0078250   1.0078250   1.0078250   1.0078250   1.0078250   1.0078250   1.0078250
 NucSpn=           1           1           1           1           1           1           1           1           1           1
 AtZEff=  -0.0000000  -0.0000000  -0.0000000  -0.0000000  -0.0000000  -0.0000000  -0.0000000  -0.0000000  -0.0000000  -0.0000000
 NQMom=    0.0000000   0.0000000   0.0000000   0.0000000   0.0000000   0.0000000   0.0000000   0.0000000   0.0000000   0.0000000
 NMagM=    2.7928460   2.7928460   2.7928460   2.7928460   2.7928460   2.7928460   2.7928460   2.7928460   2.7928460   2.7928460
 AtZNuc=   1.0000000   1.0000000   1.0000000   1.0000000   1.0000000   1.0000000   1.0000000   1.0000000   1.0000000   1.0000000

  Atom        41          42          43          44          45
 IAtWgt=           1           1           1           1           1
 AtmWgt=   1.0078250   1.0078250   1.0078250   1.0078250   1.0078250
 NucSpn=           1           1           1           1           1
 AtZEff=  -0.0000000  -0.0000000  -0.0000000  -0.0000000  -0.0000000
 NQMom=    0.0000000   0.0000000   0.0000000   0.0000000   0.0000000
 NMagM=    2.7928460   2.7928460   2.7928460   2.7928460   2.7928460
 AtZNuc=   1.0000000   1.0000000   1.0000000   1.0000000   1.0000000
 Leave Link  101 at Thu Nov 11 15:19:48 2021, MaxMem=  7864320000 cpu:               7.7 elap:               0.3
 (Enter /apps/gaussian/g16-c01-avx/g16/l202.exe)
                          Input orientation:                          
 ---------------------------------------------------------------------
 Center     Atomic      Atomic             Coordinates (Angstroms)
 Number     Number       Type             X           Y           Z
 ---------------------------------------------------------------------
      1          6           0       -0.872000   -0.345000   -1.104300
      2          6           0       -0.976300   -1.670200   -0.464900
      3          6           0       -1.946900    0.529900   -1.192400
      4          6           0       -1.802900    1.780600   -1.796900
      5          1           0       -2.924000    0.257800   -0.828100
      6          6           0       -0.571800    2.148600   -2.322700
      7          6           0        0.513700    1.275300   -2.257500
      8          1           0       -0.428400    3.108400   -2.794600
      9          6           0        0.353000    0.032300   -1.654100
     10          6           0        1.802900    1.654000   -2.818800
     11          1           0        1.191700   -0.648400   -1.597500
     12          6           0       -2.938900    2.689600   -1.868100
     13          6           0       -3.727400   -1.410400    1.438100
     14          6           0       -2.208800   -1.116700    1.491800
     15          7           0       -4.099700   -2.747100    1.840400
     16          7           0       -1.518500   -2.015100    0.618100
     17          1           0       -1.853600   -1.340700    2.504400
     18          6           0       -5.142600    3.316000   -1.396100
     19          6           0       -6.383900    2.551100   -1.866500
     20          7           0       -4.037800    2.416200   -1.314300
     21          7           0       -6.813000    1.645000   -0.817000
     22          6           0        3.259500    3.118200   -3.905300
     23          6           0        3.786600    4.371800   -3.196500
     24          7           0        1.981300    2.771000   -3.375900
     25          1           0        4.002700    2.310300   -3.813300
     26          7           0        5.071500    4.746100   -3.760800
     27          1           0        4.963100    5.012300   -4.734300
     28          1           0        5.455700    5.541700   -3.263300
     29          1           0       -3.816400   -2.916200    2.800300
     30          1           0       -3.612700   -3.421900    1.259200
     31          1           0       -7.545800    1.029400   -1.152700
     32          1           0       -6.024600    1.072000   -0.534000
     33          1           0       -0.463600   -2.470500   -0.995900
     34          1           0       -2.770100    3.626600   -2.421800
     35          1           0        2.604500    0.903700   -2.729500
     36          1           0       -2.030500   -0.053900    1.278200
     37          1           0        3.121500    3.350800   -4.966900
     38          1           0       -4.944600    4.173500   -2.060800
     39          1           0       -5.342500    3.682600   -0.384600
     40          1           0       -6.141900    2.045300   -2.817800
     41          1           0       -7.193600    3.262500   -2.056100
     42          1           0       -4.083100   -1.265700    0.413900
     43          1           0       -4.242600   -0.696500    2.086300
     44          1           0        3.018400    5.158700   -3.267100
     45          1           0        3.938100    4.143200   -2.137600
 ---------------------------------------------------------------------
                    Distance matrix (angstroms):
                    1          2          3          4          5
     1  C    0.000000
     2  C    1.475082   0.000000
     3  C    1.388748   2.512322   0.000000
     4  C    2.421662   3.790186   1.396570   0.000000
     5  H    2.156469   2.764531   1.077719   2.124702   0.000000
     6  C    2.791534   4.265944   2.405965   1.388343   3.367759
     7  C    2.423924   3.756259   2.782914   2.415391   3.859569
     8  H    3.870383   5.344410   3.394341   2.155854   4.268614
     9  C    1.394726   2.465713   2.397981   2.779361   3.387013
    10  C    3.753745   4.931035   4.239077   3.749947   5.315623
    11  H    2.143398   2.650864   3.376878   3.861014   4.283942
    12  C    3.750235   4.982833   2.470817   1.456656   2.644896
    13  C    3.968902   3.355213   3.722160   4.934714   2.926432
    14  C    3.020313   2.377834   3.159875   4.401664   2.789749
    15  N    4.985919   4.028616   4.956930   6.245423   4.187193
    16  N    2.484725   1.259296   3.152533   4.507821   3.038585
    17  H    3.870100   3.113674   4.144174   5.314722   3.847923
    18  C    5.632592   6.564098   4.244567   3.697525   3.820654
    19  C    6.272909   7.001856   4.922055   4.645866   4.278832
    20  N    4.206021   5.176189   2.818661   2.373114   2.477021
    21  N    6.272011   6.721725   5.006326   5.106828   4.129015
    22  C    6.075249   7.259968   6.416052   5.644681   7.475742
    23  C    6.951838   8.164106   7.186768   6.317888   8.219882
    24  N    4.796972   6.078287   5.022047   4.218329   6.072020
    25  H    6.176730   7.200459   6.740674   6.168585   7.816863
    26  N    8.264471   9.413169   8.580848   7.740056   9.626712
    27  H    8.713550   9.907576   8.965772   8.053009  10.003500
    28  H    8.908103  10.060476   9.176342   8.305629  10.201430
    29  H    5.525076   4.503356   5.595738   6.873744   4.902646
    30  H    4.750251   3.604383   4.939834   6.299296   4.286178
    31  H    6.814024   7.135772   5.621277   5.827538   4.696996
    32  H    5.374236   5.745413   4.165933   4.463158   3.219183
    33  H    2.167093   1.088716   3.352789   4.528485   3.677682
    34  H    4.594801   5.924801   3.432001   2.175705   3.729930
    35  H    4.035663   4.957369   4.818469   4.589539   5.881906
    36  H    2.665177   2.600416   2.540015   3.587957   2.309112
    37  H    6.672830   7.891160   6.920477   6.063344   7.952634
    38  H    6.157744   7.241763   4.797514   3.958016   4.575487
    39  H    6.060107   6.908156   4.703420   4.259221   4.216051
    40  H    6.035020   6.784136   4.747251   4.465336   4.184369
    41  H    7.340477   8.094335   5.978373   5.596683   5.363366
    42  H    3.669303   3.253939   3.219896   4.400783   2.281913
    43  H    4.654506   4.257397   4.186188   5.212236   3.338131
    44  H    7.078392   8.393082   7.098195   6.067782   8.079583
    45  H    6.659483   7.793900   6.970119   6.217478   7.993719
                    6          7          8          9         10
     6  C    0.000000
     7  C    1.394709   0.000000
     8  H    1.079106   2.129855   0.000000
     9  C    2.404372   1.391030   3.372494   0.000000
    10  C    2.475872   1.456196   2.663562   2.467518   0.000000
    11  H    3.385123   2.143806   4.262783   1.081653   2.676973
    12  C    2.470325   3.751310   2.708580   4.235994   4.945803
    13  C    6.063655   6.233568   7.015604   5.319093   7.622071
    14  C    5.281322   5.214491   6.276505   4.216599   6.507825
    15  N    7.331123   7.365864   8.321571   6.305801   8.713123
    16  N    5.184684   4.819299   6.251807   3.585701   6.025469
    17  H    6.092546   5.926488   7.064353   4.903808   7.118615
    18  C    4.807663   6.074553   4.921644   6.407095   7.281915
    19  C    5.843854   7.025484   6.053093   7.195505   8.290679
    20  N    3.619618   4.786171   3.962095   5.007751   6.079329
    21  N    6.439978   7.476112   6.842190   7.392773   8.845395
    22  C    4.257183   3.694718   3.851540   4.799836   2.333677
    23  C    4.970090   4.602381   4.418589   5.744551   3.385877
    24  N    2.831065   2.375245   2.501680   3.621662   1.260903
    25  H    4.813947   3.957886   4.616206   4.813703   2.501775
    26  N    6.376674   5.922829   5.819322   6.994450   4.596976
    27  H    6.682194   6.316397   6.037843   7.452587   4.993414
    28  H    6.980588   6.605843   6.384611   7.679880   5.353012
    29  H    7.900934   7.867641   8.892539   6.776373   9.167199
    30  H    7.287493   7.173426   8.319728   6.012120   8.468977
    31  H    7.159482   8.138586   7.594436   7.977258   9.516523
    32  H    5.838796   6.764699   6.369827   6.558154   8.174888
    33  H    4.807098   4.071580   5.861799   2.713682   5.046928
    34  H    2.650816   4.042147   2.427153   4.823081   4.996107
    35  H    3.435716   2.175389   3.750123   2.642929   1.101584
    36  H    4.466015   4.554218   5.399497   3.779800   5.864920
    37  H    4.698675   4.295250   4.168865   5.445335   3.038449
    38  H    4.825991   6.183146   4.697761   6.736431   7.242320
    39  H    5.372985   6.602873   5.503289   6.882953   7.816475
    40  H    5.593014   6.723381   5.811609   6.898557   7.954430
    41  H    6.720125   7.961909   6.807133   8.218696   9.170932
    42  H    5.610317   5.892676   6.540952   5.063636   7.322567
    43  H    6.403799   6.736392   7.269702   5.970032   8.132215
    44  H    4.779344   4.730075   4.038244   5.998842   3.736487
    45  H    4.934763   4.468304   4.535282   5.475967   3.349512
                   11         12         13         14         15
    11  H    0.000000
    12  C    5.317643   0.000000
    13  C    5.830356   5.325663   0.000000
    14  C    4.618060   5.129317   1.547672   0.000000
    15  N    6.650008   6.682674   1.444721   2.520958   0.000000
    16  N    3.757916   5.507534   2.432550   1.430730   2.948294
    17  H    5.155455   6.044828   2.157077   1.096222   2.732000
    18  C    7.475318   2.339114   5.689845   6.049461   6.951529
    19  C    8.227933   3.447783   5.802659   6.493258   6.857813
    20  N    6.067919   1.260565   4.723867   4.868349   6.051085
    21  N    8.363258   4.147849   4.893043   5.844331   5.806403
    22  C    4.877398   6.538658   9.893276   8.772991  11.025998
    23  C    5.873050   7.058810  10.553367   9.383422  11.757671
    24  N    3.934269   5.146694   8.558502   7.507706   9.728195
    25  H    4.643856   7.218967  10.058591   8.858394  11.099122
    26  N    6.988086   8.483986  11.931123  10.722173  13.100855
    27  H    7.490427   8.720759  12.444854  11.303323  13.622383
    28  H    7.698956   8.974986  12.440425  11.211147  13.640294
    29  H    7.040215   7.347718   2.032472   2.744950   1.015018
    30  H    6.239815   6.898148   2.022695   2.709056   1.015046
    31  H    8.908241   4.948898   5.219679   6.331090   5.924205
    32  H    7.494384   3.730683   3.915178   4.842995   4.891681
    33  H    2.534164   5.789169   4.207203   3.326732   4.619776
    34  H    5.886506   1.101384   6.417680   6.174967   7.781917
    35  H    2.384626   5.887337   7.925712   6.713363   8.897113
    36  H    4.359547   4.272141   2.178332   1.098617   3.442526
    37  H    5.574099   6.838728  10.516676   9.491336  11.647723
    38  H    7.817899   2.502384   6.701031   6.934824   7.989238
    39  H    7.932494   2.994013   5.645302   6.031105   6.916373
    40  H    7.907392   3.402391   5.990355   6.636277   6.988312
    41  H    9.263839   4.297212   6.786750   7.524176   7.801937
    42  H    5.678935   4.707559   1.093822   2.167272   2.056629
    43  H    6.565387   5.366804   1.093274   2.160171   2.070229
    44  H    6.312433   6.598718  10.526053   9.452587  11.800660
    45  H    5.549221   7.034111  10.118695   8.866988  11.309595
                   16         17         18         19         20
    16  N    0.000000
    17  H    2.031067   0.000000
    18  C    6.753646   6.907697   0.000000
    19  C    7.120080   7.400979   1.532049   0.000000
    20  N    5.451372   5.785110   1.427205   2.413982   0.000000
    21  N    6.594511   6.673961   2.432660   1.451411   2.922977
    22  C    8.345130   9.333265   8.771003   9.872865   7.775389
    23  C    9.137163   9.846054   9.169884  10.417433   8.281804
    24  N    7.148943   8.135752   7.413945   8.503130   6.372256
    25  H    8.296387   9.356248   9.512665  10.570216   8.420562
    26  N   10.407530  11.147147  10.581344  11.816623   9.715613
    27  H   10.956444  11.799440  10.777114  11.959774   9.972579
    28  H   10.991358  11.578414  10.989274  12.291089  10.183020
    29  H    3.294590   2.534234   7.629475   7.632984   6.738950
    30  H    2.603031   2.996056   7.402061   7.288778   6.394296
    31  H    6.980907   7.168884   3.326132   2.043304   3.775631
    32  H    5.582334   5.696511   2.560601   2.022966   2.522522
    33  H    1.981212   3.932003   7.452301   7.811809   6.062683
    34  H    6.529646   7.055600   2.603323   3.811116   2.073328
    35  H    6.060111   7.232268   8.222816   9.178782   6.957772
    36  H    2.131709   1.786257   5.309734   5.968857   4.105083
    37  H    9.028550  10.128283   9.002620  10.030186   8.091387
    38  H    7.563956   7.797547   1.102876   2.177503   2.113682
    39  H    6.934852   6.764044   1.094298   2.135611   2.042144
    40  H    7.047559   7.627603   2.152791   1.104251   2.612531
    41  H    8.198242   8.396619   2.155241   1.094373   3.350457
    42  H    2.679640   3.057202   5.038910   5.006183   4.067569
    43  H    3.363783   2.509407   5.388624   5.545872   4.614642
    44  H    9.334969   9.964376   8.573104   9.857206   7.818228
    45  H    8.677155   9.228495   9.148398  10.447582   8.202154
                   21         22         23         24         25
    21  N    0.000000
    22  C   10.637818   0.000000
    23  C   11.200401   1.533540   0.000000
    24  N    9.227977   1.426397   2.419474   0.000000
    25  H   11.242767   1.101596   2.162620   2.118873   0.000000
    26  N   12.630286   2.440140   1.452413   3.687615   2.660491
    27  H   12.859257   2.679013   2.039417   3.969862   3.011879
    28  H   13.103040   3.332988   2.039368   4.445325   3.585478
    29  H    6.547443  11.465052  12.119495  10.203089  11.497579
    30  H    6.342397  10.801486  11.633773   9.546151  10.797346
    31  H    1.014226  11.344355  11.990498   9.936872  11.920040
    32  H    1.014885  10.086977  10.688182   8.663569  10.622332
    33  H    7.568634   7.318446   8.350084   6.254219   7.123316
    34  H    4.779871   6.230194   6.644230   4.921195   7.038447
    35  H    9.638282   2.591436   3.693666   2.071961   2.260113
    36  H    5.490759   8.056984   8.570205   6.762784   8.240893
    37  H   10.900721   1.095510   2.149213   2.041447   1.786042
    38  H    3.381016   8.474851   8.806985   7.187808   9.305748
    39  H    2.549736   9.311728   9.577173   7.963475  10.048480
    40  H    2.147980   9.524710  10.204466   8.174625  10.196772
    41  H    2.072808  10.616387  11.094857   9.282361  11.373283
    42  H    4.176080   9.580597  10.331920   8.211850   9.799855
    43  H    4.529760  10.331152  10.865712   8.977534  10.575022
    44  H   10.724062   2.151527   1.101965   2.605480   3.062771
    45  H   11.116256   2.153111   1.093837   2.691725   2.484284
                   26         27         28         29         30
    26  N    0.000000
    27  H    1.015044   0.000000
    28  H    1.013950   1.639134   0.000000
    29  H   13.444465  14.025367  13.938262   0.000000
    30  H   12.935685  13.438829  13.529043   1.634691   0.000000
    31  H   13.409411  13.607495  13.923164   6.715831   6.410976
    32  H   12.125786  12.405565  12.618422   5.647959   5.406289
    33  H    9.505857   9.970808  10.216387   5.084393   3.988417
    34  H    8.033486   8.189640   8.487610   8.436427   7.996317
    35  H    4.681208   5.144202   5.470405   9.295068   8.560030
    36  H    9.943336  10.522689  10.391302   3.701214   3.721175
    37  H    2.684034   2.491220   3.626401  12.154799  11.401019
    38  H   10.175467  10.296296  10.558609   8.669889   8.395621
    39  H   10.999143  11.264696  11.328914   7.484433   7.494545
    40  H   11.572550  11.653201  12.121370   7.847769   7.273861
    41  H   12.471558  12.570597  12.909565   8.553738   8.276186
    42  H   11.720775  12.155286  12.282150   2.913792   2.363262
    43  H   12.270409  12.800621  12.711821   2.370340   2.916963
    44  H    2.151557   2.440485   2.467212  12.195567  11.750982
    45  H    2.069508   2.923835   2.350768  11.590956  11.215327
                   31         32         33         34         35
    31  H    0.000000
    32  H    1.642758   0.000000
    33  H    7.901357   6.609643   0.000000
    34  H    5.582416   4.547696   6.672913   0.000000
    35  H   10.272813   8.905611   4.878917   6.032843   0.000000
    36  H    6.123834   4.528195   3.669695   5.270967   6.201764
    37  H   11.564096  10.416078   7.906283   6.423749   3.355823
    38  H    4.180461   3.621715   8.084313   2.271095   8.253948
    39  H    3.533267   2.702372   7.876420   3.281853   8.739316
    40  H    2.403237   2.485320   7.480298   3.745178   8.821029
    41  H    2.434525   2.912325   8.904168   4.453499  10.100503
    42  H    4.439821   3.183202   4.066923   5.805150   7.701380
    43  H    4.937710   3.628924   5.189207   6.417197   8.522637
    44  H   11.537943  10.293046   8.688347   6.047197   4.308753
    45  H   11.939252  10.547947   8.026174   6.734062   3.552914
                   36         37         38         39         40
    36  H    0.000000
    37  H    8.782731   0.000000
    38  H    6.124689   8.613026   0.000000
    39  H    5.262669   9.630517   1.791355   0.000000
    40  H    6.171504   9.598622   2.556523   3.039779   0.000000
    41  H    6.983815  10.718295   2.426509   2.529223   1.779841
    42  H    2.535476  10.107984   6.037484   5.168110   5.064115
    43  H    2.441177  10.970790   6.434916   5.147003   5.930852
    44  H    8.562847   2.483637   8.113886   8.966177   9.685361
    45  H    8.056521   3.049536   8.883084   9.455935  10.318443
                   41         42         43         44         45
    41  H    0.000000
    42  H    6.023347   0.000000
    43  H    6.445274   1.773796   0.000000
    44  H   10.456913  10.259336  10.754738   0.000000
    45  H   11.166782  10.005299  10.401340   1.775629   0.000000
 Stoichiometry    C15H24N6
 Framework group  C1[X(C15H24N6)]
 Deg. of freedom   129
 Full point group                 C1      NOp   1
 Largest Abelian subgroup         C1      NOp   1
 Largest concise Abelian subgroup C1      NOp   1
                         Standard orientation:                         
 ---------------------------------------------------------------------
 Center     Atomic      Atomic             Coordinates (Angstroms)
 Number     Number       Type             X           Y           Z
 ---------------------------------------------------------------------
      1          6           0       -0.362819   -1.562710   -0.526628
      2          6           0       -1.197398   -2.767940   -0.690230
      3          6           0       -0.903432   -0.302319   -0.308054
      4          6           0       -0.076975    0.811984   -0.147728
      5          1           0       -1.969269   -0.143988   -0.288084
      6          6           0        1.301014    0.657176   -0.216111
      7          6           0        1.859924   -0.598769   -0.451559
      8          1           0        1.966024    1.498330   -0.094902
      9          6           0        1.022733   -1.698111   -0.611316
     10          6           0        3.304506   -0.761935   -0.535623
     11          1           0        1.449932   -2.675435   -0.791076
     12          6           0       -0.662619    2.123707    0.093623
     13          6           0       -4.145143   -1.868807    0.636351
     14          6           0       -2.774669   -2.449516    1.060460
     15          7           0       -5.119240   -2.854130    0.227090
     16          7           0       -2.199208   -3.163501   -0.037747
     17          1           0       -2.947504   -3.189809    1.850267
     18          6           0       -2.462851    3.564592    0.486649
     19          6           0       -3.618815    3.798877   -0.491121
     20          7           0       -1.904068    2.272034    0.254334
     21          7           0       -4.725149    2.927197   -0.140704
     22          6           0        5.502339    0.020284   -0.474664
     23          6           0        6.150440    0.439590    0.850437
     24          7           0        4.091162    0.214037   -0.399505
     25          1           0        5.787323   -1.018634   -0.704765
     26          7           0        7.590879    0.276414    0.760925
     27          1           0        7.972727    0.906549    0.062758
     28          1           0        8.025831    0.498722    1.649458
     29          1           0       -5.311706   -3.495106    0.990220
     30          1           0       -4.742246   -3.402641   -0.539283
     31          1           0       -5.447545    2.961754   -0.851762
     32          1           0       -4.386119    1.972447   -0.081501
     33          1           0       -0.865500   -3.445059   -1.475504
     34          1           0        0.046442    2.965322    0.137919
     35          1           0        3.661562   -1.785865   -0.729439
     36          1           0       -2.140012   -1.645585    1.457783
     37          1           0        5.880207    0.673442   -1.268856
     38          1           0       -1.716853    4.372320    0.400634
     39          1           0       -2.879262    3.564743    1.498622
     40          1           0       -3.242695    3.647330   -1.518222
     41          1           0       -3.959075    4.835282   -0.403141
     42          1           0       -3.998341   -1.184657   -0.204384
     43          1           0       -4.556710   -1.301186    1.475198
     44          1           0        5.828246    1.467204    1.083950
     45          1           0        5.786496   -0.216458    1.646443
 ---------------------------------------------------------------------
 Rotational constants (GHZ):           0.3657374           0.1263789           0.0974064
 Leave Link  202 at Thu Nov 11 15:19:48 2021, MaxMem=  7864320000 cpu:               0.3 elap:               0.0
 (Enter /apps/gaussian/g16-c01-avx/g16/l301.exe)
 Standard basis: Aug-CC-pVDZ (5D, 7F)
 Ernie: Thresh=  0.10000D-02 Tol=  0.10000D-05 Strict=F.
 Ernie:  42 primitive shells out of 693 were deleted.
 There are   741 symmetry adapted cartesian basis functions of A   symmetry.
 There are   699 symmetry adapted basis functions of A   symmetry.
   699 basis functions,  1167 primitive gaussians,   741 cartesian basis functions
    78 alpha electrons       78 beta electrons
       nuclear repulsion energy      1563.4281750939 Hartrees.
 IExCor=    0 DFT=F Ex=HF Corr=None ExCW=0 ScaHFX=  1.000000
 ScaDFX=  1.000000  1.000000  1.000000  1.000000 ScalE2=  1.000000  1.000000
 IRadAn=      7 IRanWt=     -1 IRanGd=            0 ICorTp=0 IEmpDi=  4
 NAtoms=   45 NActive=   45 NUniq=   45 SFac= 1.00D+00 NAtFMM=   60 NAOKFM=F Big=F
 Integral buffers will be    131072 words long.
 Raffenetti 1 integral format.
 Two-electron integral symmetry is turned on.
 ------------------------------------------------------------------------------
 Polarizable Continuum Model (PCM)
 =================================
 Model                : PCM.
 Atomic radii         : UFF (Universal Force Field).
 Polarization charges : Total charges.
 Charge compensation  : None.
 Solution method      : On-the-fly selection.
 Cavity type          : Scaled VdW (van der Waals Surface) (Alpha=1.100).
 Cavity algorithm     : GePol (No added spheres)
                        Default sphere list used, NSphG=   45.
                        Lebedev-Laikov grids with approx.  5.0 points / Ang**2.
                        Smoothing algorithm: York/Karplus (Gamma=1.0000).
                        Polarization charges: spherical gaussians, with
                                              point-specific exponents (IZeta= 3).
                        Self-potential: point-specific (ISelfS= 7).
                        Self-field    : sphere-specific E.n sum rule (ISelfD= 2).
 Solvent              : Chloroform, Eps=   4.711300 Eps(inf)=   2.090627
 ------------------------------------------------------------------------------
 GePol: Number of generator spheres                  =      45
 GePol: Total number of spheres                      =      45
 GePol: Number of exposed spheres                    =      45 (100.00%)
 GePol: Number of points                             =    3268
 GePol: Average weight of points                     =       0.13
 GePol: Minimum weight of points                     =   0.20D-11
 GePol: Maximum weight of points                     =    0.20577
 GePol: Number of points with low weight             =     212
 GePol: Fraction of low-weight points (<1% of avg)   =       6.49%
 GePol: Cavity surface area                          =    426.834 Ang**2
 GePol: Cavity volume                                =    445.800 Ang**3
 Leave Link  301 at Thu Nov 11 15:19:48 2021, MaxMem=  7864320000 cpu:               4.4 elap:               0.2
 (Enter /apps/gaussian/g16-c01-avx/g16/l302.exe)
 NPDir=0 NMtPBC=     1 NCelOv=     1 NCel=       1 NClECP=     1 NCelD=      1
         NCelK=      1 NCelE2=     1 NClLst=     1 CellRange=     0.0.
 One-electron integrals computed using PRISM.
 One-electron integral symmetry used in STVInt
 NBasis=   699 RedAO= T EigKep=  1.02D-06  NBF=   699
 NBsUse=   698 1.00D-06 EigRej=  4.16D-07 NBFU=   698
 Leave Link  302 at Thu Nov 11 15:19:49 2021, MaxMem=  7864320000 cpu:              41.1 elap:               1.3
 (Enter /apps/gaussian/g16-c01-avx/g16/l303.exe)
 DipDrv:  MaxL=1.
 Leave Link  303 at Thu Nov 11 15:19:50 2021, MaxMem=  7864320000 cpu:               4.3 elap:               0.2
 (Enter /apps/gaussian/g16-c01-avx/g16/l401.exe)
 ExpMin= 2.97D-02 ExpMax= 9.05D+03 ExpMxC= 3.09D+02 IAcc=3 IRadAn=         7 AccDes= 0.00D+00
 Harris functional with IExCor=  205 and IRadAn=       7 diagonalized for initial guess.
 HarFok:  IExCor=  205 AccDes= 0.00D+00 IRadAn=         7 IDoV= 1 UseB2=F ITyADJ=14
 ICtDFT=  3500011 ScaDFX=  1.000000  1.000000  1.000000  1.000000
 FoFCou: FMM=F IPFlag=           0 FMFlag=      100000 FMFlg1=           0
         NFxFlg=           0 DoJE=T BraDBF=F KetDBF=T FulRan=T
         wScrn=  0.000000 ICntrl=       500 IOpCl=  0 I1Cent=   200000004 NGrid=           0
         NMat0=    1 NMatS0=      1 NMatT0=    0 NMatD0=    1 NMtDS0=    0 NMtDT0=    0
 Petite list used in FoFCou.
 Harris En= -910.020799281673    
 JPrj=0 DoOrth=F DoCkMO=F.
 Leave Link  401 at Thu Nov 11 15:19:54 2021, MaxMem=  7864320000 cpu:             144.0 elap:               4.6
 (Enter /apps/gaussian/g16-c01-avx/g16/l508.exe)
 Integral symmetry usage will be decided dynamically.
 Tight linear equation convergence will be used.
 RHF wavefunction.
 Linear searches until partial convergence.
 Full line searches.
 Fock matrices will be formed incrementally for  20 cycles.
 Inv3:  Mode=1 IEnd=    32039472.
 Iteration    1 A*A^-1 deviation from unit magnitude is 7.77D-15 for   3264.
 Iteration    1 A*A^-1 deviation from orthogonality  is 2.17D-15 for   3264   2625.
 Iteration    1 A^-1*A deviation from unit magnitude is 7.55D-15 for   3264.
 Iteration    1 A^-1*A deviation from orthogonality  is 2.49D-15 for   3266   3253.
 FoFJK:  IHMeth= 1 ICntrl=       0 DoSepK=F KAlg= 0 I1Cent=           0 FoldK=F
 IRaf= 860000000 NMat=       1 IRICut=       1 DoRegI=T DoRafI=F ISym2E= 1 IDoP0=0 IntGTp=1.
 Iteration   1 EE= -907.970600074727                                    Grad=1.421D+00 Max rot=    2.1973 deg.
 Gradient too large for Newton-Raphson -- use scaled steepest descent instead.
 Alpha Gap=     0.462 HL deriv= 4.29D-03
     ILin= 1 X=0.000D+00 Y=-9.079706000747D+02 DE= 0.00D+00 F= -2.40D+00
 RMSU=  9.16D-03    CP:  7.97D-01
     ILin= 2 X=3.000D-01 Y=-9.085140628743D+02 DE=-5.43D-01 F= -1.22D+00 OKLS=F
 RMSU=  1.74D-03    CP:  6.85D-01  1.47D+00
     ILin= 3 X=5.000D-01 Y=-9.086771306944D+02 DE=-7.07D-01 F= -4.14D-01
 RMSU=  4.16D-03    CP:  5.22D-01  1.93D+00  3.00D+00
     ILin= 4 X=9.000D-01 Y=-9.085206384602D+02 DE=-5.50D-01 F=  1.20D+00
     An  expanding polynomial of degree  4 produced  0.6032
 RMSU=  3.60D-06    CP:  6.36D-01  1.65D+00  1.83D+00  8.25D-06
 Iteration   2 EE= -908.698400509930     Delta-E=       -0.727800435204 Grad=4.773D-01 Max rot=    0.9934 deg.
 Gradient too large for Newton-Raphson -- use scaled steepest descent instead.
 Alpha Gap=     0.479 HL deriv= 6.85D-04
     ILin= 1 X=0.000D+00 Y=-9.086984005099D+02 DE= 0.00D+00 F= -1.28D-01
 RMSU=  2.05D-03    CP:  5.67D-01  1.67D+00  2.76D+00 -6.69D-04 -3.00D+00
     ILin= 2 X=4.000D-01 Y=-9.087367528613D+02 DE=-3.84D-02 F= -6.35D-02 OKLS=F
 RMSU=  4.27D-04    CP:  4.95D-01  1.64D+00  3.00D+00  5.27D-01 -3.00D+00
                    CP:  2.09D+00
     ILin= 3 X=9.000D-01 Y=-9.087483017714D+02 DE=-4.99D-02 F=  1.72D-02
     Accept linear search using points  2 and  3.
     An  expanding polynomial of degree  3 produced  0.6913
 RMSU=  2.77D-06    CP:  5.23D-01  1.66D+00  3.00D+00  2.45D-01 -3.00D+00
                    CP:  1.66D+00  4.47D-01
 Iteration   3 EE= -908.748380966586     Delta-E=       -0.049980456655 Grad=1.667D-01 Max rot=    0.3284 deg.
 Gradient too large for Newton-Raphson -- use scaled steepest descent instead.
 Alpha Gap=     0.470 HL deriv= 5.58D-04
     ILin= 1 X=0.000D+00 Y=-9.087483809666D+02 DE= 0.00D+00 F= -1.74D-02
 RMSU=  6.51D-04    CP:  4.95D-01  1.63D+00  3.00D+00  5.62D-01 -3.00D+00
                    CP:  2.10D+00  1.10D+00 -4.13D-01
     ILin= 2 X=6.000D-01 Y=-9.087552966659D+02 DE=-6.92D-03 F= -5.63D-03 OKLS=F
 RMSU=  7.97D-05    CP:  4.65D-01  1.59D+00  3.00D+00  9.67D-01 -3.00D+00
                    CP:  2.56D+00  2.10D+00 -3.00D+00  2.11D+00
     ILin= 3 X=1.300D+00 Y=-9.087544147497D+02 DE=-6.03D-03 F=  8.15D-03
     An  expanding polynomial of degree  3 produced  0.8860
 RMSU=  2.39D-06    CP:  4.82D-01  1.62D+00  3.00D+00  7.23D-01 -3.00D+00
                    CP:  2.29D+00  1.48D+00 -2.22D+00  1.46D+00  2.75D-01
 Iteration   4 EE= -908.756101069195     Delta-E=       -0.007720102610 Grad=5.184D-02 Max rot=    0.1912 deg.
 Gradient too large for Newton-Raphson -- use scaled steepest descent instead.
 Alpha Gap=     0.479 HL deriv= 3.44D-04
     ILin= 1 X=0.000D+00 Y=-9.087561010692D+02 DE= 0.00D+00 F= -3.59D-03
 RMSU=  2.74D-04    CP:  4.71D-01  1.60D+00  3.00D+00  7.78D-01 -3.00D+00
                    CP:  2.51D+00  1.78D+00 -1.14D+00  1.50D+00  1.04D+00
                    CP:  3.00D+00
     ILin= 2 X=8.000D-01 Y=-9.087571881871D+02 DE=-1.09D-03 F=  8.73D-04 OKLS=T
     Accept linear search using points  1 and  2.
     An  expanding polynomial of degree  2 produced  0.5882
 RMSU=  1.76D-06    CP:  4.74D-01  1.60D+00  3.00D+00  7.63D-01 -3.00D+00
                    CP:  2.45D+00  1.69D+00 -1.37D+00  1.49D+00  8.30D-01
                    CP:  3.00D+00  7.36D-01
 Iteration   5 EE= -908.757247962299     Delta-E=       -0.001146893104 Grad=1.881D-02 Max rot=    0.0903 deg.
 Gradient too large for Newton-Raphson -- use scaled steepest descent instead.
 Alpha Gap=     0.477 HL deriv= 2.59D-04
     ILin= 1 X=0.000D+00 Y=-9.087572479623D+02 DE= 0.00D+00 F= -4.50D-04
 RMSU=  5.02D-05    CP:  4.70D-01  1.60D+00  3.00D+00  7.93D-01 -3.00D+00
                    CP:  2.52D+00  1.83D+00 -5.35D-01  1.70D+00  1.21D+00
                    CP:  3.00D+00  1.04D+00 -2.31D+00
     ILin= 2 X=7.000D-01 Y=-9.087574705713D+02 DE=-2.23D-04 F= -1.86D-04 OKLS=F
 RMSU=  6.08D-06    CP:  4.67D-01  1.59D+00  3.00D+00  8.23D-01 -3.00D+00
                    CP:  2.60D+00  1.97D+00  2.17D-01  1.92D+00  1.61D+00
                    CP:  3.00D+00  1.34D+00 -3.00D+00  2.00D+00
     ILin= 3 X=1.400D+00 Y=-9.087575083213D+02 DE=-2.60D-04 F=  7.82D-05
     Accept linear search using points  2 and  3.
     An  expanding polynomial of degree  3 produced  1.1331
 RMSU=  2.38D-08    CP:  4.68D-01  1.59D+00  3.00D+00  8.12D-01 -3.00D+00
                    CP:  2.57D+00  1.92D+00 -5.99D-02  1.84D+00  1.45D+00
                    CP:  3.00D+00  1.23D+00 -3.00D+00  1.62D+00  5.14D-01
 Iteration   6 EE= -908.757515742166     Delta-E=       -0.000267779867 Grad=8.219D-03 Max rot=    0.0449 deg.
 SCF Done:  E(RHF) =  -908.757515742     a.u. after    6 cycles
            Convg  =    0.8219D-02                    16 Fock formations.
              S**2 =  0.0000                  -V/T =  2.0006
 Leave Link  508 at Thu Nov 11 15:25:17 2021, MaxMem=  7864320000 cpu:           10151.9 elap:             321.5
 (Enter /apps/gaussian/g16-c01-avx/g16/l502.exe)
 Integral symmetry usage will be decided dynamically.
 Closed shell SCF:
 Using DIIS extrapolation, IDIIS=  1040.
 NGot=  7864320000 LenX=  7863190076 LenY=  7862640254
 Requested convergence on RMS density matrix=1.00D-08 within 128 cycles.
 Requested convergence on MAX density matrix=1.00D-06.
 Requested convergence on             energy=1.00D-06.
 No special actions if energy rises.
 Fock matrices will be formed incrementally for  20 cycles.

 Cycle   1  Pass 1  IDiag  1:
 FoFJK:  IHMeth= 1 ICntrl=       0 DoSepK=F KAlg= 0 I1Cent=           0 FoldK=F
 IRaf= 860000000 NMat=       1 IRICut=       1 DoRegI=T DoRafI=F ISym2E= 0 IDoP0=0 IntGTp=1.
 FoFCou: FMM=F IPFlag=           0 FMFlag=      100000 FMFlg1=           0
         NFxFlg=           0 DoJE=F BraDBF=F KetDBF=F FulRan=T
         wScrn=  0.000000 ICntrl=         0 IOpCl=  0 I1Cent=           0 NGrid=           0
         NMat0=    1 NMatS0=      1 NMatT0=    0 NMatD0=    1 NMtDS0=    0 NMtDT0=    0
 Symmetry not used in FoFCou.
 E= -908.757515742828    
 DIIS: error= 1.12D-04 at cycle   1 NSaved=   1.
 NSaved= 1 IEnMin= 1 EnMin= -908.757515742828     IErMin= 1 ErrMin= 1.12D-04
 ErrMax= 1.12D-04  0.00D+00 EMaxC= 1.00D-01 BMatC= 3.38D-05 BMatP= 3.38D-05
 IDIUse=3 WtCom= 9.99D-01 WtEn= 1.12D-03
 Coeff-Com:  0.100D+01
 Coeff-En:   0.100D+01
 Coeff:      0.100D+01
 Gap=     0.479 Goal=   None    Shift=    0.000
 RMSDP=1.47D-04 MaxDP=2.89D-02              OVMax= 2.06D-03

 Cycle   2  Pass 1  IDiag  1:
 RMSU=  1.15D-04    CP:  9.98D-01
 E= -908.757553134147     Delta-E=       -0.000037391319 Rises=F Damp=F
 DIIS: error= 7.14D-05 at cycle   2 NSaved=   2.
 NSaved= 2 IEnMin= 2 EnMin= -908.757553134147     IErMin= 2 ErrMin= 7.14D-05
 ErrMax= 7.14D-05  0.00D+00 EMaxC= 1.00D-01 BMatC= 1.45D-05 BMatP= 3.38D-05
 IDIUse=1 WtCom= 1.00D+00 WtEn= 0.00D+00
 Coeff-Com:  0.379D+00 0.621D+00
 Coeff:      0.379D+00 0.621D+00
 Gap=     0.362 Goal=   None    Shift=    0.000
 RMSDP=2.88D-05 MaxDP=2.98D-03 DE=-3.74D-05 OVMax= 8.04D-04

 Cycle   3  Pass 1  IDiag  1:
 RMSU=  2.80D-05    CP:  9.98D-01  1.01D+00
 E= -908.757567565166     Delta-E=       -0.000014431020 Rises=F Damp=F
 DIIS: error= 2.78D-05 at cycle   3 NSaved=   3.
 NSaved= 3 IEnMin= 3 EnMin= -908.757567565166     IErMin= 3 ErrMin= 2.78D-05
 ErrMax= 2.78D-05  0.00D+00 EMaxC= 1.00D-01 BMatC= 7.01D-07 BMatP= 1.45D-05
 IDIUse=1 WtCom= 1.00D+00 WtEn= 0.00D+00
 Coeff-Com: -0.179D+00-0.183D+00 0.136D+01
 Coeff:     -0.179D+00-0.183D+00 0.136D+01
 Gap=     0.363 Goal=   None    Shift=    0.000
 RMSDP=2.76D-05 MaxDP=3.08D-03 DE=-1.44D-05 OVMax= 1.14D-03

 Cycle   4  Pass 1  IDiag  1:
 RMSU=  1.57D-05    CP:  9.98D-01  1.16D+00  1.49D+00
 E= -908.757571075806     Delta-E=       -0.000003510640 Rises=F Damp=F
 DIIS: error= 1.01D-05 at cycle   4 NSaved=   4.
 NSaved= 4 IEnMin= 4 EnMin= -908.757571075806     IErMin= 4 ErrMin= 1.01D-05
 ErrMax= 1.01D-05  0.00D+00 EMaxC= 1.00D-01 BMatC= 2.03D-07 BMatP= 7.01D-07
 IDIUse=1 WtCom= 1.00D+00 WtEn= 0.00D+00
 Coeff-Com: -0.962D-01-0.135D+00 0.373D+00 0.858D+00
 Coeff:     -0.962D-01-0.135D+00 0.373D+00 0.858D+00
 Gap=     0.363 Goal=   None    Shift=    0.000
 RMSDP=1.05D-05 MaxDP=8.91D-04 DE=-3.51D-06 OVMax= 4.52D-04

 Cycle   5  Pass 1  IDiag  1:
 RMSU=  4.71D-06    CP:  9.98D-01  1.19D+00  1.67D+00  1.45D+00
 E= -908.757571781940     Delta-E=       -0.000000706133 Rises=F Damp=F
 DIIS: error= 6.03D-06 at cycle   5 NSaved=   5.
 NSaved= 5 IEnMin= 5 EnMin= -908.757571781940     IErMin= 5 ErrMin= 6.03D-06
 ErrMax= 6.03D-06  0.00D+00 EMaxC= 1.00D-01 BMatC= 4.80D-08 BMatP= 2.03D-07
 IDIUse=1 WtCom= 1.00D+00 WtEn= 0.00D+00
 Coeff-Com:  0.976D-01 0.109D+00-0.560D+00-0.394D+00 0.175D+01
 Coeff:      0.976D-01 0.109D+00-0.560D+00-0.394D+00 0.175D+01
 Gap=     0.363 Goal=   None    Shift=    0.000
 RMSDP=1.25D-05 MaxDP=9.00D-04 DE=-7.06D-07 OVMax= 5.25D-04

 Cycle   6  Pass 1  IDiag  1:
 RMSU=  2.79D-06    CP:  9.98D-01  1.20D+00  1.80D+00  2.06D+00  2.24D+00
 E= -908.757572156869     Delta-E=       -0.000000374929 Rises=F Damp=F
 DIIS: error= 1.61D-06 at cycle   6 NSaved=   6.
 NSaved= 6 IEnMin= 6 EnMin= -908.757572156869     IErMin= 6 ErrMin= 1.61D-06
 ErrMax= 1.61D-06  0.00D+00 EMaxC= 1.00D-01 BMatC= 4.77D-09 BMatP= 4.80D-08
 IDIUse=1 WtCom= 1.00D+00 WtEn= 0.00D+00
 Coeff-Com: -0.256D-01-0.275D-01 0.180D+00 0.677D-02-0.691D+00 0.156D+01
 Coeff:     -0.256D-01-0.275D-01 0.180D+00 0.677D-02-0.691D+00 0.156D+01
 Gap=     0.363 Goal=   None    Shift=    0.000
 RMSDP=4.37D-06 MaxDP=2.73D-04 DE=-3.75D-07 OVMax= 1.77D-04

 Cycle   7  Pass 1  IDiag  1:
 RMSU=  9.46D-07    CP:  9.98D-01  1.21D+00  1.84D+00  2.22D+00  2.77D+00
                    CP:  1.51D+00
 E= -908.757572192909     Delta-E=       -0.000000036040 Rises=F Damp=F
 DIIS: error= 3.90D-07 at cycle   7 NSaved=   7.
 NSaved= 7 IEnMin= 7 EnMin= -908.757572192909     IErMin= 7 ErrMin= 3.90D-07
 ErrMax= 3.90D-07  0.00D+00 EMaxC= 1.00D-01 BMatC= 3.33D-10 BMatP= 4.77D-09
 IDIUse=1 WtCom= 1.00D+00 WtEn= 0.00D+00
 Coeff-Com: -0.979D-02-0.113D-01 0.631D-01 0.181D-01-0.203D+00 0.232D+00
 Coeff-Com:  0.911D+00
 Coeff:     -0.979D-02-0.113D-01 0.631D-01 0.181D-01-0.203D+00 0.232D+00
 Coeff:      0.911D+00
 Gap=     0.363 Goal=   None    Shift=    0.000
 RMSDP=5.96D-07 MaxDP=6.15D-05 DE=-3.60D-08 OVMax= 2.37D-05

 Cycle   8  Pass 1  IDiag  1:
 RMSU=  3.42D-07    CP:  9.98D-01  1.21D+00  1.85D+00  2.23D+00  2.82D+00
                    CP:  1.56D+00  1.13D+00
 E= -908.757572193909     Delta-E=       -0.000000001000 Rises=F Damp=F
 DIIS: error= 2.70D-07 at cycle   8 NSaved=   8.
 NSaved= 8 IEnMin= 8 EnMin= -908.757572193909     IErMin= 8 ErrMin= 2.70D-07
 ErrMax= 2.70D-07  0.00D+00 EMaxC= 1.00D-01 BMatC= 7.19D-11 BMatP= 3.33D-10
 IDIUse=1 WtCom= 1.00D+00 WtEn= 0.00D+00
 Coeff-Com:  0.323D-02 0.303D-02-0.226D-01-0.265D-02 0.101D+00-0.254D+00
 Coeff-Com:  0.133D+00 0.104D+01
 Coeff:      0.323D-02 0.303D-02-0.226D-01-0.265D-02 0.101D+00-0.254D+00
 Coeff:      0.133D+00 0.104D+01
 Gap=     0.363 Goal=   None    Shift=    0.000
 RMSDP=2.45D-07 MaxDP=2.71D-05 DE=-1.00D-09 OVMax= 9.88D-06

 Cycle   9  Pass 1  IDiag  1:
 RMSU=  1.17D-07    CP:  9.98D-01  1.22D+00  1.85D+00  2.24D+00  2.83D+00
                    CP:  1.56D+00  1.29D+00  1.05D+00
 E= -908.757572194189     Delta-E=       -0.000000000280 Rises=F Damp=F
 DIIS: error= 1.19D-07 at cycle   9 NSaved=   9.
 NSaved= 9 IEnMin= 9 EnMin= -908.757572194189     IErMin= 9 ErrMin= 1.19D-07
 ErrMax= 1.19D-07  0.00D+00 EMaxC= 1.00D-01 BMatC= 1.34D-11 BMatP= 7.19D-11
 IDIUse=1 WtCom= 1.00D+00 WtEn= 0.00D+00
 Coeff-Com:  0.163D-02 0.168D-02-0.103D-01-0.412D-02 0.379D-01-0.563D-01
 Coeff-Com: -0.121D+00 0.100D+00 0.105D+01
 Coeff:      0.163D-02 0.168D-02-0.103D-01-0.412D-02 0.379D-01-0.563D-01
 Coeff:     -0.121D+00 0.100D+00 0.105D+01
 Gap=     0.363 Goal=   None    Shift=    0.000
 RMSDP=1.01D-07 MaxDP=1.06D-05 DE=-2.80D-10 OVMax= 5.30D-06

 Cycle  10  Pass 1  IDiag  1:
 RMSU=  4.20D-08    CP:  9.98D-01  1.21D+00  1.86D+00  2.24D+00  2.84D+00
                    CP:  1.57D+00  1.31D+00  1.13D+00  1.31D+00
 E= -908.757572194319     Delta-E=       -0.000000000130 Rises=F Damp=F
 DIIS: error= 4.88D-08 at cycle  10 NSaved=  10.
 NSaved=10 IEnMin=10 EnMin= -908.757572194319     IErMin=10 ErrMin= 4.88D-08
 ErrMax= 4.88D-08  0.00D+00 EMaxC= 1.00D-01 BMatC= 2.69D-12 BMatP= 1.34D-11
 IDIUse=1 WtCom= 1.00D+00 WtEn= 0.00D+00
 Coeff-Com: -0.848D-03-0.867D-03 0.627D-02 0.296D-03-0.259D-01 0.669D-01
 Coeff-Com: -0.385D-01-0.258D+00-0.657D-02 0.126D+01
 Coeff:     -0.848D-03-0.867D-03 0.627D-02 0.296D-03-0.259D-01 0.669D-01
 Coeff:     -0.385D-01-0.258D+00-0.657D-02 0.126D+01
 Gap=     0.363 Goal=   None    Shift=    0.000
 RMSDP=4.62D-08 MaxDP=4.86D-06 DE=-1.30D-10 OVMax= 3.36D-06

 Cycle  11  Pass 1  IDiag  1:
 RMSU=  2.26D-08    CP:  9.98D-01  1.21D+00  1.86D+00  2.24D+00  2.84D+00
                    CP:  1.57D+00  1.31D+00  1.16D+00  1.55D+00  1.44D+00
 E= -908.757572194347     Delta-E=       -0.000000000028 Rises=F Damp=F
 DIIS: error= 1.66D-08 at cycle  11 NSaved=  11.
 NSaved=11 IEnMin=11 EnMin= -908.757572194347     IErMin=11 ErrMin= 1.66D-08
 ErrMax= 1.66D-08  0.00D+00 EMaxC= 1.00D-01 BMatC= 3.76D-13 BMatP= 2.69D-12
 IDIUse=1 WtCom= 1.00D+00 WtEn= 0.00D+00
 Coeff-Com: -0.241D-03-0.259D-03 0.153D-02 0.577D-03-0.537D-02 0.758D-02
 Coeff-Com:  0.202D-01-0.639D-02-0.176D+00-0.153D-01 0.117D+01
 Coeff:     -0.241D-03-0.259D-03 0.153D-02 0.577D-03-0.537D-02 0.758D-02
 Coeff:      0.202D-01-0.639D-02-0.176D+00-0.153D-01 0.117D+01
 Gap=     0.363 Goal=   None    Shift=    0.000
 RMSDP=1.55D-08 MaxDP=1.22D-06 DE=-2.80D-11 OVMax= 1.18D-06

 Cycle  12  Pass 1  IDiag  1:
 RMSU=  7.91D-09    CP:  9.98D-01  1.21D+00  1.86D+00  2.24D+00  2.84D+00
                    CP:  1.58D+00  1.31D+00  1.15D+00  1.58D+00  1.63D+00
                    CP:  1.32D+00
 E= -908.757572194301     Delta-E=        0.000000000046 Rises=F Damp=F
 DIIS: error= 4.79D-09 at cycle  12 NSaved=  12.
 NSaved=12 IEnMin=11 EnMin= -908.757572194347     IErMin=12 ErrMin= 4.79D-09
 ErrMax= 4.79D-09  0.00D+00 EMaxC= 1.00D-01 BMatC= 5.76D-14 BMatP= 3.76D-13
 IDIUse=1 WtCom= 1.00D+00 WtEn= 0.00D+00
 Coeff-Com:  0.974D-04 0.102D-03-0.765D-03 0.590D-04 0.324D-02-0.956D-02
 Coeff-Com:  0.952D-02 0.404D-01-0.291D-01-0.196D+00 0.186D+00 0.996D+00
 Coeff:      0.974D-04 0.102D-03-0.765D-03 0.590D-04 0.324D-02-0.956D-02
 Coeff:      0.952D-02 0.404D-01-0.291D-01-0.196D+00 0.186D+00 0.996D+00
 Gap=     0.363 Goal=   None    Shift=    0.000
 RMSDP=5.68D-09 MaxDP=7.03D-07 DE= 4.64D-11 OVMax= 3.77D-07

 Error on total polarization charges =  0.01845
 SCF Done:  E(RHF) =  -908.757572194     A.U. after   12 cycles
            NFock= 12  Conv=0.57D-08     -V/T= 2.0006
 KE= 9.082170599907D+02 PE=-5.247964298750D+03 EE= 1.867561491471D+03
 Leave Link  502 at Thu Nov 11 15:28:59 2021, MaxMem=  7864320000 cpu:            7062.7 elap:             222.5
 (Enter /apps/gaussian/g16-c01-avx/g16/l508.exe)
 QCSCF skips out because SCF is already converged.
 Leave Link  508 at Thu Nov 11 15:28:59 2021, MaxMem=  7864320000 cpu:               0.1 elap:               0.0
 (Enter /apps/gaussian/g16-c01-avx/g16/l801.exe)
 ExpMin= 2.97D-02 ExpMax= 9.05D+03 ExpMxC= 3.09D+02 IAcc=3 IRadAn=         7 AccDes= 0.00D+00
 HarFok:  IExCor=  205 AccDes= 0.00D+00 IRadAn=         7 IDoV=-2 UseB2=F ITyADJ=14
 ICtDFT= 12500011 ScaDFX=  1.000000  1.000000  1.000000  1.000000
 GSVD:  LWork=        -609 too small for GESVD, short by        2520 words or        2520 for optimal perf.
 Largest valence mixing into a core orbital is  1.17D-04
 Largest core mixing into a valence orbital is  4.13D-05
 Range of M.O.s used for correlation:    22   698
 NBasis=   699 NAE=    78 NBE=    78 NFC=    21 NFV=     0
 NROrb=    677 NOA=    57 NOB=    57 NVA=   620 NVB=   620

 **** Warning!!: The largest alpha MO coefficient is  0.20652151D+03

 Leave Link  801 at Thu Nov 11 15:28:59 2021, MaxMem=  7864320000 cpu:               6.3 elap:               0.2
 (Enter /apps/gaussian/g16-c01-avx/g16/l906.exe)
 FulOut=F Deriv=F AODrv=F NAtomX=    45
   MMem=           9  MDisk=          57 MDiskD=          57
  W3Min=    26186940 MinDsk=    26628359 NBas6D=         741
 NBas2D=      275874    NTT=      274911    LW2=     2000000
    MDV=  7861268280 MDiskM=      147309 NBas2p=      223127
 Disk-based method using OVN memory for 57 occupieds at a time.
 Estimated scratch disk usage= 27790274524 words.
 IMap=   1   2   3   4   5   6   7   8   9  10  11  12  13  14  15  16  17  18  19  20
 IMap=  21  22  23  24  25  26  27  28  29  30  31  32  33  34  35  36  37  38  39  40
 IMap=  41  42  43  44  45  46  47  48  49  50  51  52  53  54  55  56  57
 Actual    scratch disk usage= 23657868036 words.
 JobTyp=1 Pass  1:  I=   1 to  57 NPSUse= 32 ParTrn=T ParDer=T DoDerP=F.
 Spin components of T(2) and E(2):
     alpha-alpha T2 =       0.1485106431D+00 E2=     -0.4065902542D+00
     alpha-beta  T2 =       0.8028366122D+00 E2=     -0.2331913048D+01
     beta-beta   T2 =       0.1485106431D+00 E2=     -0.4065902542D+00
 The integrals were generated   1 times.
 ANorm=    0.1449088644D+01
 E2 =    -0.3145093557D+01 EUMP2 =    -0.91190266575110D+03
 Leave Link  906 at Thu Nov 11 15:41:12 2021, MaxMem=  7864320000 cpu:           23237.7 elap:             732.9
 (Enter /apps/gaussian/g16-c01-avx/g16/l601.exe)
 Copying SCF densities to generalized density rwf, IOpCl= 0 IROHF=0.

 **********************************************************************

            Population analysis using the SCF Density.

 **********************************************************************

 Orbital symmetries:
       Occupied  (A) (A) (A) (A) (A) (A) (A) (A) (A) (A) (A) (A)
                 (A) (A) (A) (A) (A) (A) (A) (A) (A) (A) (A) (A)
                 (A) (A) (A) (A) (A) (A) (A) (A) (A) (A) (A) (A)
                 (A) (A) (A) (A) (A) (A) (A) (A) (A) (A) (A) (A)
                 (A) (A) (A) (A) (A) (A) (A) (A) (A) (A) (A) (A)
                 (A) (A) (A) (A) (A) (A) (A) (A) (A) (A) (A) (A)
                 (A) (A) (A) (A) (A) (A)
       Virtual   (A) (A) (A) (A) (A) (A) (A) (A) (A) (A) (A) (A)
                 (A) (A) (A) (A) (A) (A) (A) (A) (A) (A) (A) (A)
                 (A) (A) (A) (A) (A) (A) (A) (A) (A) (A) (A) (A)
                 (A) (A) (A) (A) (A) (A) (A) (A) (A) (A) (A) (A)
                 (A) (A) (A) (A) (A) (A) (A) (A) (A) (A) (A) (A)
                 (A) (A) (A) (A) (A) (A) (A) (A) (A) (A) (A) (A)
                 (A) (A) (A) (A) (A) (A) (A) (A) (A) (A) (A) (A)
                 (A) (A) (A) (A) (A) (A) (A) (A) (A) (A) (A) (A)
                 (A) (A) (A) (A) (A) (A) (A) (A) (A) (A) (A) (A)
                 (A) (A) (A) (A) (A) (A) (A) (A) (A) (A) (A) (A)
                 (A) (A) (A) (A) (A) (A) (A) (A) (A) (A) (A) (A)
                 (A) (A) (A) (A) (A) (A) (A) (A) (A) (A) (A) (A)
                 (A) (A) (A) (A) (A) (A) (A) (A) (A) (A) (A) (A)
                 (A) (A) (A) (A) (A) (A) (A) (A) (A) (A) (A) (A)
                 (A) (A) (A) (A) (A) (A) (A) (A) (A) (A) (A) (A)
                 (A) (A) (A) (A) (A) (A) (A) (A) (A) (A) (A) (A)
                 (A) (A) (A) (A) (A) (A) (A) (A) (A) (A) (A) (A)
                 (A) (A) (A) (A) (A) (A) (A) (A) (A) (A) (A) (A)
                 (A) (A) (A) (A) (A) (A) (A) (A) (A) (A) (A) (A)
                 (A) (A) (A) (A) (A) (A) (A) (A) (A) (A) (A) (A)
                 (A) (A) (A) (A) (A) (A) (A) (A) (A) (A) (A) (A)
                 (A) (A) (A) (A) (A) (A) (A) (A) (A) (A) (A) (A)
                 (A) (A) (A) (A) (A) (A) (A) (A) (A) (A) (A) (A)
                 (A) (A) (A) (A) (A) (A) (A) (A) (A) (A) (A) (A)
                 (A) (A) (A) (A) (A) (A) (A) (A) (A) (A) (A) (A)
                 (A) (A) (A) (A) (A) (A) (A) (A) (A) (A) (A) (A)
                 (A) (A) (A) (A) (A) (A) (A) (A) (A) (A) (A) (A)
                 (A) (A) (A) (A) (A) (A) (A) (A) (A) (A) (A) (A)
                 (A) (A) (A) (A) (A) (A) (A) (A) (A) (A) (A) (A)
                 (A) (A) (A) (A) (A) (A) (A) (A) (A) (A) (A) (A)
                 (A) (A) (A) (A) (A) (A) (A) (A) (A) (A) (A) (A)
                 (A) (A) (A) (A) (A) (A) (A) (A) (A) (A) (A) (A)
                 (A) (A) (A) (A) (A) (A) (A) (A) (A) (A) (A) (A)
                 (A) (A) (A) (A) (A) (A) (A) (A) (A) (A) (A) (A)
                 (A) (A) (A) (A) (A) (A) (A) (A) (A) (A) (A) (A)
                 (A) (A) (A) (A) (A) (A) (A) (A) (A) (A) (A) (A)
                 (A) (A) (A) (A) (A) (A) (A) (A) (A) (A) (A) (A)
                 (A) (A) (A) (A) (A) (A) (A) (A) (A) (A) (A) (A)
                 (A) (A) (A) (A) (A) (A) (A) (A) (A) (A) (A) (A)
                 (A) (A) (A) (A) (A) (A) (A) (A) (A) (A) (A) (A)
                 (A) (A) (A) (A) (A) (A) (A) (A) (A) (A) (A) (A)
                 (A) (A) (A) (A) (A) (A) (A) (A) (A) (A) (A) (A)
                 (A) (A) (A) (A) (A) (A) (A) (A) (A) (A) (A) (A)
                 (A) (A) (A) (A) (A) (A) (A) (A) (A) (A) (A) (A)
                 (A) (A) (A) (A) (A) (A) (A) (A) (A) (A) (A) (A)
                 (A) (A) (A) (A) (A) (A) (A) (A) (A) (A) (A) (A)
                 (A) (A) (A) (A) (A) (A) (A) (A) (A) (A) (A) (A)
                 (A) (A) (A) (A) (A) (A) (A) (A) (A) (A) (A) (A)
                 (A) (A) (A) (A) (A) (A) (A) (A) (A) (A) (A) (A)
                 (A) (A) (A) (A) (A) (A) (A) (A) (A) (A) (A) (A)
                 (A) (A) (A) (A) (A) (A) (A) (A) (A) (A) (A) (A)
                 (A) (A) (A) (A) (A) (A) (A) (A)
 The electronic state is 1-A.
 Alpha  occ. eigenvalues --  -15.56776 -15.56765 -15.56744 -15.55102 -15.54447
 Alpha  occ. eigenvalues --  -15.54408 -11.29150 -11.29090 -11.28963 -11.26206
 Alpha  occ. eigenvalues --  -11.25978 -11.25714 -11.25669 -11.25594 -11.25582
 Alpha  occ. eigenvalues --  -11.25539 -11.25508 -11.25461 -11.25446 -11.25247
 Alpha  occ. eigenvalues --  -11.25190  -1.25678  -1.25304  -1.24934  -1.18728
 Alpha  occ. eigenvalues --   -1.18187  -1.17870  -1.16933  -1.06897  -1.06290
 Alpha  occ. eigenvalues --   -0.99484  -0.98673  -0.98290  -0.89707  -0.88744
 Alpha  occ. eigenvalues --   -0.87029  -0.83918  -0.82328  -0.80057  -0.75952
 Alpha  occ. eigenvalues --   -0.74297  -0.70966  -0.69407  -0.67849  -0.67753
 Alpha  occ. eigenvalues --   -0.66972  -0.66282  -0.65966  -0.64543  -0.63578
 Alpha  occ. eigenvalues --   -0.63034  -0.61367  -0.60976  -0.60221  -0.59305
 Alpha  occ. eigenvalues --   -0.57882  -0.56352  -0.55451  -0.54574  -0.54155
 Alpha  occ. eigenvalues --   -0.53896  -0.53151  -0.52887  -0.51579  -0.50552
 Alpha  occ. eigenvalues --   -0.49772  -0.49538  -0.45627  -0.45077  -0.41575
 Alpha  occ. eigenvalues --   -0.41481  -0.41086  -0.39793  -0.39309  -0.38706
 Alpha  occ. eigenvalues --   -0.38056  -0.33565  -0.32833
 Alpha virt. eigenvalues --    0.03427   0.03789   0.03880   0.04344   0.04659
 Alpha virt. eigenvalues --    0.04795   0.05078   0.05461   0.05575   0.06003
 Alpha virt. eigenvalues --    0.06081   0.06397   0.06629   0.07064   0.07415
 Alpha virt. eigenvalues --    0.07791   0.07942   0.08365   0.08599   0.08639
 Alpha virt. eigenvalues --    0.08777   0.09595   0.10467   0.10956   0.11401
 Alpha virt. eigenvalues --    0.11759   0.11894   0.12052   0.12444   0.13045
 Alpha virt. eigenvalues --    0.13211   0.13374   0.13541   0.14401   0.14467
 Alpha virt. eigenvalues --    0.14823   0.15109   0.15173   0.15625   0.16036
 Alpha virt. eigenvalues --    0.16148   0.16484   0.16527   0.16777   0.17024
 Alpha virt. eigenvalues --    0.17169   0.17328   0.17625   0.17740   0.18383
 Alpha virt. eigenvalues --    0.18480   0.18750   0.19106   0.19369   0.19536
 Alpha virt. eigenvalues --    0.19705   0.19986   0.20233   0.20550   0.21029
 Alpha virt. eigenvalues --    0.21250   0.21650   0.22054   0.22250   0.22559
 Alpha virt. eigenvalues --    0.22872   0.22942   0.23459   0.23656   0.23827
 Alpha virt. eigenvalues --    0.24223   0.24377   0.24815   0.25312   0.25484
 Alpha virt. eigenvalues --    0.25637   0.25961   0.26056   0.26424   0.27140
 Alpha virt. eigenvalues --    0.27736   0.27861   0.27960   0.28681   0.29096
 Alpha virt. eigenvalues --    0.29557   0.29993   0.30235   0.30613   0.30766
 Alpha virt. eigenvalues --    0.31616   0.31760   0.32156   0.32314   0.32549
 Alpha virt. eigenvalues --    0.32833   0.33047   0.33123   0.33569   0.33938
 Alpha virt. eigenvalues --    0.34314   0.34728   0.34821   0.35065   0.35649
 Alpha virt. eigenvalues --    0.35869   0.35979   0.36373   0.36562   0.36780
 Alpha virt. eigenvalues --    0.37065   0.37513   0.37707   0.37989   0.38140
 Alpha virt. eigenvalues --    0.38449   0.38721   0.39147   0.39611   0.39950
 Alpha virt. eigenvalues --    0.40122   0.40401   0.40700   0.40763   0.41134
 Alpha virt. eigenvalues --    0.41369   0.41573   0.42066   0.42230   0.42419
 Alpha virt. eigenvalues --    0.43238   0.43333   0.43957   0.44319   0.44497
 Alpha virt. eigenvalues --    0.44654   0.44982   0.45302   0.45831   0.46016
 Alpha virt. eigenvalues --    0.46589   0.47116   0.47219   0.47574   0.47762
 Alpha virt. eigenvalues --    0.47962   0.48028   0.48579   0.48819   0.49073
 Alpha virt. eigenvalues --    0.49389   0.49584   0.50387   0.50720   0.50921
 Alpha virt. eigenvalues --    0.51479   0.51894   0.51996   0.52123   0.52473
 Alpha virt. eigenvalues --    0.52628   0.52901   0.53215   0.53786   0.53848
 Alpha virt. eigenvalues --    0.54008   0.54720   0.54984   0.55445   0.55858
 Alpha virt. eigenvalues --    0.55949   0.56329   0.56805   0.57200   0.57626
 Alpha virt. eigenvalues --    0.57683   0.58265   0.58560   0.58675   0.59082
 Alpha virt. eigenvalues --    0.59377   0.59688   0.59887   0.60362   0.61211
 Alpha virt. eigenvalues --    0.61478   0.61802   0.62253   0.62827   0.63024
 Alpha virt. eigenvalues --    0.63343   0.63356   0.64067   0.64264   0.64891
 Alpha virt. eigenvalues --    0.65068   0.65563   0.65976   0.66231   0.66333
 Alpha virt. eigenvalues --    0.66569   0.66883   0.67025   0.67508   0.67910
 Alpha virt. eigenvalues --    0.68201   0.68470   0.68655   0.68844   0.69219
 Alpha virt. eigenvalues --    0.69505   0.69690   0.70063   0.70344   0.71054
 Alpha virt. eigenvalues --    0.71360   0.71642   0.71745   0.72052   0.72306
 Alpha virt. eigenvalues --    0.72772   0.72933   0.73211   0.73565   0.74220
 Alpha virt. eigenvalues --    0.74602   0.74907   0.75052   0.75213   0.75378
 Alpha virt. eigenvalues --    0.76136   0.76653   0.77110   0.77280   0.77424
 Alpha virt. eigenvalues --    0.77751   0.78186   0.78292   0.79310   0.79460
 Alpha virt. eigenvalues --    0.80149   0.80282   0.80299   0.80783   0.81013
 Alpha virt. eigenvalues --    0.81208   0.81364   0.82232   0.82603   0.83137
 Alpha virt. eigenvalues --    0.83229   0.83878   0.84111   0.84439   0.84854
 Alpha virt. eigenvalues --    0.85294   0.85489   0.86065   0.86441   0.86663
 Alpha virt. eigenvalues --    0.87327   0.87553   0.88901   0.89000   0.89435
 Alpha virt. eigenvalues --    0.89821   0.89932   0.90196   0.91049   0.91228
 Alpha virt. eigenvalues --    0.91617   0.92167   0.92921   0.93182   0.93528
 Alpha virt. eigenvalues --    0.93678   0.93990   0.94410   0.94638   0.95301
 Alpha virt. eigenvalues --    0.95956   0.96172   0.96751   0.96880   0.97156
 Alpha virt. eigenvalues --    0.97763   0.98000   0.98663   0.98911   0.99361
 Alpha virt. eigenvalues --    0.99717   1.00237   1.00389   1.00913   1.01549
 Alpha virt. eigenvalues --    1.01841   1.02345   1.02918   1.03846   1.03984
 Alpha virt. eigenvalues --    1.04726   1.05155   1.05903   1.06238   1.06715
 Alpha virt. eigenvalues --    1.07225   1.07718   1.08336   1.09058   1.09674
 Alpha virt. eigenvalues --    1.09898   1.10224   1.10839   1.11070   1.11241
 Alpha virt. eigenvalues --    1.11732   1.12874   1.13193   1.13943   1.14728
 Alpha virt. eigenvalues --    1.15117   1.15328   1.15966   1.16488   1.17327
 Alpha virt. eigenvalues --    1.18055   1.19079   1.19151   1.20002   1.20773
 Alpha virt. eigenvalues --    1.21514   1.21981   1.22691   1.23674   1.24648
 Alpha virt. eigenvalues --    1.25385   1.26154   1.26568   1.27987   1.29418
 Alpha virt. eigenvalues --    1.29890   1.30109   1.30313   1.30801   1.31863
 Alpha virt. eigenvalues --    1.32689   1.33166   1.33961   1.34441   1.34693
 Alpha virt. eigenvalues --    1.35783   1.36503   1.36826   1.37609   1.38785
 Alpha virt. eigenvalues --    1.39395   1.40836   1.41118   1.41754   1.42837
 Alpha virt. eigenvalues --    1.43804   1.44589   1.45980   1.46817   1.47835
 Alpha virt. eigenvalues --    1.50106   1.51735   1.52149   1.52852   1.54630
 Alpha virt. eigenvalues --    1.55402   1.57160   1.57884   1.58446   1.59300
 Alpha virt. eigenvalues --    1.60557   1.61469   1.61654   1.61949   1.62690
 Alpha virt. eigenvalues --    1.63468   1.65238   1.65988   1.66969   1.67302
 Alpha virt. eigenvalues --    1.67834   1.68834   1.69515   1.69734   1.71034
 Alpha virt. eigenvalues --    1.71231   1.71640   1.72650   1.72973   1.73496
 Alpha virt. eigenvalues --    1.74051   1.74781   1.75412   1.75855   1.76120
 Alpha virt. eigenvalues --    1.76713   1.77687   1.78128   1.79332   1.79456
 Alpha virt. eigenvalues --    1.80445   1.81093   1.82400   1.83222   1.84025
 Alpha virt. eigenvalues --    1.84523   1.85033   1.85748   1.86352   1.86661
 Alpha virt. eigenvalues --    1.87189   1.87554   1.88210   1.89477   1.89890
 Alpha virt. eigenvalues --    1.90387   1.90552   1.91025   1.92453   1.93383
 Alpha virt. eigenvalues --    1.94204   1.94657   1.95558   1.96889   1.97128
 Alpha virt. eigenvalues --    1.97646   1.98188   1.99278   2.00494   2.00712
 Alpha virt. eigenvalues --    2.01448   2.01787   2.02661   2.03408   2.03579
 Alpha virt. eigenvalues --    2.04600   2.05312   2.05951   2.06176   2.07065
 Alpha virt. eigenvalues --    2.08285   2.09070   2.09791   2.09985   2.10525
 Alpha virt. eigenvalues --    2.10715   2.11492   2.12582   2.13845   2.14470
 Alpha virt. eigenvalues --    2.14896   2.15221   2.16014   2.16394   2.17213
 Alpha virt. eigenvalues --    2.18630   2.19042   2.19404   2.20215   2.20792
 Alpha virt. eigenvalues --    2.21053   2.22085   2.22784   2.23165   2.23721
 Alpha virt. eigenvalues --    2.24167   2.24410   2.24929   2.25217   2.25736
 Alpha virt. eigenvalues --    2.26061   2.27352   2.27891   2.28492   2.28838
 Alpha virt. eigenvalues --    2.29175   2.29928   2.30587   2.31303   2.31695
 Alpha virt. eigenvalues --    2.32559   2.33387   2.34078   2.34415   2.35216
 Alpha virt. eigenvalues --    2.35564   2.36093   2.36731   2.37402   2.38661
 Alpha virt. eigenvalues --    2.39035   2.40183   2.40717   2.41290   2.41781
 Alpha virt. eigenvalues --    2.42354   2.43088   2.43313   2.43835   2.44619
 Alpha virt. eigenvalues --    2.45428   2.45724   2.46793   2.47290   2.47555
 Alpha virt. eigenvalues --    2.47887   2.49698   2.49888   2.50358   2.50516
 Alpha virt. eigenvalues --    2.51155   2.51818   2.53407   2.53866   2.54503
 Alpha virt. eigenvalues --    2.55682   2.56327   2.56937   2.57448   2.58022
 Alpha virt. eigenvalues --    2.58855   2.59131   2.59897   2.60428   2.61488
 Alpha virt. eigenvalues --    2.62235   2.63137   2.63542   2.64731   2.66182
 Alpha virt. eigenvalues --    2.66416   2.67657   2.68180   2.68860   2.69293
 Alpha virt. eigenvalues --    2.70560   2.71898   2.73512   2.73830   2.75008
 Alpha virt. eigenvalues --    2.75533   2.76525   2.77387   2.78444   2.79798
 Alpha virt. eigenvalues --    2.81758   2.82922   2.83540   2.84936   2.85273
 Alpha virt. eigenvalues --    2.87299   2.88390   2.88721   2.89642   2.90458
 Alpha virt. eigenvalues --    2.91267   2.91912   2.93407   2.94164   2.94493
 Alpha virt. eigenvalues --    2.95251   2.96803   2.98146   2.98730   2.99439
 Alpha virt. eigenvalues --    3.00354   3.01892   3.02194   3.03540   3.05118
 Alpha virt. eigenvalues --    3.07351   3.09872   3.10229   3.12020   3.13313
 Alpha virt. eigenvalues --    3.14303   3.15959   3.16591   3.18438   3.18604
 Alpha virt. eigenvalues --    3.20047   3.22313   3.22735   3.24900   3.25419
 Alpha virt. eigenvalues --    3.26301   3.29063   3.30717   3.34298   3.34968
 Alpha virt. eigenvalues --    3.37088   3.39399   3.39905   3.40878   3.42747
 Alpha virt. eigenvalues --    3.43037   3.46575   3.50427   3.54540   3.57304
 Alpha virt. eigenvalues --    3.62216   3.64904   3.65698   3.70347   3.71833
 Alpha virt. eigenvalues --    3.74489   3.76687   3.77302   3.81595   3.86847
 Alpha virt. eigenvalues --    3.91423   3.98704   4.17312   4.31360   4.88853
          Condensed to atoms (all electrons):
               1          2          3          4          5          6
     1  C   18.313945  -2.914111  -1.996225  -0.237615  -0.383630  -3.092214
     2  C   -2.914111  13.660689  -2.163131   0.361966   0.516244   0.066057
     3  C   -1.996225  -2.163131  18.549507  -5.734356  -1.309950  -2.641302
     4  C   -0.237615   0.361966  -5.734356  25.835112   0.965726  -7.766334
     5  H   -0.383630   0.516244  -1.309950   0.965726   3.112453  -0.425713
     6  C   -3.092214   0.066057  -2.641302  -7.766334  -0.425713  30.095916
     7  C    1.400528  -0.582363  -0.295729   1.114433  -0.108556  -6.565839
     8  H   -0.140419  -0.021582   0.220303   0.902202   0.011082  -1.889450
     9  C   -6.437790  -0.592826  -1.526092  -2.012783   0.058975  -0.634143
    10  C   -1.059332  -0.385201   0.067468  -1.365966  -0.082463   2.073156
    11  H    0.642613   0.013544   0.255212  -0.217982   0.039554   0.198417
    12  C   -0.190228  -0.653892   2.499534  -8.378320  -0.180949  -4.120714
    13  C   -0.160217   0.168822  -0.051064   0.057966   0.049131   0.037897
    14  C    0.567834  -0.358636  -0.102776  -0.037830  -0.108626  -0.104624
    15  N    0.022122  -0.028836  -0.004163  -0.008684  -0.024037   0.003274
    16  N    0.634568  -0.959190   0.122593  -0.067341  -0.063334   0.014554
    17  H   -0.071437   0.181282  -0.036221  -0.006137  -0.013798  -0.000437
    18  C    0.004576  -0.007972   0.135617  -0.314486  -0.105074   0.267854
    19  C    0.006353  -0.004295  -0.010979   0.053145  -0.031361   0.023147
    20  N   -0.077579   0.024092  -0.223060   0.877822  -0.145862   0.801615
    21  N   -0.002896   0.000887   0.000049  -0.004719   0.012604   0.000535
    22  C   -0.062270   0.002064  -0.030007   0.061530  -0.001185   0.007693
    23  C    0.003534   0.000712  -0.003756  -0.005023  -0.000679   0.009864
    24  N    0.065836   0.043680  -0.001131   0.175535   0.009113  -0.265516
    25  H    0.003080   0.002010  -0.004191   0.005550  -0.000039  -0.037193
    26  N    0.000006  -0.000020   0.000321   0.000992   0.000037  -0.004526
    27  H   -0.000098   0.000008   0.000049  -0.000427   0.000006   0.000580
    28  H    0.000213   0.000006  -0.000040   0.000198  -0.000005  -0.000774
    29  H    0.002347  -0.005188   0.002484  -0.001295   0.002138  -0.000007
    30  H   -0.013655   0.038702  -0.001579   0.000625   0.000531   0.000276
    31  H   -0.000845  -0.000310   0.000272   0.010577  -0.000185   0.001302
    32  H    0.002418   0.003671  -0.015006  -0.020195  -0.013519  -0.022168
    33  H    0.126315  -0.581343   0.165890   0.043041   0.028015  -0.018782
    34  H    0.036412  -0.001543  -0.121846   1.107817   0.057284  -0.119093
    35  H    0.098246  -0.008850   0.035825   0.051845  -0.000854  -0.094404
    36  H   -0.081643  -0.148732   0.163765   0.007399  -0.005968  -0.018270
    37  H   -0.002465  -0.000486  -0.001678  -0.006125  -0.000157   0.034020
    38  H    0.000058   0.000019  -0.034449   0.132554  -0.010315   0.036038
    39  H    0.002266  -0.000210   0.014421  -0.057771   0.003935  -0.001541
    40  H    0.004717  -0.001122   0.008880  -0.027509   0.001305   0.001224
    41  H   -0.000262   0.000020  -0.006172   0.009002   0.001414   0.001551
    42  H   -0.033360   0.087351  -0.014496  -0.031322  -0.073468   0.034946
    43  H    0.014926  -0.021561   0.004274   0.016932   0.008143   0.001979
    44  H    0.000727  -0.000017   0.000228   0.010397   0.000007  -0.027072
    45  H   -0.002355  -0.000251  -0.000747  -0.005918   0.000103   0.015422
               7          8          9         10         11         12
     1  C    1.400528  -0.140419  -6.437790  -1.059332   0.642613  -0.190228
     2  C   -0.582363  -0.021582  -0.592826  -0.385201   0.013544  -0.653892
     3  C   -0.295729   0.220303  -1.526092   0.067468   0.255212   2.499534
     4  C    1.114433   0.902202  -2.012783  -1.365966  -0.217982  -8.378320
     5  H   -0.108556   0.011082   0.058975  -0.082463   0.039554  -0.180949
     6  C   -6.565839  -1.889450  -0.634143   2.073156   0.198417  -4.120714
     7  C   21.776252   0.222666  -7.096088  -7.840553   0.826231  -0.059374
     8  H    0.222666   2.372094   0.094721   0.135762  -0.018575  -0.032677
     9  C   -7.096088   0.094721  26.596429  -0.795813  -2.164791   0.591111
    10  C   -7.840553   0.135762  -0.795813  19.014870  -0.032731  -0.987262
    11  H    0.826231  -0.018575  -2.164791  -0.032731   2.293476  -0.001267
    12  C   -0.059374  -0.032677   0.591111  -0.987262  -0.001267  20.457396
    13  C   -0.028336  -0.000538   0.027164   0.003206  -0.001337  -0.043129
    14  C    0.114770   0.000554  -0.377499  -0.029183  -0.004270  -0.037454
    15  N   -0.000462   0.000109   0.013786   0.000359   0.000162   0.003914
    16  N    0.017633   0.001509  -0.064917   0.021707  -0.016940   0.056681
    17  H   -0.013233   0.000145   0.039094  -0.001619   0.000426   0.004454
    18  C   -0.023990   0.020903  -0.009827  -0.013214   0.000982  -0.571021
    19  C   -0.004180   0.008326   0.006669  -0.001045   0.000076  -0.313174
    20  N    0.078057   0.040889  -0.101950   0.072334  -0.000888  -1.894849
    21  N    0.001570  -0.000776  -0.001160   0.000279  -0.000022   0.054490
    22  C    0.410402  -0.073641   0.066273  -1.273548   0.006350   0.009094
    23  C   -0.047624  -0.002231  -0.034382  -0.051907   0.000503  -0.012142
    24  N    1.311942  -0.086014   0.047447  -1.825104   0.013512   0.085806
    25  H    0.220388  -0.000922  -0.036871  -0.229308   0.006527   0.003247
    26  N    0.005475  -0.001457   0.001741   0.004736  -0.000618   0.000491
    27  H   -0.002743   0.001068   0.000811   0.021863   0.000017   0.000172
    28  H    0.003283   0.000060  -0.000884  -0.014972  -0.000002  -0.000085
    29  H   -0.000686  -0.000024   0.001146   0.000092   0.000048   0.001362
    30  H    0.000595   0.000053  -0.002842  -0.000100  -0.000036  -0.002568
    31  H    0.000645   0.000325  -0.001088  -0.000041  -0.000000  -0.043773
    32  H   -0.002467  -0.001437   0.008635   0.000496  -0.000003   0.111641
    33  H   -0.035698  -0.000375   0.348926  -0.000400  -0.042728   0.011845
    34  H    0.049437  -0.053853  -0.016309   0.008060  -0.002837  -1.326723
    35  H    0.917028   0.022910  -0.125318  -1.151904  -0.052493  -0.001401
    36  H    0.009659   0.002209   0.046251  -0.000953  -0.001580   0.013915
    37  H   -0.206490   0.006552   0.030829   0.466890  -0.001718   0.000036
    38  H   -0.000603   0.011361  -0.001976   0.001894   0.000109  -0.206910
    39  H   -0.003861  -0.000720   0.001740  -0.001148   0.000120   0.142171
    40  H   -0.001541   0.000157   0.001779  -0.000323   0.000060   0.110374
    41  H   -0.000693  -0.000304   0.000956   0.000058  -0.000001   0.006311
    42  H   -0.035281  -0.001382   0.066308   0.004402  -0.002733   0.025375
    43  H    0.006184   0.000126  -0.017297   0.000230  -0.000356  -0.022754
    44  H    0.019292   0.001151  -0.004002   0.017814   0.000318  -0.001030
    45  H   -0.124971   0.003673   0.026089   0.301726  -0.002155  -0.000487
              13         14         15         16         17         18
     1  C   -0.160217   0.567834   0.022122   0.634568  -0.071437   0.004576
     2  C    0.168822  -0.358636  -0.028836  -0.959190   0.181282  -0.007972
     3  C   -0.051064  -0.102776  -0.004163   0.122593  -0.036221   0.135617
[...]
    20  N   -0.015538   7.929018   0.007412  -0.003013   0.000233   0.001325
    21  N    0.184714   0.007412   6.780639  -0.000002   0.000000  -0.000025
    22  C    0.000004  -0.003013  -0.000002   5.197127   0.454534   0.283464
    23  C   -0.000010   0.000233   0.000000   0.454534   4.550919   0.100441
    24  N    0.000474   0.001325  -0.000025   0.283464   0.100441   8.037065
    25  H   -0.000005  -0.000258  -0.000000   0.324959  -0.085155  -0.130706
    26  N   -0.000000   0.000003  -0.000000  -0.034467   0.101428   0.005542
    27  H    0.000000   0.000001  -0.000000  -0.067452  -0.000307   0.015283
    28  H   -0.000000   0.000003   0.000000   0.048345  -0.049081   0.006632
    29  H   -0.000041  -0.000151   0.000003   0.000002   0.000000  -0.000001
    30  H    0.000038   0.000082   0.000008  -0.000005  -0.000000   0.000004
    31  H   -0.008904  -0.015112   0.344046  -0.000004  -0.000000   0.000002
    32  H   -0.098011   0.038161   0.292286   0.000032   0.000003  -0.000059
    33  H   -0.000031  -0.000004  -0.000012  -0.000122   0.000076   0.001531
    34  H   -0.021518   0.304745   0.007642   0.007178  -0.000349  -0.000420
    35  H   -0.000033   0.003164   0.000018  -0.045439  -0.022421   0.231875
    36  H    0.001349  -0.002742  -0.000125  -0.000147   0.000068  -0.000055
    37  H   -0.000017  -0.000195   0.000000   0.153867  -0.179528  -0.287977
    38  H    0.018556  -0.086836   0.025715  -0.000438  -0.000022   0.000470
    39  H   -0.189055  -0.152361  -0.002422   0.000068  -0.000008   0.000005
    40  H    0.136279  -0.041085   0.047366  -0.000003  -0.000002  -0.000051
    41  H    0.222317   0.056458  -0.145052   0.000014  -0.000000   0.000047
    42  H    0.004114  -0.011747  -0.001451   0.000115   0.000013  -0.000128
    43  H    0.001687   0.001420   0.001100  -0.000022  -0.000002  -0.000030
    44  H    0.000005   0.000076   0.000000  -0.004085   0.221839  -0.103117
    45  H   -0.000001  -0.000024   0.000000  -0.119402   0.122684  -0.138472
              25         26         27         28         29         30
     1  C    0.003080   0.000006  -0.000098   0.000213   0.002347  -0.013655
     2  C    0.002010  -0.000020   0.000008   0.000006  -0.005188   0.038702
     3  C   -0.004191   0.000321   0.000049  -0.000040   0.002484  -0.001579
     4  C    0.005550   0.000992  -0.000427   0.000198  -0.001295   0.000625
     5  H   -0.000039   0.000037   0.000006  -0.000005   0.002138   0.000531
     6  C   -0.037193  -0.004526   0.000580  -0.000774  -0.000007   0.000276
     7  C    0.220388   0.005475  -0.002743   0.003283  -0.000686   0.000595
     8  H   -0.000922  -0.001457   0.001068   0.000060  -0.000024   0.000053
     9  C   -0.036871   0.001741   0.000811  -0.000884   0.001146  -0.002842
    10  C   -0.229308   0.004736   0.021863  -0.014972   0.000092  -0.000100
    11  H    0.006527  -0.000618   0.000017  -0.000002   0.000048  -0.000036
    12  C    0.003247   0.000491   0.000172  -0.000085   0.001362  -0.002568
    13  C   -0.000000  -0.000000   0.000000  -0.000000   0.016391  -0.066999
    14  C   -0.000029  -0.000002  -0.000002   0.000002  -0.041431  -0.002164
    15  N   -0.000000   0.000000   0.000000   0.000000   0.297529   0.346344
    16  N   -0.000157  -0.000001  -0.000001  -0.000000  -0.001558   0.001141
    17  H    0.000008   0.000000  -0.000000   0.000000   0.008759  -0.002607
    18  C    0.000055   0.000005   0.000008  -0.000002  -0.000140   0.000128
    19  C   -0.000005  -0.000000   0.000000  -0.000000  -0.000041   0.000038
    20  N   -0.000258   0.000003   0.000001   0.000003  -0.000151   0.000082
    21  N   -0.000000  -0.000000  -0.000000   0.000000   0.000003   0.000008
    22  C    0.324959  -0.034467  -0.067452   0.048345   0.000002  -0.000005
    23  C   -0.085155   0.101428  -0.000307  -0.049081   0.000000  -0.000000
    24  N   -0.130706   0.005542   0.015283   0.006632  -0.000001   0.000004
    25  H    1.293197  -0.022857  -0.017588   0.003503  -0.000000  -0.000000
    26  N   -0.022857   6.806032   0.339238   0.363839   0.000000   0.000000
    27  H   -0.017588   0.339238   0.748298  -0.079786   0.000000  -0.000000
    28  H    0.003503   0.363839  -0.079786   0.797661   0.000000  -0.000000
    29  H   -0.000000   0.000000   0.000000   0.000000   0.771318  -0.075141
    30  H   -0.000000   0.000000  -0.000000  -0.000000  -0.075141   0.728359
    31  H   -0.000000   0.000000  -0.000000   0.000000   0.000014   0.000017
    32  H   -0.000001  -0.000000   0.000000  -0.000000  -0.000216  -0.000324
    33  H   -0.000037   0.000008   0.000001   0.000002   0.000415  -0.002092
    34  H   -0.000321   0.000142  -0.000066   0.000008   0.000065  -0.000108
    35  H   -0.049047   0.004624   0.001859  -0.000399  -0.000006   0.000015
    36  H   -0.000046  -0.000003  -0.000000   0.000001   0.008130  -0.004772
    37  H   -0.159111  -0.026043   0.019714  -0.005484   0.000000  -0.000000
    38  H    0.000004   0.000001   0.000001  -0.000000  -0.000022   0.000034
    39  H    0.000009   0.000000   0.000000  -0.000000   0.000029  -0.000016
    40  H    0.000004  -0.000000   0.000000   0.000000  -0.000009   0.000012
    41  H   -0.000001  -0.000000   0.000000  -0.000000  -0.000004  -0.000005
    42  H    0.000011  -0.000000  -0.000000   0.000000   0.041369  -0.039346
    43  H   -0.000002  -0.000000  -0.000000  -0.000000  -0.055524   0.044087
    44  H    0.094076   0.008897  -0.044670  -0.012947   0.000000  -0.000000
    45  H   -0.079563  -0.112247   0.036378  -0.045158   0.000000  -0.000000
              31         32         33         34         35         36
     1  C   -0.000845   0.002418   0.126315   0.036412   0.098246  -0.081643
     2  C   -0.000310   0.003671  -0.581343  -0.001543  -0.008850  -0.148732
     3  C    0.000272  -0.015006   0.165890  -0.121846   0.035825   0.163765
     4  C    0.010577  -0.020195   0.043041   1.107817   0.051845   0.007399
     5  H   -0.000185  -0.013519   0.028015   0.057284  -0.000854  -0.005968
     6  C    0.001302  -0.022168  -0.018782  -0.119093  -0.094404  -0.018270
     7  C    0.000645  -0.002467  -0.035698   0.049437   0.917028   0.009659
     8  H    0.000325  -0.001437  -0.000375  -0.053853   0.022910   0.002209
     9  C   -0.001088   0.008635   0.348926  -0.016309  -0.125318   0.046251
    10  C   -0.000041   0.000496  -0.000400   0.008060  -1.151904  -0.000953
    11  H   -0.000000  -0.000003  -0.042728  -0.002837  -0.052493  -0.001580
    12  C   -0.043773   0.111641   0.011845  -1.326723  -0.001401   0.013915
    13  C    0.001549   0.009893  -0.006043  -0.000016   0.000079   0.160343
    14  C   -0.000000  -0.005537  -0.071612  -0.003693   0.000515  -0.138718
    15  N   -0.000373   0.005140  -0.000215   0.000221   0.000023  -0.005615
    16  N    0.000150  -0.000640  -0.004810   0.000542   0.002847   0.106784
    17  H   -0.000052  -0.001201   0.005899   0.000070  -0.000227  -0.355017
    18  C    0.075373  -0.101871  -0.000781  -0.055564  -0.000530  -0.003295
    19  C   -0.008904  -0.098011  -0.000031  -0.021518  -0.000033   0.001349
    20  N   -0.015112   0.038161  -0.000004   0.304745   0.003164  -0.002742
    21  N    0.344046   0.292286  -0.000012   0.007642   0.000018  -0.000125
    22  C   -0.000004   0.000032  -0.000122   0.007178  -0.045439  -0.000147
    23  C   -0.000000   0.000003   0.000076  -0.000349  -0.022421   0.000068
    24  N    0.000002  -0.000059   0.001531  -0.000420   0.231875  -0.000055
    25  H   -0.000000  -0.000001  -0.000037  -0.000321  -0.049047  -0.000046
    26  N    0.000000  -0.000000   0.000008   0.000142   0.004624  -0.000003
    27  H   -0.000000   0.000000   0.000001  -0.000066   0.001859  -0.000000
    28  H    0.000000  -0.000000   0.000002   0.000008  -0.000399   0.000001
    29  H    0.000014  -0.000216   0.000415   0.000065  -0.000006   0.008130
    30  H    0.000017  -0.000324  -0.002092  -0.000108   0.000015  -0.004772
    31  H    0.840661  -0.116725  -0.000038  -0.002057   0.000002  -0.000146
    32  H   -0.116725   0.859259   0.000391   0.001308   0.000013   0.003318
    33  H   -0.000038   0.000391   1.453688   0.001499   0.004190  -0.002346
    34  H   -0.002057   0.001308   0.001499   1.827269   0.002471  -0.002666
    35  H    0.000002   0.000013   0.004190   0.002471   1.790551   0.000240
    36  H   -0.000146   0.003318  -0.002346  -0.002666   0.000240   1.467111
    37  H   -0.000000   0.000002  -0.000057   0.000084   0.006543  -0.000011
    38  H    0.004601   0.008640  -0.000094  -0.065814  -0.000026   0.000888
    39  H    0.000071   0.009276  -0.000028   0.006636  -0.000078  -0.001967
    40  H   -0.044268   0.005296  -0.000057  -0.001560  -0.000036  -0.000394
    41  H   -0.017054   0.031034   0.000014   0.006010   0.000003   0.000002
    42  H    0.000384  -0.022400  -0.003846   0.000130  -0.000153  -0.057367
    43  H    0.000596  -0.005077  -0.001059  -0.000538   0.000074  -0.070022
    44  H   -0.000000   0.000002   0.000004  -0.000242  -0.009109   0.000007
    45  H   -0.000000   0.000003   0.000003  -0.000076   0.016956  -0.000038
              37         38         39         40         41         42
     1  C   -0.002465   0.000058   0.002266   0.004717  -0.000262  -0.033360
     2  C   -0.000486   0.000019  -0.000210  -0.001122   0.000020   0.087351
     3  C   -0.001678  -0.034449   0.014421   0.008880  -0.006172  -0.014496
     4  C   -0.006125   0.132554  -0.057771  -0.027509   0.009002  -0.031322
     5  H   -0.000157  -0.010315   0.003935   0.001305   0.001414  -0.073468
     6  C    0.034020   0.036038  -0.001541   0.001224   0.001551   0.034946
     7  C   -0.206490  -0.000603  -0.003861  -0.001541  -0.000693  -0.035281
     8  H    0.006552   0.011361  -0.000720   0.000157  -0.000304  -0.001382
     9  C    0.030829  -0.001976   0.001740   0.001779   0.000956   0.066308
    10  C    0.466890   0.001894  -0.001148  -0.000323   0.000058   0.004402
    11  H   -0.001718   0.000109   0.000120   0.000060  -0.000001  -0.002733
    12  C    0.000036  -0.206910   0.142171   0.110374   0.006311   0.025375
    13  C    0.000003  -0.000383   0.001454  -0.000098  -0.000265   0.151240
    14  C   -0.000004   0.001383  -0.001170   0.000161   0.000165  -0.045951
    15  N    0.000000  -0.000136  -0.000270   0.000128   0.000081  -0.119800
    16  N    0.000019  -0.000100  -0.000097  -0.000015   0.000024  -0.052728
    17  H    0.000000   0.000046   0.000220   0.000044   0.000010   0.099055
    18  C   -0.000181   0.232203   0.308896  -0.175933   0.052822   0.012109
    19  C   -0.000017   0.018556  -0.189055   0.136279   0.222317   0.004114
    20  N   -0.000195  -0.086836  -0.152361  -0.041085   0.056458  -0.011747
    21  N    0.000000   0.025715  -0.002422   0.047366  -0.145052  -0.001451
    22  C    0.153867  -0.000438   0.000068  -0.000003   0.000014   0.000115
    23  C   -0.179528  -0.000022  -0.000008  -0.000002  -0.000000   0.000013
    24  N   -0.287977   0.000470   0.000005  -0.000051   0.000047  -0.000128
    25  H   -0.159111   0.000004   0.000009   0.000004  -0.000001   0.000011
    26  N   -0.026043   0.000001   0.000000  -0.000000  -0.000000  -0.000000
    27  H    0.019714   0.000001   0.000000   0.000000   0.000000  -0.000000
    28  H   -0.005484  -0.000000  -0.000000   0.000000  -0.000000   0.000000
    29  H    0.000000  -0.000022   0.000029  -0.000009  -0.000004   0.041369
    30  H   -0.000000   0.000034  -0.000016   0.000012  -0.000005  -0.039346
    31  H   -0.000000   0.004601   0.000071  -0.044268  -0.017054   0.000384
    32  H    0.000002   0.008640   0.009276   0.005296   0.031034  -0.022400
    33  H   -0.000057  -0.000094  -0.000028  -0.000057   0.000014  -0.003846
    34  H    0.000084  -0.065814   0.006636  -0.001560   0.006010   0.000130
    35  H    0.006543  -0.000026  -0.000078  -0.000036   0.000003  -0.000153
    36  H   -0.000011   0.000888  -0.001967  -0.000394   0.000002  -0.057367
    37  H    1.372462  -0.000064   0.000003  -0.000005   0.000001   0.000011
    38  H   -0.000064   1.314435  -0.154045  -0.044241  -0.057134  -0.001214
    39  H    0.000003  -0.154045   1.250534   0.089972  -0.060948   0.000670
    40  H   -0.000005  -0.044241   0.089972   1.262082  -0.176872  -0.002496
    41  H    0.000001  -0.057134  -0.060948  -0.176872   1.238285   0.000658
    42  H    0.000011  -0.001214   0.000670  -0.002496   0.000658   1.451562
    43  H   -0.000000   0.000399  -0.000421  -0.000201  -0.000104  -0.215618
    44  H   -0.036535   0.000021  -0.000011  -0.000000   0.000000  -0.000001
    45  H    0.104669  -0.000007  -0.000000  -0.000001   0.000000  -0.000001
              43         44         45
     1  C    0.014926   0.000727  -0.002355
     2  C   -0.021561  -0.000017  -0.000251
     3  C    0.004274   0.000228  -0.000747
     4  C    0.016932   0.010397  -0.005918
     5  H    0.008143   0.000007   0.000103
     6  C    0.001979  -0.027072   0.015422
     7  C    0.006184   0.019292  -0.124971
     8  H    0.000126   0.001151   0.003673
     9  C   -0.017297  -0.004002   0.026089
    10  C    0.000230   0.017814   0.301726
    11  H   -0.000356   0.000318  -0.002155
    12  C   -0.022754  -0.001030  -0.000487
    13  C    0.144963   0.000002   0.000015
    14  C    0.115323  -0.000003  -0.000028
    15  N   -0.103231  -0.000000  -0.000000
    16  N    0.011772   0.000003   0.000005
    17  H   -0.046862  -0.000005  -0.000001
    18  C    0.001686  -0.000094  -0.000029
    19  C    0.001687   0.000005  -0.000001
    20  N    0.001420   0.000076  -0.000024
    21  N    0.001100   0.000000   0.000000
    22  C   -0.000022  -0.004085  -0.119402
    23  C   -0.000002   0.221839   0.122684
    24  N   -0.000030  -0.103117  -0.138472
    25  H   -0.000002   0.094076  -0.079563
    26  N   -0.000000   0.008897  -0.112247
    27  H   -0.000000  -0.044670   0.036378
    28  H   -0.000000  -0.012947  -0.045158
    29  H   -0.055524   0.000000   0.000000
    30  H    0.044087  -0.000000  -0.000000
    31  H    0.000596  -0.000000  -0.000000
    32  H   -0.005077   0.000002   0.000003
    33  H   -0.001059   0.000004   0.000003
    34  H   -0.000538  -0.000242  -0.000076
    35  H    0.000074  -0.009109   0.016956
    36  H   -0.070022   0.000007  -0.000038
    37  H   -0.000000  -0.036535   0.104669
    38  H    0.000399   0.000021  -0.000007
    39  H   -0.000421  -0.000011  -0.000000
    40  H   -0.000201  -0.000000  -0.000001
    41  H   -0.000104   0.000000   0.000000
    42  H   -0.215618  -0.000001  -0.000001
    43  H    1.283309   0.000000   0.000001
    44  H    0.000000   1.124756  -0.150078
    45  H    0.000001  -0.150078   1.365364
 Mulliken charges:
               1
     1  C    1.007007
     2  C    0.269841
     3  C    0.083453
     4  C    0.505775
     5  H   -0.788075
     6  C    0.122797
     7  C    0.574891
     8  H   -0.754535
     9  C   -0.020237
    10  C    0.926688
    11  H   -0.732193
    12  C    0.892762
    13  C    0.776645
    14  C    0.858804
    15  N   -0.483315
    16  N   -0.585713
    17  H   -0.302144
    18  C    0.554122
    19  C    0.936471
    20  N   -0.671230
    21  N   -0.419456
    22  C    0.683558
    23  C    0.927907
    24  N   -0.600940
    25  H   -0.103220
    26  N   -0.441317
    27  H    0.027787
    28  H   -0.014136
    29  H    0.027801
    30  H    0.053309
    31  H   -0.029610
    32  H    0.035938
    33  H   -0.419145
    34  H   -0.627817
    35  H   -0.629190
    36  H   -0.088799
    37  H   -0.281374
    38  H   -0.124601
    39  H   -0.204348
    40  H   -0.152022
    41  H   -0.162389
    42  H   -0.213536
    43  H   -0.098530
    44  H   -0.106604
    45  H   -0.211081
 Sum of Mulliken charges =   0.00000
 Mulliken charges with hydrogens summed into heavy atoms:
               1
     1  C    1.007007
     2  C   -0.149303
     3  C   -0.704622
     4  C    0.505775
     6  C   -0.631738
     7  C    0.574891
     9  C   -0.752429
    10  C    0.297498
    12  C    0.264945
    13  C    0.464579
    14  C    0.467861
    15  N   -0.402205
    16  N   -0.585713
    18  C    0.225173
    19  C    0.622060
    20  N   -0.671230
    21  N   -0.413128
    22  C    0.298965
    23  C    0.610222
    24  N   -0.600940
    26  N   -0.427667
 Electronic spatial extent (au):  <R**2>=          10899.0001
 Charge=              0.0000 electrons
 Dipole moment (field-independent basis, Debye):
    X=              4.6213    Y=              1.5154    Z=             -0.4950  Tot=              4.8886
 Quadrupole moment (field-independent basis, Debye-Ang):
   XX=           -146.5845   YY=           -122.9627   ZZ=           -125.9393
   XY=              4.0582   XZ=              4.0620   YZ=             -2.9513
 Traceless Quadrupole moment (field-independent basis, Debye-Ang):
   XX=            -14.7557   YY=              8.8661   ZZ=              5.8896
   XY=              4.0582   XZ=              4.0620   YZ=             -2.9513
 Octapole moment (field-independent basis, Debye-Ang**2):
  XXX=            179.3116  YYY=             41.6279  ZZZ=             13.0452  XYY=             24.8176
  XXY=             89.7283  XXZ=              5.6731  XZZ=              2.3479  YZZ=             -8.6017
  YYZ=             -8.5257  XYZ=             46.7516
 Hexadecapole moment (field-independent basis, Debye-Ang**3):
 XXXX=         -11398.7406 YYYY=          -3557.0507 ZZZZ=           -422.8380 XXXY=            668.2550
 XXXZ=            291.3720 YYYX=            -30.7122 YYYZ=            -39.2079 ZZZX=             44.8340
 ZZZY=            -10.1389 XXYY=          -2391.4751 XXZZ=          -1639.9322 YYZZ=           -642.3414
 XXYZ=           -154.8092 YYXZ=              7.4081 ZZXY=             47.5362
 N-N= 1.563428175094D+03 E-N=-5.247964298806D+03  KE= 9.082170599907D+02
 Leave Link  601 at Thu Nov 11 15:41:13 2021, MaxMem=  7864320000 cpu:              15.1 elap:               0.6
 (Enter /apps/gaussian/g16-c01-avx/g16/l9999.exe)
 Unable to Open any file for archive entry.
 1\1\GINC-CX3-2-23\SP\RMP2-FC\Aug-CC-pVDZ\C15H24N6\ATARZIA\11-Nov-2021\
 0\\#P MP2/aug-cc-pVDZ SP SCF=(YQC,MaxCycle=900) int=(Grid=Superfinegri
 d) SCRF=(PCM,Solvent=Chloroform)\\_1_alde1_3_ami4_2_opt_cfm_mp2\\0,1\C
 ,0,-0.872,-0.345,-1.1043\C,0,-0.9763,-1.6702,-0.4649\C,0,-1.9469,0.529
 9,-1.1924\C,0,-1.8029,1.7806,-1.7969\H,0,-2.924,0.2578,-0.8281\C,0,-0.
 5718,2.1486,-2.3227\C,0,0.5137,1.2753,-2.2575\H,0,-0.4284,3.1084,-2.79
 46\C,0,0.353,0.0323,-1.6541\C,0,1.8029,1.654,-2.8188\H,0,1.1917,-0.648
 4,-1.5975\C,0,-2.9389,2.6896,-1.8681\C,0,-3.7274,-1.4104,1.4381\C,0,-2
 .2088,-1.1167,1.4918\N,0,-4.0997,-2.7471,1.8404\N,0,-1.5185,-2.0151,0.
 6181\H,0,-1.8536,-1.3407,2.5044\C,0,-5.1426,3.316,-1.3961\C,0,-6.3839,
 2.5511,-1.8665\N,0,-4.0378,2.4162,-1.3143\N,0,-6.813,1.645,-0.817\C,0,
 3.2595,3.1182,-3.9053\C,0,3.7866,4.3718,-3.1965\N,0,1.9813,2.771,-3.37
 59\H,0,4.0027,2.3103,-3.8133\N,0,5.0715,4.7461,-3.7608\H,0,4.9631,5.01
 23,-4.7343\H,0,5.4557,5.5417,-3.2633\H,0,-3.8164,-2.9162,2.8003\H,0,-3
 .6127,-3.4219,1.2592\H,0,-7.5458,1.0294,-1.1527\H,0,-6.0246,1.072,-0.5
 34\H,0,-0.4636,-2.4705,-0.9959\H,0,-2.7701,3.6266,-2.4218\H,0,2.6045,0
 .9037,-2.7295\H,0,-2.0305,-0.0539,1.2782\H,0,3.1215,3.3508,-4.9669\H,0
 ,-4.9446,4.1735,-2.0608\H,0,-5.3425,3.6826,-0.3846\H,0,-6.1419,2.0453,
 -2.8178\H,0,-7.1936,3.2625,-2.0561\H,0,-4.0831,-1.2657,0.4139\H,0,-4.2
 426,-0.6965,2.0863\H,0,3.0184,5.1587,-3.2671\H,0,3.9381,4.1432,-2.1376
 \\Version=ES64L-G16RevC.01\State=1-A\HF=-908.7575722\MP2=-911.9026658\
 RMSD=5.684e-09\PG=C01 [X(C15H24N6)]\\@
 The archive entry for this job was punched.


  THE LARGE PRINT GIVETH,
  AND THE SMALL PRINT TAKETH AWAY.

                     -- TOM WAITS
 Job cpu time:       0 days 11 hours 18 minutes 18.9 seconds.
 Elapsed time:       0 days  0 hours 21 minutes 25.4 seconds.
 File lengths (MBytes):  RWF= 180960 Int=      0 D2E=      0 Chk=     48 Scr=     16
 Normal termination of Gaussian 16 at Thu Nov 11 15:41:14 2021.
