 Entering Gaussian System, Link 0=g16
 Initial command:
 /apps/gaussian/g16-c01-avx/g16/l1.exe "/rds/general/ephemeral/user/atarzia/ephemeral/xtb_spe_DFT/Gau-1927248.inp" -scrdir="/rds/general/ephemeral/user/atarzia/ephemeral/xtb_spe_DFT/"
 Entering Link 1 = /apps/gaussian/g16-c01-avx/g16/l1.exe PID=   1927249.
  
 Copyright (c) 1988-2019, Gaussian, Inc.  All Rights Reserved.
  
 This is part of the Gaussian(R) 16 program.  It is based on
 the Gaussian(R) 09 system (copyright 2009, Gaussian, Inc.),
 the Gaussian(R) 03 system (copyright 2003, Gaussian, Inc.),
 the Gaussian(R) 98 system (copyright 1998, Gaussian, Inc.),
 the Gaussian(R) 94 system (copyright 1995, Gaussian, Inc.),
 the Gaussian 92(TM) system (copyright 1992, Gaussian, Inc.),
 the Gaussian 90(TM) system (copyright 1990, Gaussian, Inc.),
 the Gaussian 88(TM) system (copyright 1988, Gaussian, Inc.),
 the Gaussian 86(TM) system (copyright 1986, Carnegie Mellon
 University), and the Gaussian 82(TM) system (copyright 1983,
 Carnegie Mellon University). Gaussian is a federally registered
 trademark of Gaussian, Inc.
  
 This software contains proprietary and confidential information,
 including trade secrets, belonging to Gaussian, Inc.
  
 This software is provided under written license and may be
 used, copied, transmitted, or stored only in accord with that
 written license.
  
 The following legend is applicable only to US Government
 contracts under FAR:
  
                    RESTRICTED RIGHTS LEGEND
  
 Use, reproduction and disclosure by the US Government is
 subject to restrictions as set forth in subparagraphs (a)
 and (c) of the Commercial Computer Software - Restricted
 Rights clause in FAR 52.227-19.
  
 Gaussian, Inc.
 340 Quinnipiac St., Bldg. 40, Wallingford CT 06492
  
  
 ---------------------------------------------------------------
 Warning -- This program may not be used in any manner that
 competes with the business of Gaussian, Inc. or will provide
 assistance to any competitor of Gaussian, Inc.  The licensee
 of this program is prohibited from giving any competitor of
 Gaussian, Inc. access to this program.  By using this program,
 the user acknowledges that Gaussian, Inc. is engaged in the
 business of creating and licensing software in the field of
 computational chemistry and represents and warrants to the
 licensee that it is not a competitor of Gaussian, Inc. and that
 it will not use this program in any manner prohibited above.
 ---------------------------------------------------------------
  

 Cite this work as:
 Gaussian 16, Revision C.01,
 M. J. Frisch, G. W. Trucks, H. B. Schlegel, G. E. Scuseria, 
 M. A. Robb, J. R. Cheeseman, G. Scalmani, V. Barone, 
 G. A. Petersson, H. Nakatsuji, X. Li, M. Caricato, A. V. Marenich, 
 J. Bloino, B. G. Janesko, R. Gomperts, B. Mennucci, H. P. Hratchian, 
 J. V. Ortiz, A. F. Izmaylov, J. L. Sonnenberg, D. Williams-Young, 
 F. Ding, F. Lipparini, F. Egidi, J. Goings, B. Peng, A. Petrone, 
 T. Henderson, D. Ranasinghe, V. G. Zakrzewski, J. Gao, N. Rega, 
 G. Zheng, W. Liang, M. Hada, M. Ehara, K. Toyota, R. Fukuda, 
 J. Hasegawa, M. Ishida, T. Nakajima, Y. Honda, O. Kitao, H. Nakai, 
 T. Vreven, K. Throssell, J. A. Montgomery, Jr., J. E. Peralta, 
 F. Ogliaro, M. J. Bearpark, J. J. Heyd, E. N. Brothers, K. N. Kudin, 
 V. N. Staroverov, T. A. Keith, R. Kobayashi, J. Normand, 
 K. Raghavachari, A. P. Rendell, J. C. Burant, S. S. Iyengar, 
 J. Tomasi, M. Cossi, J. M. Millam, M. Klene, C. Adamo, R. Cammi, 
 J. W. Ochterski, R. L. Martin, K. Morokuma, O. Farkas, 
 J. B. Foresman, and D. J. Fox, Gaussian, Inc., Wallingford CT, 2019.
 
 ******************************************
 Gaussian 16:  ES64L-G16RevC.01  3-Jul-2019
                15-Nov-2021 
 ******************************************
 %chk=_1_alde1_3_ami4_2_opt_dcm_mp2.chk
 %mem=60000mb
 %nprocshared=32
 Will use up to   32 processors via shared memory.
 ----------------------------------------------------------------------
 #P MP2/aug-cc-pVDZ SP SCF=(YQC,MaxCycle=900) int=(Grid=Superfinegrid) 
 SCRF=(PCM,Solvent=Dichloromethane)
 ----------------------------------------------------------------------
 1/38=1,172=1/1;
 2/12=2,17=6,18=5,40=1/2;
 3/5=16,7=10,11=9,25=1,30=1,70=2201,72=9,75=-7/1,2,3;
 4//1;
 5/5=2,7=900,8=4,13=1,38=1,53=9/8,2,8;
 8/10=1/1;
 9/16=-3/6;
 6/7=2,8=2,9=2,10=2/1;
 99/5=1,9=1/99;
 Leave Link    1 at Mon Nov 15 21:24:03 2021, MaxMem=  7864320000 cpu:               5.8 elap:               0.2
 (Enter /apps/gaussian/g16-c01-avx/g16/l101.exe)
 -----------------------------
 _1_alde1_3_ami4_2_opt_dcm_mp2
 -----------------------------
 Symbolic Z-matrix:
 Charge =  0 Multiplicity = 1
 C                    -0.872    -0.345    -1.1043 
 C                    -0.9763   -1.6702   -0.4649 
 C                    -1.9469    0.5299   -1.1924 
 C                    -1.8029    1.7806   -1.7969 
 H                    -2.924     0.2578   -0.8281 
 C                    -0.5718    2.1486   -2.3227 
 C                     0.5137    1.2753   -2.2575 
 H                    -0.4284    3.1084   -2.7946 
 C                     0.353     0.0323   -1.6541 
 C                     1.8029    1.654    -2.8188 
 H                     1.1917   -0.6484   -1.5975 
 C                    -2.9389    2.6896   -1.8681 
 C                    -3.7274   -1.4104    1.4381 
 C                    -2.2088   -1.1167    1.4918 
 N                    -4.0997   -2.7471    1.8404 
 N                    -1.5185   -2.0151    0.6181 
 H                    -1.8536   -1.3407    2.5044 
 C                    -5.1426    3.316    -1.3961 
 C                    -6.3839    2.5511   -1.8665 
 N                    -4.0378    2.4162   -1.3143 
 N                    -6.813     1.645    -0.817 
 C                     3.2595    3.1182   -3.9053 
 C                     3.7866    4.3718   -3.1965 
 N                     1.9813    2.771    -3.3759 
 H                     4.0027    2.3103   -3.8133 
 N                     5.0715    4.7461   -3.7608 
 H                     4.9631    5.0123   -4.7343 
 H                     5.4557    5.5417   -3.2633 
 H                    -3.8164   -2.9162    2.8003 
 H                    -3.6127   -3.4219    1.2592 
 H                    -7.5458    1.0294   -1.1527 
 H                    -6.0246    1.072    -0.534 
 H                    -0.4636   -2.4705   -0.9959 
 H                    -2.7701    3.6266   -2.4218 
 H                     2.6045    0.9037   -2.7295 
 H                    -2.0305   -0.0539    1.2782 
 H                     3.1215    3.3508   -4.9669 
 H                    -4.9446    4.1735   -2.0608 
 H                    -5.3425    3.6826   -0.3846 
 H                    -6.1419    2.0453   -2.8178 
 H                    -7.1936    3.2625   -2.0561 
 H                    -4.0831   -1.2657    0.4139 
 H                    -4.2426   -0.6965    2.0863 
 H                     3.0184    5.1587   -3.2671 
 H                     3.9381    4.1432   -2.1376 
 
 ITRead=  0  0  0  0  0  0  0  0  0  0  0  0  0  0  0  0  0  0  0  0
 ITRead=  0  0  0  0  0  0  0  0  0  0  0  0  0  0  0  0  0  0  0  0
 ITRead=  0  0  0  0  0
 MicOpt= -1 -1 -1 -1 -1 -1 -1 -1 -1 -1 -1 -1 -1 -1 -1 -1 -1 -1 -1 -1
 MicOpt= -1 -1 -1 -1 -1 -1 -1 -1 -1 -1 -1 -1 -1 -1 -1 -1 -1 -1 -1 -1
 MicOpt= -1 -1 -1 -1 -1
 NAtoms=     45 NQM=       45 NQMF=       0 NMMI=      0 NMMIF=      0
                NMic=       0 NMicF=      0.
                    Isotopes and Nuclear Properties:
 (Nuclear quadrupole moments (NQMom) in fm**2, nuclear magnetic moments (NMagM)
  in nuclear magnetons)

  Atom         1           2           3           4           5           6           7           8           9          10
 IAtWgt=          12          12          12          12           1          12          12           1          12          12
 AtmWgt=  12.0000000  12.0000000  12.0000000  12.0000000   1.0078250  12.0000000  12.0000000   1.0078250  12.0000000  12.0000000
 NucSpn=           0           0           0           0           1           0           0           1           0           0
 AtZEff=  -0.0000000  -0.0000000  -0.0000000  -0.0000000  -0.0000000  -0.0000000  -0.0000000  -0.0000000  -0.0000000  -0.0000000
 NQMom=    0.0000000   0.0000000   0.0000000   0.0000000   0.0000000   0.0000000   0.0000000   0.0000000   0.0000000   0.0000000
 NMagM=    0.0000000   0.0000000   0.0000000   0.0000000   2.7928460   0.0000000   0.0000000   2.7928460   0.0000000   0.0000000
 AtZNuc=   6.0000000   6.0000000   6.0000000   6.0000000   1.0000000   6.0000000   6.0000000   1.0000000   6.0000000   6.0000000

  Atom        11          12          13          14          15          16          17          18          19          20
 IAtWgt=           1          12          12          12          14          14           1          12          12          14
 AtmWgt=   1.0078250  12.0000000  12.0000000  12.0000000  14.0030740  14.0030740   1.0078250  12.0000000  12.0000000  14.0030740
 NucSpn=           1           0           0           0           2           2           1           0           0           2
 AtZEff=  -0.0000000  -0.0000000  -0.0000000  -0.0000000  -0.0000000  -0.0000000  -0.0000000  -0.0000000  -0.0000000  -0.0000000
 NQMom=    0.0000000   0.0000000   0.0000000   0.0000000   2.0440000   2.0440000   0.0000000   0.0000000   0.0000000   2.0440000
 NMagM=    2.7928460   0.0000000   0.0000000   0.0000000   0.4037610   0.4037610   2.7928460   0.0000000   0.0000000   0.4037610
 AtZNuc=   1.0000000   6.0000000   6.0000000   6.0000000   7.0000000   7.0000000   1.0000000   6.0000000   6.0000000   7.0000000

  Atom        21          22          23          24          25          26          27          28          29          30
 IAtWgt=          14          12          12          14           1          14           1           1           1           1
 AtmWgt=  14.0030740  12.0000000  12.0000000  14.0030740   1.0078250  14.0030740   1.0078250   1.0078250   1.0078250   1.0078250
 NucSpn=           2           0           0           2           1           2           1           1           1           1
 AtZEff=  -0.0000000  -0.0000000  -0.0000000  -0.0000000  -0.0000000  -0.0000000  -0.0000000  -0.0000000  -0.0000000  -0.0000000
 NQMom=    2.0440000   0.0000000   0.0000000   2.0440000   0.0000000   2.0440000   0.0000000   0.0000000   0.0000000   0.0000000
 NMagM=    0.4037610   0.0000000   0.0000000   0.4037610   2.7928460   0.4037610   2.7928460   2.7928460   2.7928460   2.7928460
 AtZNuc=   7.0000000   6.0000000   6.0000000   7.0000000   1.0000000   7.0000000   1.0000000   1.0000000   1.0000000   1.0000000

  Atom        31          32          33          34          35          36          37          38          39          40
 IAtWgt=           1           1           1           1           1           1           1           1           1           1
 AtmWgt=   1.0078250   1.0078250   1.0078250   1.0078250   1.0078250   1.0078250   1.0078250   1.0078250   1.0078250   1.0078250
 NucSpn=           1           1           1           1           1           1           1           1           1           1
 AtZEff=  -0.0000000  -0.0000000  -0.0000000  -0.0000000  -0.0000000  -0.0000000  -0.0000000  -0.0000000  -0.0000000  -0.0000000
 NQMom=    0.0000000   0.0000000   0.0000000   0.0000000   0.0000000   0.0000000   0.0000000   0.0000000   0.0000000   0.0000000
 NMagM=    2.7928460   2.7928460   2.7928460   2.7928460   2.7928460   2.7928460   2.7928460   2.7928460   2.7928460   2.7928460
 AtZNuc=   1.0000000   1.0000000   1.0000000   1.0000000   1.0000000   1.0000000   1.0000000   1.0000000   1.0000000   1.0000000

  Atom        41          42          43          44          45
 IAtWgt=           1           1           1           1           1
 AtmWgt=   1.0078250   1.0078250   1.0078250   1.0078250   1.0078250
 NucSpn=           1           1           1           1           1
 AtZEff=  -0.0000000  -0.0000000  -0.0000000  -0.0000000  -0.0000000
 NQMom=    0.0000000   0.0000000   0.0000000   0.0000000   0.0000000
 NMagM=    2.7928460   2.7928460   2.7928460   2.7928460   2.7928460
 AtZNuc=   1.0000000   1.0000000   1.0000000   1.0000000   1.0000000
 Leave Link  101 at Mon Nov 15 21:24:04 2021, MaxMem=  7864320000 cpu:               2.7 elap:               0.1
 (Enter /apps/gaussian/g16-c01-avx/g16/l202.exe)
                          Input orientation:                          
 ---------------------------------------------------------------------
 Center     Atomic      Atomic             Coordinates (Angstroms)
 Number     Number       Type             X           Y           Z
 ---------------------------------------------------------------------
      1          6           0       -0.872000   -0.345000   -1.104300
      2          6           0       -0.976300   -1.670200   -0.464900
      3          6           0       -1.946900    0.529900   -1.192400
      4          6           0       -1.802900    1.780600   -1.796900
      5          1           0       -2.924000    0.257800   -0.828100
      6          6           0       -0.571800    2.148600   -2.322700
      7          6           0        0.513700    1.275300   -2.257500
      8          1           0       -0.428400    3.108400   -2.794600
      9          6           0        0.353000    0.032300   -1.654100
     10          6           0        1.802900    1.654000   -2.818800
     11          1           0        1.191700   -0.648400   -1.597500
     12          6           0       -2.938900    2.689600   -1.868100
     13          6           0       -3.727400   -1.410400    1.438100
     14          6           0       -2.208800   -1.116700    1.491800
     15          7           0       -4.099700   -2.747100    1.840400
     16          7           0       -1.518500   -2.015100    0.618100
     17          1           0       -1.853600   -1.340700    2.504400
     18          6           0       -5.142600    3.316000   -1.396100
     19          6           0       -6.383900    2.551100   -1.866500
     20          7           0       -4.037800    2.416200   -1.314300
     21          7           0       -6.813000    1.645000   -0.817000
     22          6           0        3.259500    3.118200   -3.905300
     23          6           0        3.786600    4.371800   -3.196500
     24          7           0        1.981300    2.771000   -3.375900
     25          1           0        4.002700    2.310300   -3.813300
     26          7           0        5.071500    4.746100   -3.760800
     27          1           0        4.963100    5.012300   -4.734300
     28          1           0        5.455700    5.541700   -3.263300
     29          1           0       -3.816400   -2.916200    2.800300
     30          1           0       -3.612700   -3.421900    1.259200
     31          1           0       -7.545800    1.029400   -1.152700
     32          1           0       -6.024600    1.072000   -0.534000
     33          1           0       -0.463600   -2.470500   -0.995900
     34          1           0       -2.770100    3.626600   -2.421800
     35          1           0        2.604500    0.903700   -2.729500
     36          1           0       -2.030500   -0.053900    1.278200
     37          1           0        3.121500    3.350800   -4.966900
     38          1           0       -4.944600    4.173500   -2.060800
     39          1           0       -5.342500    3.682600   -0.384600
     40          1           0       -6.141900    2.045300   -2.817800
     41          1           0       -7.193600    3.262500   -2.056100
     42          1           0       -4.083100   -1.265700    0.413900
     43          1           0       -4.242600   -0.696500    2.086300
     44          1           0        3.018400    5.158700   -3.267100
     45          1           0        3.938100    4.143200   -2.137600
 ---------------------------------------------------------------------
                    Distance matrix (angstroms):
                    1          2          3          4          5
     1  C    0.000000
     2  C    1.475082   0.000000
     3  C    1.388748   2.512322   0.000000
     4  C    2.421662   3.790186   1.396570   0.000000
     5  H    2.156469   2.764531   1.077719   2.124702   0.000000
     6  C    2.791534   4.265944   2.405965   1.388343   3.367759
     7  C    2.423924   3.756259   2.782914   2.415391   3.859569
     8  H    3.870383   5.344410   3.394341   2.155854   4.268614
     9  C    1.394726   2.465713   2.397981   2.779361   3.387013
    10  C    3.753745   4.931035   4.239077   3.749947   5.315623
    11  H    2.143398   2.650864   3.376878   3.861014   4.283942
    12  C    3.750235   4.982833   2.470817   1.456656   2.644896
    13  C    3.968902   3.355213   3.722160   4.934714   2.926432
    14  C    3.020313   2.377834   3.159875   4.401664   2.789749
    15  N    4.985919   4.028616   4.956930   6.245423   4.187193
    16  N    2.484725   1.259296   3.152533   4.507821   3.038585
    17  H    3.870100   3.113674   4.144174   5.314722   3.847923
    18  C    5.632592   6.564098   4.244567   3.697525   3.820654
    19  C    6.272909   7.001856   4.922055   4.645866   4.278832
    20  N    4.206021   5.176189   2.818661   2.373114   2.477021
    21  N    6.272011   6.721725   5.006326   5.106828   4.129015
    22  C    6.075249   7.259968   6.416052   5.644681   7.475742
    23  C    6.951838   8.164106   7.186768   6.317888   8.219882
    24  N    4.796972   6.078287   5.022047   4.218329   6.072020
    25  H    6.176730   7.200459   6.740674   6.168585   7.816863
    26  N    8.264471   9.413169   8.580848   7.740056   9.626712
    27  H    8.713550   9.907576   8.965772   8.053009  10.003500
    28  H    8.908103  10.060476   9.176342   8.305629  10.201430
    29  H    5.525076   4.503356   5.595738   6.873744   4.902646
    30  H    4.750251   3.604383   4.939834   6.299296   4.286178
    31  H    6.814024   7.135772   5.621277   5.827538   4.696996
    32  H    5.374236   5.745413   4.165933   4.463158   3.219183
    33  H    2.167093   1.088716   3.352789   4.528485   3.677682
    34  H    4.594801   5.924801   3.432001   2.175705   3.729930
    35  H    4.035663   4.957369   4.818469   4.589539   5.881906
    36  H    2.665177   2.600416   2.540015   3.587957   2.309112
    37  H    6.672830   7.891160   6.920477   6.063344   7.952634
    38  H    6.157744   7.241763   4.797514   3.958016   4.575487
    39  H    6.060107   6.908156   4.703420   4.259221   4.216051
    40  H    6.035020   6.784136   4.747251   4.465336   4.184369
    41  H    7.340477   8.094335   5.978373   5.596683   5.363366
    42  H    3.669303   3.253939   3.219896   4.400783   2.281913
    43  H    4.654506   4.257397   4.186188   5.212236   3.338131
    44  H    7.078392   8.393082   7.098195   6.067782   8.079583
    45  H    6.659483   7.793900   6.970119   6.217478   7.993719
                    6          7          8          9         10
     6  C    0.000000
     7  C    1.394709   0.000000
     8  H    1.079106   2.129855   0.000000
     9  C    2.404372   1.391030   3.372494   0.000000
    10  C    2.475872   1.456196   2.663562   2.467518   0.000000
    11  H    3.385123   2.143806   4.262783   1.081653   2.676973
    12  C    2.470325   3.751310   2.708580   4.235994   4.945803
    13  C    6.063655   6.233568   7.015604   5.319093   7.622071
    14  C    5.281322   5.214491   6.276505   4.216599   6.507825
    15  N    7.331123   7.365864   8.321571   6.305801   8.713123
    16  N    5.184684   4.819299   6.251807   3.585701   6.025469
    17  H    6.092546   5.926488   7.064353   4.903808   7.118615
    18  C    4.807663   6.074553   4.921644   6.407095   7.281915
    19  C    5.843854   7.025484   6.053093   7.195505   8.290679
    20  N    3.619618   4.786171   3.962095   5.007751   6.079329
    21  N    6.439978   7.476112   6.842190   7.392773   8.845395
    22  C    4.257183   3.694718   3.851540   4.799836   2.333677
    23  C    4.970090   4.602381   4.418589   5.744551   3.385877
    24  N    2.831065   2.375245   2.501680   3.621662   1.260903
    25  H    4.813947   3.957886   4.616206   4.813703   2.501775
    26  N    6.376674   5.922829   5.819322   6.994450   4.596976
    27  H    6.682194   6.316397   6.037843   7.452587   4.993414
    28  H    6.980588   6.605843   6.384611   7.679880   5.353012
    29  H    7.900934   7.867641   8.892539   6.776373   9.167199
    30  H    7.287493   7.173426   8.319728   6.012120   8.468977
    31  H    7.159482   8.138586   7.594436   7.977258   9.516523
    32  H    5.838796   6.764699   6.369827   6.558154   8.174888
    33  H    4.807098   4.071580   5.861799   2.713682   5.046928
    34  H    2.650816   4.042147   2.427153   4.823081   4.996107
    35  H    3.435716   2.175389   3.750123   2.642929   1.101584
    36  H    4.466015   4.554218   5.399497   3.779800   5.864920
    37  H    4.698675   4.295250   4.168865   5.445335   3.038449
    38  H    4.825991   6.183146   4.697761   6.736431   7.242320
    39  H    5.372985   6.602873   5.503289   6.882953   7.816475
    40  H    5.593014   6.723381   5.811609   6.898557   7.954430
    41  H    6.720125   7.961909   6.807133   8.218696   9.170932
    42  H    5.610317   5.892676   6.540952   5.063636   7.322567
    43  H    6.403799   6.736392   7.269702   5.970032   8.132215
    44  H    4.779344   4.730075   4.038244   5.998842   3.736487
    45  H    4.934763   4.468304   4.535282   5.475967   3.349512
                   11         12         13         14         15
    11  H    0.000000
    12  C    5.317643   0.000000
    13  C    5.830356   5.325663   0.000000
    14  C    4.618060   5.129317   1.547672   0.000000
    15  N    6.650008   6.682674   1.444721   2.520958   0.000000
    16  N    3.757916   5.507534   2.432550   1.430730   2.948294
    17  H    5.155455   6.044828   2.157077   1.096222   2.732000
    18  C    7.475318   2.339114   5.689845   6.049461   6.951529
    19  C    8.227933   3.447783   5.802659   6.493258   6.857813
    20  N    6.067919   1.260565   4.723867   4.868349   6.051085
    21  N    8.363258   4.147849   4.893043   5.844331   5.806403
    22  C    4.877398   6.538658   9.893276   8.772991  11.025998
    23  C    5.873050   7.058810  10.553367   9.383422  11.757671
    24  N    3.934269   5.146694   8.558502   7.507706   9.728195
    25  H    4.643856   7.218967  10.058591   8.858394  11.099122
    26  N    6.988086   8.483986  11.931123  10.722173  13.100855
    27  H    7.490427   8.720759  12.444854  11.303323  13.622383
    28  H    7.698956   8.974986  12.440425  11.211147  13.640294
    29  H    7.040215   7.347718   2.032472   2.744950   1.015018
    30  H    6.239815   6.898148   2.022695   2.709056   1.015046
    31  H    8.908241   4.948898   5.219679   6.331090   5.924205
    32  H    7.494384   3.730683   3.915178   4.842995   4.891681
    33  H    2.534164   5.789169   4.207203   3.326732   4.619776
    34  H    5.886506   1.101384   6.417680   6.174967   7.781917
    35  H    2.384626   5.887337   7.925712   6.713363   8.897113
    36  H    4.359547   4.272141   2.178332   1.098617   3.442526
    37  H    5.574099   6.838728  10.516676   9.491336  11.647723
    38  H    7.817899   2.502384   6.701031   6.934824   7.989238
    39  H    7.932494   2.994013   5.645302   6.031105   6.916373
    40  H    7.907392   3.402391   5.990355   6.636277   6.988312
    41  H    9.263839   4.297212   6.786750   7.524176   7.801937
    42  H    5.678935   4.707559   1.093822   2.167272   2.056629
    43  H    6.565387   5.366804   1.093274   2.160171   2.070229
    44  H    6.312433   6.598718  10.526053   9.452587  11.800660
    45  H    5.549221   7.034111  10.118695   8.866988  11.309595
                   16         17         18         19         20
    16  N    0.000000
    17  H    2.031067   0.000000
    18  C    6.753646   6.907697   0.000000
    19  C    7.120080   7.400979   1.532049   0.000000
    20  N    5.451372   5.785110   1.427205   2.413982   0.000000
    21  N    6.594511   6.673961   2.432660   1.451411   2.922977
    22  C    8.345130   9.333265   8.771003   9.872865   7.775389
    23  C    9.137163   9.846054   9.169884  10.417433   8.281804
    24  N    7.148943   8.135752   7.413945   8.503130   6.372256
    25  H    8.296387   9.356248   9.512665  10.570216   8.420562
    26  N   10.407530  11.147147  10.581344  11.816623   9.715613
    27  H   10.956444  11.799440  10.777114  11.959774   9.972579
    28  H   10.991358  11.578414  10.989274  12.291089  10.183020
    29  H    3.294590   2.534234   7.629475   7.632984   6.738950
    30  H    2.603031   2.996056   7.402061   7.288778   6.394296
    31  H    6.980907   7.168884   3.326132   2.043304   3.775631
    32  H    5.582334   5.696511   2.560601   2.022966   2.522522
    33  H    1.981212   3.932003   7.452301   7.811809   6.062683
    34  H    6.529646   7.055600   2.603323   3.811116   2.073328
    35  H    6.060111   7.232268   8.222816   9.178782   6.957772
    36  H    2.131709   1.786257   5.309734   5.968857   4.105083
    37  H    9.028550  10.128283   9.002620  10.030186   8.091387
    38  H    7.563956   7.797547   1.102876   2.177503   2.113682
    39  H    6.934852   6.764044   1.094298   2.135611   2.042144
    40  H    7.047559   7.627603   2.152791   1.104251   2.612531
    41  H    8.198242   8.396619   2.155241   1.094373   3.350457
    42  H    2.679640   3.057202   5.038910   5.006183   4.067569
    43  H    3.363783   2.509407   5.388624   5.545872   4.614642
    44  H    9.334969   9.964376   8.573104   9.857206   7.818228
    45  H    8.677155   9.228495   9.148398  10.447582   8.202154
                   21         22         23         24         25
    21  N    0.000000
    22  C   10.637818   0.000000
    23  C   11.200401   1.533540   0.000000
    24  N    9.227977   1.426397   2.419474   0.000000
    25  H   11.242767   1.101596   2.162620   2.118873   0.000000
    26  N   12.630286   2.440140   1.452413   3.687615   2.660491
    27  H   12.859257   2.679013   2.039417   3.969862   3.011879
    28  H   13.103040   3.332988   2.039368   4.445325   3.585478
    29  H    6.547443  11.465052  12.119495  10.203089  11.497579
    30  H    6.342397  10.801486  11.633773   9.546151  10.797346
    31  H    1.014226  11.344355  11.990498   9.936872  11.920040
    32  H    1.014885  10.086977  10.688182   8.663569  10.622332
    33  H    7.568634   7.318446   8.350084   6.254219   7.123316
    34  H    4.779871   6.230194   6.644230   4.921195   7.038447
    35  H    9.638282   2.591436   3.693666   2.071961   2.260113
    36  H    5.490759   8.056984   8.570205   6.762784   8.240893
    37  H   10.900721   1.095510   2.149213   2.041447   1.786042
    38  H    3.381016   8.474851   8.806985   7.187808   9.305748
    39  H    2.549736   9.311728   9.577173   7.963475  10.048480
    40  H    2.147980   9.524710  10.204466   8.174625  10.196772
    41  H    2.072808  10.616387  11.094857   9.282361  11.373283
    42  H    4.176080   9.580597  10.331920   8.211850   9.799855
    43  H    4.529760  10.331152  10.865712   8.977534  10.575022
    44  H   10.724062   2.151527   1.101965   2.605480   3.062771
    45  H   11.116256   2.153111   1.093837   2.691725   2.484284
                   26         27         28         29         30
    26  N    0.000000
    27  H    1.015044   0.000000
    28  H    1.013950   1.639134   0.000000
    29  H   13.444465  14.025367  13.938262   0.000000
    30  H   12.935685  13.438829  13.529043   1.634691   0.000000
    31  H   13.409411  13.607495  13.923164   6.715831   6.410976
    32  H   12.125786  12.405565  12.618422   5.647959   5.406289
    33  H    9.505857   9.970808  10.216387   5.084393   3.988417
    34  H    8.033486   8.189640   8.487610   8.436427   7.996317
    35  H    4.681208   5.144202   5.470405   9.295068   8.560030
    36  H    9.943336  10.522689  10.391302   3.701214   3.721175
    37  H    2.684034   2.491220   3.626401  12.154799  11.401019
    38  H   10.175467  10.296296  10.558609   8.669889   8.395621
    39  H   10.999143  11.264696  11.328914   7.484433   7.494545
    40  H   11.572550  11.653201  12.121370   7.847769   7.273861
    41  H   12.471558  12.570597  12.909565   8.553738   8.276186
    42  H   11.720775  12.155286  12.282150   2.913792   2.363262
    43  H   12.270409  12.800621  12.711821   2.370340   2.916963
    44  H    2.151557   2.440485   2.467212  12.195567  11.750982
    45  H    2.069508   2.923835   2.350768  11.590956  11.215327
                   31         32         33         34         35
    31  H    0.000000
    32  H    1.642758   0.000000
    33  H    7.901357   6.609643   0.000000
    34  H    5.582416   4.547696   6.672913   0.000000
    35  H   10.272813   8.905611   4.878917   6.032843   0.000000
    36  H    6.123834   4.528195   3.669695   5.270967   6.201764
    37  H   11.564096  10.416078   7.906283   6.423749   3.355823
    38  H    4.180461   3.621715   8.084313   2.271095   8.253948
    39  H    3.533267   2.702372   7.876420   3.281853   8.739316
    40  H    2.403237   2.485320   7.480298   3.745178   8.821029
    41  H    2.434525   2.912325   8.904168   4.453499  10.100503
    42  H    4.439821   3.183202   4.066923   5.805150   7.701380
    43  H    4.937710   3.628924   5.189207   6.417197   8.522637
    44  H   11.537943  10.293046   8.688347   6.047197   4.308753
    45  H   11.939252  10.547947   8.026174   6.734062   3.552914
                   36         37         38         39         40
    36  H    0.000000
    37  H    8.782731   0.000000
    38  H    6.124689   8.613026   0.000000
    39  H    5.262669   9.630517   1.791355   0.000000
    40  H    6.171504   9.598622   2.556523   3.039779   0.000000
    41  H    6.983815  10.718295   2.426509   2.529223   1.779841
    42  H    2.535476  10.107984   6.037484   5.168110   5.064115
    43  H    2.441177  10.970790   6.434916   5.147003   5.930852
    44  H    8.562847   2.483637   8.113886   8.966177   9.685361
    45  H    8.056521   3.049536   8.883084   9.455935  10.318443
                   41         42         43         44         45
    41  H    0.000000
    42  H    6.023347   0.000000
    43  H    6.445274   1.773796   0.000000
    44  H   10.456913  10.259336  10.754738   0.000000
    45  H   11.166782  10.005299  10.401340   1.775629   0.000000
 Stoichiometry    C15H24N6
 Framework group  C1[X(C15H24N6)]
 Deg. of freedom   129
 Full point group                 C1      NOp   1
 Largest Abelian subgroup         C1      NOp   1
 Largest concise Abelian subgroup C1      NOp   1
                         Standard orientation:                         
 ---------------------------------------------------------------------
 Center     Atomic      Atomic             Coordinates (Angstroms)
 Number     Number       Type             X           Y           Z
 ---------------------------------------------------------------------
      1          6           0       -0.362819   -1.562710   -0.526628
      2          6           0       -1.197398   -2.767940   -0.690230
      3          6           0       -0.903432   -0.302319   -0.308054
      4          6           0       -0.076975    0.811984   -0.147728
      5          1           0       -1.969269   -0.143988   -0.288084
      6          6           0        1.301014    0.657176   -0.216111
      7          6           0        1.859924   -0.598769   -0.451559
      8          1           0        1.966024    1.498330   -0.094902
      9          6           0        1.022733   -1.698111   -0.611316
     10          6           0        3.304506   -0.761935   -0.535623
     11          1           0        1.449932   -2.675435   -0.791076
     12          6           0       -0.662619    2.123707    0.093623
     13          6           0       -4.145143   -1.868807    0.636351
     14          6           0       -2.774669   -2.449516    1.060460
     15          7           0       -5.119240   -2.854130    0.227090
     16          7           0       -2.199208   -3.163501   -0.037747
     17          1           0       -2.947504   -3.189809    1.850267
     18          6           0       -2.462851    3.564592    0.486649
     19          6           0       -3.618815    3.798877   -0.491121
     20          7           0       -1.904068    2.272034    0.254334
     21          7           0       -4.725149    2.927197   -0.140704
     22          6           0        5.502339    0.020284   -0.474664
     23          6           0        6.150440    0.439590    0.850437
     24          7           0        4.091162    0.214037   -0.399505
     25          1           0        5.787323   -1.018634   -0.704765
     26          7           0        7.590879    0.276414    0.760925
     27          1           0        7.972727    0.906549    0.062758
     28          1           0        8.025831    0.498722    1.649458
     29          1           0       -5.311706   -3.495106    0.990220
     30          1           0       -4.742246   -3.402641   -0.539283
     31          1           0       -5.447545    2.961754   -0.851762
     32          1           0       -4.386119    1.972447   -0.081501
     33          1           0       -0.865500   -3.445059   -1.475504
     34          1           0        0.046442    2.965322    0.137919
     35          1           0        3.661562   -1.785865   -0.729439
     36          1           0       -2.140012   -1.645585    1.457783
     37          1           0        5.880207    0.673442   -1.268856
     38          1           0       -1.716853    4.372320    0.400634
     39          1           0       -2.879262    3.564743    1.498622
     40          1           0       -3.242695    3.647330   -1.518222
     41          1           0       -3.959075    4.835282   -0.403141
     42          1           0       -3.998341   -1.184657   -0.204384
     43          1           0       -4.556710   -1.301186    1.475198
     44          1           0        5.828246    1.467204    1.083950
     45          1           0        5.786496   -0.216458    1.646443
 ---------------------------------------------------------------------
 Rotational constants (GHZ):           0.3657374           0.1263789           0.0974064
 Leave Link  202 at Mon Nov 15 21:24:04 2021, MaxMem=  7864320000 cpu:               0.3 elap:               0.0
 (Enter /apps/gaussian/g16-c01-avx/g16/l301.exe)
 Standard basis: Aug-CC-pVDZ (5D, 7F)
 Ernie: Thresh=  0.10000D-02 Tol=  0.10000D-05 Strict=F.
 Ernie:  42 primitive shells out of 693 were deleted.
 There are   741 symmetry adapted cartesian basis functions of A   symmetry.
 There are   699 symmetry adapted basis functions of A   symmetry.
   699 basis functions,  1167 primitive gaussians,   741 cartesian basis functions
    78 alpha electrons       78 beta electrons
       nuclear repulsion energy      1563.4281750939 Hartrees.
 IExCor=    0 DFT=F Ex=HF Corr=None ExCW=0 ScaHFX=  1.000000
 ScaDFX=  1.000000  1.000000  1.000000  1.000000 ScalE2=  1.000000  1.000000
 IRadAn=      7 IRanWt=     -1 IRanGd=            0 ICorTp=0 IEmpDi=  4
 NAtoms=   45 NActive=   45 NUniq=   45 SFac= 1.00D+00 NAtFMM=   60 NAOKFM=F Big=F
 Integral buffers will be    131072 words long.
 Raffenetti 1 integral format.
 Two-electron integral symmetry is turned on.
 ------------------------------------------------------------------------------
 Polarizable Continuum Model (PCM)
 =================================
 Model                : PCM.
 Atomic radii         : UFF (Universal Force Field).
 Polarization charges : Total charges.
 Charge compensation  : None.
 Solution method      : On-the-fly selection.
 Cavity type          : Scaled VdW (van der Waals Surface) (Alpha=1.100).
 Cavity algorithm     : GePol (No added spheres)
                        Default sphere list used, NSphG=   45.
                        Lebedev-Laikov grids with approx.  5.0 points / Ang**2.
                        Smoothing algorithm: York/Karplus (Gamma=1.0000).
                        Polarization charges: spherical gaussians, with
                                              point-specific exponents (IZeta= 3).
                        Self-potential: point-specific (ISelfS= 7).
                        Self-field    : sphere-specific E.n sum rule (ISelfD= 2).
 Solvent              : Dichloromethane, Eps=   8.930000 Eps(inf)=   2.028346
 ------------------------------------------------------------------------------
 GePol: Number of generator spheres                  =      45
 GePol: Total number of spheres                      =      45
 GePol: Number of exposed spheres                    =      45 (100.00%)
 GePol: Number of points                             =    3268
 GePol: Average weight of points                     =       0.13
 GePol: Minimum weight of points                     =   0.20D-11
 GePol: Maximum weight of points                     =    0.20577
 GePol: Number of points with low weight             =     212
 GePol: Fraction of low-weight points (<1% of avg)   =       6.49%
 GePol: Cavity surface area                          =    426.834 Ang**2
 GePol: Cavity volume                                =    445.800 Ang**3
 Leave Link  301 at Mon Nov 15 21:24:05 2021, MaxMem=  7864320000 cpu:               3.0 elap:               0.1
 (Enter /apps/gaussian/g16-c01-avx/g16/l302.exe)
 NPDir=0 NMtPBC=     1 NCelOv=     1 NCel=       1 NClECP=     1 NCelD=      1
         NCelK=      1 NCelE2=     1 NClLst=     1 CellRange=     0.0.
 One-electron integrals computed using PRISM.
 One-electron integral symmetry used in STVInt
 NBasis=   699 RedAO= T EigKep=  1.02D-06  NBF=   699
 NBsUse=   698 1.00D-06 EigRej=  4.16D-07 NBFU=   698
 Leave Link  302 at Mon Nov 15 21:24:06 2021, MaxMem=  7864320000 cpu:              22.7 elap:               0.7
 (Enter /apps/gaussian/g16-c01-avx/g16/l303.exe)
 DipDrv:  MaxL=1.
 Leave Link  303 at Mon Nov 15 21:24:06 2021, MaxMem=  7864320000 cpu:               3.9 elap:               0.2
 (Enter /apps/gaussian/g16-c01-avx/g16/l401.exe)
 ExpMin= 2.97D-02 ExpMax= 9.05D+03 ExpMxC= 3.09D+02 IAcc=3 IRadAn=         7 AccDes= 0.00D+00
 Harris functional with IExCor=  205 and IRadAn=       7 diagonalized for initial guess.
 HarFok:  IExCor=  205 AccDes= 0.00D+00 IRadAn=         7 IDoV= 1 UseB2=F ITyADJ=14
 ICtDFT=  3500011 ScaDFX=  1.000000  1.000000  1.000000  1.000000
 FoFCou: FMM=F IPFlag=           0 FMFlag=      100000 FMFlg1=           0
         NFxFlg=           0 DoJE=T BraDBF=F KetDBF=T FulRan=T
         wScrn=  0.000000 ICntrl=       500 IOpCl=  0 I1Cent=   200000004 NGrid=           0
         NMat0=    1 NMatS0=      1 NMatT0=    0 NMatD0=    1 NMtDS0=    0 NMtDT0=    0
 Petite list used in FoFCou.
 Harris En= -910.020799281673    
 JPrj=0 DoOrth=F DoCkMO=F.
 Leave Link  401 at Mon Nov 15 21:24:11 2021, MaxMem=  7864320000 cpu:             141.5 elap:               4.5
 (Enter /apps/gaussian/g16-c01-avx/g16/l508.exe)
 Integral symmetry usage will be decided dynamically.
 Tight linear equation convergence will be used.
 RHF wavefunction.
 Linear searches until partial convergence.
 Full line searches.
 Fock matrices will be formed incrementally for  20 cycles.
 Inv3:  Mode=1 IEnd=    32039472.
 Iteration    1 A*A^-1 deviation from unit magnitude is 3.77D-15 for   3258.
 Iteration    1 A*A^-1 deviation from orthogonality  is 2.93D-15 for   3262   3027.
 Iteration    1 A^-1*A deviation from unit magnitude is 3.55D-15 for   3236.
 Iteration    1 A^-1*A deviation from orthogonality  is 2.64D-14 for   2397   2373.
 FoFJK:  IHMeth= 1 ICntrl=       0 DoSepK=F KAlg= 0 I1Cent=           0 FoldK=F
 IRaf= 860000000 NMat=       1 IRICut=       1 DoRegI=T DoRafI=F ISym2E= 1 IDoP0=0 IntGTp=1.
 Iteration   1 EE= -907.975205520953                                    Grad=1.420D+00 Max rot=    2.1857 deg.
 Gradient too large for Newton-Raphson -- use scaled steepest descent instead.
 Alpha Gap=     0.463 HL deriv= 4.24D-03
     ILin= 1 X=0.000D+00 Y=-9.079752055210D+02 DE= 0.00D+00 F= -2.39D+00
 RMSU=  9.16D-03    CP:  7.97D-01
     ILin= 2 X=3.000D-01 Y=-9.085166247504D+02 DE=-5.41D-01 F= -1.21D+00 OKLS=F
 RMSU=  1.74D-03    CP:  6.85D-01  1.47D+00
     ILin= 3 X=5.000D-01 Y=-9.086797689356D+02 DE=-7.05D-01 F= -4.17D-01
 RMSU=  4.16D-03    CP:  5.22D-01  1.93D+00  3.00D+00
     ILin= 4 X=9.000D-01 Y=-9.085269432439D+02 DE=-5.52D-01 F=  1.18D+00
     An  expanding polynomial of degree  4 produced  0.6048
 RMSU=  3.60D-06    CP:  6.35D-01  1.65D+00  1.84D+00  8.10D-06
 Iteration   2 EE= -908.701538503761     Delta-E=       -0.726332982807 Grad=4.759D-01 Max rot=    0.9917 deg.
 Gradient too large for Newton-Raphson -- use scaled steepest descent instead.
 Alpha Gap=     0.480 HL deriv= 7.70D-04
     ILin= 1 X=0.000D+00 Y=-9.087015385038D+02 DE= 0.00D+00 F= -1.28D-01
 RMSU=  2.04D-03    CP:  5.66D-01  1.67D+00  2.77D+00 -6.36D-04 -3.00D+00
     ILin= 2 X=4.000D-01 Y=-9.087396956604D+02 DE=-3.82D-02 F= -6.32D-02 OKLS=F
 RMSU=  4.24D-04    CP:  4.95D-01  1.64D+00  3.00D+00  5.33D-01 -3.00D+00
                    CP:  2.09D+00
     ILin= 3 X=9.000D-01 Y=-9.087512207192D+02 DE=-4.97D-02 F=  1.70D-02
     Accept linear search using points  2 and  3.
     An  expanding polynomial of degree  3 produced  0.6915
 RMSU=  2.91D-06    CP:  5.23D-01  1.66D+00  3.00D+00  2.51D-01 -3.00D+00
                    CP:  1.66D+00  4.48D-01
 Iteration   3 EE= -908.751284015169     Delta-E=       -0.049745511408 Grad=1.661D-01 Max rot=    0.3276 deg.
 Gradient too large for Newton-Raphson -- use scaled steepest descent instead.
 Alpha Gap=     0.471 HL deriv= 5.72D-04
     ILin= 1 X=0.000D+00 Y=-9.087512840152D+02 DE= 0.00D+00 F= -1.73D-02
 RMSU=  6.52D-04    CP:  4.95D-01  1.63D+00  3.00D+00  5.67D-01 -3.00D+00
                    CP:  2.10D+00  1.10D+00  1.11D+00
     ILin= 2 X=6.000D-01 Y=-9.087581632870D+02 DE=-6.88D-03 F= -5.64D-03 OKLS=F
 RMSU=  8.00D-05    CP:  4.65D-01  1.59D+00  3.00D+00  9.69D-01 -3.00D+00
                    CP:  2.57D+00  2.09D+00 -2.69D+00  2.11D+00
     ILin= 3 X=1.300D+00 Y=-9.087573532330D+02 DE=-6.07D-03 F=  7.96D-03
     An  expanding polynomial of degree  3 produced  0.8904
 RMSU=  8.99D-09    CP:  4.82D-01  1.62D+00  3.00D+00  7.29D-01 -3.00D+00
                    CP:  2.30D+00  1.48D+00  4.72D-02  1.47D+00  2.84D-01
 Iteration   4 EE= -908.758982434310     Delta-E=       -0.007698419141 Grad=5.140D-02 Max rot=    0.1886 deg.
 Gradient too large for Newton-Raphson -- use scaled steepest descent instead.
 Alpha Gap=     0.480 HL deriv= 3.80D-04
     ILin= 1 X=0.000D+00 Y=-9.087589824343D+02 DE= 0.00D+00 F= -3.56D-03
 RMSU=  2.73D-04    CP:  4.71D-01  1.60D+00  3.00D+00  7.83D-01 -3.00D+00
                    CP:  2.51D+00  1.77D+00  6.53D-01  1.51D+00  1.07D+00
                    CP:  3.00D+00
     ILin= 2 X=8.000D-01 Y=-9.087600627640D+02 DE=-1.08D-03 F=  8.55D-04 OKLS=T
     Accept linear search using points  1 and  2.
     An  expanding polynomial of degree  2 produced  0.5895
 RMSU=  1.16D-06    CP:  4.74D-01  1.61D+00  3.00D+00  7.69D-01 -3.00D+00
                    CP:  2.46D+00  1.69D+00  5.42D-01  1.50D+00  8.59D-01
                    CP:  3.00D+00  7.38D-01
 Iteration   5 EE= -908.760120646228     Delta-E=       -0.001138211919 Grad=1.854D-02 Max rot=    0.0893 deg.
 Gradient too large for Newton-Raphson -- use scaled steepest descent instead.
 Alpha Gap=     0.477 HL deriv= 2.82D-04
     ILin= 1 X=0.000D+00 Y=-9.087601206462D+02 DE= 0.00D+00 F= -4.45D-04
 RMSU=  4.98D-05    CP:  4.70D-01  1.60D+00  3.00D+00  7.98D-01 -3.00D+00
                    CP:  2.53D+00  1.82D+00  1.55D+00  1.72D+00  1.25D+00
                    CP:  3.00D+00  1.05D+00 -3.00D+00
     ILin= 2 X=7.000D-01 Y=-9.087603414873D+02 DE=-2.21D-04 F= -1.86D-04 OKLS=F
 RMSU=  6.36D-06    CP:  4.67D-01  1.59D+00  3.00D+00  8.28D-01 -3.00D+00
                    CP:  2.60D+00  1.96D+00  2.47D+00  1.93D+00  1.67D+00
                    CP:  3.00D+00  1.35D+00 -3.00D+00  2.00D+00
     ILin= 3 X=1.400D+00 Y=-9.087603811901D+02 DE=-2.61D-04 F=  7.27D-05
     Accept linear search using points  2 and  3.
     An  expanding polynomial of degree  3 produced  1.1400
 RMSU=  1.24D-07    CP:  4.68D-01  1.59D+00  3.00D+00  8.17D-01 -3.00D+00
                    CP:  2.57D+00  1.91D+00  2.14D+00  1.85D+00  1.51D+00
                    CP:  3.00D+00  1.24D+00 -3.00D+00  1.63D+00  5.95D-01
 Iteration   6 EE= -908.760387598762     Delta-E=       -0.000266952533 Grad=8.170D-03 Max rot=    0.0453 deg.
 SCF Done:  E(RHF) =  -908.760387599     a.u. after    6 cycles
            Convg  =    0.8170D-02                    16 Fock formations.
              S**2 =  0.0000                  -V/T =  2.0006
 Leave Link  508 at Mon Nov 15 21:28:51 2021, MaxMem=  7864320000 cpu:            8759.1 elap:             278.7
 (Enter /apps/gaussian/g16-c01-avx/g16/l502.exe)
 Integral symmetry usage will be decided dynamically.
 Closed shell SCF:
 Using DIIS extrapolation, IDIIS=  1040.
 NGot=  7864320000 LenX=  7863190076 LenY=  7862640254
 Requested convergence on RMS density matrix=1.00D-08 within 128 cycles.
 Requested convergence on MAX density matrix=1.00D-06.
 Requested convergence on             energy=1.00D-06.
 No special actions if energy rises.
 Fock matrices will be formed incrementally for  20 cycles.

 Cycle   1  Pass 1  IDiag  1:
 FoFJK:  IHMeth= 1 ICntrl=       0 DoSepK=F KAlg= 0 I1Cent=           0 FoldK=F
 IRaf= 860000000 NMat=       1 IRICut=       1 DoRegI=T DoRafI=F ISym2E= 0 IDoP0=0 IntGTp=1.
 FoFCou: FMM=F IPFlag=           0 FMFlag=      100000 FMFlg1=           0
         NFxFlg=           0 DoJE=F BraDBF=F KetDBF=F FulRan=T
         wScrn=  0.000000 ICntrl=         0 IOpCl=  0 I1Cent=           0 NGrid=           0
         NMat0=    1 NMatS0=      1 NMatT0=    0 NMatD0=    1 NMtDS0=    0 NMtDT0=    0
 Symmetry not used in FoFCou.
 E= -908.760387599393    
 DIIS: error= 1.10D-04 at cycle   1 NSaved=   1.
 NSaved= 1 IEnMin= 1 EnMin= -908.760387599393     IErMin= 1 ErrMin= 1.10D-04
 ErrMax= 1.10D-04  0.00D+00 EMaxC= 1.00D-01 BMatC= 3.34D-05 BMatP= 3.34D-05
 IDIUse=3 WtCom= 9.99D-01 WtEn= 1.10D-03
 Coeff-Com:  0.100D+01
 Coeff-En:   0.100D+01
 Coeff:      0.100D+01
 Gap=     0.479 Goal=   None    Shift=    0.000
 RMSDP=1.44D-04 MaxDP=2.81D-02              OVMax= 2.11D-03

 Cycle   2  Pass 1  IDiag  1:
 RMSU=  1.14D-04    CP:  9.98D-01
 E= -908.760425438071     Delta-E=       -0.000037838678 Rises=F Damp=F
 DIIS: error= 6.94D-05 at cycle   2 NSaved=   2.
 NSaved= 2 IEnMin= 2 EnMin= -908.760425438071     IErMin= 2 ErrMin= 6.94D-05
 ErrMax= 6.94D-05  0.00D+00 EMaxC= 1.00D-01 BMatC= 1.41D-05 BMatP= 3.34D-05
 IDIUse=1 WtCom= 1.00D+00 WtEn= 0.00D+00
 Coeff-Com:  0.376D+00 0.624D+00
 Coeff:      0.376D+00 0.624D+00
 Gap=     0.363 Goal=   None    Shift=    0.000
 RMSDP=2.91D-05 MaxDP=2.98D-03 DE=-3.78D-05 OVMax= 7.88D-04

 Cycle   3  Pass 1  IDiag  1:
 RMSU=  2.81D-05    CP:  9.98D-01  1.02D+00
 E= -908.760439630719     Delta-E=       -0.000014192647 Rises=F Damp=F
 DIIS: error= 2.86D-05 at cycle   3 NSaved=   3.
 NSaved= 3 IEnMin= 3 EnMin= -908.760439630719     IErMin= 3 ErrMin= 2.86D-05
 ErrMax= 2.86D-05  0.00D+00 EMaxC= 1.00D-01 BMatC= 7.25D-07 BMatP= 1.41D-05
 IDIUse=1 WtCom= 1.00D+00 WtEn= 0.00D+00
 Coeff-Com: -0.184D+00-0.198D+00 0.138D+01
 Coeff:     -0.184D+00-0.198D+00 0.138D+01
 Gap=     0.363 Goal=   None    Shift=    0.000
 RMSDP=2.89D-05 MaxDP=3.30D-03 DE=-1.42D-05 OVMax= 1.20D-03

 Cycle   4  Pass 1  IDiag  1:
 RMSU=  1.63D-05    CP:  9.98D-01  1.17D+00  1.52D+00
 E= -908.760443423125     Delta-E=       -0.000003792406 Rises=F Damp=F
 DIIS: error= 1.04D-05 at cycle   4 NSaved=   4.
 NSaved= 4 IEnMin= 4 EnMin= -908.760443423125     IErMin= 4 ErrMin= 1.04D-05
 ErrMax= 1.04D-05  0.00D+00 EMaxC= 1.00D-01 BMatC= 2.17D-07 BMatP= 7.25D-07
 IDIUse=1 WtCom= 1.00D+00 WtEn= 0.00D+00
 Coeff-Com: -0.970D-01-0.141D+00 0.368D+00 0.871D+00
 Coeff:     -0.970D-01-0.141D+00 0.368D+00 0.871D+00
 Gap=     0.363 Goal=   None    Shift=    0.000
 RMSDP=1.13D-05 MaxDP=9.58D-04 DE=-3.79D-06 OVMax= 4.77D-04

 Cycle   5  Pass 1  IDiag  1:
 RMSU=  4.85D-06    CP:  9.98D-01  1.20D+00  1.73D+00  1.46D+00
 E= -908.760444207000     Delta-E=       -0.000000783876 Rises=F Damp=F
 DIIS: error= 6.36D-06 at cycle   5 NSaved=   5.
 NSaved= 5 IEnMin= 5 EnMin= -908.760444207000     IErMin= 5 ErrMin= 6.36D-06
 ErrMax= 6.36D-06  0.00D+00 EMaxC= 1.00D-01 BMatC= 5.29D-08 BMatP= 2.17D-07
 IDIUse=1 WtCom= 1.00D+00 WtEn= 0.00D+00
 Coeff-Com:  0.102D+00 0.116D+00-0.583D+00-0.381D+00 0.175D+01
 Coeff:      0.102D+00 0.116D+00-0.583D+00-0.381D+00 0.175D+01
 Gap=     0.363 Goal=   None    Shift=    0.000
 RMSDP=1.33D-05 MaxDP=9.39D-04 DE=-7.84D-07 OVMax= 5.58D-04

 Cycle   6  Pass 1  IDiag  1:
 RMSU=  2.87D-06    CP:  9.98D-01  1.22D+00  1.87D+00  2.09D+00  2.24D+00
 E= -908.760444622898     Delta-E=       -0.000000415898 Rises=F Damp=F
 DIIS: error= 1.61D-06 at cycle   6 NSaved=   6.
 NSaved= 6 IEnMin= 6 EnMin= -908.760444622898     IErMin= 6 ErrMin= 1.61D-06
 ErrMax= 1.61D-06  0.00D+00 EMaxC= 1.00D-01 BMatC= 4.95D-09 BMatP= 5.29D-08
 IDIUse=1 WtCom= 1.00D+00 WtEn= 0.00D+00
 Coeff-Com: -0.255D-01-0.277D-01 0.180D+00-0.396D-02-0.654D+00 0.153D+01
 Coeff:     -0.255D-01-0.277D-01 0.180D+00-0.396D-02-0.654D+00 0.153D+01
 Gap=     0.363 Goal=   None    Shift=    0.000
 RMSDP=4.40D-06 MaxDP=2.75D-04 DE=-4.16D-07 OVMax= 1.80D-04

 Cycle   7  Pass 1  IDiag  1:
 RMSU=  9.70D-07    CP:  9.98D-01  1.24D+00  1.92D+00  2.24D+00  2.76D+00
                    CP:  1.48D+00
 E= -908.760444660003     Delta-E=       -0.000000037105 Rises=F Damp=F
 DIIS: error= 3.91D-07 at cycle   7 NSaved=   7.
 NSaved= 7 IEnMin= 7 EnMin= -908.760444660003     IErMin= 7 ErrMin= 3.91D-07
 ErrMax= 3.91D-07  0.00D+00 EMaxC= 1.00D-01 BMatC= 3.55D-10 BMatP= 4.95D-09
 IDIUse=1 WtCom= 1.00D+00 WtEn= 0.00D+00
 Coeff-Com: -0.101D-01-0.117D-01 0.648D-01 0.162D-01-0.202D+00 0.239D+00
 Coeff-Com:  0.904D+00
 Coeff:     -0.101D-01-0.117D-01 0.648D-01 0.162D-01-0.202D+00 0.239D+00
 Coeff:      0.904D+00
 Gap=     0.363 Goal=   None    Shift=    0.000
 RMSDP=6.08D-07 MaxDP=5.90D-05 DE=-3.71D-08 OVMax= 2.41D-05

 Cycle   8  Pass 1  IDiag  1:
 RMSU=  3.49D-07    CP:  9.98D-01  1.24D+00  1.92D+00  2.26D+00  2.80D+00
                    CP:  1.53D+00  1.14D+00
 E= -908.760444661149     Delta-E=       -0.000000001145 Rises=F Damp=F
 DIIS: error= 2.84D-07 at cycle   8 NSaved=   8.
 NSaved= 8 IEnMin= 8 EnMin= -908.760444661149     IErMin= 8 ErrMin= 2.84D-07
 ErrMax= 2.84D-07  0.00D+00 EMaxC= 1.00D-01 BMatC= 7.30D-11 BMatP= 3.55D-10
 IDIUse=1 WtCom= 1.00D+00 WtEn= 0.00D+00
 Coeff-Com:  0.342D-02 0.336D-02-0.242D-01-0.631D-03 0.999D-01-0.256D+00
 Coeff-Com:  0.117D+00 0.106D+01
 Coeff:      0.342D-02 0.336D-02-0.242D-01-0.631D-03 0.999D-01-0.256D+00
 Coeff:      0.117D+00 0.106D+01
 Gap=     0.363 Goal=   None    Shift=    0.000
 RMSDP=2.49D-07 MaxDP=2.76D-05 DE=-1.15D-09 OVMax= 1.07D-05

 Cycle   9  Pass 1  IDiag  1:
 RMSU=  1.16D-07    CP:  9.98D-01  1.24D+00  1.92D+00  2.26D+00  2.82D+00
                    CP:  1.53D+00  1.30D+00  1.06D+00
 E= -908.760444661428     Delta-E=       -0.000000000280 Rises=F Damp=F
 DIIS: error= 1.20D-07 at cycle   9 NSaved=   9.
 NSaved= 9 IEnMin= 9 EnMin= -908.760444661428     IErMin= 9 ErrMin= 1.20D-07
 ErrMax= 1.20D-07  0.00D+00 EMaxC= 1.00D-01 BMatC= 1.37D-11 BMatP= 7.30D-11
 IDIUse=1 WtCom= 1.00D+00 WtEn= 0.00D+00
 Coeff-Com:  0.163D-02 0.173D-02-0.103D-01-0.344D-02 0.357D-01-0.536D-01
 Coeff-Com: -0.123D+00 0.962D-01 0.105D+01
 Coeff:      0.163D-02 0.173D-02-0.103D-01-0.344D-02 0.357D-01-0.536D-01
 Coeff:     -0.123D+00 0.962D-01 0.105D+01
 Gap=     0.363 Goal=   None    Shift=    0.000
 RMSDP=1.03D-07 MaxDP=1.04D-05 DE=-2.80D-10 OVMax= 5.49D-06

 Cycle  10  Pass 1  IDiag  1:
 RMSU=  4.18D-08    CP:  9.98D-01  1.24D+00  1.93D+00  2.27D+00  2.82D+00
                    CP:  1.54D+00  1.32D+00  1.15D+00  1.32D+00
 E= -908.760444661512     Delta-E=       -0.000000000083 Rises=F Damp=F
 DIIS: error= 4.84D-08 at cycle  10 NSaved=  10.
 NSaved=10 IEnMin=10 EnMin= -908.760444661512     IErMin=10 ErrMin= 4.84D-08
 ErrMax= 4.84D-08  0.00D+00 EMaxC= 1.00D-01 BMatC= 2.73D-12 BMatP= 1.37D-11
 IDIUse=1 WtCom= 1.00D+00 WtEn= 0.00D+00
 Coeff-Com: -0.906D-03-0.942D-03 0.670D-02-0.127D-03-0.259D-01 0.683D-01
 Coeff-Com: -0.351D-01-0.262D+00-0.109D-01 0.126D+01
 Coeff:     -0.906D-03-0.942D-03 0.670D-02-0.127D-03-0.259D-01 0.683D-01
 Coeff:     -0.351D-01-0.262D+00-0.109D-01 0.126D+01
 Gap=     0.363 Goal=   None    Shift=    0.000
 RMSDP=4.51D-08 MaxDP=4.71D-06 DE=-8.32D-11 OVMax= 3.46D-06

 Cycle  11  Pass 1  IDiag  1:
 RMSU=  2.22D-08    CP:  9.98D-01  1.24D+00  1.93D+00  2.27D+00  2.82D+00
                    CP:  1.54D+00  1.32D+00  1.17D+00  1.55D+00  1.46D+00
 E= -908.760444661574     Delta-E=       -0.000000000062 Rises=F Damp=F
 DIIS: error= 1.64D-08 at cycle  11 NSaved=  11.
 NSaved=11 IEnMin=11 EnMin= -908.760444661574     IErMin=11 ErrMin= 1.64D-08
 ErrMax= 1.64D-08  0.00D+00 EMaxC= 1.00D-01 BMatC= 3.68D-13 BMatP= 2.73D-12
 IDIUse=1 WtCom= 1.00D+00 WtEn= 0.00D+00
 Coeff-Com: -0.211D-03-0.234D-03 0.132D-02 0.472D-03-0.423D-02 0.523D-02
 Coeff-Com:  0.206D-01 0.141D-02-0.169D+00-0.498D-01 0.119D+01
 Coeff:     -0.211D-03-0.234D-03 0.132D-02 0.472D-03-0.423D-02 0.523D-02
 Coeff:      0.206D-01 0.141D-02-0.169D+00-0.498D-01 0.119D+01
 Gap=     0.363 Goal=   None    Shift=    0.000
 RMSDP=1.56D-08 MaxDP=1.30D-06 DE=-6.21D-11 OVMax= 1.19D-06

 Cycle  12  Pass 1  IDiag  1:
 RMSU=  7.87D-09    CP:  9.98D-01  1.24D+00  1.93D+00  2.27D+00  2.82D+00
                    CP:  1.54D+00  1.32D+00  1.16D+00  1.58D+00  1.65D+00
                    CP:  1.35D+00
 E= -908.760444661435     Delta-E=        0.000000000139 Rises=F Damp=F
 DIIS: error= 4.53D-09 at cycle  12 NSaved=  12.
 NSaved=12 IEnMin=11 EnMin= -908.760444661574     IErMin=12 ErrMin= 4.53D-09
 ErrMax= 4.53D-09  0.00D+00 EMaxC= 1.00D-01 BMatC= 5.53D-14 BMatP= 3.68D-13
 IDIUse=1 WtCom= 1.00D+00 WtEn= 0.00D+00
 Coeff-Com:  0.109D-03 0.114D-03-0.847D-03 0.956D-04 0.335D-02-0.992D-02
 Coeff-Com:  0.872D-02 0.411D-01-0.259D-01-0.198D+00 0.183D+00 0.998D+00
 Coeff:      0.109D-03 0.114D-03-0.847D-03 0.956D-04 0.335D-02-0.992D-02
 Coeff:      0.872D-02 0.411D-01-0.259D-01-0.198D+00 0.183D+00 0.998D+00
 Gap=     0.363 Goal=   None    Shift=    0.000
 RMSDP=5.75D-09 MaxDP=7.35D-07 DE= 1.39D-10 OVMax= 3.66D-07

 Error on total polarization charges =  0.02003
 SCF Done:  E(RHF) =  -908.760444661     A.U. after   12 cycles
            NFock= 12  Conv=0.58D-08     -V/T= 2.0006
 KE= 9.082160865478D+02 PE=-5.247988007132D+03 EE= 1.867583300829D+03
 Leave Link  502 at Mon Nov 15 21:32:07 2021, MaxMem=  7864320000 cpu:            6191.1 elap:             195.9
 (Enter /apps/gaussian/g16-c01-avx/g16/l508.exe)
 QCSCF skips out because SCF is already converged.
 Leave Link  508 at Mon Nov 15 21:32:07 2021, MaxMem=  7864320000 cpu:               0.0 elap:               0.0
 (Enter /apps/gaussian/g16-c01-avx/g16/l801.exe)
 ExpMin= 2.97D-02 ExpMax= 9.05D+03 ExpMxC= 3.09D+02 IAcc=3 IRadAn=         7 AccDes= 0.00D+00
 HarFok:  IExCor=  205 AccDes= 0.00D+00 IRadAn=         7 IDoV=-2 UseB2=F ITyADJ=14
 ICtDFT= 12500011 ScaDFX=  1.000000  1.000000  1.000000  1.000000
 GSVD:  LWork=        -609 too small for GESVD, short by        2520 words or        2520 for optimal perf.
 Largest valence mixing into a core orbital is  1.17D-04
 Largest core mixing into a valence orbital is  4.13D-05
 Range of M.O.s used for correlation:    22   698
 NBasis=   699 NAE=    78 NBE=    78 NFC=    21 NFV=     0
 NROrb=    677 NOA=    57 NOB=    57 NVA=   620 NVB=   620

 **** Warning!!: The largest alpha MO coefficient is  0.20648582D+03

 Leave Link  801 at Mon Nov 15 21:32:08 2021, MaxMem=  7864320000 cpu:               7.6 elap:               0.3
 (Enter /apps/gaussian/g16-c01-avx/g16/l906.exe)
 FulOut=F Deriv=F AODrv=F NAtomX=    45
   MMem=           9  MDisk=          57 MDiskD=          57
  W3Min=    26186940 MinDsk=    26628359 NBas6D=         741
 NBas2D=      275874    NTT=      274911    LW2=     2000000
    MDV=  7861268280 MDiskM=      147309 NBas2p=      223127
 Disk-based method using OVN memory for 57 occupieds at a time.
 Estimated scratch disk usage= 27790274524 words.
 IMap=   1   2   3   4   5   6   7   8   9  10  11  12  13  14  15  16  17  18  19  20
 IMap=  21  22  23  24  25  26  27  28  29  30  31  32  33  34  35  36  37  38  39  40
 IMap=  41  42  43  44  45  46  47  48  49  50  51  52  53  54  55  56  57
 Actual    scratch disk usage= 23657868036 words.
 JobTyp=1 Pass  1:  I=   1 to  57 NPSUse= 32 ParTrn=T ParDer=T DoDerP=F.
 Spin components of T(2) and E(2):
     alpha-alpha T2 =       0.1484709233D+00 E2=     -0.4065536109D+00
     alpha-beta  T2 =       0.8026251362D+00 E2=     -0.2331683331D+01
     beta-beta   T2 =       0.1484709233D+00 E2=     -0.4065536109D+00
 The integrals were generated   1 times.
 ANorm=    0.1448988262D+01
 E2 =    -0.3144790553D+01 EUMP2 =    -0.91190523521416D+03
 Leave Link  906 at Mon Nov 15 21:44:07 2021, MaxMem=  7864320000 cpu:           22746.8 elap:             718.7
 (Enter /apps/gaussian/g16-c01-avx/g16/l601.exe)
 Copying SCF densities to generalized density rwf, IOpCl= 0 IROHF=0.

 **********************************************************************

            Population analysis using the SCF Density.

 **********************************************************************

 Orbital symmetries:
       Occupied  (A) (A) (A) (A) (A) (A) (A) (A) (A) (A) (A) (A)
                 (A) (A) (A) (A) (A) (A) (A) (A) (A) (A) (A) (A)
                 (A) (A) (A) (A) (A) (A) (A) (A) (A) (A) (A) (A)
                 (A) (A) (A) (A) (A) (A) (A) (A) (A) (A) (A) (A)
                 (A) (A) (A) (A) (A) (A) (A) (A) (A) (A) (A) (A)
                 (A) (A) (A) (A) (A) (A) (A) (A) (A) (A) (A) (A)
                 (A) (A) (A) (A) (A) (A)
       Virtual   (A) (A) (A) (A) (A) (A) (A) (A) (A) (A) (A) (A)
                 (A) (A) (A) (A) (A) (A) (A) (A) (A) (A) (A) (A)
                 (A) (A) (A) (A) (A) (A) (A) (A) (A) (A) (A) (A)
                 (A) (A) (A) (A) (A) (A) (A) (A) (A) (A) (A) (A)
                 (A) (A) (A) (A) (A) (A) (A) (A) (A) (A) (A) (A)
                 (A) (A) (A) (A) (A) (A) (A) (A) (A) (A) (A) (A)
                 (A) (A) (A) (A) (A) (A) (A) (A) (A) (A) (A) (A)
                 (A) (A) (A) (A) (A) (A) (A) (A) (A) (A) (A) (A)
                 (A) (A) (A) (A) (A) (A) (A) (A) (A) (A) (A) (A)
                 (A) (A) (A) (A) (A) (A) (A) (A) (A) (A) (A) (A)
                 (A) (A) (A) (A) (A) (A) (A) (A) (A) (A) (A) (A)
                 (A) (A) (A) (A) (A) (A) (A) (A) (A) (A) (A) (A)
                 (A) (A) (A) (A) (A) (A) (A) (A) (A) (A) (A) (A)
                 (A) (A) (A) (A) (A) (A) (A) (A) (A) (A) (A) (A)
                 (A) (A) (A) (A) (A) (A) (A) (A) (A) (A) (A) (A)
                 (A) (A) (A) (A) (A) (A) (A) (A) (A) (A) (A) (A)
                 (A) (A) (A) (A) (A) (A) (A) (A) (A) (A) (A) (A)
                 (A) (A) (A) (A) (A) (A) (A) (A) (A) (A) (A) (A)
                 (A) (A) (A) (A) (A) (A) (A) (A) (A) (A) (A) (A)
                 (A) (A) (A) (A) (A) (A) (A) (A) (A) (A) (A) (A)
                 (A) (A) (A) (A) (A) (A) (A) (A) (A) (A) (A) (A)
                 (A) (A) (A) (A) (A) (A) (A) (A) (A) (A) (A) (A)
                 (A) (A) (A) (A) (A) (A) (A) (A) (A) (A) (A) (A)
                 (A) (A) (A) (A) (A) (A) (A) (A) (A) (A) (A) (A)
                 (A) (A) (A) (A) (A) (A) (A) (A) (A) (A) (A) (A)
                 (A) (A) (A) (A) (A) (A) (A) (A) (A) (A) (A) (A)
                 (A) (A) (A) (A) (A) (A) (A) (A) (A) (A) (A) (A)
                 (A) (A) (A) (A) (A) (A) (A) (A) (A) (A) (A) (A)
                 (A) (A) (A) (A) (A) (A) (A) (A) (A) (A) (A) (A)
                 (A) (A) (A) (A) (A) (A) (A) (A) (A) (A) (A) (A)
                 (A) (A) (A) (A) (A) (A) (A) (A) (A) (A) (A) (A)
                 (A) (A) (A) (A) (A) (A) (A) (A) (A) (A) (A) (A)
                 (A) (A) (A) (A) (A) (A) (A) (A) (A) (A) (A) (A)
                 (A) (A) (A) (A) (A) (A) (A) (A) (A) (A) (A) (A)
                 (A) (A) (A) (A) (A) (A) (A) (A) (A) (A) (A) (A)
                 (A) (A) (A) (A) (A) (A) (A) (A) (A) (A) (A) (A)
                 (A) (A) (A) (A) (A) (A) (A) (A) (A) (A) (A) (A)
                 (A) (A) (A) (A) (A) (A) (A) (A) (A) (A) (A) (A)
                 (A) (A) (A) (A) (A) (A) (A) (A) (A) (A) (A) (A)
                 (A) (A) (A) (A) (A) (A) (A) (A) (A) (A) (A) (A)
                 (A) (A) (A) (A) (A) (A) (A) (A) (A) (A) (A) (A)
                 (A) (A) (A) (A) (A) (A) (A) (A) (A) (A) (A) (A)
                 (A) (A) (A) (A) (A) (A) (A) (A) (A) (A) (A) (A)
                 (A) (A) (A) (A) (A) (A) (A) (A) (A) (A) (A) (A)
                 (A) (A) (A) (A) (A) (A) (A) (A) (A) (A) (A) (A)
                 (A) (A) (A) (A) (A) (A) (A) (A) (A) (A) (A) (A)
                 (A) (A) (A) (A) (A) (A) (A) (A) (A) (A) (A) (A)
                 (A) (A) (A) (A) (A) (A) (A) (A) (A) (A) (A) (A)
                 (A) (A) (A) (A) (A) (A) (A) (A) (A) (A) (A) (A)
                 (A) (A) (A) (A) (A) (A) (A) (A) (A) (A) (A) (A)
                 (A) (A) (A) (A) (A) (A) (A) (A) (A) (A) (A) (A)
                 (A) (A) (A) (A) (A) (A) (A) (A)
 The electronic state is 1-A.
 Alpha  occ. eigenvalues --  -15.56800 -15.56755 -15.56744 -15.55088 -15.54605
 Alpha  occ. eigenvalues --  -15.54515 -11.29117 -11.29070 -11.29010 -11.26180
 Alpha  occ. eigenvalues --  -11.25976 -11.25711 -11.25669 -11.25589 -11.25532
 Alpha  occ. eigenvalues --  -11.25524 -11.25522 -11.25506 -11.25405 -11.25255
 Alpha  occ. eigenvalues --  -11.25227  -1.25674  -1.25289  -1.24987  -1.18745
 Alpha  occ. eigenvalues --   -1.18216  -1.17966  -1.16967  -1.06887  -1.06293
 Alpha  occ. eigenvalues --   -0.99505  -0.98695  -0.98279  -0.89707  -0.88742
 Alpha  occ. eigenvalues --   -0.87043  -0.83941  -0.82324  -0.80040  -0.75933
 Alpha  occ. eigenvalues --   -0.74282  -0.70968  -0.69394  -0.67854  -0.67807
 Alpha  occ. eigenvalues --   -0.66967  -0.66298  -0.65998  -0.64560  -0.63599
 Alpha  occ. eigenvalues --   -0.63048  -0.61366  -0.60971  -0.60205  -0.59381
 Alpha  occ. eigenvalues --   -0.57858  -0.56404  -0.55465  -0.54628  -0.54154
 Alpha  occ. eigenvalues --   -0.53933  -0.53156  -0.52886  -0.51560  -0.50530
 Alpha  occ. eigenvalues --   -0.49815  -0.49535  -0.45614  -0.45124  -0.41586
 Alpha  occ. eigenvalues --   -0.41509  -0.41083  -0.39869  -0.39327  -0.38813
 Alpha  occ. eigenvalues --   -0.38186  -0.33584  -0.32838
 Alpha virt. eigenvalues --    0.03471   0.03840   0.03905   0.04352   0.04685
 Alpha virt. eigenvalues --    0.04820   0.05121   0.05478   0.05579   0.06001
 Alpha virt. eigenvalues --    0.06090   0.06410   0.06647   0.07089   0.07412
 Alpha virt. eigenvalues --    0.07823   0.07967   0.08376   0.08606   0.08642
 Alpha virt. eigenvalues --    0.08797   0.09605   0.10472   0.10959   0.11397
 Alpha virt. eigenvalues --    0.11778   0.11888   0.12059   0.12464   0.13022
 Alpha virt. eigenvalues --    0.13207   0.13352   0.13565   0.14412   0.14498
 Alpha virt. eigenvalues --    0.14882   0.15181   0.15264   0.15642   0.16064
 Alpha virt. eigenvalues --    0.16152   0.16488   0.16517   0.16782   0.16999
 Alpha virt. eigenvalues --    0.17158   0.17349   0.17624   0.17742   0.18403
 Alpha virt. eigenvalues --    0.18502   0.18780   0.19088   0.19375   0.19547
 Alpha virt. eigenvalues --    0.19762   0.19992   0.20230   0.20546   0.21055
 Alpha virt. eigenvalues --    0.21233   0.21651   0.22064   0.22244   0.22511
 Alpha virt. eigenvalues --    0.22872   0.22934   0.23480   0.23672   0.23794
 Alpha virt. eigenvalues --    0.24252   0.24389   0.24825   0.25283   0.25509
 Alpha virt. eigenvalues --    0.25619   0.25962   0.26069   0.26432   0.27110
 Alpha virt. eigenvalues --    0.27699   0.27834   0.27931   0.28687   0.29072
 Alpha virt. eigenvalues --    0.29548   0.29984   0.30213   0.30585   0.30735
 Alpha virt. eigenvalues --    0.31615   0.31755   0.32142   0.32313   0.32545
 Alpha virt. eigenvalues --    0.32841   0.33050   0.33111   0.33582   0.33899
 Alpha virt. eigenvalues --    0.34311   0.34717   0.34857   0.35088   0.35666
 Alpha virt. eigenvalues --    0.35869   0.35971   0.36369   0.36581   0.36797
 Alpha virt. eigenvalues --    0.37089   0.37537   0.37702   0.38002   0.38148
 Alpha virt. eigenvalues --    0.38443   0.38711   0.39147   0.39611   0.39927
 Alpha virt. eigenvalues --    0.40107   0.40406   0.40703   0.40763   0.41150
 Alpha virt. eigenvalues --    0.41366   0.41568   0.42049   0.42252   0.42424
 Alpha virt. eigenvalues --    0.43229   0.43348   0.43950   0.44300   0.44503
 Alpha virt. eigenvalues --    0.44673   0.44996   0.45312   0.45865   0.46017
 Alpha virt. eigenvalues --    0.46570   0.47128   0.47239   0.47572   0.47786
 Alpha virt. eigenvalues --    0.47985   0.48041   0.48583   0.48814   0.49062
 Alpha virt. eigenvalues --    0.49389   0.49583   0.50411   0.50737   0.50957
 Alpha virt. eigenvalues --    0.51475   0.51909   0.52026   0.52127   0.52471
 Alpha virt. eigenvalues --    0.52636   0.52914   0.53195   0.53770   0.53850
 Alpha virt. eigenvalues --    0.54051   0.54750   0.55002   0.55445   0.55862
 Alpha virt. eigenvalues --    0.55918   0.56357   0.56817   0.57201   0.57646
 Alpha virt. eigenvalues --    0.57669   0.58253   0.58568   0.58710   0.59086
 Alpha virt. eigenvalues --    0.59399   0.59668   0.59892   0.60351   0.61189
 Alpha virt. eigenvalues --    0.61474   0.61802   0.62252   0.62853   0.63039
 Alpha virt. eigenvalues --    0.63347   0.63365   0.64098   0.64258   0.64909
 Alpha virt. eigenvalues --    0.65095   0.65585   0.65977   0.66252   0.66361
 Alpha virt. eigenvalues --    0.66573   0.66885   0.67061   0.67498   0.67936
 Alpha virt. eigenvalues --    0.68221   0.68498   0.68662   0.68835   0.69244
 Alpha virt. eigenvalues --    0.69523   0.69707   0.70094   0.70344   0.71071
 Alpha virt. eigenvalues --    0.71365   0.71641   0.71753   0.72072   0.72299
 Alpha virt. eigenvalues --    0.72809   0.72955   0.73230   0.73556   0.74223
 Alpha virt. eigenvalues --    0.74626   0.74912   0.75065   0.75208   0.75390
 Alpha virt. eigenvalues --    0.76150   0.76660   0.77122   0.77293   0.77436
 Alpha virt. eigenvalues --    0.77773   0.78210   0.78335   0.79306   0.79483
 Alpha virt. eigenvalues --    0.80176   0.80276   0.80341   0.80792   0.81020
 Alpha virt. eigenvalues --    0.81215   0.81385   0.82234   0.82604   0.83119
 Alpha virt. eigenvalues --    0.83265   0.83886   0.84110   0.84442   0.84854
 Alpha virt. eigenvalues --    0.85301   0.85474   0.86049   0.86465   0.86671
 Alpha virt. eigenvalues --    0.87327   0.87584   0.88904   0.88997   0.89436
 Alpha virt. eigenvalues --    0.89809   0.89930   0.90190   0.91027   0.91236
 Alpha virt. eigenvalues --    0.91592   0.92180   0.92928   0.93196   0.93520
 Alpha virt. eigenvalues --    0.93664   0.93994   0.94390   0.94602   0.95312
 Alpha virt. eigenvalues --    0.95972   0.96198   0.96744   0.96880   0.97143
 Alpha virt. eigenvalues --    0.97728   0.97988   0.98676   0.98911   0.99355
 Alpha virt. eigenvalues --    0.99690   1.00225   1.00386   1.00906   1.01530
 Alpha virt. eigenvalues --    1.01829   1.02333   1.02916   1.03836   1.03980
 Alpha virt. eigenvalues --    1.04707   1.05152   1.05919   1.06219   1.06686
 Alpha virt. eigenvalues --    1.07216   1.07709   1.08327   1.09068   1.09629
 Alpha virt. eigenvalues --    1.09860   1.10205   1.10833   1.11065   1.11205
 Alpha virt. eigenvalues --    1.11731   1.12862   1.13178   1.13899   1.14720
 Alpha virt. eigenvalues --    1.15096   1.15281   1.15982   1.16454   1.17302
 Alpha virt. eigenvalues --    1.18042   1.19051   1.19149   1.19988   1.20750
 Alpha virt. eigenvalues --    1.21512   1.21961   1.22658   1.23676   1.24652
 Alpha virt. eigenvalues --    1.25333   1.26169   1.26544   1.27982   1.29392
 Alpha virt. eigenvalues --    1.29893   1.30096   1.30279   1.30788   1.31843
 Alpha virt. eigenvalues --    1.32678   1.33171   1.33901   1.34420   1.34678
 Alpha virt. eigenvalues --    1.35765   1.36490   1.36805   1.37613   1.38749
 Alpha virt. eigenvalues --    1.39369   1.40821   1.41117   1.41754   1.42792
 Alpha virt. eigenvalues --    1.43770   1.44599   1.46000   1.46793   1.47834
 Alpha virt. eigenvalues --    1.50085   1.51737   1.52135   1.52863   1.54622
 Alpha virt. eigenvalues --    1.55384   1.57111   1.57872   1.58411   1.59284
 Alpha virt. eigenvalues --    1.60533   1.61449   1.61654   1.61927   1.62668
 Alpha virt. eigenvalues --    1.63477   1.65228   1.65976   1.66963   1.67312
 Alpha virt. eigenvalues --    1.67841   1.68833   1.69501   1.69735   1.71009
 Alpha virt. eigenvalues --    1.71222   1.71648   1.72650   1.72958   1.73493
 Alpha virt. eigenvalues --    1.74042   1.74780   1.75411   1.75848   1.76092
 Alpha virt. eigenvalues --    1.76711   1.77676   1.78131   1.79348   1.79450
 Alpha virt. eigenvalues --    1.80424   1.81092   1.82413   1.83222   1.84017
 Alpha virt. eigenvalues --    1.84521   1.84994   1.85739   1.86360   1.86648
 Alpha virt. eigenvalues --    1.87198   1.87545   1.88201   1.89489   1.89883
 Alpha virt. eigenvalues --    1.90370   1.90529   1.91013   1.92445   1.93391
 Alpha virt. eigenvalues --    1.94182   1.94667   1.95520   1.96895   1.97122
 Alpha virt. eigenvalues --    1.97647   1.98192   1.99263   2.00494   2.00685
 Alpha virt. eigenvalues --    2.01423   2.01777   2.02636   2.03392   2.03581
 Alpha virt. eigenvalues --    2.04580   2.05321   2.05957   2.06174   2.07061
 Alpha virt. eigenvalues --    2.08257   2.09074   2.09778   2.09979   2.10552
 Alpha virt. eigenvalues --    2.10697   2.11483   2.12583   2.13817   2.14472
 Alpha virt. eigenvalues --    2.14895   2.15194   2.16008   2.16391   2.17204
 Alpha virt. eigenvalues --    2.18643   2.19045   2.19419   2.20221   2.20804
 Alpha virt. eigenvalues --    2.21049   2.22088   2.22801   2.23152   2.23693
 Alpha virt. eigenvalues --    2.24167   2.24410   2.24901   2.25196   2.25759
 Alpha virt. eigenvalues --    2.26051   2.27352   2.27863   2.28493   2.28843
 Alpha virt. eigenvalues --    2.29186   2.29924   2.30572   2.31293   2.31695
 Alpha virt. eigenvalues --    2.32554   2.33400   2.34059   2.34406   2.35218
 Alpha virt. eigenvalues --    2.35570   2.36098   2.36705   2.37427   2.38650
 Alpha virt. eigenvalues --    2.38995   2.40193   2.40704   2.41266   2.41797
 Alpha virt. eigenvalues --    2.42357   2.43103   2.43313   2.43838   2.44616
 Alpha virt. eigenvalues --    2.45402   2.45714   2.46791   2.47286   2.47569
 Alpha virt. eigenvalues --    2.47892   2.49686   2.49880   2.50369   2.50480
 Alpha virt. eigenvalues --    2.51111   2.51814   2.53410   2.53871   2.54507
 Alpha virt. eigenvalues --    2.55677   2.56312   2.56925   2.57441   2.58041
 Alpha virt. eigenvalues --    2.58796   2.59106   2.59898   2.60415   2.61461
 Alpha virt. eigenvalues --    2.62213   2.63110   2.63501   2.64725   2.66185
 Alpha virt. eigenvalues --    2.66393   2.67677   2.68163   2.68881   2.69289
 Alpha virt. eigenvalues --    2.70535   2.71861   2.73447   2.73818   2.75008
 Alpha virt. eigenvalues --    2.75482   2.76469   2.77373   2.78405   2.79736
 Alpha virt. eigenvalues --    2.81762   2.82934   2.83553   2.84907   2.85255
 Alpha virt. eigenvalues --    2.87298   2.88400   2.88740   2.89619   2.90435
 Alpha virt. eigenvalues --    2.91179   2.91895   2.93407   2.94182   2.94465
 Alpha virt. eigenvalues --    2.95269   2.96831   2.98129   2.98700   2.99373
 Alpha virt. eigenvalues --    3.00317   3.01850   3.02192   3.03551   3.05161
 Alpha virt. eigenvalues --    3.07332   3.09837   3.10180   3.11992   3.13314
 Alpha virt. eigenvalues --    3.14266   3.15971   3.16585   3.18388   3.18610
 Alpha virt. eigenvalues --    3.20026   3.22287   3.22753   3.24888   3.25441
 Alpha virt. eigenvalues --    3.26303   3.29005   3.30699   3.34303   3.34905
 Alpha virt. eigenvalues --    3.37071   3.39414   3.39853   3.40803   3.42712
 Alpha virt. eigenvalues --    3.43018   3.46523   3.50390   3.54541   3.57286
 Alpha virt. eigenvalues --    3.62179   3.64931   3.65696   3.70366   3.71783
 Alpha virt. eigenvalues --    3.74457   3.76590   3.77256   3.81581   3.86851
 Alpha virt. eigenvalues --    3.91428   3.98709   4.17318   4.31350   4.88852
          Condensed to atoms (all electrons):
               1          2          3          4          5          6
     1  C   18.303292  -2.901831  -1.985965  -0.237141  -0.384644  -3.095515
     2  C   -2.901831  13.639964  -2.162235   0.355640   0.516436   0.066995
     3  C   -1.985965  -2.162235  18.544705  -5.729845  -1.312218  -2.642278
     4  C   -0.237141   0.355640  -5.729845  25.830740   0.967157  -7.758958
     5  H   -0.384644   0.516436  -1.312218   0.967157   3.121184  -0.427092
     6  C   -3.095515   0.066995  -2.642278  -7.758958  -0.427092  30.081192
     7  C    1.401316  -0.584362  -0.293430   1.117672  -0.108392  -6.573299
     8  H   -0.140461  -0.021434   0.218328   0.903309   0.010714  -1.890660
     9  C   -6.445570  -0.582914  -1.533434  -2.020716   0.057424  -0.628341
    10  C   -1.057725  -0.384582   0.064958  -1.371337  -0.082951   2.086868
    11  H    0.640342   0.012467   0.254863  -0.217775   0.039517   0.197818
    12  C   -0.188610  -0.650814   2.503329  -8.372557  -0.180570  -4.113087
    13  C   -0.153426   0.161951  -0.052044   0.057266   0.049783   0.038152
    14  C    0.562011  -0.347799  -0.101960  -0.038325  -0.109427  -0.105000
    15  N    0.019664  -0.027991  -0.002818  -0.008678  -0.025486   0.003362
    16  N    0.640429  -0.971084   0.121927  -0.067163  -0.063855   0.015040
    17  H   -0.072321   0.182670  -0.036212  -0.005963  -0.013666  -0.000555
    18  C    0.004848  -0.007726   0.134926  -0.313365  -0.106179   0.266143
    19  C    0.006428  -0.004239  -0.011806   0.055256  -0.032610   0.022757
    20  N   -0.079035   0.024391  -0.225901   0.879838  -0.145844   0.802414
    21  N   -0.003037   0.000847   0.000847  -0.005416   0.013851   0.000768
    22  C   -0.063024   0.002024  -0.029459   0.062107  -0.001158   0.005543
    23  C    0.003689   0.000706  -0.003806  -0.005199  -0.000674   0.010653
    24  N    0.065085   0.043613  -0.000060   0.177392   0.009160  -0.269266
    25  H    0.003002   0.002000  -0.004131   0.005575  -0.000037  -0.037229
    26  N   -0.000070  -0.000020   0.000366   0.001155   0.000039  -0.004850
    27  H   -0.000105   0.000007   0.000053  -0.000424   0.000006   0.000562
    28  H    0.000211   0.000006  -0.000037   0.000196  -0.000005  -0.000766
    29  H    0.002476  -0.005315   0.002331  -0.001303   0.002206   0.000008
    30  H   -0.013542   0.038848  -0.001614   0.000611   0.000650   0.000260
    31  H   -0.000851  -0.000308   0.000301   0.010487  -0.000199   0.001299
    32  H    0.002603   0.003554  -0.015522  -0.019906  -0.014090  -0.022036
    33  H    0.124604  -0.576904   0.165372   0.043168   0.028070  -0.018901
    34  H    0.036267  -0.001600  -0.120313   1.098569   0.057728  -0.118310
    35  H    0.097581  -0.008922   0.035513   0.052070  -0.000893  -0.094344
    36  H   -0.080043  -0.150452   0.163817   0.006280  -0.006133  -0.017659
    37  H   -0.002435  -0.000479  -0.001662  -0.006132  -0.000156   0.033980
    38  H    0.000098   0.000029  -0.034664   0.133025  -0.010536   0.035397
    39  H    0.002278  -0.000196   0.014554  -0.058005   0.003992  -0.001399
    40  H    0.004711  -0.001104   0.008868  -0.027110   0.001290   0.001189
    41  H   -0.000261   0.000021  -0.006200   0.008859   0.001348   0.001552
    42  H   -0.033329   0.086718  -0.014708  -0.031671  -0.072569   0.035240
    43  H    0.014643  -0.020904   0.004322   0.016920   0.008329   0.001882
    44  H    0.000720  -0.000017   0.000228   0.010483   0.000008  -0.027025
    45  H   -0.002355  -0.000254  -0.000751  -0.005946   0.000103   0.015325
               7          8          9         10         11         12
     1  C    1.401316  -0.140461  -6.445570  -1.057725   0.640342  -0.188610
     2  C   -0.584362  -0.021434  -0.582914  -0.384582   0.012467  -0.650814
     3  C   -0.293430   0.218328  -1.533434   0.064958   0.254863   2.503329
     4  C    1.117672   0.903309  -2.020716  -1.371337  -0.217775  -8.372557
     5  H   -0.108392   0.010714   0.057424  -0.082951   0.039517  -0.180570
     6  C   -6.573299  -1.890660  -0.628341   2.086868   0.197818  -4.113087
     7  C   21.779038   0.223853  -7.089197  -7.861007   0.825149  -0.054710
     8  H    0.223853   2.376405   0.095396   0.134736  -0.018473  -0.034919
     9  C   -7.089197   0.095396  26.575317  -0.776333  -2.158584   0.592223
    10  C   -7.861007   0.134736  -0.776333  19.020472  -0.034168  -0.986177
    11  H    0.825149  -0.018473  -2.158584  -0.034168   2.291622  -0.001331
    12  C   -0.054710  -0.034919   0.592223  -0.986177  -0.001331  20.421087
    13  C   -0.027825  -0.000516   0.025193   0.003212  -0.001329  -0.042748
    14  C    0.114887   0.000522  -0.377982  -0.029460  -0.004241  -0.037371
    15  N   -0.000528   0.000116   0.014861   0.000393   0.000179   0.003747
    16  N    0.018064   0.001554  -0.065829   0.021784  -0.016794   0.056466
    17  H   -0.013217   0.000136   0.039018  -0.001668   0.000419   0.004437
    18  C   -0.024612   0.020986  -0.008978  -0.013305   0.001003  -0.567684
    19  C   -0.004349   0.008397   0.007026  -0.001018   0.000084  -0.315815
    20  N    0.077191   0.040966  -0.101360   0.072140  -0.000853  -1.896096
    21  N    0.001680  -0.000835  -0.001342   0.000274  -0.000026   0.057041
    22  C    0.414029  -0.074786   0.065153  -1.275598   0.006112   0.009845
    23  C   -0.047787  -0.001527  -0.034251  -0.051053   0.000581  -0.012168
    24  N    1.319388  -0.084364   0.046905  -1.840991   0.013748   0.086582
    25  H    0.222165  -0.000987  -0.037002  -0.231468   0.006534   0.003288
    26  N    0.006639  -0.001902   0.001675   0.002202  -0.000629   0.000519
    27  H   -0.002774   0.001074   0.000800   0.021862   0.000016   0.000176
    28  H    0.003211   0.000073  -0.000875  -0.014595  -0.000004  -0.000083
    29  H   -0.000704  -0.000023   0.001222   0.000100   0.000049   0.001352
    30  H    0.000599   0.000052  -0.002927  -0.000104  -0.000043  -0.002544
    31  H    0.000648   0.000318  -0.001101  -0.000042  -0.000000  -0.043547
    32  H   -0.002417  -0.001389   0.008593   0.000500  -0.000004   0.110379
    33  H   -0.036277  -0.000389   0.349595  -0.000166  -0.042871   0.011882
    34  H    0.049796  -0.054709  -0.016793   0.007964  -0.002877  -1.318017
    35  H    0.912515   0.022898  -0.125306  -1.145905  -0.052566  -0.001543
    36  H    0.009507   0.002265   0.046323  -0.000814  -0.001512   0.013470
    37  H   -0.206827   0.006521   0.030904   0.466893  -0.001729   0.000061
    38  H   -0.000709   0.011457  -0.001873   0.001836   0.000115  -0.207142
    39  H   -0.003869  -0.000714   0.001756  -0.001143   0.000119   0.142199
    40  H   -0.001583   0.000195   0.001873  -0.000313   0.000062   0.109625
    41  H   -0.000696  -0.000308   0.000958   0.000058  -0.000001   0.006158
    42  H   -0.035471  -0.001366   0.066831   0.004491  -0.002732   0.025369
    43  H    0.006174   0.000118  -0.017364   0.000208  -0.000360  -0.022535
    44  H    0.020050   0.001058  -0.003969   0.016366   0.000332  -0.001041
    45  H   -0.125484   0.003685   0.026134   0.302024  -0.002161  -0.000470
              13         14         15         16         17         18
     1  C   -0.153426   0.562011   0.019664   0.640429  -0.072321   0.004848
     2  C    0.161951  -0.347799  -0.027991  -0.971084   0.182670  -0.007726
     3  C   -0.052044  -0.101960  -0.002818   0.121927  -0.036212   0.134926
[...]
    20  N   -0.014013   7.940173   0.006843  -0.003012   0.000226   0.001357
    21  N    0.167994   0.006843   6.818236  -0.000002   0.000000  -0.000025
    22  C    0.000007  -0.003012  -0.000002   5.201128   0.448038   0.279327
    23  C   -0.000011   0.000226   0.000000   0.448038   4.563998   0.102573
    24  N    0.000480   0.001357  -0.000025   0.279327   0.102573   8.054287
    25  H   -0.000005  -0.000257  -0.000000   0.324691  -0.086211  -0.128721
    26  N   -0.000000   0.000003  -0.000000  -0.029180   0.082989   0.004504
    27  H    0.000001   0.000000  -0.000000  -0.067896   0.002827   0.015317
    28  H   -0.000000   0.000003   0.000000   0.048256  -0.047671   0.006570
    29  H   -0.000037  -0.000147   0.000002   0.000002   0.000000  -0.000001
    30  H    0.000036   0.000081   0.000006  -0.000005  -0.000000   0.000004
    31  H   -0.008189  -0.015020   0.340682  -0.000004  -0.000000   0.000002
    32  H   -0.093020   0.037970   0.285468   0.000032   0.000003  -0.000060
    33  H   -0.000029  -0.000024  -0.000014  -0.000110   0.000076   0.001532
    34  H   -0.021924   0.304302   0.008190   0.007388  -0.000393  -0.000533
    35  H   -0.000035   0.003139   0.000018  -0.043950  -0.022383   0.231467
    36  H    0.001475  -0.002472  -0.000154  -0.000142   0.000067  -0.000062
    37  H   -0.000017  -0.000193   0.000000   0.156044  -0.179251  -0.289575
    38  H    0.019049  -0.086015   0.024647  -0.000444  -0.000023   0.000480
    39  H   -0.190919  -0.153886  -0.001923   0.000068  -0.000007   0.000005
    40  H    0.134319  -0.041069   0.048655  -0.000003  -0.000002  -0.000049
    41  H    0.227037   0.056571  -0.149325   0.000014  -0.000000   0.000048
    42  H    0.004052  -0.011847  -0.001345   0.000114   0.000013  -0.000131
    43  H    0.001597   0.001361   0.001100  -0.000022  -0.000002  -0.000029
    44  H    0.000005   0.000078   0.000000  -0.002474   0.218139  -0.101903
    45  H   -0.000001  -0.000024   0.000000  -0.119574   0.125969  -0.138787
              25         26         27         28         29         30
     1  C    0.003002  -0.000070  -0.000105   0.000211   0.002476  -0.013542
     2  C    0.002000  -0.000020   0.000007   0.000006  -0.005315   0.038848
     3  C   -0.004131   0.000366   0.000053  -0.000037   0.002331  -0.001614
     4  C    0.005575   0.001155  -0.000424   0.000196  -0.001303   0.000611
     5  H   -0.000037   0.000039   0.000006  -0.000005   0.002206   0.000650
     6  C   -0.037229  -0.004850   0.000562  -0.000766   0.000008   0.000260
     7  C    0.222165   0.006639  -0.002774   0.003211  -0.000704   0.000599
     8  H   -0.000987  -0.001902   0.001074   0.000073  -0.000023   0.000052
     9  C   -0.037002   0.001675   0.000800  -0.000875   0.001222  -0.002927
    10  C   -0.231468   0.002202   0.021862  -0.014595   0.000100  -0.000104
    11  H    0.006534  -0.000629   0.000016  -0.000004   0.000049  -0.000043
    12  C    0.003288   0.000519   0.000176  -0.000083   0.001352  -0.002544
    13  C   -0.000000  -0.000000   0.000000  -0.000000   0.018708  -0.064522
    14  C   -0.000028  -0.000002  -0.000002   0.000002  -0.042051  -0.003012
    15  N   -0.000000   0.000000   0.000000   0.000000   0.292678   0.340631
    16  N   -0.000157  -0.000001  -0.000001  -0.000000  -0.001186   0.001447
    17  H    0.000008   0.000000  -0.000000   0.000000   0.009000  -0.002573
    18  C    0.000056   0.000005   0.000008  -0.000002  -0.000141   0.000126
    19  C   -0.000005  -0.000000   0.000001  -0.000000  -0.000037   0.000036
    20  N   -0.000257   0.000003   0.000000   0.000003  -0.000147   0.000081
    21  N   -0.000000  -0.000000  -0.000000   0.000000   0.000002   0.000006
    22  C    0.324691  -0.029180  -0.067896   0.048256   0.000002  -0.000005
    23  C   -0.086211   0.082989   0.002827  -0.047671   0.000000  -0.000000
    24  N   -0.128721   0.004504   0.015317   0.006570  -0.000001   0.000004
    25  H    1.295396  -0.022079  -0.017717   0.003410  -0.000000  -0.000000
    26  N   -0.022079   6.841988   0.334039   0.359778   0.000000   0.000000
    27  H   -0.017717   0.334039   0.747678  -0.079443   0.000000  -0.000000
    28  H    0.003410   0.359778  -0.079443   0.796984   0.000000  -0.000000
    29  H   -0.000000   0.000000   0.000000   0.000000   0.770638  -0.074967
    30  H   -0.000000   0.000000  -0.000000  -0.000000  -0.074967   0.731116
    31  H   -0.000000   0.000000  -0.000000   0.000000   0.000015   0.000015
    32  H   -0.000001  -0.000000   0.000000  -0.000000  -0.000217  -0.000324
    33  H   -0.000036   0.000009   0.000001   0.000002   0.000401  -0.002080
    34  H   -0.000310   0.000181  -0.000064   0.000009   0.000065  -0.000107
    35  H   -0.049348   0.004412   0.001885  -0.000369  -0.000005   0.000015
    36  H   -0.000046  -0.000004  -0.000000   0.000001   0.007942  -0.004830
    37  H   -0.160652  -0.026590   0.019675  -0.005456   0.000000  -0.000000
    38  H    0.000004  -0.000000   0.000001  -0.000000  -0.000022   0.000033
    39  H    0.000009   0.000000   0.000000  -0.000000   0.000029  -0.000015
    40  H    0.000004  -0.000000   0.000000  -0.000000  -0.000009   0.000012
    41  H   -0.000001  -0.000000   0.000000  -0.000000  -0.000003  -0.000006
    42  H    0.000011  -0.000000  -0.000000   0.000000   0.041446  -0.039732
    43  H   -0.000002  -0.000000  -0.000000  -0.000000  -0.055305   0.044476
    44  H    0.094554   0.010699  -0.044555  -0.012917   0.000000  -0.000000
    45  H   -0.080514  -0.115188   0.036494  -0.044863   0.000000  -0.000000
              31         32         33         34         35         36
     1  C   -0.000851   0.002603   0.124604   0.036267   0.097581  -0.080043
     2  C   -0.000308   0.003554  -0.576904  -0.001600  -0.008922  -0.150452
     3  C    0.000301  -0.015522   0.165372  -0.120313   0.035513   0.163817
     4  C    0.010487  -0.019906   0.043168   1.098569   0.052070   0.006280
     5  H   -0.000199  -0.014090   0.028070   0.057728  -0.000893  -0.006133
     6  C    0.001299  -0.022036  -0.018901  -0.118310  -0.094344  -0.017659
     7  C    0.000648  -0.002417  -0.036277   0.049796   0.912515   0.009507
     8  H    0.000318  -0.001389  -0.000389  -0.054709   0.022898   0.002265
     9  C   -0.001101   0.008593   0.349595  -0.016793  -0.125306   0.046323
    10  C   -0.000042   0.000500  -0.000166   0.007964  -1.145905  -0.000814
    11  H   -0.000000  -0.000004  -0.042871  -0.002877  -0.052566  -0.001512
    12  C   -0.043547   0.110379   0.011882  -1.318017  -0.001543   0.013470
    13  C    0.001565   0.009793  -0.006335  -0.000035   0.000086   0.160315
    14  C   -0.000011  -0.005453  -0.071085  -0.003681   0.000495  -0.139147
    15  N   -0.000386   0.005389  -0.000182   0.000225   0.000023  -0.004670
    16  N    0.000152  -0.000665  -0.006973   0.000527   0.002872   0.107368
    17  H   -0.000052  -0.001223   0.005946   0.000069  -0.000229  -0.355181
    18  C    0.075444  -0.101088  -0.000770  -0.055593  -0.000545  -0.003214
    19  C   -0.008189  -0.093020  -0.000029  -0.021924  -0.000035   0.001475
    20  N   -0.015020   0.037970  -0.000024   0.304302   0.003139  -0.002472
    21  N    0.340682   0.285468  -0.000014   0.008190   0.000018  -0.000154
    22  C   -0.000004   0.000032  -0.000110   0.007388  -0.043950  -0.000142
    23  C   -0.000000   0.000003   0.000076  -0.000393  -0.022383   0.000067
    24  N    0.000002  -0.000060   0.001532  -0.000533   0.231467  -0.000062
    25  H   -0.000000  -0.000001  -0.000036  -0.000310  -0.049348  -0.000046
    26  N    0.000000  -0.000000   0.000009   0.000181   0.004412  -0.000004
    27  H   -0.000000   0.000000   0.000001  -0.000064   0.001885  -0.000000
    28  H    0.000000  -0.000000   0.000002   0.000009  -0.000369   0.000001
    29  H    0.000015  -0.000217   0.000401   0.000065  -0.000005   0.007942
    30  H    0.000015  -0.000324  -0.002080  -0.000107   0.000015  -0.004830
    31  H    0.840148  -0.116714  -0.000039  -0.002031   0.000002  -0.000140
    32  H   -0.116714   0.860629   0.000386   0.001107   0.000014   0.003369
    33  H   -0.000039   0.000386   1.451232   0.001498   0.004165  -0.002394
    34  H   -0.002031   0.001107   0.001498   1.824869   0.002481  -0.002710
    35  H    0.000002   0.000014   0.004165   0.002481   1.786145   0.000241
    36  H   -0.000140   0.003369  -0.002394  -0.002710   0.000241   1.465692
    37  H   -0.000000   0.000002  -0.000056   0.000100   0.006669  -0.000011
    38  H    0.004589   0.008915  -0.000094  -0.066295  -0.000030   0.000891
    39  H    0.000055   0.009441  -0.000027   0.006728  -0.000077  -0.001990
    40  H   -0.044068   0.005581  -0.000055  -0.001601  -0.000036  -0.000401
    41  H   -0.016798   0.030962   0.000014   0.006004   0.000003   0.000009
    42  H    0.000414  -0.022253  -0.003836   0.000128  -0.000148  -0.057728
    43  H    0.000593  -0.005101  -0.001048  -0.000526   0.000073  -0.069886
    44  H   -0.000000   0.000002   0.000003  -0.000237  -0.009257   0.000007
    45  H   -0.000000   0.000003   0.000003  -0.000078   0.017102  -0.000038
              37         38         39         40         41         42
     1  C   -0.002435   0.000098   0.002278   0.004711  -0.000261  -0.033329
     2  C   -0.000479   0.000029  -0.000196  -0.001104   0.000021   0.086718
     3  C   -0.001662  -0.034664   0.014554   0.008868  -0.006200  -0.014708
     4  C   -0.006132   0.133025  -0.058005  -0.027110   0.008859  -0.031671
     5  H   -0.000156  -0.010536   0.003992   0.001290   0.001348  -0.072569
     6  C    0.033980   0.035397  -0.001399   0.001189   0.001552   0.035240
     7  C   -0.206827  -0.000709  -0.003869  -0.001583  -0.000696  -0.035471
     8  H    0.006521   0.011457  -0.000714   0.000195  -0.000308  -0.001366
     9  C    0.030904  -0.001873   0.001756   0.001873   0.000958   0.066831
    10  C    0.466893   0.001836  -0.001143  -0.000313   0.000058   0.004491
    11  H   -0.001729   0.000115   0.000119   0.000062  -0.000001  -0.002732
    12  C    0.000061  -0.207142   0.142199   0.109625   0.006158   0.025369
    13  C    0.000003  -0.000365   0.001454  -0.000122  -0.000261   0.152886
    14  C   -0.000004   0.001381  -0.001176   0.000174   0.000162  -0.046608
    15  N    0.000000  -0.000146  -0.000284   0.000144   0.000087  -0.120878
    16  N    0.000018  -0.000098  -0.000094  -0.000018   0.000024  -0.052678
    17  H    0.000000   0.000047   0.000220   0.000045   0.000009   0.099262
    18  C   -0.000181   0.234383   0.308850  -0.174763   0.052514   0.012119
    19  C   -0.000017   0.019049  -0.190919   0.134319   0.227037   0.004052
    20  N   -0.000193  -0.086015  -0.153886  -0.041069   0.056571  -0.011847
    21  N    0.000000   0.024647  -0.001923   0.048655  -0.149325  -0.001345
    22  C    0.156044  -0.000444   0.000068  -0.000003   0.000014   0.000114
    23  C   -0.179251  -0.000023  -0.000007  -0.000002  -0.000000   0.000013
    24  N   -0.289575   0.000480   0.000005  -0.000049   0.000048  -0.000131
    25  H   -0.160652   0.000004   0.000009   0.000004  -0.000001   0.000011
    26  N   -0.026590  -0.000000   0.000000  -0.000000  -0.000000  -0.000000
    27  H    0.019675   0.000001   0.000000   0.000000   0.000000  -0.000000
    28  H   -0.005456  -0.000000  -0.000000  -0.000000  -0.000000   0.000000
    29  H    0.000000  -0.000022   0.000029  -0.000009  -0.000003   0.041446
    30  H   -0.000000   0.000033  -0.000015   0.000012  -0.000006  -0.039732
    31  H   -0.000000   0.004589   0.000055  -0.044068  -0.016798   0.000414
    32  H    0.000002   0.008915   0.009441   0.005581   0.030962  -0.022253
    33  H   -0.000056  -0.000094  -0.000027  -0.000055   0.000014  -0.003836
    34  H    0.000100  -0.066295   0.006728  -0.001601   0.006004   0.000128
    35  H    0.006669  -0.000030  -0.000077  -0.000036   0.000003  -0.000148
    36  H   -0.000011   0.000891  -0.001990  -0.000401   0.000009  -0.057728
    37  H    1.372966  -0.000065   0.000003  -0.000005   0.000001   0.000011
    38  H   -0.000065   1.310640  -0.154443  -0.044244  -0.057129  -0.001218
    39  H    0.000003  -0.154443   1.256154   0.090187  -0.061506   0.000643
    40  H   -0.000005  -0.044244   0.090187   1.260843  -0.177836  -0.002525
    41  H    0.000001  -0.057129  -0.061506  -0.177836   1.238812   0.000671
    42  H    0.000011  -0.001218   0.000643  -0.002525   0.000671   1.450084
    43  H   -0.000000   0.000396  -0.000410  -0.000205  -0.000105  -0.215406
    44  H   -0.037219   0.000022  -0.000011  -0.000000   0.000000  -0.000001
    45  H    0.104960  -0.000007  -0.000000  -0.000001   0.000000  -0.000001
              43         44         45
     1  C    0.014643   0.000720  -0.002355
     2  C   -0.020904  -0.000017  -0.000254
     3  C    0.004322   0.000228  -0.000751
     4  C    0.016920   0.010483  -0.005946
     5  H    0.008329   0.000008   0.000103
     6  C    0.001882  -0.027025   0.015325
     7  C    0.006174   0.020050  -0.125484
     8  H    0.000118   0.001058   0.003685
     9  C   -0.017364  -0.003969   0.026134
    10  C    0.000208   0.016366   0.302024
    11  H   -0.000360   0.000332  -0.002161
    12  C   -0.022535  -0.001041  -0.000470
    13  C    0.147183   0.000001   0.000015
    14  C    0.114034  -0.000002  -0.000029
    15  N   -0.107305  -0.000000  -0.000000
    16  N    0.012240   0.000004   0.000005
    17  H   -0.046607  -0.000005  -0.000001
    18  C    0.001687  -0.000094  -0.000028
    19  C    0.001597   0.000005  -0.000001
    20  N    0.001361   0.000078  -0.000024
    21  N    0.001100   0.000000   0.000000
    22  C   -0.000022  -0.002474  -0.119574
    23  C   -0.000002   0.218139   0.125969
    24  N   -0.000029  -0.101903  -0.138787
    25  H   -0.000002   0.094554  -0.080514
    26  N   -0.000000   0.010699  -0.115188
    27  H   -0.000000  -0.044555   0.036494
    28  H   -0.000000  -0.012917  -0.044863
    29  H   -0.055305   0.000000   0.000000
    30  H    0.044476  -0.000000  -0.000000
    31  H    0.000593  -0.000000  -0.000000
    32  H   -0.005101   0.000002   0.000003
    33  H   -0.001048   0.000003   0.000003
    34  H   -0.000526  -0.000237  -0.000078
    35  H    0.000073  -0.009257   0.017102
    36  H   -0.069886   0.000007  -0.000038
    37  H   -0.000000  -0.037219   0.104960
    38  H    0.000396   0.000022  -0.000007
    39  H   -0.000410  -0.000011  -0.000000
    40  H   -0.000205  -0.000000  -0.000001
    41  H   -0.000105   0.000000   0.000000
    42  H   -0.215406  -0.000001  -0.000001
    43  H    1.284093   0.000000   0.000001
    44  H    0.000000   1.126653  -0.151743
    45  H    0.000001  -0.151743   1.367232
 Mulliken charges:
               1
     1  C    1.004996
     2  C    0.274598
     3  C    0.083466
     4  C    0.509162
     5  H   -0.789613
     6  C    0.122170
     7  C    0.575955
     8  H   -0.755371
     9  C   -0.023139
    10  C    0.932583
    11  H   -0.730072
    12  C    0.892346
    13  C    0.780235
    14  C    0.859406
    15  N   -0.491928
    16  N   -0.593136
    17  H   -0.301063
    18  C    0.554812
    19  C    0.938323
    20  N   -0.675835
    21  N   -0.427903
    22  C    0.682342
    23  C    0.932004
    24  N   -0.608017
    25  H   -0.103766
    26  N   -0.450690
    27  H    0.030498
    28  H   -0.011628
    29  H    0.030768
    30  H    0.053930
    31  H   -0.027230
    32  H    0.036790
    33  H   -0.417262
    34  H   -0.625458
    35  H   -0.625991
    36  H   -0.087203
    37  H   -0.280115
    38  H   -0.121875
    39  H   -0.206647
    40  H   -0.150655
    41  H   -0.161458
    42  H   -0.212322
    43  H   -0.098307
    44  H   -0.106943
    45  H   -0.210757
 Sum of Mulliken charges =   0.00000
 Mulliken charges with hydrogens summed into heavy atoms:
               1
     1  C    1.004996
     2  C   -0.142663
     3  C   -0.706147
     4  C    0.509162
     6  C   -0.633201
     7  C    0.575955
     9  C   -0.753211
    10  C    0.306592
    12  C    0.266888
    13  C    0.469607
    14  C    0.471140
    15  N   -0.407230
    16  N   -0.593136
    18  C    0.226289
    19  C    0.626210
    20  N   -0.675835
    21  N   -0.418344
    22  C    0.298461
    23  C    0.614305
    24  N   -0.608017
    26  N   -0.431820
 Electronic spatial extent (au):  <R**2>=          10899.2572
 Charge=              0.0000 electrons
 Dipole moment (field-independent basis, Debye):
    X=              4.7788    Y=              1.5355    Z=             -0.5469  Tot=              5.0491
 Quadrupole moment (field-independent basis, Debye-Ang):
   XX=           -147.3461   YY=           -122.6648   ZZ=           -125.8213
   XY=              4.1140   XZ=              4.1954   YZ=             -3.0675
 Traceless Quadrupole moment (field-independent basis, Debye-Ang):
   XX=            -15.4020   YY=              9.2793   ZZ=              6.1228
   XY=              4.1140   XZ=              4.1954   YZ=             -3.0675
 Octapole moment (field-independent basis, Debye-Ang**2):
  XXX=            184.0011  YYY=             42.9084  ZZZ=             12.9913  XYY=             26.1213
  XXY=             91.5681  XXZ=              5.4178  XZZ=              2.4811  YZZ=             -8.8007
  YYZ=             -9.0585  XYZ=             48.1906
 Hexadecapole moment (field-independent basis, Debye-Ang**3):
 XXXX=         -11430.8645 YYYY=          -3551.4599 ZZZZ=           -422.1788 XXXY=            683.5616
 XXXZ=            297.0535 YYYX=            -32.9722 YYYZ=            -41.1298 ZZZX=             45.2850
 ZZZY=            -10.5240 XXYY=          -2393.9285 XXZZ=          -1637.5981 YYZZ=           -641.2252
 XXYZ=           -157.8354 YYXZ=              8.4463 ZZXY=             48.1687
 N-N= 1.563428175094D+03 E-N=-5.247988007122D+03  KE= 9.082160865478D+02
 Leave Link  601 at Mon Nov 15 21:44:07 2021, MaxMem=  7864320000 cpu:              15.0 elap:               0.6
 (Enter /apps/gaussian/g16-c01-avx/g16/l9999.exe)
 Unable to Open any file for archive entry.
 1\1\GINC-CX3-12-23\SP\RMP2-FC\Aug-CC-pVDZ\C15H24N6\ATARZIA\15-Nov-2021
 \0\\#P MP2/aug-cc-pVDZ SP SCF=(YQC,MaxCycle=900) int=(Grid=Superfinegr
 id) SCRF=(PCM,Solvent=Dichloromethane)\\_1_alde1_3_ami4_2_opt_dcm_mp2\
 \0,1\C,0,-0.872,-0.345,-1.1043\C,0,-0.9763,-1.6702,-0.4649\C,0,-1.9469
 ,0.5299,-1.1924\C,0,-1.8029,1.7806,-1.7969\H,0,-2.924,0.2578,-0.8281\C
 ,0,-0.5718,2.1486,-2.3227\C,0,0.5137,1.2753,-2.2575\H,0,-0.4284,3.1084
 ,-2.7946\C,0,0.353,0.0323,-1.6541\C,0,1.8029,1.654,-2.8188\H,0,1.1917,
 -0.6484,-1.5975\C,0,-2.9389,2.6896,-1.8681\C,0,-3.7274,-1.4104,1.4381\
 C,0,-2.2088,-1.1167,1.4918\N,0,-4.0997,-2.7471,1.8404\N,0,-1.5185,-2.0
 151,0.6181\H,0,-1.8536,-1.3407,2.5044\C,0,-5.1426,3.316,-1.3961\C,0,-6
 .3839,2.5511,-1.8665\N,0,-4.0378,2.4162,-1.3143\N,0,-6.813,1.645,-0.81
 7\C,0,3.2595,3.1182,-3.9053\C,0,3.7866,4.3718,-3.1965\N,0,1.9813,2.771
 ,-3.3759\H,0,4.0027,2.3103,-3.8133\N,0,5.0715,4.7461,-3.7608\H,0,4.963
 1,5.0123,-4.7343\H,0,5.4557,5.5417,-3.2633\H,0,-3.8164,-2.9162,2.8003\
 H,0,-3.6127,-3.4219,1.2592\H,0,-7.5458,1.0294,-1.1527\H,0,-6.0246,1.07
 2,-0.534\H,0,-0.4636,-2.4705,-0.9959\H,0,-2.7701,3.6266,-2.4218\H,0,2.
 6045,0.9037,-2.7295\H,0,-2.0305,-0.0539,1.2782\H,0,3.1215,3.3508,-4.96
 69\H,0,-4.9446,4.1735,-2.0608\H,0,-5.3425,3.6826,-0.3846\H,0,-6.1419,2
 .0453,-2.8178\H,0,-7.1936,3.2625,-2.0561\H,0,-4.0831,-1.2657,0.4139\H,
 0,-4.2426,-0.6965,2.0863\H,0,3.0184,5.1587,-3.2671\H,0,3.9381,4.1432,-
 2.1376\\Version=ES64L-G16RevC.01\State=1-A\HF=-908.7604447\MP2=-911.90
 52352\RMSD=5.752e-09\PG=C01 [X(C15H24N6)]\\@
 The archive entry for this job was punched.


  THE LARGE PRINT GIVETH,
  AND THE SMALL PRINT TAKETH AWAY.

                     -- TOM WAITS
 Job cpu time:       0 days 10 hours 32 minutes 27.7 seconds.
 Elapsed time:       0 days  0 hours 20 minutes  1.6 seconds.
 File lengths (MBytes):  RWF= 180960 Int=      0 D2E=      0 Chk=     48 Scr=     16
 Normal termination of Gaussian 16 at Mon Nov 15 21:44:09 2021.
