 Entering Gaussian System, Link 0=g16
 Initial command:
 /apps/gaussian/g16-c01-avx/g16/l1.exe "/rds/general/ephemeral/user/atarzia/ephemeral/Gau-3252520.inp" -scrdir="/rds/general/ephemeral/user/atarzia/ephemeral/"
 Entering Link 1 = /apps/gaussian/g16-c01-avx/g16/l1.exe PID=   3252521.
  
 Copyright (c) 1988-2019, Gaussian, Inc.  All Rights Reserved.
  
 This is part of the Gaussian(R) 16 program.  It is based on
 the Gaussian(R) 09 system (copyright 2009, Gaussian, Inc.),
 the Gaussian(R) 03 system (copyright 2003, Gaussian, Inc.),
 the Gaussian(R) 98 system (copyright 1998, Gaussian, Inc.),
 the Gaussian(R) 94 system (copyright 1995, Gaussian, Inc.),
 the Gaussian 92(TM) system (copyright 1992, Gaussian, Inc.),
 the Gaussian 90(TM) system (copyright 1990, Gaussian, Inc.),
 the Gaussian 88(TM) system (copyright 1988, Gaussian, Inc.),
 the Gaussian 86(TM) system (copyright 1986, Carnegie Mellon
 University), and the Gaussian 82(TM) system (copyright 1983,
 Carnegie Mellon University). Gaussian is a federally registered
 trademark of Gaussian, Inc.
  
 This software contains proprietary and confidential information,
 including trade secrets, belonging to Gaussian, Inc.
  
 This software is provided under written license and may be
 used, copied, transmitted, or stored only in accord with that
 written license.
  
 The following legend is applicable only to US Government
 contracts under FAR:
  
                    RESTRICTED RIGHTS LEGEND
  
 Use, reproduction and disclosure by the US Government is
 subject to restrictions as set forth in subparagraphs (a)
 and (c) of the Commercial Computer Software - Restricted
 Rights clause in FAR 52.227-19.
  
 Gaussian, Inc.
 340 Quinnipiac St., Bldg. 40, Wallingford CT 06492
  
  
 ---------------------------------------------------------------
 Warning -- This program may not be used in any manner that
 competes with the business of Gaussian, Inc. or will provide
 assistance to any competitor of Gaussian, Inc.  The licensee
 of this program is prohibited from giving any competitor of
 Gaussian, Inc. access to this program.  By using this program,
 the user acknowledges that Gaussian, Inc. is engaged in the
 business of creating and licensing software in the field of
 computational chemistry and represents and warrants to the
 licensee that it is not a competitor of Gaussian, Inc. and that
 it will not use this program in any manner prohibited above.
 ---------------------------------------------------------------
  

 Cite this work as:
 Gaussian 16, Revision C.01,
 M. J. Frisch, G. W. Trucks, H. B. Schlegel, G. E. Scuseria, 
 M. A. Robb, J. R. Cheeseman, G. Scalmani, V. Barone, 
 G. A. Petersson, H. Nakatsuji, X. Li, M. Caricato, A. V. Marenich, 
 J. Bloino, B. G. Janesko, R. Gomperts, B. Mennucci, H. P. Hratchian, 
 J. V. Ortiz, A. F. Izmaylov, J. L. Sonnenberg, D. Williams-Young, 
 F. Ding, F. Lipparini, F. Egidi, J. Goings, B. Peng, A. Petrone, 
 T. Henderson, D. Ranasinghe, V. G. Zakrzewski, J. Gao, N. Rega, 
 G. Zheng, W. Liang, M. Hada, M. Ehara, K. Toyota, R. Fukuda, 
 J. Hasegawa, M. Ishida, T. Nakajima, Y. Honda, O. Kitao, H. Nakai, 
 T. Vreven, K. Throssell, J. A. Montgomery, Jr., J. E. Peralta, 
 F. Ogliaro, M. J. Bearpark, J. J. Heyd, E. N. Brothers, K. N. Kudin, 
 V. N. Staroverov, T. A. Keith, R. Kobayashi, J. Normand, 
 K. Raghavachari, A. P. Rendell, J. C. Burant, S. S. Iyengar, 
 J. Tomasi, M. Cossi, J. M. Millam, M. Klene, C. Adamo, R. Cammi, 
 J. W. Ochterski, R. L. Martin, K. Morokuma, O. Farkas, 
 J. B. Foresman, and D. J. Fox, Gaussian, Inc., Wallingford CT, 2019.
 
 ******************************************
 Gaussian 16:  ES64L-G16RevC.01  3-Jul-2019
                18-Oct-2021 
 ******************************************
 %chk=_1_alde1_3_ami4_1_opt_gas.chk
 %mem=60000mb
 %nprocshared=32
 Will use up to   32 processors via shared memory.
 ----------------------------------------------------------------------
 #P PBE1PBE/Def2TZVP SP SCF=(YQC,MaxCycle=900) int=(Grid=Superfinegrid)
  EmpiricalDispersion=GD3
 ----------------------------------------------------------------------
 1/38=1,172=1/1;
 2/12=2,17=6,18=5,40=1/2;
 3/5=44,7=101,11=2,25=1,30=1,74=-13,75=-7,124=31/1,2,3;
 4//1;
 5/5=2,7=900,8=4,13=1,38=1/8,2,8;
 6/7=2,8=2,9=2,10=2,28=1/1;
 99/5=1,9=1/99;
 Leave Link    1 at Mon Oct 18 00:46:02 2021, MaxMem=  7864320000 cpu:               4.8 elap:               0.2
 (Enter /apps/gaussian/g16-c01-avx/g16/l101.exe)
 -------------------------
 _1_alde1_3_ami4_1_opt_gas
 -------------------------
 Symbolic Z-matrix:
 Charge =  0 Multiplicity = 1
 C                    -1.1953    1.024     0.2467 
 C                    -1.2729    0.4659    1.6425 
 C                    -2.349     1.1283   -0.5174 
 C                    -2.3014    1.674    -1.7902 
 H                    -3.2813    0.7675   -0.1099 
 C                    -1.0899    2.1215   -2.2956 
 C                     0.0687    2.0246   -1.5401 
 H                    -1.0481    2.5479   -3.286 
 C                     0.0107    1.4743   -0.2685 
 C                     1.3748    2.4877   -2.1263 
 H                     0.91      1.3952    0.3249 
 C                    -3.5494    1.8217   -2.618 
 C                    -2.1945    0.7031    3.7224 
 C                    -2.8133   -0.5723    3.1054 
 N                    -1.696     1.4769    2.5969 
 N                    -2.2816   -0.5987    1.746 
 C                    -4.2021    2.3405   -4.8317 
 C                    -4.875     3.2679   -3.7938 
 N                    -3.2879    1.5267   -4.0358 
 N                    -4.0426    3.1882   -2.6044 
 C                     2.2108    3.7374   -3.9503 
 C                     2.8243    2.3194   -3.8873 
 N                     1.2044    3.7314   -2.8929 
 N                     1.9042    1.5313   -3.0831 
 H                     1.2412    4.5504   -2.301 
 H                     2.1282    2.5971   -1.3236 
 H                     1.1356    1.2007   -3.6606 
 H                    -1.9099   -1.5004    1.4793 
 H                    -0.272     0.1176    1.9607 
 H                    -2.4543    2.0113    2.1809 
 H                    -3.3564    0.5379   -4.2355 
 H                    -3.2473    3.8148   -2.6963 
 H                    -4.3508    1.1812   -2.2046 
 H                    -3.9055   -0.4965    3.0539 
 H                    -2.5574   -1.4633    3.6873 
 H                    -1.3386    0.4393    4.3518 
 H                    -2.9014    1.2799    4.3155 
 H                    -3.6173    2.9182   -5.5568 
 H                    -4.9423    1.7492   -5.3799 
 H                    -5.867     2.8848   -3.5343 
 H                    -4.9752    4.2957   -4.1373 
 H                     1.7111    3.9107   -4.9101 
 H                     2.9755    4.5094   -3.8163 
 H                     3.7854    2.3482   -3.3642 
 H                     2.973     1.872    -4.8682 
 
 ITRead=  0  0  0  0  0  0  0  0  0  0  0  0  0  0  0  0  0  0  0  0
 ITRead=  0  0  0  0  0  0  0  0  0  0  0  0  0  0  0  0  0  0  0  0
 ITRead=  0  0  0  0  0
 MicOpt= -1 -1 -1 -1 -1 -1 -1 -1 -1 -1 -1 -1 -1 -1 -1 -1 -1 -1 -1 -1
 MicOpt= -1 -1 -1 -1 -1 -1 -1 -1 -1 -1 -1 -1 -1 -1 -1 -1 -1 -1 -1 -1
 MicOpt= -1 -1 -1 -1 -1
 NAtoms=     45 NQM=       45 NQMF=       0 NMMI=      0 NMMIF=      0
                NMic=       0 NMicF=      0.
                    Isotopes and Nuclear Properties:
 (Nuclear quadrupole moments (NQMom) in fm**2, nuclear magnetic moments (NMagM)
  in nuclear magnetons)

  Atom         1           2           3           4           5           6           7           8           9          10
 IAtWgt=          12          12          12          12           1          12          12           1          12          12
 AtmWgt=  12.0000000  12.0000000  12.0000000  12.0000000   1.0078250  12.0000000  12.0000000   1.0078250  12.0000000  12.0000000
 NucSpn=           0           0           0           0           1           0           0           1           0           0
 AtZEff=  -0.0000000  -0.0000000  -0.0000000  -0.0000000  -0.0000000  -0.0000000  -0.0000000  -0.0000000  -0.0000000  -0.0000000
 NQMom=    0.0000000   0.0000000   0.0000000   0.0000000   0.0000000   0.0000000   0.0000000   0.0000000   0.0000000   0.0000000
 NMagM=    0.0000000   0.0000000   0.0000000   0.0000000   2.7928460   0.0000000   0.0000000   2.7928460   0.0000000   0.0000000
 AtZNuc=   6.0000000   6.0000000   6.0000000   6.0000000   1.0000000   6.0000000   6.0000000   1.0000000   6.0000000   6.0000000

  Atom        11          12          13          14          15          16          17          18          19          20
 IAtWgt=           1          12          12          12          14          14          12          12          14          14
 AtmWgt=   1.0078250  12.0000000  12.0000000  12.0000000  14.0030740  14.0030740  12.0000000  12.0000000  14.0030740  14.0030740
 NucSpn=           1           0           0           0           2           2           0           0           2           2
 AtZEff=  -0.0000000  -0.0000000  -0.0000000  -0.0000000  -0.0000000  -0.0000000  -0.0000000  -0.0000000  -0.0000000  -0.0000000
 NQMom=    0.0000000   0.0000000   0.0000000   0.0000000   2.0440000   2.0440000   0.0000000   0.0000000   2.0440000   2.0440000
 NMagM=    2.7928460   0.0000000   0.0000000   0.0000000   0.4037610   0.4037610   0.0000000   0.0000000   0.4037610   0.4037610
 AtZNuc=   1.0000000   6.0000000   6.0000000   6.0000000   7.0000000   7.0000000   6.0000000   6.0000000   7.0000000   7.0000000

  Atom        21          22          23          24          25          26          27          28          29          30
 IAtWgt=          12          12          14          14           1           1           1           1           1           1
 AtmWgt=  12.0000000  12.0000000  14.0030740  14.0030740   1.0078250   1.0078250   1.0078250   1.0078250   1.0078250   1.0078250
 NucSpn=           0           0           2           2           1           1           1           1           1           1
 AtZEff=  -0.0000000  -0.0000000  -0.0000000  -0.0000000  -0.0000000  -0.0000000  -0.0000000  -0.0000000  -0.0000000  -0.0000000
 NQMom=    0.0000000   0.0000000   2.0440000   2.0440000   0.0000000   0.0000000   0.0000000   0.0000000   0.0000000   0.0000000
 NMagM=    0.0000000   0.0000000   0.4037610   0.4037610   2.7928460   2.7928460   2.7928460   2.7928460   2.7928460   2.7928460
 AtZNuc=   6.0000000   6.0000000   7.0000000   7.0000000   1.0000000   1.0000000   1.0000000   1.0000000   1.0000000   1.0000000

  Atom        31          32          33          34          35          36          37          38          39          40
 IAtWgt=           1           1           1           1           1           1           1           1           1           1
 AtmWgt=   1.0078250   1.0078250   1.0078250   1.0078250   1.0078250   1.0078250   1.0078250   1.0078250   1.0078250   1.0078250
 NucSpn=           1           1           1           1           1           1           1           1           1           1
 AtZEff=  -0.0000000  -0.0000000  -0.0000000  -0.0000000  -0.0000000  -0.0000000  -0.0000000  -0.0000000  -0.0000000  -0.0000000
 NQMom=    0.0000000   0.0000000   0.0000000   0.0000000   0.0000000   0.0000000   0.0000000   0.0000000   0.0000000   0.0000000
 NMagM=    2.7928460   2.7928460   2.7928460   2.7928460   2.7928460   2.7928460   2.7928460   2.7928460   2.7928460   2.7928460
 AtZNuc=   1.0000000   1.0000000   1.0000000   1.0000000   1.0000000   1.0000000   1.0000000   1.0000000   1.0000000   1.0000000

  Atom        41          42          43          44          45
 IAtWgt=           1           1           1           1           1
 AtmWgt=   1.0078250   1.0078250   1.0078250   1.0078250   1.0078250
 NucSpn=           1           1           1           1           1
 AtZEff=  -0.0000000  -0.0000000  -0.0000000  -0.0000000  -0.0000000
 NQMom=    0.0000000   0.0000000   0.0000000   0.0000000   0.0000000
 NMagM=    2.7928460   2.7928460   2.7928460   2.7928460   2.7928460
 AtZNuc=   1.0000000   1.0000000   1.0000000   1.0000000   1.0000000
 Leave Link  101 at Mon Oct 18 00:46:02 2021, MaxMem=  7864320000 cpu:               2.0 elap:               0.1
 (Enter /apps/gaussian/g16-c01-avx/g16/l202.exe)
                          Input orientation:                          
 ---------------------------------------------------------------------
 Center     Atomic      Atomic             Coordinates (Angstroms)
 Number     Number       Type             X           Y           Z
 ---------------------------------------------------------------------
      1          6           0       -1.195300    1.024000    0.246700
      2          6           0       -1.272900    0.465900    1.642500
      3          6           0       -2.349000    1.128300   -0.517400
      4          6           0       -2.301400    1.674000   -1.790200
      5          1           0       -3.281300    0.767500   -0.109900
      6          6           0       -1.089900    2.121500   -2.295600
      7          6           0        0.068700    2.024600   -1.540100
      8          1           0       -1.048100    2.547900   -3.286000
      9          6           0        0.010700    1.474300   -0.268500
     10          6           0        1.374800    2.487700   -2.126300
     11          1           0        0.910000    1.395200    0.324900
     12          6           0       -3.549400    1.821700   -2.618000
     13          6           0       -2.194500    0.703100    3.722400
     14          6           0       -2.813300   -0.572300    3.105400
     15          7           0       -1.696000    1.476900    2.596900
     16          7           0       -2.281600   -0.598700    1.746000
     17          6           0       -4.202100    2.340500   -4.831700
     18          6           0       -4.875000    3.267900   -3.793800
     19          7           0       -3.287900    1.526700   -4.035800
     20          7           0       -4.042600    3.188200   -2.604400
     21          6           0        2.210800    3.737400   -3.950300
     22          6           0        2.824300    2.319400   -3.887300
     23          7           0        1.204400    3.731400   -2.892900
     24          7           0        1.904200    1.531300   -3.083100
     25          1           0        1.241200    4.550400   -2.301000
     26          1           0        2.128200    2.597100   -1.323600
     27          1           0        1.135600    1.200700   -3.660600
     28          1           0       -1.909900   -1.500400    1.479300
     29          1           0       -0.272000    0.117600    1.960700
     30          1           0       -2.454300    2.011300    2.180900
     31          1           0       -3.356400    0.537900   -4.235500
     32          1           0       -3.247300    3.814800   -2.696300
     33          1           0       -4.350800    1.181200   -2.204600
     34          1           0       -3.905500   -0.496500    3.053900
     35          1           0       -2.557400   -1.463300    3.687300
     36          1           0       -1.338600    0.439300    4.351800
     37          1           0       -2.901400    1.279900    4.315500
     38          1           0       -3.617300    2.918200   -5.556800
     39          1           0       -4.942300    1.749200   -5.379900
     40          1           0       -5.867000    2.884800   -3.534300
     41          1           0       -4.975200    4.295700   -4.137300
     42          1           0        1.711100    3.910700   -4.910100
     43          1           0        2.975500    4.509400   -3.816300
     44          1           0        3.785400    2.348200   -3.364200
     45          1           0        2.973000    1.872000   -4.868200
 ---------------------------------------------------------------------
                    Distance matrix (angstroms):
                    1          2          3          4          5
     1  C    0.000000
     2  C    1.505243   0.000000
     3  C    1.387714   2.502385   0.000000
     4  C    2.407264   3.781633   1.385667   0.000000
     5  H    2.131749   2.682450   1.079544   2.146009   0.000000
     6  C    2.771084   4.275878   2.394530   1.386873   3.378289
     7  C    2.406564   3.789245   2.773904   2.408909   3.853346
     8  H    3.850183   5.354939   3.372351   2.138195   4.271372
     9  C    1.386592   2.513249   2.397885   2.775114   3.370754
    10  C    3.791960   5.030094   4.278226   3.780148   5.357632
    11  H    2.139204   2.713802   3.376653   3.855446   4.260288
    12  C    3.792706   5.017221   2.516800   1.504850   2.733822
    13  C    3.630684   2.287268   4.263868   5.598467   3.983943
    14  C    3.652159   2.364480   4.028932   5.410620   3.514576
    15  N    2.445252   1.453277   3.201062   4.433058   3.216083
    16  N    2.461931   1.470225   2.847815   4.203602   2.512025
    17  C    6.046831   7.349123   4.849391   3.647959   5.061383
    18  C    5.907700   7.097865   4.657613   3.630199   4.728953
    19  N    4.792858   6.117893   3.663249   2.457153   3.998640
    20  N    4.573800   5.754851   3.386302   2.446937   3.558356
    21  C    6.048046   7.356513   6.275666   5.411432   7.330221
    22  C    5.909755   7.127496   6.287923   5.575587   7.345440
    23  N    4.790163   6.113130   5.004576   4.211826   6.054031
    24  N    4.577316   5.793128   4.983466   4.402161   6.026004
    25  H    4.986262   6.209270   5.270819   4.591798   6.290013
    26  H    3.998267   4.990716   4.780445   4.548756   5.838081
    27  H    4.553165   5.870577   4.693334   3.941494   5.683673
    28  H    2.898715   2.073340   3.330118   4.573808   3.090253
    29  H    2.147519   1.106510   3.387687   4.539834   3.710208
    30  H    2.510174   2.018376   2.841056   3.988331   2.734727
    31  H    4.999676   6.236749   3.897139   2.895383   4.132666
    32  H    4.545384   5.825682   3.573770   2.509735   3.997081
    33  H    3.998845   4.978484   2.618520   2.148167   2.388042
    34  H    4.187777   3.138287   4.221001   5.545224   3.463662
    35  H    4.458666   3.090786   4.943614   6.317531   4.463096
    36  H    4.149007   2.710227   5.020432   6.338425   4.877352
    37  H    4.419434   3.234121   4.866729   6.147755   4.471134
    38  H    6.567701   7.958637   5.496170   4.179342   5.865759
    39  H    6.798864   8.026547   5.545686   4.457124   5.612090
    40  H    6.291528   7.331854   4.956138   4.149870   4.784905
    41  H    6.649144   7.860056   5.480240   4.419434   5.615821
    42  H    6.585802   7.981696   6.597119   5.553086   7.605635
    43  H    6.786130   8.012321   7.117927   6.323784   8.178433
    44  H    6.292812   7.361827   6.871920   6.323065   7.938975
    45  H    6.652521   7.898987   6.914205   6.110040   7.935843
                    6          7          8          9         10
     6  C    0.000000
     7  C    1.386551   0.000000
     8  H    1.079100   2.137581   0.000000
     9  C    2.395688   1.386781   3.373274   0.000000
    10  C    2.497501   1.504656   2.686815   2.517771   0.000000
    11  H    3.375520   2.140597   4.266318   1.080334   2.723596
    12  C    2.498592   3.780699   2.688883   4.279620   4.993303
    13  C    6.280790   5.878975   7.337247   4.624385   7.080395
    14  C    6.276740   6.052312   7.328136   4.852499   7.367121
    15  N    4.971863   4.530884   6.014593   3.335168   5.723648
    16  N    5.015393   4.817060   6.061653   3.689198   6.155472
    17  C    4.020641   5.401311   3.518511   6.270628   6.200215
    18  C    4.229163   5.573610   3.927012   6.286080   6.515310
    19  N    2.865883   4.212266   2.573277   5.007600   5.129374
    20  N    3.154623   4.403350   3.137131   4.982281   5.483384
    21  C    4.030358   3.651211   3.532228   4.849506   2.363815
    22  C    4.230087   3.631747   3.925462   4.661143   2.287028
    23  N    2.865721   2.456226   2.574676   3.661543   1.470885
    24  N    3.151686   2.448112   3.129013   3.392722   1.452732
    25  H    3.366543   2.886761   3.197050   3.886847   2.074392
    26  H    3.395165   2.148527   3.733941   2.618725   1.106303
    27  H    2.768384   2.512689   2.593033   3.584215   2.016845
    28  H    5.295321   5.045519   6.311855   3.948715   6.300361
    29  H    4.775004   4.001041   5.834085   2.624859   5.003288
    30  H    4.681109   4.495725   5.670303   3.516270   5.782814
    31  H    3.377577   4.605081   3.204668   5.286899   5.534862
    32  H    2.771678   3.941760   2.605621   4.689000   4.842510
    33  H    3.394984   4.548062   3.734317   4.780907   5.873293
    34  H    6.587767   6.576857   7.591274   5.500820   7.976308
    35  H    7.127373   6.810841   8.185024   5.556346   8.054225
    36  H    6.861456   6.261642   7.928844   4.923313   7.316028
    37  H    6.906263   6.607883   7.926244   5.434259   7.825692
    38  H    4.202131   5.524400   3.448832   6.573686   6.072456
    39  H    4.948990   6.319021   4.493009   7.122794   7.144022
    40  H    4.993765   6.320547   4.837040   6.870394   7.388086
    41  H    4.818149   6.110996   4.381967   6.912822   6.901846
    42  H    4.228764   4.196636   3.479671   5.511067   3.144451
    43  H    4.953996   4.450259   4.507556   5.530710   3.083117
    44  H    4.996183   4.152820   4.838256   4.959377   2.713457
    45  H    4.815358   4.419784   4.373722   5.485492   3.232854
                   11         12         13         14         15
    11  H    0.000000
    12  C    5.359926   0.000000
    13  C    4.654023   6.579338   0.000000
    14  C    5.046306   6.247430   1.546043   0.000000
    15  N    3.458308   5.545193   1.453967   2.388755   0.000000
    16  N    4.022620   5.148801   2.368212   1.459921   2.318420
    17  C    7.322410   2.365510   8.937794   8.568006   7.887360
    18  C    7.344176   2.287185   8.381918   8.160680   7.358992
    19  N    6.054367   1.471586   7.878040   7.458404   6.821241
    20  N    6.026931   1.452843   7.044118   6.946535   5.957231
    21  C    5.045326   6.214888   9.353287   9.674606   7.952281
    22  C    4.718190   6.517889   9.257878   9.436224   7.949073
    23  N    3.987322   5.130413   8.030275   8.404960   6.605528
    24  N    3.552664   5.481095   7.987496   8.060860   6.725087
    25  H    4.118292   5.522331   7.930139   8.479987   6.485597
    26  H    2.376158   5.874679   6.909058   7.353881   5.590141
    27  H    3.996616   4.839616   8.114546   8.032191   6.873904
    28  H    4.203448   5.523783   3.157199   2.078870   3.187334
    29  H    2.388562   5.883010   2.672528   2.871325   2.068870
    30  H    3.891379   4.925914   2.038408   2.767412   1.016690
    31  H    6.303521   2.074053   8.043971   7.444213   7.093683
    32  H    5.680251   2.017385   7.210463   7.286613   5.990849
    33  H    5.841248   1.106066   6.325151   5.799549   5.494525
    34  H    5.849360   6.137696   2.193958   1.096038   2.997507
    35  H    5.612452   7.178586   2.196865   1.094520   3.252039
    36  H    4.710188   7.441558   1.094669   2.179814   2.069788
    37  H    5.519507   6.984760   1.088197   2.214215   2.108408
    38  H    7.576963   3.137430   9.645444   9.373565   8.500092
    39  H    8.180432   3.094110   9.565385   9.051095   8.616377
    40  H    7.939777   2.709439   8.420616   8.084692   7.547916
    41  H    7.934715   3.234479   9.078213   8.990436   8.003014
    42  H    5.862996   6.106595  10.003123  10.237955   8.595741
    43  H    5.577999   7.157791   9.901960  10.355859   8.494004
    44  H    4.773426   7.391435   9.417296   9.691640   8.144914
    45  H    5.608172   6.899828  10.092958  10.150575   8.813818
                   16         17         18         19         20
    16  N    0.000000
    17  C    7.456095   0.000000
    18  C    7.236415   1.545995   0.000000
    19  N    6.241729   1.459962   2.368381   0.000000
    20  N    6.030565   2.388493   1.453931   2.319280   0.000000
    21  C    8.451701   6.622196   7.103062   5.927074   6.420131
    22  C    8.143684   7.089614   7.758068   6.165178   7.039528
    23  N    7.240259   5.909635   6.163242   5.132999   5.282926
    24  N    6.736322   6.403070   7.034090   5.278784   6.191842
    25  H    7.436502   6.396688   6.425042   5.715334   5.464996
    26  H    6.251553   7.241913   7.456318   6.151091   6.329978
    27  H    6.644277   5.582263   6.357544   4.451337   5.646191
    28  H    1.011115   7.735335   7.702862   6.440384   6.573278
    29  H    2.144219   8.156204   8.014129   6.858515   6.669794
    30  H    2.651615   7.234621   6.567791   6.291032   5.177537
    31  H    6.182669   2.078468   3.155019   1.011087   3.186761
    32  H    6.336055   2.764984   2.037894   2.651662   1.016649
    33  H    4.801757   2.875368   2.674819   2.145325   2.069511
    34  H    2.087606   8.385656   7.874112   7.398555   6.753678
    35  H    2.142952   9.473505   9.149993   8.313844   7.964155
    36  H    2.959204   9.805655   9.319759   8.679519   7.953413
    37  H    3.242780   9.299890   8.579510   8.363881   7.268353
    38  H    8.214838   1.096129   2.193688   2.087634   2.995070
    39  H    7.960553   1.094557   2.196973   2.143164   3.253242
    40  H    7.271275   2.179771   1.094609   2.957650   2.070073
    41  H    8.113190   2.214200   1.088304   3.244171   2.108573
    42  H    8.976637   6.118628   6.710889   5.606947   6.240459
    43  H    9.201574   7.566578   7.948093   6.940811   7.243480
    44  H    8.462083   8.121193   8.719686   7.152446   7.909518
    45  H    8.801297   7.190472   8.043257   6.325424   7.488379
                   21         22         23         24         25
    21  C    0.000000
    22  C    1.546310   0.000000
    23  N    1.459785   2.367837   0.000000
    24  N    2.390171   1.454106   2.316535   0.000000
    25  H    2.078770   3.162264   1.011168   3.188450   0.000000
    26  H    2.864727   2.670998   2.145401   2.069286   2.357427
    27  H    2.770348   2.038281   2.645475   1.016636   3.616650
    28  H    8.596236   8.111961   7.495781   6.674883   7.799505
    29  H    7.362552   6.973815   6.228703   5.672241   6.332581
    30  H    7.895201   8.048701   6.487548   6.851030   6.339651
    31  H    6.427430   6.441742   5.727295   5.476201   6.401591
    32  H    5.600836   6.365456   4.456819   5.648180   4.565523
    33  H    7.255082   7.457147   6.151221   6.326085   6.529262
    34  H   10.217331  10.069745   8.907898   8.690648   8.979681
    35  H   10.397882  10.032252   9.188856   8.643600   9.298047
    36  H    9.612521   9.420578   8.354068   8.184495   8.235063
    37  H   10.024836  10.057342   8.650345   8.825887   8.463769
    38  H    6.100711   6.681317   5.568343   6.207225   6.072012
    39  H    7.560657   7.929253   6.920709   7.224772   7.453993
    40  H    8.133316   8.716822   7.150722   7.901082   7.404172
    41  H    7.210081   8.049873   6.328856   7.488617   6.486948
    42  H    1.095878   2.194896   2.087580   3.006121   2.727164
    43  H    1.094854   2.196361   2.143536   3.248745   2.303391
    44  H    2.180081   1.094612   2.965961   2.070086   3.528885
    45  H    2.214318   1.088321   3.238383   2.108315   4.094322
                   26         27         28         29         30
    26  H    0.000000
    27  H    2.897716   0.000000
    28  H    6.399375   6.556644   0.000000
    29  H    4.763980   5.895206   2.352103   0.000000
    30  H    5.798620   6.904171   3.622244   2.897761   0.000000
    31  H    6.542194   4.576885   6.237465   6.934196   6.644914
    32  H    5.680062   5.193574   6.890256   6.649011   5.260089
    33  H    6.690170   5.676346   5.169148   5.926009   4.849576
    34  H    8.070837   8.566078   2.733057   3.843765   3.026082
    35  H    7.971876   8.644465   2.301282   3.271612   3.788498
    36  H    6.991779   8.420211   3.512844   2.637894   2.903236
    37  H    7.670159   8.939900   4.093552   3.716150   2.300296
    38  H    7.143799   5.397725   8.482095   8.691789   7.876994
    39  H    8.195393   6.340167   8.173370   8.852018   7.963952
    40  H    8.300192   7.203371   7.747568   8.316035   6.713645
    41  H    7.826905   6.866451   8.633483   8.761405   7.175867
    42  H    3.842200   3.039169   9.122285   8.094948   8.440412
    43  H    3.253976   3.789059   9.382335   7.950339   8.466973
    44  H    2.640513   2.902766   8.408784   7.056389   8.354370
    45  H    3.715326   2.298908   8.689451   7.761560   8.897460
                   31         32         33         34         35
    31  H    0.000000
    32  H    3.622032   0.000000
    33  H    2.351004   2.897470   0.000000
    34  H    7.382875   7.217017   5.537580   0.000000
    35  H    8.210601   8.311718   6.702548   1.775745   0.000000
    36  H    8.821732   8.044430   7.253285   3.024771   2.355190
    37  H    8.595184   7.463960   6.679985   2.399052   2.835157
    38  H    2.734910   3.020472   3.846094   9.267545  10.284664
    39  H    2.300430   3.787009   3.279486   8.789033   9.910702
    40  H    3.507525   2.903441   2.639928   7.660617   9.055989
    41  H    4.092825   2.300736   3.718241   8.707629  10.011803
    42  H    6.124575   5.431007   7.177502  10.695555  11.000693
    43  H    7.486087   6.360826   8.206654  10.936491  11.072043
    44  H    7.419006   7.214976   8.300862  10.413178  10.221658
    45  H    6.499341   6.869043   7.823683  10.755614  10.719428
                   36         37         38         39         40
    36  H    0.000000
    37  H    1.774900   0.000000
    38  H   10.465074  10.032888   0.000000
    39  H   10.459851   9.918987   1.775804   0.000000
    40  H    9.416871   8.543410   3.025355   2.356034   0.000000
    41  H   10.008072   9.211163   2.399245   2.833690   1.774699
    42  H   10.350559  10.644621   5.458491   7.011457   7.770000
    43  H   10.094307  10.540104   7.001876   8.529660   8.994924
    44  H    9.457057  10.238767   7.741599   8.977449   9.668800
    45  H   10.278664  10.917853   6.708260   7.932773   8.997258
                   41         42         43         44         45
    41  H    0.000000
    42  H    6.741814   0.000000
    43  H    7.960046   1.775823   0.000000
    44  H    9.007694   3.022240   2.351833   0.000000
    45  H    8.341608   2.398009   2.839433   1.774479   0.000000
 Stoichiometry    C15H24N6
 Framework group  C1[X(C15H24N6)]
 Deg. of freedom   129
 Full point group                 C1      NOp   1
 Largest Abelian subgroup         C1      NOp   1
 Largest concise Abelian subgroup C1      NOp   1
                         Standard orientation:                         
 ---------------------------------------------------------------------
 Center     Atomic      Atomic             Coordinates (Angstroms)
 Number     Number       Type             X           Y           Z
 ---------------------------------------------------------------------
      1          6           0       -1.594822   -0.666401   -0.154053
      2          6           0       -3.043692   -1.073667   -0.179864
      3          6           0       -1.256224    0.676472   -0.242331
      4          6           0        0.070592    1.071553   -0.182798
      5          1           0       -2.040788    1.407002   -0.369615
      6          6           0        1.061342    0.113358   -0.028862
      7          6           0        0.734491   -1.230986    0.062958
      8          1           0        2.095928    0.416372    0.018781
      9          6           0       -0.596234   -1.616083   -0.000548
     10          6           0        1.832054   -2.251551    0.196350
     11          1           0       -0.857447   -2.662015    0.069543
     12          6           0        0.450328    2.526324   -0.246165
     13          6           0       -5.081845   -0.866171    0.837227
     14          6           0       -5.190363   -0.144772   -0.525878
     15          7           0       -3.659087   -0.933480    1.129201
     16          7           0       -3.835267   -0.207271   -1.065487
     17          6           0        2.369770    3.886847   -0.491841
     18          6           0        1.571358    4.231755    0.786313
     19          7           0        1.674916    2.724672   -1.037749
     20          7           0        0.764960    3.055614    1.069742
     21          6           0        4.145268   -2.387413    0.663474
     22          6           0        3.783624   -3.057748   -0.682238
     23          7           0        2.891895   -1.780137    1.100788
     24          7           0        2.502972   -2.488660   -1.070173
     25          1           0        2.674172   -1.966289    2.070533
     26          1           0        1.407092   -3.218217    0.526304
     27          1           0        2.646804   -1.591681   -1.526559
     28          1           0       -3.801670   -0.516604   -2.027535
     29          1           0       -3.126077   -2.139645   -0.464941
     30          1           0       -3.347081   -0.055694    1.536390
     31          1           0        1.477753    2.805090   -2.026161
     32          1           0        1.322663    2.365292    1.565724
     33          1           0       -0.396670    3.117408   -0.641887
     34          1           0       -5.468133    0.907391   -0.395133
     35          1           0       -5.935498   -0.619517   -1.171916
     36          1           0       -5.454081   -1.891956    0.750598
     37          1           0       -5.624753   -0.362234    1.634392
     38          1           0        3.398915    3.598377   -0.248644
     39          1           0        2.404515    4.734554   -1.183391
     40          1           0        0.889767    5.065588    0.590546
     41          1           0        2.205466    4.488867    1.632602
     42          1           0        4.889752   -1.595389    0.524226
     43          1           0        4.546292   -3.114907    1.376663
     44          1           0        3.642224   -4.133893   -0.540482
     45          1           0        4.534251   -2.902165   -1.454763
 ---------------------------------------------------------------------
 Rotational constants (GHZ):           0.3285927           0.2066705           0.1386049
 Leave Link  202 at Mon Oct 18 00:46:02 2021, MaxMem=  7864320000 cpu:               0.2 elap:               0.0
 (Enter /apps/gaussian/g16-c01-avx/g16/l301.exe)
 Standard basis: def2TZVP (5D, 7F)
 Ernie: Thresh=  0.10000D-02 Tol=  0.10000D-05 Strict=F.
 There are   900 symmetry adapted cartesian basis functions of A   symmetry.
 There are   795 symmetry adapted basis functions of A   symmetry.
   795 basis functions,  1263 primitive gaussians,   900 cartesian basis functions
    78 alpha electrons       78 beta electrons
       nuclear repulsion energy      1709.5741711476 Hartrees.
 IExCor= 1009 DFT=T Ex+Corr=PBE1PBE ExCW=0 ScaHFX=  0.250000
 ScaDFX=  0.750000  0.750000  1.000000  1.000000 ScalE2=  1.000000  1.000000
 IRadAn=      7 IRanWt=     -1 IRanGd=            0 ICorTp=0 IEmpDi=131
 NAtoms=   45 NActive=   45 NUniq=   45 SFac= 1.00D+00 NAtFMM=   60 NAOKFM=F Big=F
 Integral buffers will be    131072 words long.
 Raffenetti 2 integral format.
 Two-electron integral symmetry is turned on.
 R6Disp:  Grimme-D3 Dispersion energy=       -0.0270307682 Hartrees.
 Nuclear repulsion after empirical dispersion term =     1709.5471403794 Hartrees.
 Leave Link  301 at Mon Oct 18 00:46:02 2021, MaxMem=  7864320000 cpu:               0.8 elap:               0.0
 (Enter /apps/gaussian/g16-c01-avx/g16/l302.exe)
 NPDir=0 NMtPBC=     1 NCelOv=     1 NCel=       1 NClECP=     1 NCelD=      1
         NCelK=      1 NCelE2=     1 NClLst=     1 CellRange=     0.0.
 One-electron integrals computed using PRISM.
 One-electron integral symmetry used in STVInt
   1 Symmetry operations used in ECPInt.
 ECPInt:  NShTT=   53628 NPrTT=  159864 LenC2=   45128 LenP2D=   95486.
 LDataN:  DoStor=T MaxTD1= 6 Len=  172
 NBasis=   795 RedAO= T EigKep=  5.14D-06  NBF=   795
 NBsUse=   795 1.00D-06 EigRej= -1.00D+00 NBFU=   795
 Precomputing XC quadrature grid using
 IXCGrd= 4 IRadAn=           7 IRanWt=          -1 IRanGd=           0 AccXCQ= 0.00D+00.
 Generated NRdTot=       0 NPtTot=           0 NUsed=           0 NTot=          32
 NSgBfM=   884   884   884   884   884 MxSgAt=    45 MxSgA2=    45.
 Leave Link  302 at Mon Oct 18 00:46:03 2021, MaxMem=  7864320000 cpu:              49.6 elap:               1.6
 (Enter /apps/gaussian/g16-c01-avx/g16/l303.exe)
 DipDrv:  MaxL=1.
 Leave Link  303 at Mon Oct 18 00:46:04 2021, MaxMem=  7864320000 cpu:               3.9 elap:               0.2
 (Enter /apps/gaussian/g16-c01-avx/g16/l401.exe)
 ExpMin= 9.52D-02 ExpMax= 1.97D+04 ExpMxC= 6.73D+02 IAcc=3 IRadAn=         7 AccDes= 0.00D+00
 Harris functional with IExCor= 1009 and IRadAn=       7 diagonalized for initial guess.
 HarFok:  IExCor= 1009 AccDes= 0.00D+00 IRadAn=         7 IDoV= 1 UseB2=F ITyADJ=14
 ICtDFT=  3500011 ScaDFX=  1.000000  1.000000  1.000000  1.000000
 FoFCou: FMM=F IPFlag=           0 FMFlag=      100000 FMFlg1=           0
         NFxFlg=           0 DoJE=T BraDBF=F KetDBF=T FulRan=T
         wScrn=  0.000000 ICntrl=       500 IOpCl=  0 I1Cent=   200000004 NGrid=           0
         NMat0=    1 NMatS0=      1 NMatT0=    0 NMatD0=    1 NMtDS0=    0 NMtDT0=    0
 Petite list used in FoFCou.
 Harris En= -914.022347018907    
 JPrj=0 DoOrth=F DoCkMO=F.
 Leave Link  401 at Mon Oct 18 00:46:10 2021, MaxMem=  7864320000 cpu:             211.3 elap:               6.7
 (Enter /apps/gaussian/g16-c01-avx/g16/l508.exe)
 Integral symmetry usage will be decided dynamically.
 Tight linear equation convergence will be used.
 RPBE1PBE wavefunction.
 Linear searches until partial convergence.
 Full line searches.
 Fock matrices will be formed incrementally for  20 cycles.
 FoFJK:  IHMeth= 1 ICntrl=       0 DoSepK=F KAlg= 0 I1Cent=           0 FoldK=F
 IRaf= 760000000 NMat=       1 IRICut=       1 DoRegI=T DoRafI=F ISym2E= 1 IDoP0=0 IntGTp=1.
 FoFCou: FMM=F IPFlag=           0 FMFlag=      100000 FMFlg1=           0
         NFxFlg=           0 DoJE=F BraDBF=F KetDBF=F FulRan=T
         wScrn=  0.000000 ICntrl=         0 IOpCl=  0 I1Cent=           0 NGrid=           0
         NMat0=    1 NMatS0=      1 NMatT0=    0 NMatD0=    1 NMtDS0=    0 NMtDT0=    0
 Petite list used in FoFCou.
 Iteration   1 EE= -913.355425672616                                    Grad=1.012D+00 Max rot=    1.7868 deg.
 Gradient too large for Newton-Raphson -- use scaled steepest descent instead.
 Alpha Gap=     0.245 HL deriv= 2.03D-02
     ILin= 1 X=0.000D+00 Y=-9.133554256726D+02 DE= 0.00D+00 F= -1.88D+00
 RMSU=  1.63D-03    CP:  1.10D+00
     ILin= 2 X=3.000D-01 Y=-9.137316221318D+02 DE=-3.76D-01 F= -6.24D-01 OKLS=F
 RMSU=  1.83D-04    CP:  1.18D+00  1.79D+00
     ILin= 3 X=5.000D-01 Y=-9.137712598315D+02 DE=-4.16D-01 F=  2.30D-01
     Accept linear search using points  2 and  3.
     An  expanding polynomial of degree  3 produced  0.3902
 RMSU=  6.54D-08    CP:  1.13D+00  1.35D+00  3.52D-01
 Iteration   2 EE= -913.770648364881     Delta-E=       -0.415222692264 Grad=3.284D-01 Max rot=    0.9519 deg.
 Gradient too large for Newton-Raphson -- use scaled steepest descent instead.
 Alpha Gap=     0.246 HL deriv= 3.01D-03
     ILin= 1 X=0.000D+00 Y=-9.137706483649D+02 DE= 0.00D+00 F= -8.93D-02
 RMSU=  1.46D-04    CP:  1.15D+00  1.57D+00  5.81D-01  3.00D+00
     ILin= 2 X=3.000D-01 Y=-9.137915731632D+02 DE=-2.09D-02 F= -5.01D-02 OKLS=F
 RMSU=  1.61D-05    CP:  1.18D+00  1.88D+00  1.02D+00  3.00D+00  2.37D+00
     ILin= 3 X=7.000D-01 Y=-9.138011513229D+02 DE=-3.05D-02 F=  2.27D-03
     Accept linear search using points  2 and  3.
     An  expanding polynomial of degree  3 produced  0.5349
 RMSU=  2.51D-08    CP:  1.17D+00  1.75D+00  8.18D-01  3.00D+00  1.80D+00
                    CP:  4.49D-01
 Iteration   3 EE= -913.799738877114     Delta-E=       -0.029090512233 Grad=1.313D-01 Max rot=    0.4208 deg.
 Gradient too large for Newton-Raphson -- use scaled steepest descent instead.
 Alpha Gap=     0.231 HL deriv= 3.12D-03
     ILin= 1 X=0.000D+00 Y=-9.137997388771D+02 DE= 0.00D+00 F= -9.32D-03
 RMSU=  9.97D-05    CP:  1.19D+00  1.95D+00  1.20D+00  3.00D+00  2.50D+00
                    CP:  2.74D-01  3.00D+00
     ILin= 2 X=5.000D-01 Y=-9.138028902958D+02 DE=-3.15D-03 F= -3.28D-03 OKLS=F
 RMSU=  1.15D-05    CP:  1.21D+00  2.12D+00  1.54D+00  3.00D+00  3.00D+00
                    CP:  3.92D-01  3.00D+00  1.81D+00
     ILin= 3 X=9.000D-01 Y=-9.138032376868D+02 DE=-3.50D-03 F=  1.55D-03
     Accept linear search using points  2 and  3.
     An  expanding polynomial of degree  3 produced  0.7076
 RMSU=  1.26D-06    CP:  1.20D+00  2.04D+00  1.37D+00  3.00D+00  2.80D+00
                    CP:  3.06D-01  3.00D+00  1.42D+00  3.21D-02
 Iteration   4 EE= -913.803311709000     Delta-E=       -0.003572831886 Grad=3.986D-02 Max rot=    0.1214 deg.
 Gradient too large for Newton-Raphson -- use scaled steepest descent instead.
 Alpha Gap=     0.238 HL deriv= 2.21D-03
     ILin= 1 X=0.000D+00 Y=-9.138033117090D+02 DE= 0.00D+00 F= -1.45D-03
 RMSU=  5.31D-05    CP:  1.20D+00  2.07D+00  1.42D+00  3.00D+00  3.00D+00
                    CP:  2.82D-01  3.00D+00  1.67D+00  1.48D+00 -3.00D+00
     ILin= 2 X=6.000D-01 Y=-9.138036255865D+02 DE=-3.14D-04 F=  4.00D-04 OKLS=T
     Accept linear search using points  1 and  2.
     An  expanding polynomial of degree  2 produced  0.3777
 RMSU=  4.82D-06    CP:  1.20D+00  2.06D+00  1.40D+00  3.00D+00  3.00D+00
                    CP:  2.85D-01  3.00D+00  1.57D+00  3.44D-02 -3.00D+00
                    CP:  6.15D-01
 Iteration   5 EE= -913.803638521096     Delta-E=       -0.000326812096 Grad=2.160D-02 Max rot=    0.0678 deg.
 Gradient too large for Newton-Raphson -- use scaled steepest descent instead.
 Alpha Gap=     0.235 HL deriv= 6.00D-04
     ILin= 1 X=0.000D+00 Y=-9.138036385211D+02 DE= 0.00D+00 F= -2.22D-04
 RMSU=  8.96D-06    CP:  1.20D+00  2.09D+00  1.49D+00  3.00D+00  3.00D+00
                    CP:  3.22D-01  3.00D+00  1.84D+00  1.96D+00 -3.00D+00
                    CP:  9.79D-01  9.44D-03
     ILin= 2 X=5.000D-01 Y=-9.138037193774D+02 DE=-8.09D-05 F= -1.01D-04 OKLS=F
 RMSU=  1.04D-05    CP:  1.21D+00  2.13D+00  1.59D+00  3.00D+00  3.00D+00
                    CP:  3.79D-01  3.00D+00  2.11D+00  3.00D+00 -3.00D+00
                    CP:  1.34D+00 -9.40D-01  2.00D+00
     ILin= 3 X=1.000D+00 Y=-9.138037399865D+02 DE=-1.01D-04 F=  1.90D-05
     Accept linear search using points  2 and  3.
     An  expanding polynomial of degree  3 produced  0.8036
 RMSU=  8.33D-08    CP:  1.20D+00  2.12D+00  1.55D+00  3.00D+00  3.00D+00
                    CP:  3.54D-01  3.00D+00  2.00D+00  3.00D+00 -3.00D+00
                    CP:  1.20D+00 -5.72D-01  1.61D+00  1.55D-01
 Iteration   6 EE= -913.803739077845     Delta-E=       -0.000100556749 Grad=5.184D-03 Max rot=    0.0344 deg.
 SCF Done:  E(RPBE1PBE) =  -913.803739078     a.u. after    6 cycles
            Convg  =    0.5184D-02                    15 Fock formations.
              S**2 =  0.0000                  -V/T =  2.0048
 Leave Link  508 at Mon Oct 18 00:52:05 2021, MaxMem=  7864320000 cpu:           11292.1 elap:             355.1
 (Enter /apps/gaussian/g16-c01-avx/g16/l502.exe)
 Integral symmetry usage will be decided dynamically.
 Closed shell SCF:
 Using DIIS extrapolation, IDIIS=  1040.
 NGot=  7864320000 LenX=  7862662082 LenY=  7861851182
 Requested convergence on RMS density matrix=1.00D-08 within 128 cycles.
 Requested convergence on MAX density matrix=1.00D-06.
 Requested convergence on             energy=1.00D-06.
 No special actions if energy rises.
 Fock matrices will be formed incrementally for  20 cycles.

 Cycle   1  Pass 1  IDiag  1:
 FoFJK:  IHMeth= 1 ICntrl=       0 DoSepK=F KAlg= 0 I1Cent=           0 FoldK=F
 IRaf= 760000000 NMat=       1 IRICut=       1 DoRegI=T DoRafI=F ISym2E= 0 IDoP0=0 IntGTp=1.
 FoFCou: FMM=F IPFlag=           0 FMFlag=      100000 FMFlg1=           0
         NFxFlg=           0 DoJE=F BraDBF=F KetDBF=F FulRan=T
         wScrn=  0.000000 ICntrl=         0 IOpCl=  0 I1Cent=           0 NGrid=           0
         NMat0=    1 NMatS0=      1 NMatT0=    0 NMatD0=    1 NMtDS0=    0 NMtDT0=    0
 Symmetry not used in FoFCou.
 E= -913.803739077846    
 DIIS: error= 7.49D-05 at cycle   1 NSaved=   1.
 NSaved= 1 IEnMin= 1 EnMin= -913.803739077846     IErMin= 1 ErrMin= 7.49D-05
 ErrMax= 7.49D-05  0.00D+00 EMaxC= 1.00D-01 BMatC= 1.34D-05 BMatP= 1.34D-05
 IDIUse=1 WtCom= 1.00D+00 WtEn= 0.00D+00
 Coeff-Com:  0.100D+01
 Coeff:      0.100D+01
 Gap=     0.235 Goal=   None    Shift=    0.000
 RMSDP=5.43D-05 MaxDP=1.13D-02              OVMax= 1.89D-03

 Cycle   2  Pass 1  IDiag  1:
 RMSU=  4.51D-05    CP:  1.00D+00
 E= -913.803734549372     Delta-E=        0.000004528474 Rises=F Damp=F
 DIIS: error= 1.55D-04 at cycle   2 NSaved=   2.
 NSaved= 2 IEnMin= 1 EnMin= -913.803739077846     IErMin= 1 ErrMin= 7.49D-05
 ErrMax= 1.55D-04  0.00D+00 EMaxC= 1.00D-01 BMatC= 1.46D-05 BMatP= 1.34D-05
 IDIUse=3 WtCom= 9.98D-01 WtEn= 1.55D-03
 Coeff-Com:  0.514D+00 0.486D+00
 Coeff-En:   0.597D+00 0.403D+00
 Coeff:      0.514D+00 0.486D+00
 Gap=     0.225 Goal=   None    Shift=    0.000
 RMSDP=1.62D-05 MaxDP=2.08D-03 DE= 4.53D-06 OVMax= 1.71D-03

 Cycle   3  Pass 1  IDiag  1:
 RMSU=  1.53D-05    CP:  1.00D+00  1.02D+00
 E= -913.803747065163     Delta-E=       -0.000012515791 Rises=F Damp=F
 DIIS: error= 7.43D-05 at cycle   3 NSaved=   3.
 NSaved= 3 IEnMin= 3 EnMin= -913.803747065163     IErMin= 3 ErrMin= 7.43D-05
 ErrMax= 7.43D-05  0.00D+00 EMaxC= 1.00D-01 BMatC= 2.96D-06 BMatP= 1.34D-05
 IDIUse=1 WtCom= 1.00D+00 WtEn= 0.00D+00
 Coeff-Com:  0.193D-03 0.308D+00 0.691D+00
 Coeff:      0.193D-03 0.308D+00 0.691D+00
 Gap=     0.225 Goal=   None    Shift=    0.000
 RMSDP=4.95D-06 MaxDP=6.66D-04 DE=-1.25D-05 OVMax= 5.61D-04

 Cycle   4  Pass 1  IDiag  1:
 RMSU=  1.36D-06    CP:  1.00D+00  1.08D+00  7.35D-01
 E= -913.803750237102     Delta-E=       -0.000003171939 Rises=F Damp=F
 DIIS: error= 6.14D-06 at cycle   4 NSaved=   4.
 NSaved= 4 IEnMin= 4 EnMin= -913.803750237102     IErMin= 4 ErrMin= 6.14D-06
 ErrMax= 6.14D-06  0.00D+00 EMaxC= 1.00D-01 BMatC= 5.20D-08 BMatP= 2.96D-06
 IDIUse=1 WtCom= 1.00D+00 WtEn= 0.00D+00
 Coeff-Com: -0.102D-01 0.141D+00 0.339D+00 0.530D+00
 Coeff:     -0.102D-01 0.141D+00 0.339D+00 0.530D+00
 Gap=     0.225 Goal=   None    Shift=    0.000
 RMSDP=1.71D-06 MaxDP=2.35D-04 DE=-3.17D-06 OVMax= 4.85D-05

 Cycle   5  Pass 1  IDiag  1:
 RMSU=  1.13D-06    CP:  1.00D+00  1.06D+00  7.06D-01  7.40D-01
 E= -913.803750286376     Delta-E=       -0.000000049274 Rises=F Damp=F
 DIIS: error= 9.47D-07 at cycle   5 NSaved=   5.
 NSaved= 5 IEnMin= 5 EnMin= -913.803750286376     IErMin= 5 ErrMin= 9.47D-07
 ErrMax= 9.47D-07  0.00D+00 EMaxC= 1.00D-01 BMatC= 2.39D-09 BMatP= 5.20D-08
 IDIUse=1 WtCom= 1.00D+00 WtEn= 0.00D+00
 Coeff-Com: -0.325D-02 0.235D-01 0.610D-01 0.203D+00 0.715D+00
 Coeff:     -0.325D-02 0.235D-01 0.610D-01 0.203D+00 0.715D+00
 Gap=     0.225 Goal=   None    Shift=    0.000
 RMSDP=4.62D-07 MaxDP=6.88D-05 DE=-4.93D-08 OVMax= 1.25D-05

 Cycle   6  Pass 1  IDiag  1:
 RMSU=  1.22D-07    CP:  1.00D+00  1.07D+00  7.14D-01  8.05D-01  8.16D-01
 E= -913.803750288131     Delta-E=       -0.000000001755 Rises=F Damp=F
 DIIS: error= 7.60D-07 at cycle   6 NSaved=   6.
 NSaved= 6 IEnMin= 6 EnMin= -913.803750288131     IErMin= 6 ErrMin= 7.60D-07
 ErrMax= 7.60D-07  0.00D+00 EMaxC= 1.00D-01 BMatC= 6.35D-10 BMatP= 2.39D-09
 IDIUse=1 WtCom= 1.00D+00 WtEn= 0.00D+00
 Coeff-Com: -0.625D-03-0.185D-02-0.224D-02 0.578D-01 0.403D+00 0.544D+00
 Coeff:     -0.625D-03-0.185D-02-0.224D-02 0.578D-01 0.403D+00 0.544D+00
 Gap=     0.225 Goal=   None    Shift=    0.000
 RMSDP=1.21D-07 MaxDP=1.46D-05 DE=-1.76D-09 OVMax= 7.72D-06

 Cycle   7  Pass 1  IDiag  1:
 RMSU=  3.61D-08    CP:  1.00D+00  1.07D+00  7.13D-01  8.10D-01  8.93D-01
                    CP:  6.55D-01
 E= -913.803750288705     Delta-E=       -0.000000000574 Rises=F Damp=F
 DIIS: error= 3.05D-07 at cycle   7 NSaved=   7.
 NSaved= 7 IEnMin= 7 EnMin= -913.803750288705     IErMin= 7 ErrMin= 3.05D-07
 ErrMax= 3.05D-07  0.00D+00 EMaxC= 1.00D-01 BMatC= 4.71D-11 BMatP= 6.35D-10
 IDIUse=1 WtCom= 1.00D+00 WtEn= 0.00D+00
 Coeff-Com: -0.193D-03-0.215D-02-0.445D-02 0.169D-01 0.158D+00 0.290D+00
 Coeff-Com:  0.542D+00
 Coeff:     -0.193D-03-0.215D-02-0.445D-02 0.169D-01 0.158D+00 0.290D+00
 Coeff:      0.542D+00
 Gap=     0.225 Goal=   None    Shift=    0.000
 RMSDP=2.94D-08 MaxDP=3.78D-06 DE=-5.74D-10 OVMax= 2.59D-06

 Cycle   8  Pass 1  IDiag  1:
 RMSU=  1.39D-08    CP:  1.00D+00  1.07D+00  7.12D-01  8.15D-01  9.00D-01
                    CP:  6.94D-01  6.34D-01
 E= -913.803750288743     Delta-E=       -0.000000000038 Rises=F Damp=F
 DIIS: error= 1.01D-07 at cycle   8 NSaved=   8.
 NSaved= 8 IEnMin= 8 EnMin= -913.803750288743     IErMin= 8 ErrMin= 1.01D-07
 ErrMax= 1.01D-07  0.00D+00 EMaxC= 1.00D-01 BMatC= 6.85D-12 BMatP= 4.71D-11
 IDIUse=1 WtCom= 1.00D+00 WtEn= 0.00D+00
 Coeff-Com: -0.472D-04-0.111D-02-0.258D-02 0.231D-02 0.408D-01 0.106D+00
 Coeff-Com:  0.321D+00 0.534D+00
 Coeff:     -0.472D-04-0.111D-02-0.258D-02 0.231D-02 0.408D-01 0.106D+00
 Coeff:      0.321D+00 0.534D+00
 Gap=     0.225 Goal=   None    Shift=    0.000
 RMSDP=8.15D-09 MaxDP=8.97D-07 DE=-3.82D-11 OVMax= 7.54D-07

 SCF Done:  E(RPBE1PBE) =  -913.803750289     A.U. after    8 cycles
            NFock=  8  Conv=0.82D-08     -V/T= 2.0048
 KE= 9.094705013565D+02 PE=-5.546339981884D+03 EE= 2.013518589859D+03
 Leave Link  502 at Mon Oct 18 00:55:28 2021, MaxMem=  7864320000 cpu:            6430.2 elap:             202.2
 (Enter /apps/gaussian/g16-c01-avx/g16/l508.exe)
 QCSCF skips out because SCF is already converged.
 Leave Link  508 at Mon Oct 18 00:55:28 2021, MaxMem=  7864320000 cpu:               0.1 elap:               0.0
 (Enter /apps/gaussian/g16-c01-avx/g16/l601.exe)
 Copying SCF densities to generalized density rwf, IOpCl= 0 IROHF=0.

 **********************************************************************

            Population analysis using the SCF Density.

 **********************************************************************

 Orbital symmetries:
       Occupied  (A) (A) (A) (A) (A) (A) (A) (A) (A) (A) (A) (A)
                 (A) (A) (A) (A) (A) (A) (A) (A) (A) (A) (A) (A)
                 (A) (A) (A) (A) (A) (A) (A) (A) (A) (A) (A) (A)
                 (A) (A) (A) (A) (A) (A) (A) (A) (A) (A) (A) (A)
                 (A) (A) (A) (A) (A) (A) (A) (A) (A) (A) (A) (A)
                 (A) (A) (A) (A) (A) (A) (A) (A) (A) (A) (A) (A)
                 (A) (A) (A) (A) (A) (A)
       Virtual   (A) (A) (A) (A) (A) (A) (A) (A) (A) (A) (A) (A)
                 (A) (A) (A) (A) (A) (A) (A) (A) (A) (A) (A) (A)
                 (A) (A) (A) (A) (A) (A) (A) (A) (A) (A) (A) (A)
                 (A) (A) (A) (A) (A) (A) (A) (A) (A) (A) (A) (A)
                 (A) (A) (A) (A) (A) (A) (A) (A) (A) (A) (A) (A)
                 (A) (A) (A) (A) (A) (A) (A) (A) (A) (A) (A) (A)
                 (A) (A) (A) (A) (A) (A) (A) (A) (A) (A) (A) (A)
                 (A) (A) (A) (A) (A) (A) (A) (A) (A) (A) (A) (A)
                 (A) (A) (A) (A) (A) (A) (A) (A) (A) (A) (A) (A)
                 (A) (A) (A) (A) (A) (A) (A) (A) (A) (A) (A) (A)
                 (A) (A) (A) (A) (A) (A) (A) (A) (A) (A) (A) (A)
                 (A) (A) (A) (A) (A) (A) (A) (A) (A) (A) (A) (A)
                 (A) (A) (A) (A) (A) (A) (A) (A) (A) (A) (A) (A)
                 (A) (A) (A) (A) (A) (A) (A) (A) (A) (A) (A) (A)
                 (A) (A) (A) (A) (A) (A) (A) (A) (A) (A) (A) (A)
                 (A) (A) (A) (A) (A) (A) (A) (A) (A) (A) (A) (A)
                 (A) (A) (A) (A) (A) (A) (A) (A) (A) (A) (A) (A)
                 (A) (A) (A) (A) (A) (A) (A) (A) (A) (A) (A) (A)
                 (A) (A) (A) (A) (A) (A) (A) (A) (A) (A) (A) (A)
                 (A) (A) (A) (A) (A) (A) (A) (A) (A) (A) (A) (A)
                 (A) (A) (A) (A) (A) (A) (A) (A) (A) (A) (A) (A)
                 (A) (A) (A) (A) (A) (A) (A) (A) (A) (A) (A) (A)
                 (A) (A) (A) (A) (A) (A) (A) (A) (A) (A) (A) (A)
                 (A) (A) (A) (A) (A) (A) (A) (A) (A) (A) (A) (A)
                 (A) (A) (A) (A) (A) (A) (A) (A) (A) (A) (A) (A)
                 (A) (A) (A) (A) (A) (A) (A) (A) (A) (A) (A) (A)
                 (A) (A) (A) (A) (A) (A) (A) (A) (A) (A) (A) (A)
                 (A) (A) (A) (A) (A) (A) (A) (A) (A) (A) (A) (A)
                 (A) (A) (A) (A) (A) (A) (A) (A) (A) (A) (A) (A)
                 (A) (A) (A) (A) (A) (A) (A) (A) (A) (A) (A) (A)
                 (A) (A) (A) (A) (A) (A) (A) (A) (A) (A) (A) (A)
                 (A) (A) (A) (A) (A) (A) (A) (A) (A) (A) (A) (A)
                 (A) (A) (A) (A) (A) (A) (A) (A) (A) (A) (A) (A)
                 (A) (A) (A) (A) (A) (A) (A) (A) (A) (A) (A) (A)
                 (A) (A) (A) (A) (A) (A) (A) (A) (A) (A) (A) (A)
                 (A) (A) (A) (A) (A) (A) (A) (A) (A) (A) (A) (A)
                 (A) (A) (A) (A) (A) (A) (A) (A) (A) (A) (A) (A)
                 (A) (A) (A) (A) (A) (A) (A) (A) (A) (A) (A) (A)
                 (A) (A) (A) (A) (A) (A) (A) (A) (A) (A) (A) (A)
                 (A) (A) (A) (A) (A) (A) (A) (A) (A) (A) (A) (A)
                 (A) (A) (A) (A) (A) (A) (A) (A) (A) (A) (A) (A)
                 (A) (A) (A) (A) (A) (A) (A) (A) (A) (A) (A) (A)
                 (A) (A) (A) (A) (A) (A) (A) (A) (A) (A) (A) (A)
                 (A) (A) (A) (A) (A) (A) (A) (A) (A) (A) (A) (A)
                 (A) (A) (A) (A) (A) (A) (A) (A) (A) (A) (A) (A)
                 (A) (A) (A) (A) (A) (A) (A) (A) (A) (A) (A) (A)
                 (A) (A) (A) (A) (A) (A) (A) (A) (A) (A) (A) (A)
                 (A) (A) (A) (A) (A) (A) (A) (A) (A) (A) (A) (A)
                 (A) (A) (A) (A) (A) (A) (A) (A) (A) (A) (A) (A)
                 (A) (A) (A) (A) (A) (A) (A) (A) (A) (A) (A) (A)
                 (A) (A) (A) (A) (A) (A) (A) (A) (A) (A) (A) (A)
                 (A) (A) (A) (A) (A) (A) (A) (A) (A) (A) (A) (A)
                 (A) (A) (A) (A) (A) (A) (A) (A) (A) (A) (A) (A)
                 (A) (A) (A) (A) (A) (A) (A) (A) (A) (A) (A) (A)
                 (A) (A) (A) (A) (A) (A) (A) (A) (A) (A) (A) (A)
                 (A) (A) (A) (A) (A) (A) (A) (A) (A) (A) (A) (A)
                 (A) (A) (A) (A) (A) (A) (A) (A) (A) (A) (A) (A)
                 (A) (A) (A) (A) (A) (A) (A) (A) (A) (A) (A) (A)
                 (A) (A) (A) (A) (A) (A) (A) (A) (A) (A) (A) (A)
                 (A) (A) (A) (A) (A) (A) (A) (A) (A)
 The electronic state is 1-A.
 Alpha  occ. eigenvalues --  -14.36712 -14.36658 -14.36648 -14.36171 -14.36097
 Alpha  occ. eigenvalues --  -14.36082 -10.27098 -10.27025 -10.26977 -10.24079
 Alpha  occ. eigenvalues --  -10.24041 -10.24038 -10.23825 -10.23766 -10.23764
 Alpha  occ. eigenvalues --  -10.22124 -10.22091 -10.22025 -10.21461 -10.21101
 Alpha  occ. eigenvalues --  -10.20871  -0.98692  -0.98583  -0.98519  -0.88146
 Alpha  occ. eigenvalues --   -0.87118  -0.87042  -0.87039  -0.79989  -0.79971
 Alpha  occ. eigenvalues --   -0.75544  -0.73401  -0.72907  -0.65671  -0.64562
 Alpha  occ. eigenvalues --   -0.63534  -0.62196  -0.62150  -0.62005  -0.59506
 Alpha  occ. eigenvalues --   -0.58314  -0.54865  -0.53218  -0.52258  -0.51816
 Alpha  occ. eigenvalues --   -0.50410  -0.49990  -0.49351  -0.47686  -0.44912
 Alpha  occ. eigenvalues --   -0.44884  -0.43736  -0.43590  -0.43400  -0.43021
 Alpha  occ. eigenvalues --   -0.40873  -0.40578  -0.40419  -0.40284  -0.40235
 Alpha  occ. eigenvalues --   -0.39178  -0.38432  -0.38298  -0.38212  -0.36315
 Alpha  occ. eigenvalues --   -0.36011  -0.35936  -0.35481  -0.33777  -0.33443
 Alpha  occ. eigenvalues --   -0.26207  -0.25916  -0.25242  -0.25015  -0.24888
 Alpha  occ. eigenvalues --   -0.23353  -0.23144  -0.22794
 Alpha virt. eigenvalues --   -0.00284   0.00013   0.03806   0.04400   0.04711
 Alpha virt. eigenvalues --    0.06337   0.06376   0.06420   0.07843   0.08305
 Alpha virt. eigenvalues --    0.08568   0.09135   0.09441   0.09666   0.09708
 Alpha virt. eigenvalues --    0.11173   0.11372   0.11762   0.11997   0.12310
 Alpha virt. eigenvalues --    0.13408   0.13564   0.14527   0.14671   0.14945
 Alpha virt. eigenvalues --    0.15711   0.16607   0.17098   0.17346   0.17899
 Alpha virt. eigenvalues --    0.18132   0.18272   0.18398   0.18742   0.19043
 Alpha virt. eigenvalues --    0.20080   0.20538   0.21174   0.21373   0.22092
 Alpha virt. eigenvalues --    0.22517   0.22636   0.23834   0.23850   0.24263
 Alpha virt. eigenvalues --    0.24503   0.25043   0.25984   0.26401   0.27313
 Alpha virt. eigenvalues --    0.28051   0.28274   0.28907   0.29148   0.29669
 Alpha virt. eigenvalues --    0.30238   0.30899   0.31742   0.32065   0.32495
 Alpha virt. eigenvalues --    0.33224   0.34056   0.34094   0.34307   0.35383
 Alpha virt. eigenvalues --    0.35499   0.35650   0.35997   0.36737   0.37125
 Alpha virt. eigenvalues --    0.37282   0.37938   0.38464   0.38942   0.39367
 Alpha virt. eigenvalues --    0.39726   0.39969   0.40458   0.41045   0.41212
 Alpha virt. eigenvalues --    0.41341   0.41679   0.42533   0.42560   0.42688
 Alpha virt. eigenvalues --    0.43374   0.43647   0.43936   0.44451   0.44716
 Alpha virt. eigenvalues --    0.44987   0.45521   0.45834   0.46036   0.46183
 Alpha virt. eigenvalues --    0.46699   0.46893   0.47276   0.47616   0.47984
 Alpha virt. eigenvalues --    0.48118   0.48576   0.49228   0.49817   0.50098
 Alpha virt. eigenvalues --    0.50899   0.51475   0.51836   0.52396   0.52717
 Alpha virt. eigenvalues --    0.52905   0.53251   0.53396   0.54727   0.54822
 Alpha virt. eigenvalues --    0.55619   0.55901   0.56019   0.56337   0.57322
 Alpha virt. eigenvalues --    0.57620   0.58191   0.58732   0.59351   0.59733
 Alpha virt. eigenvalues --    0.61216   0.61396   0.62055   0.62961   0.63107
 Alpha virt. eigenvalues --    0.63584   0.64290   0.64519   0.65595   0.66100
 Alpha virt. eigenvalues --    0.66569   0.67024   0.69169   0.69338   0.70454
 Alpha virt. eigenvalues --    0.70728   0.71167   0.72179   0.73089   0.73317
 Alpha virt. eigenvalues --    0.74273   0.75147   0.75890   0.76707   0.77380
 Alpha virt. eigenvalues --    0.78172   0.78625   0.80524   0.80965   0.81564
 Alpha virt. eigenvalues --    0.82514   0.83273   0.83887   0.84640   0.84825
 Alpha virt. eigenvalues --    0.85639   0.85956   0.86302   0.86686   0.87098
 Alpha virt. eigenvalues --    0.87655   0.87986   0.89001   0.90725   0.91183
 Alpha virt. eigenvalues --    0.91997   0.92603   0.93341   0.93447   0.95234
 Alpha virt. eigenvalues --    0.95428   0.96938   0.98246   0.99919   1.00723
 Alpha virt. eigenvalues --    1.01305   1.01679   1.02410   1.02765   1.03333
 Alpha virt. eigenvalues --    1.03711   1.05015   1.05368   1.06259   1.06411
 Alpha virt. eigenvalues --    1.07257   1.08278   1.09020   1.09786   1.10212
 Alpha virt. eigenvalues --    1.11350   1.11685   1.12376   1.12903   1.13604
 Alpha virt. eigenvalues --    1.14213   1.14919   1.16487   1.16831   1.16856
 Alpha virt. eigenvalues --    1.20127   1.20255   1.20731   1.21088   1.21995
 Alpha virt. eigenvalues --    1.22542   1.23045   1.23439   1.24339   1.25257
 Alpha virt. eigenvalues --    1.26156   1.27826   1.30245   1.31035   1.31536
 Alpha virt. eigenvalues --    1.32683   1.32959   1.34529   1.35318   1.35704
 Alpha virt. eigenvalues --    1.36316   1.37643   1.38960   1.39609   1.41050
 Alpha virt. eigenvalues --    1.41727   1.43043   1.43470   1.43731   1.44345
 Alpha virt. eigenvalues --    1.45062   1.45760   1.46297   1.46796   1.47458
 Alpha virt. eigenvalues --    1.47909   1.48341   1.48566   1.49366   1.50847
 Alpha virt. eigenvalues --    1.52351   1.52605   1.53459   1.55255   1.55950
 Alpha virt. eigenvalues --    1.56137   1.57053   1.57402   1.57938   1.58158
 Alpha virt. eigenvalues --    1.59567   1.60119   1.60554   1.61071   1.61235
 Alpha virt. eigenvalues --    1.61836   1.62447   1.62942   1.63395   1.63776
 Alpha virt. eigenvalues --    1.64341   1.64650   1.65621   1.66497   1.67206
 Alpha virt. eigenvalues --    1.67633   1.69974   1.71101   1.71276   1.72367
 Alpha virt. eigenvalues --    1.72833   1.73678   1.74715   1.75380   1.75740
 Alpha virt. eigenvalues --    1.76403   1.76917   1.77401   1.77892   1.78010
 Alpha virt. eigenvalues --    1.78549   1.79097   1.79780   1.79893   1.80541
 Alpha virt. eigenvalues --    1.80993   1.81338   1.82977   1.83184   1.83487
 Alpha virt. eigenvalues --    1.87145   1.88161   1.89334   1.90195   1.92052
 Alpha virt. eigenvalues --    1.92682   1.93652   1.95316   1.96149   1.96818
 Alpha virt. eigenvalues --    1.97753   1.97863   1.98823   1.99244   1.99772
 Alpha virt. eigenvalues --    2.00238   2.00492   2.01016   2.01886   2.01982
 Alpha virt. eigenvalues --    2.02802   2.03588   2.03973   2.04678   2.04924
 Alpha virt. eigenvalues --    2.06340   2.07535   2.08478   2.09089   2.09197
 Alpha virt. eigenvalues --    2.11215   2.13085   2.14479   2.15312   2.15351
 Alpha virt. eigenvalues --    2.15848   2.16197   2.16953   2.17369   2.17855
 Alpha virt. eigenvalues --    2.18472   2.19492   2.20664   2.21757   2.22227
 Alpha virt. eigenvalues --    2.22686   2.23713   2.24638   2.25273   2.25621
 Alpha virt. eigenvalues --    2.25904   2.29418   2.30601   2.31003   2.32069
 Alpha virt. eigenvalues --    2.32391   2.33725   2.35429   2.36103   2.37517
 Alpha virt. eigenvalues --    2.39653   2.40587   2.41038   2.42713   2.43295
 Alpha virt. eigenvalues --    2.44667   2.45314   2.45751   2.47219   2.47844
 Alpha virt. eigenvalues --    2.48791   2.49351   2.50822   2.52353   2.52565
 Alpha virt. eigenvalues --    2.52950   2.53518   2.54138   2.54530   2.55640
 Alpha virt. eigenvalues --    2.55772   2.57738   2.58409   2.58992   2.59014
 Alpha virt. eigenvalues --    2.60521   2.61333   2.62705   2.63167   2.63758
 Alpha virt. eigenvalues --    2.63999   2.64170   2.64942   2.65154   2.65305
 Alpha virt. eigenvalues --    2.65634   2.67545   2.67645   2.68126   2.68907
 Alpha virt. eigenvalues --    2.69995   2.70641   2.71039   2.72447   2.73441
 Alpha virt. eigenvalues --    2.73924   2.74465   2.76465   2.77115   2.77391
 Alpha virt. eigenvalues --    2.77834   2.78497   2.78954   2.79274   2.80070
 Alpha virt. eigenvalues --    2.80601   2.81844   2.82029   2.82851   2.83871
 Alpha virt. eigenvalues --    2.84168   2.85103   2.85393   2.87181   2.87539
 Alpha virt. eigenvalues --    2.88004   2.88217   2.88436   2.88726   2.89947
 Alpha virt. eigenvalues --    2.90933   2.91466   2.92372   2.93495   2.94026
 Alpha virt. eigenvalues --    2.94638   2.96178   2.96365   2.96657   2.97318
 Alpha virt. eigenvalues --    2.97526   2.98447   2.99183   2.99909   3.00288
 Alpha virt. eigenvalues --    3.01332   3.01388   3.02596   3.03368   3.04704
 Alpha virt. eigenvalues --    3.05713   3.06440   3.07652   3.09646   3.10801
 Alpha virt. eigenvalues --    3.11580   3.12244   3.14185   3.14715   3.15266
 Alpha virt. eigenvalues --    3.16538   3.17434   3.17947   3.18398   3.18642
 Alpha virt. eigenvalues --    3.18824   3.19835   3.20718   3.21243   3.21719
 Alpha virt. eigenvalues --    3.23294   3.24149   3.25092   3.25824   3.26325
 Alpha virt. eigenvalues --    3.27111   3.27435   3.27872   3.28596   3.29555
 Alpha virt. eigenvalues --    3.29726   3.30073   3.30668   3.31462   3.31740
 Alpha virt. eigenvalues --    3.32010   3.32322   3.32908   3.34667   3.35099
 Alpha virt. eigenvalues --    3.35922   3.37154   3.37314   3.38584   3.39477
 Alpha virt. eigenvalues --    3.39659   3.40797   3.41091   3.41364   3.42364
 Alpha virt. eigenvalues --    3.42478   3.43780   3.44691   3.45514   3.45960
 Alpha virt. eigenvalues --    3.46031   3.46771   3.47476   3.48284   3.48525
 Alpha virt. eigenvalues --    3.49559   3.50337   3.51322   3.51980   3.52565
 Alpha virt. eigenvalues --    3.54630   3.55622   3.56656   3.57201   3.58440
 Alpha virt. eigenvalues --    3.58939   3.59992   3.60562   3.61335   3.62281
 Alpha virt. eigenvalues --    3.63137   3.63743   3.64996   3.66244   3.67211
 Alpha virt. eigenvalues --    3.69139   3.70025   3.71795   3.72613   3.73462
 Alpha virt. eigenvalues --    3.74359   3.75039   3.75864   3.76742   3.77498
 Alpha virt. eigenvalues --    3.77807   3.78092   3.78152   3.78941   3.80489
 Alpha virt. eigenvalues --    3.80855   3.81999   3.83787   3.83997   3.84615
 Alpha virt. eigenvalues --    3.86983   3.87750   3.88105   3.89503   3.89646
 Alpha virt. eigenvalues --    3.90793   3.92696   3.93088   3.94427   3.95947
 Alpha virt. eigenvalues --    3.97395   3.97719   3.98536   3.99714   4.00572
 Alpha virt. eigenvalues --    4.00958   4.06382   4.06919   4.07675   4.09014
 Alpha virt. eigenvalues --    4.09346   4.10010   4.10766   4.11170   4.11636
 Alpha virt. eigenvalues --    4.12763   4.13988   4.15234   4.17047   4.17870
 Alpha virt. eigenvalues --    4.20172   4.20669   4.20929   4.22418   4.24475
 Alpha virt. eigenvalues --    4.26421   4.28303   4.30236   4.30514   4.31596
 Alpha virt. eigenvalues --    4.32081   4.32624   4.33047   4.34283   4.35148
 Alpha virt. eigenvalues --    4.35506   4.36584   4.37355   4.40233   4.43516
 Alpha virt. eigenvalues --    4.44642   4.48094   4.48505   4.48958   4.51338
 Alpha virt. eigenvalues --    4.52039   4.55517   4.58462   4.59579   4.62324
 Alpha virt. eigenvalues --    4.64637   4.65124   4.65951   4.68316   4.69318
 Alpha virt. eigenvalues --    4.71040   4.73140   4.74002   4.75350   4.76337
 Alpha virt. eigenvalues --    4.78681   4.79372   4.79743   4.81410   4.82381
 Alpha virt. eigenvalues --    4.83192   4.83872   4.85533   4.87905   4.90007
 Alpha virt. eigenvalues --    4.92104   4.92442   4.93169   4.95087   4.96790
 Alpha virt. eigenvalues --    4.98088   4.98781   4.99488   4.99924   5.01595
 Alpha virt. eigenvalues --    5.03684   5.04823   5.05803   5.07908   5.09613
 Alpha virt. eigenvalues --    5.11130   5.11392   5.11566   5.14156   5.17103
 Alpha virt. eigenvalues --    5.17775   5.18204   5.18749   5.19321   5.22155
 Alpha virt. eigenvalues --    5.22475   5.22969   5.25443   5.26039   5.26637
 Alpha virt. eigenvalues --    5.26931   5.27841   5.28631   5.29689   5.30368
 Alpha virt. eigenvalues --    5.30703   5.33657   5.34730   5.37842   5.39290
 Alpha virt. eigenvalues --    5.39865   5.40603   5.43355   5.47897   5.49516
 Alpha virt. eigenvalues --    5.50277   5.50570   5.51380   5.52112   5.55097
 Alpha virt. eigenvalues --    5.58262   5.58776   5.61787   5.64252   5.65306
 Alpha virt. eigenvalues --    5.69599   5.70265   5.71065   5.71885   5.72960
 Alpha virt. eigenvalues --    5.73290   5.74102   5.74977   5.78221   5.87007
 Alpha virt. eigenvalues --    5.88458   5.88915   5.90086   6.03765   6.04804
 Alpha virt. eigenvalues --    6.05811  22.31384  22.50854  22.51262  22.52568
 Alpha virt. eigenvalues --   22.57850  22.57980  22.58170  22.80024  22.84411
 Alpha virt. eigenvalues --   22.86313  23.03071  23.06088  23.19160  23.19647
 Alpha virt. eigenvalues --   23.48616  32.41018  32.42617  32.46341  32.54645
 Alpha virt. eigenvalues --   32.55688  32.56447
          Condensed to atoms (all electrons):
               1          2          3          4          5          6
     1  C    6.623584   0.007225  -1.102538   0.986253  -0.205928  -0.755064
     2  C    0.007225   5.218967   0.086081  -0.048871   0.026667   0.013644
     3  C   -1.102538   0.086081   7.441493  -0.954382   0.589626   0.722474
     4  C    0.986253  -0.048871  -0.954382   7.399829  -0.193495  -1.703855
     5  H   -0.205928   0.026667   0.589626  -0.193495   0.569773   0.058637
     6  C   -0.755064   0.013644   0.722474  -1.703855   0.058637   8.269885
     7  C    0.658471   0.013110  -0.643750   1.205072  -0.023248  -1.584418
     8  H   -0.023328   0.000187   0.044411  -0.250785   0.001064   0.658919
     9  C   -0.197739  -0.113469   0.221141  -0.502433   0.032988   0.456072
    10  C    0.030096  -0.002643   0.009372  -0.021738   0.000102   0.010444
    11  H   -0.127458  -0.009926   0.046983  -0.023612   0.000635   0.053874
    12  C    0.053908  -0.004904  -0.204772   0.079822  -0.021800  -0.019603
    13  C   -0.019735  -0.007820   0.005338  -0.001672   0.001840   0.000374
    14  C    0.035828  -0.111645  -0.012173   0.001169  -0.003193  -0.000156
    15  N   -0.001301   0.361441  -0.039068   0.008495  -0.004045  -0.002265
    16  N   -0.113629   0.292149   0.006634  -0.032158   0.049096   0.003881
    17  C   -0.000057  -0.000001   0.002125   0.037283  -0.000119  -0.013539
    18  C   -0.000442  -0.000016   0.000541  -0.020726   0.000321   0.003402
    19  N   -0.006093  -0.000090   0.027244  -0.104566  -0.000024  -0.006855
    20  N    0.000229   0.000033   0.026258  -0.006318  -0.000545  -0.029227
    21  C    0.000000  -0.000003  -0.000198   0.001506  -0.000001  -0.013657
    22  C   -0.000463  -0.000015   0.000374  -0.001593   0.000002   0.003580
    23  N   -0.007200  -0.000049   0.004075  -0.030083   0.000023  -0.009196
    24  N    0.000417   0.000090  -0.001868   0.009349  -0.000009  -0.033604
    25  H    0.000839   0.000016  -0.000471   0.001948  -0.000002  -0.006533
    26  H   -0.001623  -0.000250   0.004712  -0.012353   0.000019   0.081672
    27  H   -0.000312   0.000005   0.000633  -0.005501   0.000004   0.033435
    28  H    0.022699  -0.031145  -0.007462   0.001869  -0.003603  -0.000460
    29  H   -0.132917   0.418273   0.080175  -0.012759   0.004997   0.004409
    30  H   -0.044206  -0.002030   0.031486  -0.004907   0.003715   0.000456
    31  H    0.000751   0.000023  -0.000628   0.023008  -0.000275  -0.006475
    32  H   -0.000420   0.000027  -0.001857  -0.047210   0.000313   0.034056
    33  H   -0.001009  -0.000049  -0.027790  -0.129840   0.012838   0.078943
    34  H    0.002462   0.018617   0.000898   0.000605  -0.003710  -0.000063
    35  H   -0.005557   0.006228   0.001727  -0.000180   0.000998   0.000021
    36  H    0.000047   0.017423   0.000797   0.000034  -0.000120  -0.000014
    37  H    0.001078   0.000440  -0.000139   0.000070   0.000026  -0.000003
    38  H    0.000080   0.000000  -0.000431   0.002613  -0.000023   0.001204
    39  H   -0.000025  -0.000000  -0.000210  -0.005833   0.000037   0.001860
    40  H    0.000096   0.000002  -0.001067   0.000465  -0.000062   0.001182
    41  H   -0.000001   0.000000   0.000072   0.001148   0.000004  -0.000072
    42  H    0.000076   0.000000  -0.000058   0.000583  -0.000000   0.001249
    43  H   -0.000025  -0.000000   0.000021  -0.000163   0.000000   0.001795
    44  H    0.000115   0.000001  -0.000011   0.000044  -0.000000   0.001167
    45  H   -0.000005   0.000000  -0.000006   0.000078  -0.000000  -0.000077
               7          8          9         10         11         12
     1  C    0.658471  -0.023328  -0.197739   0.030096  -0.127458   0.053908
     2  C    0.013110   0.000187  -0.113469  -0.002643  -0.009926  -0.004904
     3  C   -0.643750   0.044411   0.221141   0.009372   0.046983  -0.204772
     4  C    1.205072  -0.250785  -0.502433  -0.021738  -0.023612   0.079822
     5  H   -0.023248   0.001064   0.032988   0.000102   0.000635  -0.021800
     6  C   -1.584418   0.658919   0.456072   0.010444   0.053874  -0.019603
     7  C    6.953520  -0.251530  -0.282231   0.046586  -0.131695  -0.001704
     8  H   -0.251530   0.548438   0.036632   0.019563   0.000825   0.013696
     9  C   -0.282231   0.036632   6.311834  -0.128498   0.488735   0.004409
    10  C    0.046586   0.019563  -0.128498   5.230274  -0.014503  -0.006179
    11  H   -0.131695   0.000825   0.488735  -0.014503   0.592332   0.000027
    12  C   -0.001704   0.013696   0.004409  -0.006179   0.000027   5.282660
    13  C   -0.000704   0.000002   0.001262  -0.000014   0.000525  -0.000064
    14  C   -0.000086  -0.000000   0.002000  -0.000004  -0.000135   0.000029
    15  N   -0.000380  -0.000009   0.029725   0.000070  -0.000266   0.000244
    16  N   -0.007894   0.000025   0.039217  -0.000031   0.000590  -0.001535
    17  C    0.001299  -0.003695  -0.000076  -0.000081  -0.000000  -0.106948
    18  C   -0.001567   0.001756   0.000309  -0.000084   0.000001  -0.000468
    19  N   -0.028832   0.038378   0.004465  -0.002218   0.000024   0.327314
    20  N    0.008109  -0.003337  -0.001798   0.000310  -0.000008   0.364083
    21  C    0.036141  -0.003784   0.001560  -0.106654  -0.000181  -0.000057
    22  C   -0.018938   0.001624   0.000678  -0.001189   0.000409  -0.000087
    23  N   -0.098949   0.040018   0.033488   0.319598   0.000268  -0.002186
    24  N   -0.001926  -0.003560   0.021372   0.370609  -0.000934   0.000278
    25  H    0.022258  -0.002770  -0.001513  -0.032932  -0.000317   0.000099
    26  H   -0.132468   0.005135  -0.024651   0.406575   0.015373  -0.000048
    27  H   -0.046931   0.005632  -0.001487  -0.009218   0.000294   0.000123
    28  H    0.000896  -0.000002  -0.001854   0.000008  -0.000323   0.000079
    29  H   -0.001049   0.000017  -0.030506  -0.000063   0.014138  -0.000108
    30  H    0.000395   0.000001  -0.004779   0.000010   0.000226   0.000079
    31  H    0.001667  -0.002612  -0.000475   0.000099  -0.000002  -0.034403
    32  H   -0.005425   0.005330   0.000689   0.000109   0.000004  -0.007955
    33  H   -0.011148   0.004858   0.003794  -0.000034   0.000013   0.413510
    34  H    0.000094  -0.000000  -0.000512   0.000000  -0.000028   0.000042
    35  H   -0.000027   0.000000  -0.000125  -0.000000   0.000038  -0.000004
    36  H    0.000158  -0.000000  -0.001213   0.000001  -0.000157   0.000002
    37  H   -0.000011  -0.000000   0.000115   0.000000   0.000013   0.000002
    38  H    0.000595  -0.003244  -0.000068   0.000085  -0.000000   0.016278
    39  H   -0.000151   0.000867   0.000021  -0.000003   0.000000   0.006715
    40  H    0.000040  -0.000080  -0.000012   0.000003  -0.000000   0.015257
    41  H    0.000083  -0.000033  -0.000007   0.000003  -0.000000   0.000135
    42  H    0.002175  -0.003157  -0.000437   0.016701  -0.000022   0.000075
    43  H   -0.005524   0.000898  -0.000132   0.006097   0.000041  -0.000004
    44  H    0.000045  -0.000075  -0.001042   0.015031  -0.000087   0.000003
    45  H    0.001200  -0.000019   0.000082   0.000161   0.000008   0.000003
              13         14         15         16         17         18
     1  C   -0.019735   0.035828  -0.001301  -0.113629  -0.000057  -0.000442
     2  C   -0.007820  -0.111645   0.361441   0.292149  -0.000001  -0.000016
     3  C    0.005338  -0.012173  -0.039068   0.006634   0.002125   0.000541
     4  C   -0.001672   0.001169   0.008495  -0.032158   0.037283  -0.020726
     5  H    0.001840  -0.003193  -0.004045   0.049096  -0.000119   0.000321
     6  C    0.000374  -0.000156  -0.002265   0.003881  -0.013539   0.003402
     7  C   -0.000704  -0.000086  -0.000380  -0.007894   0.001299  -0.001567
     8  H    0.000002  -0.000000  -0.000009   0.000025  -0.003695   0.001756
     9  C    0.001262   0.002000   0.029725   0.039217  -0.000076   0.000309
    10  C   -0.000014  -0.000004   0.000070  -0.000031  -0.000081  -0.000084
    11  H    0.000525  -0.000135  -0.000266   0.000590  -0.000000   0.000001
    12  C   -0.000064   0.000029   0.000244  -0.001535  -0.106948  -0.000468
    13  C    4.836060   0.372584   0.338429  -0.107487   0.000000  -0.000000
    14  C    0.372584   4.881397  -0.093101   0.402841  -0.000000   0.000000
    15  N    0.338429  -0.093101   6.532247  -0.092758  -0.000000   0.000000
    16  N   -0.107487   0.402841  -0.092758   6.729012   0.000000  -0.000001
    17  C    0.000000  -0.000000  -0.000000   0.000000   4.884674   0.369875
    18  C   -0.000000   0.000000   0.000000  -0.000001   0.369875   4.837051
    19  N   -0.000000  -0.000000   0.000000  -0.000002   0.401545  -0.110996
    20  N    0.000000  -0.000001  -0.000004   0.000014  -0.096602   0.336574
    21  C   -0.000000   0.000000   0.000000   0.000000   0.000011  -0.000002
    22  C    0.000000  -0.000000   0.000000   0.000000  -0.000002   0.000000
    23  N    0.000000   0.000000   0.000001   0.000000  -0.000006  -0.000007
    24  N    0.000000   0.000000   0.000000   0.000001  -0.000007   0.000001
    25  H   -0.000000   0.000000   0.000000   0.000000   0.000001   0.000000
    26  H    0.000001  -0.000001  -0.000026  -0.000004  -0.000001   0.000000
    27  H    0.000000  -0.000000  -0.000000  -0.000000  -0.000015   0.000006
    28  H    0.002638  -0.030218   0.009533   0.337958  -0.000000   0.000000
    29  H    0.023851  -0.023070  -0.076572  -0.100561   0.000000   0.000000
    30  H   -0.034555  -0.006006   0.343481  -0.008889   0.000000   0.000002
    31  H    0.000000  -0.000000  -0.000000   0.000001  -0.030433   0.002631
    32  H   -0.000000   0.000000   0.000001   0.000000  -0.005304  -0.034556
    33  H   -0.000006   0.000008   0.000014  -0.000259  -0.022969   0.023746
    34  H   -0.047942   0.401404   0.006364  -0.069921  -0.000000   0.000000
    35  H    0.000096   0.374088   0.005879  -0.044644   0.000000  -0.000000
    36  H    0.386207  -0.063381  -0.045820  -0.005042   0.000000   0.000000
    37  H    0.400524  -0.023604  -0.019446   0.007242  -0.000000   0.000000
    38  H    0.000000  -0.000000  -0.000000  -0.000000   0.400837  -0.047714
    39  H   -0.000000   0.000000   0.000000   0.000000   0.373886   0.000239
    40  H    0.000000  -0.000000  -0.000000   0.000000  -0.063418   0.387174
    41  H   -0.000000  -0.000000   0.000000  -0.000000  -0.023121   0.400036
    42  H   -0.000000   0.000000  -0.000000  -0.000000  -0.000003   0.000000
    43  H    0.000000  -0.000000   0.000000  -0.000000  -0.000000   0.000000
    44  H   -0.000000  -0.000000  -0.000000  -0.000000  -0.000000   0.000000
    45  H   -0.000000   0.000000   0.000000  -0.000000   0.000000  -0.000000
              19         20         21         22         23         24
     1  C   -0.006093   0.000229   0.000000  -0.000463  -0.007200   0.000417
     2  C   -0.000090   0.000033  -0.000003  -0.000015  -0.000049   0.000090
     3  C    0.027244   0.026258  -0.000198   0.000374   0.004075  -0.001868
     4  C   -0.104566  -0.006318   0.001506  -0.001593  -0.030083   0.009349
     5  H   -0.000024  -0.000545  -0.000001   0.000002   0.000023  -0.000009
     6  C   -0.006855  -0.029227  -0.013657   0.003580  -0.009196  -0.033604
     7  C   -0.028832   0.008109   0.036141  -0.018938  -0.098949  -0.001926
     8  H    0.038378  -0.003337  -0.003784   0.001624   0.040018  -0.003560
     9  C    0.004465  -0.001798   0.001560   0.000678   0.033488   0.021372
    10  C   -0.002218   0.000310  -0.106654  -0.001189   0.319598   0.370609
    11  H    0.000024  -0.000008  -0.000181   0.000409   0.000268  -0.000934
    12  C    0.327314   0.364083  -0.000057  -0.000087  -0.002186   0.000278
    13  C   -0.000000   0.000000  -0.000000   0.000000   0.000000   0.000000
    14  C   -0.000000  -0.000001   0.000000  -0.000000   0.000000   0.000000
    15  N    0.000000  -0.000004   0.000000   0.000000   0.000001   0.000000
    16  N   -0.000002   0.000014   0.000000   0.000000   0.000000   0.000001
    17  C    0.401545  -0.096602   0.000011  -0.000002  -0.000006  -0.000007
    18  C   -0.110996   0.336574  -0.000002   0.000000  -0.000007   0.000001
    19  N    6.718645  -0.094406   0.000003  -0.000012   0.000011   0.000012
    20  N   -0.094406   6.520888  -0.000007   0.000001   0.000018  -0.000011
    21  C    0.000003  -0.000007   4.883027   0.370712   0.402111  -0.096454
    22  C   -0.000012   0.000001   0.370712   4.832331  -0.109606   0.336327
    23  N    0.000011   0.000018   0.402111  -0.109606   6.717913  -0.095280
    24  N    0.000012  -0.000011  -0.096454   0.336327  -0.095280   6.518348
    25  H   -0.000000  -0.000006  -0.031103   0.003410   0.337429   0.009527
    26  H    0.000008  -0.000003  -0.022555   0.023035  -0.098853  -0.071529
    27  H    0.000539  -0.000006  -0.005174  -0.034299  -0.008184   0.348445
    28  H    0.000000  -0.000000   0.000000  -0.000000   0.000000   0.000000
    29  H   -0.000001   0.000001  -0.000001   0.000002  -0.000004  -0.000019
    30  H    0.000001   0.000015  -0.000000   0.000000  -0.000000  -0.000000
    31  H    0.336903   0.009591   0.000000   0.000000  -0.000000  -0.000005
    32  H   -0.008308   0.347570  -0.000013   0.000005   0.000512  -0.000005
    33  H   -0.097675  -0.072061  -0.000001   0.000000   0.000009  -0.000003
    34  H    0.000000  -0.000000   0.000000  -0.000000  -0.000000  -0.000000
    35  H   -0.000000  -0.000000  -0.000000   0.000000  -0.000000   0.000000
    36  H   -0.000000   0.000000  -0.000000  -0.000000  -0.000000  -0.000000
    37  H   -0.000000  -0.000000   0.000000  -0.000000  -0.000000   0.000000
    38  H   -0.068521   0.006559  -0.000004   0.000001  -0.000007  -0.000000
    39  H   -0.044595   0.005989  -0.000000   0.000000  -0.000000  -0.000000
    40  H   -0.004299  -0.045275  -0.000000   0.000000  -0.000000  -0.000000
    41  H    0.007306  -0.019358   0.000000  -0.000000  -0.000001  -0.000000
    42  H   -0.000008  -0.000000   0.398749  -0.044701  -0.067751   0.006506
    43  H   -0.000000  -0.000000   0.376397  -0.001921  -0.045532   0.005878
    44  H   -0.000000  -0.000000  -0.064479   0.390452  -0.004430  -0.045585
    45  H   -0.000001  -0.000000  -0.022724   0.399704   0.007280  -0.019390
              25         26         27         28         29         30
     1  C    0.000839  -0.001623  -0.000312   0.022699  -0.132917  -0.044206
     2  C    0.000016  -0.000250   0.000005  -0.031145   0.418273  -0.002030
     3  C   -0.000471   0.004712   0.000633  -0.007462   0.080175   0.031486
     4  C    0.001948  -0.012353  -0.005501   0.001869  -0.012759  -0.004907
     5  H   -0.000002   0.000019   0.000004  -0.003603   0.004997   0.003715
     6  C   -0.006533   0.081672   0.033435  -0.000460   0.004409   0.000456
     7  C    0.022258  -0.132468  -0.046931   0.000896  -0.001049   0.000395
     8  H   -0.002770   0.005135   0.005632  -0.000002   0.000017   0.000001
     9  C   -0.001513  -0.024651  -0.001487  -0.001854  -0.030506  -0.004779
    10  C   -0.032932   0.406575  -0.009218   0.000008  -0.000063   0.000010
    11  H   -0.000317   0.015373   0.000294  -0.000323   0.014138   0.000226
    12  C    0.000099  -0.000048   0.000123   0.000079  -0.000108   0.000079
    13  C   -0.000000   0.000001   0.000000   0.002638   0.023851  -0.034555
    14  C    0.000000  -0.000001  -0.000000  -0.030218  -0.023070  -0.006006
    15  N    0.000000  -0.000026  -0.000000   0.009533  -0.076572   0.343481
    16  N    0.000000  -0.000004  -0.000000   0.337958  -0.100561  -0.008889
    17  C    0.000001  -0.000001  -0.000015  -0.000000   0.000000   0.000000
    18  C    0.000000   0.000000   0.000006   0.000000   0.000000   0.000002
    19  N   -0.000000   0.000008   0.000539   0.000000  -0.000001   0.000001
    20  N   -0.000006  -0.000003  -0.000006  -0.000000   0.000001   0.000015
    21  C   -0.031103  -0.022555  -0.005174   0.000000  -0.000001  -0.000000
    22  C    0.003410   0.023035  -0.034299  -0.000000   0.000002   0.000000
    23  N    0.337429  -0.098853  -0.008184   0.000000  -0.000004  -0.000000
    24  N    0.009527  -0.071529   0.348445   0.000000  -0.000019  -0.000000
    25  H    0.527081  -0.011709  -0.000531  -0.000000  -0.000000  -0.000000
    26  H   -0.011709   0.743018   0.011463   0.000000   0.000133   0.000002
    27  H   -0.000531   0.011463   0.511416  -0.000000   0.000000  -0.000000
    28  H   -0.000000   0.000000  -0.000000   0.525716  -0.011894  -0.000542
    29  H   -0.000000   0.000133   0.000000  -0.011894   0.745513   0.012068
    30  H   -0.000000   0.000002  -0.000000  -0.000542   0.012068   0.513405
    31  H   -0.000000  -0.000000  -0.000013  -0.000000   0.000000  -0.000000
    32  H   -0.000012   0.000012  -0.000002   0.000000  -0.000000  -0.000001
    33  H   -0.000000   0.000003   0.000012   0.000010  -0.000014  -0.000019
    34  H   -0.000000   0.000000   0.000000   0.007972  -0.001752   0.001422
    35  H   -0.000000   0.000000  -0.000000  -0.016734   0.007960   0.000161
    36  H   -0.000000   0.000000  -0.000000   0.000895   0.004794   0.009418
    37  H    0.000000  -0.000000  -0.000000  -0.000421  -0.000489  -0.011573
    38  H    0.000000  -0.000000  -0.000015  -0.000000  -0.000000  -0.000000
    39  H    0.000000   0.000000   0.000002   0.000000  -0.000000  -0.000000
    40  H   -0.000000   0.000000  -0.000000  -0.000000  -0.000000  -0.000000
    41  H    0.000000  -0.000000  -0.000000   0.000000  -0.000000  -0.000000
    42  H    0.007931  -0.001731   0.001393  -0.000000   0.000000   0.000000
    43  H   -0.016727   0.008152   0.000077  -0.000000   0.000000  -0.000000
    44  H    0.000850   0.004676   0.009190  -0.000000   0.000000  -0.000000
    45  H   -0.000423  -0.000489  -0.011724   0.000000  -0.000000  -0.000000
              31         32         33         34         35         36
     1  C    0.000751  -0.000420  -0.001009   0.002462  -0.005557   0.000047
     2  C    0.000023   0.000027  -0.000049   0.018617   0.006228   0.017423
     3  C   -0.000628  -0.001857  -0.027790   0.000898   0.001727   0.000797
     4  C    0.023008  -0.047210  -0.129840   0.000605  -0.000180   0.000034
     5  H   -0.000275   0.000313   0.012838  -0.003710   0.000998  -0.000120
     6  C   -0.006475   0.034056   0.078943  -0.000063   0.000021  -0.000014
     7  C    0.001667  -0.005425  -0.011148   0.000094  -0.000027   0.000158
     8  H   -0.002612   0.005330   0.004858  -0.000000   0.000000  -0.000000
     9  C   -0.000475   0.000689   0.003794  -0.000512  -0.000125  -0.001213
    10  C    0.000099   0.000109  -0.000034   0.000000  -0.000000   0.000001
    11  H   -0.000002   0.000004   0.000013  -0.000028   0.000038  -0.000157
    12  C   -0.034403  -0.007955   0.413510   0.000042  -0.000004   0.000002
    13  C    0.000000  -0.000000  -0.000006  -0.047942   0.000096   0.386207
    14  C   -0.000000   0.000000   0.000008   0.401404   0.374088  -0.063381
    15  N   -0.000000   0.000001   0.000014   0.006364   0.005879  -0.045820
    16  N    0.000001   0.000000  -0.000259  -0.069921  -0.044644  -0.005042
    17  C   -0.030433  -0.005304  -0.022969  -0.000000   0.000000   0.000000
    18  C    0.002631  -0.034556   0.023746   0.000000  -0.000000   0.000000
    19  N    0.336903  -0.008308  -0.097675   0.000000  -0.000000  -0.000000
    20  N    0.009591   0.347570  -0.072061  -0.000000  -0.000000   0.000000
    21  C    0.000000  -0.000013  -0.000001   0.000000  -0.000000  -0.000000
    22  C    0.000000   0.000005   0.000000  -0.000000   0.000000  -0.000000
    23  N   -0.000000   0.000512   0.000009  -0.000000  -0.000000  -0.000000
    24  N   -0.000005  -0.000005  -0.000003  -0.000000   0.000000  -0.000000
    25  H   -0.000000  -0.000012  -0.000000  -0.000000  -0.000000  -0.000000
    26  H   -0.000000   0.000012   0.000003   0.000000   0.000000   0.000000
    27  H   -0.000013  -0.000002   0.000012   0.000000  -0.000000  -0.000000
    28  H   -0.000000   0.000000   0.000010   0.007972  -0.016734   0.000895
    29  H    0.000000  -0.000000  -0.000014  -0.001752   0.007960   0.004794
    30  H   -0.000000  -0.000001  -0.000019   0.001422   0.000161   0.009418
    31  H    0.528106  -0.000527  -0.011928   0.000000   0.000000   0.000000
    32  H   -0.000527   0.511597   0.011406  -0.000000   0.000000  -0.000000
    33  H   -0.011928   0.011406   0.738192   0.000010  -0.000001   0.000000
    34  H    0.000000  -0.000000   0.000010   0.655874  -0.055999   0.011672
    35  H    0.000000   0.000000  -0.000001  -0.055999   0.639920  -0.013338
    36  H    0.000000  -0.000000   0.000000   0.011672  -0.013338   0.641700
    37  H   -0.000000   0.000000   0.000000  -0.012045   0.004421  -0.032546
    38  H    0.008072   0.001478  -0.001747   0.000000  -0.000000   0.000000
    39  H   -0.016831   0.000075   0.007804  -0.000000   0.000000  -0.000000
    40  H    0.000937   0.009261   0.004496  -0.000000   0.000000  -0.000000
    41  H   -0.000419  -0.011641  -0.000494   0.000000  -0.000000   0.000000
    42  H    0.000000  -0.000013  -0.000000  -0.000000   0.000000   0.000000
    43  H    0.000000   0.000002   0.000000   0.000000  -0.000000  -0.000000
    44  H   -0.000000  -0.000000   0.000000   0.000000  -0.000000   0.000000
    45  H    0.000000  -0.000000  -0.000000   0.000000  -0.000000   0.000000
              37         38         39         40         41         42
     1  C    0.001078   0.000080  -0.000025   0.000096  -0.000001   0.000076
     2  C    0.000440   0.000000  -0.000000   0.000002   0.000000   0.000000
     3  C   -0.000139  -0.000431  -0.000210  -0.001067   0.000072  -0.000058
     4  C    0.000070   0.002613  -0.005833   0.000465   0.001148   0.000583
     5  H    0.000026  -0.000023   0.000037  -0.000062   0.000004  -0.000000
     6  C   -0.000003   0.001204   0.001860   0.001182  -0.000072   0.001249
     7  C   -0.000011   0.000595  -0.000151   0.000040   0.000083   0.002175
     8  H   -0.000000  -0.003244   0.000867  -0.000080  -0.000033  -0.003157
     9  C    0.000115  -0.000068   0.000021  -0.000012  -0.000007  -0.000437
    10  C    0.000000   0.000085  -0.000003   0.000003   0.000003   0.016701
    11  H    0.000013  -0.000000   0.000000  -0.000000  -0.000000  -0.000022
    12  C    0.000002   0.016278   0.006715   0.015257   0.000135   0.000075
    13  C    0.400524   0.000000  -0.000000   0.000000  -0.000000  -0.000000
    14  C   -0.023604  -0.000000   0.000000  -0.000000  -0.000000   0.000000
    15  N   -0.019446  -0.000000   0.000000  -0.000000   0.000000  -0.000000
    16  N    0.007242  -0.000000   0.000000   0.000000  -0.000000  -0.000000
    17  C   -0.000000   0.400837   0.373886  -0.063418  -0.023121  -0.000003
    18  C    0.000000  -0.047714   0.000239   0.387174   0.400036   0.000000
    19  N   -0.000000  -0.068521  -0.044595  -0.004299   0.007306  -0.000008
    20  N   -0.000000   0.006559   0.005989  -0.045275  -0.019358  -0.000000
    21  C    0.000000  -0.000004  -0.000000  -0.000000   0.000000   0.398749
    22  C   -0.000000   0.000001   0.000000   0.000000  -0.000000  -0.044701
    23  N   -0.000000  -0.000007  -0.000000  -0.000000  -0.000001  -0.067751
    24  N    0.000000  -0.000000  -0.000000  -0.000000  -0.000000   0.006506
    25  H    0.000000   0.000000   0.000000  -0.000000   0.000000   0.007931
    26  H   -0.000000  -0.000000   0.000000   0.000000  -0.000000  -0.001731
    27  H   -0.000000  -0.000015   0.000002  -0.000000  -0.000000   0.001393
    28  H   -0.000421  -0.000000   0.000000  -0.000000   0.000000  -0.000000
    29  H   -0.000489  -0.000000  -0.000000  -0.000000  -0.000000   0.000000
    30  H   -0.011573  -0.000000  -0.000000  -0.000000  -0.000000   0.000000
    31  H   -0.000000   0.008072  -0.016831   0.000937  -0.000419   0.000000
    32  H    0.000000   0.001478   0.000075   0.009261  -0.011641  -0.000013
    33  H    0.000000  -0.001747   0.007804   0.004496  -0.000494  -0.000000
    34  H   -0.012045   0.000000  -0.000000  -0.000000   0.000000  -0.000000
    35  H    0.004421  -0.000000   0.000000   0.000000  -0.000000   0.000000
    36  H   -0.032546   0.000000  -0.000000  -0.000000   0.000000   0.000000
    37  H    0.560199  -0.000000   0.000000   0.000000  -0.000000   0.000000
    38  H   -0.000000   0.656273  -0.055974   0.011667  -0.011946   0.000012
    39  H    0.000000  -0.055974   0.640039  -0.013380   0.004338   0.000000
    40  H    0.000000   0.011667  -0.013380   0.641721  -0.032717   0.000000
    41  H   -0.000000  -0.011946   0.004338  -0.032717   0.561099  -0.000000
    42  H    0.000000   0.000012   0.000000   0.000000  -0.000000   0.655012
    43  H   -0.000000   0.000000  -0.000000  -0.000000  -0.000000  -0.056215
    44  H    0.000000   0.000000  -0.000000   0.000000  -0.000000   0.011480
    45  H   -0.000000  -0.000000  -0.000000  -0.000000   0.000000  -0.012222
              43         44         45
     1  C   -0.000025   0.000115  -0.000005
     2  C   -0.000000   0.000001   0.000000
     3  C    0.000021  -0.000011  -0.000006
     4  C   -0.000163   0.000044   0.000078
     5  H    0.000000  -0.000000  -0.000000
     6  C    0.001795   0.001167  -0.000077
     7  C   -0.005524   0.000045   0.001200
     8  H    0.000898  -0.000075  -0.000019
     9  C   -0.000132  -0.001042   0.000082
    10  C    0.006097   0.015031   0.000161
    11  H    0.000041  -0.000087   0.000008
    12  C   -0.000004   0.000003   0.000003
    13  C    0.000000  -0.000000  -0.000000
    14  C   -0.000000  -0.000000   0.000000
    15  N    0.000000  -0.000000   0.000000
    16  N   -0.000000  -0.000000  -0.000000
    17  C   -0.000000  -0.000000   0.000000
    18  C    0.000000   0.000000  -0.000000
    19  N   -0.000000  -0.000000  -0.000001
    20  N   -0.000000  -0.000000  -0.000000
    21  C    0.376397  -0.064479  -0.022724
    22  C   -0.001921   0.390452   0.399704
    23  N   -0.045532  -0.004430   0.007280
    24  N    0.005878  -0.045585  -0.019390
    25  H   -0.016727   0.000850  -0.000423
    26  H    0.008152   0.004676  -0.000489
    27  H    0.000077   0.009190  -0.011724
    28  H   -0.000000  -0.000000   0.000000
    29  H    0.000000   0.000000  -0.000000
    30  H   -0.000000  -0.000000  -0.000000
    31  H    0.000000  -0.000000   0.000000
    32  H    0.000002  -0.000000  -0.000000
    33  H    0.000000   0.000000  -0.000000
    34  H    0.000000   0.000000   0.000000
    35  H   -0.000000  -0.000000  -0.000000
    36  H   -0.000000   0.000000   0.000000
    37  H   -0.000000   0.000000  -0.000000
    38  H    0.000000   0.000000  -0.000000
    39  H   -0.000000  -0.000000  -0.000000
    40  H   -0.000000   0.000000  -0.000000
    41  H   -0.000000  -0.000000   0.000000
    42  H   -0.056215   0.011480  -0.012222
    43  H    0.641240  -0.013432   0.004453
    44  H   -0.013432   0.640026  -0.032839
    45  H    0.004453  -0.032839   0.561431
 Mulliken charges:
               1
     1  C    0.322817
     2  C   -0.147724
     3  C   -0.355810
     4  C    0.353785
     5  H    0.106475
     6  C   -0.311499
     7  C    0.328671
     8  H    0.123745
     9  C   -0.395528
    10  C   -0.155821
    11  H    0.094281
    12  C   -0.166046
    13  C   -0.149734
    14  C   -0.104572
    15  N   -0.260862
    16  N   -0.283848
    17  C   -0.105141
    18  C   -0.147087
    19  N   -0.284895
    20  N   -0.257268
    21  C   -0.103164
    22  C   -0.149823
    23  N   -0.285429
    24  N   -0.256969
    25  H    0.193659
    26  H    0.074307
    27  H    0.200740
    28  H    0.194384
    29  H    0.075449
    30  H    0.201166
    31  H    0.193238
    32  H    0.200802
    33  H    0.077381
    34  H    0.084536
    35  H    0.095070
    36  H    0.088481
    37  H    0.126147
    38  H    0.083940
    39  H    0.095130
    40  H    0.088008
    41  H    0.125586
    42  H    0.084375
    43  H    0.094626
    44  H    0.088900
    45  H    0.125520
 Sum of Mulliken charges =   0.00000
 Mulliken charges with hydrogens summed into heavy atoms:
               1
     1  C    0.322817
     2  C   -0.072275
     3  C   -0.249335
     4  C    0.353785
     6  C   -0.187754
     7  C    0.328671
     9  C   -0.301248
    10  C   -0.081515
    12  C   -0.088665
    13  C    0.064894
    14  C    0.075034
    15  N   -0.059696
    16  N   -0.089464
    17  C    0.073929
    18  C    0.066507
    19  N   -0.091657
    20  N   -0.056466
    21  C    0.075836
    22  C    0.064598
    23  N   -0.091770
    24  N   -0.056228
 Electronic spatial extent (au):  <R**2>=           7970.7844
 Charge=              0.0000 electrons
 Dipole moment (field-independent basis, Debye):
    X=              0.4181    Y=              0.4669    Z=             -0.6111  Tot=              0.8754
 Quadrupole moment (field-independent basis, Debye-Ang):
   XX=           -110.9790   YY=           -120.0278   ZZ=           -125.0319
   XY=              0.7575   XZ=              5.2156   YZ=             -4.6487
 Traceless Quadrupole moment (field-independent basis, Debye-Ang):
   XX=              7.7006   YY=             -1.3482   ZZ=             -6.3523
   XY=              0.7575   XZ=              5.2156   YZ=             -4.6487
 Octapole moment (field-independent basis, Debye-Ang**2):
  XXX=            -29.0981  YYY=             22.6735  ZZZ=             -5.6811  XYY=             26.9114
  XXY=            -17.1614  XXZ=             -6.0394  XZZ=              7.8845  YZZ=              8.6805
  YYZ=             -0.8929  XYZ=            -18.2877
 Hexadecapole moment (field-independent basis, Debye-Ang**3):
 XXXX=          -5904.2026 YYYY=          -3721.0592 ZZZZ=           -554.6751 XXXY=            -36.5906
 XXXZ=             -9.7822 YYYX=             41.7450 YYYZ=            -95.1304 ZZZX=             43.5144
 ZZZY=            -32.9885 XXYY=          -1618.7193 XXZZ=          -1093.9821 YYZZ=           -750.3085
 XXYZ=             63.5463 YYXZ=             62.1399 ZZXY=              3.5266
 N-N= 1.709547140379D+03 E-N=-5.546339997334D+03  KE= 9.094705013565D+02
 No NMR shielding tensors so no spin-rotation constants.
 Leave Link  601 at Mon Oct 18 00:55:28 2021, MaxMem=  7864320000 cpu:              19.2 elap:               0.7
 (Enter /apps/gaussian/g16-c01-avx/g16/l9999.exe)
 Unable to Open any file for archive entry.
 1\1\GINC-CX3-6-18\SP\RPBE1PBE\def2TZVP\C15H24N6\ATARZIA\18-Oct-2021\0\
 \#P PBE1PBE/Def2TZVP SP SCF=(YQC,MaxCycle=900) int=(Grid=Superfinegrid
 ) EmpiricalDispersion=GD3\\_1_alde1_3_ami4_1_opt_gas\\0,1\C,0,-1.1953,
 1.024,0.2467\C,0,-1.2729,0.4659,1.6425\C,0,-2.349,1.1283,-0.5174\C,0,-
 2.3014,1.674,-1.7902\H,0,-3.2813,0.7675,-0.1099\C,0,-1.0899,2.1215,-2.
 2956\C,0,0.0687,2.0246,-1.5401\H,0,-1.0481,2.5479,-3.286\C,0,0.0107,1.
 4743,-0.2685\C,0,1.3748,2.4877,-2.1263\H,0,0.91,1.3952,0.3249\C,0,-3.5
 494,1.8217,-2.618\C,0,-2.1945,0.7031,3.7224\C,0,-2.8133,-0.5723,3.1054
 \N,0,-1.696,1.4769,2.5969\N,0,-2.2816,-0.5987,1.746\C,0,-4.2021,2.3405
 ,-4.8317\C,0,-4.875,3.2679,-3.7938\N,0,-3.2879,1.5267,-4.0358\N,0,-4.0
 426,3.1882,-2.6044\C,0,2.2108,3.7374,-3.9503\C,0,2.8243,2.3194,-3.8873
 \N,0,1.2044,3.7314,-2.8929\N,0,1.9042,1.5313,-3.0831\H,0,1.2412,4.5504
 ,-2.301\H,0,2.1282,2.5971,-1.3236\H,0,1.1356,1.2007,-3.6606\H,0,-1.909
 9,-1.5004,1.4793\H,0,-0.272,0.1176,1.9607\H,0,-2.4543,2.0113,2.1809\H,
 0,-3.3564,0.5379,-4.2355\H,0,-3.2473,3.8148,-2.6963\H,0,-4.3508,1.1812
 ,-2.2046\H,0,-3.9055,-0.4965,3.0539\H,0,-2.5574,-1.4633,3.6873\H,0,-1.
 3386,0.4393,4.3518\H,0,-2.9014,1.2799,4.3155\H,0,-3.6173,2.9182,-5.556
 8\H,0,-4.9423,1.7492,-5.3799\H,0,-5.867,2.8848,-3.5343\H,0,-4.9752,4.2
 957,-4.1373\H,0,1.7111,3.9107,-4.9101\H,0,2.9755,4.5094,-3.8163\H,0,3.
 7854,2.3482,-3.3642\H,0,2.973,1.872,-4.8682\\Version=ES64L-G16RevC.01\
 State=1-A\HF=-913.8037503\RMSD=8.153e-09\Dipole=-0.1036417,-0.1570501,
 -0.2884642\Quadrupole=-1.3158668,-1.1325221,2.4483889,4.954861,0.35347
 86,-5.1149164\PG=C01 [X(C15H24N6)]\\@
 The archive entry for this job was punched.


 KNIGHT- SIRE, I'VE JUST RETURNED FROM THE FRONT
 KING-   HOW GOES THE BATTLE                    
 KNIGHT- THE SITUATION IS QUITE FLUID           
 KING-   WHAT DOES *THAT* MEAN                  
 KNIGHT- WE'RE UP THE CREEK                     
                THE WIZARD OF ID                
 Job cpu time:       0 days  5 hours  0 minutes 16.3 seconds.
 Elapsed time:       0 days  0 hours  9 minutes 26.8 seconds.
 File lengths (MBytes):  RWF=    840 Int=      0 D2E=      0 Chk=     48 Scr=     16
 Normal termination of Gaussian 16 at Mon Oct 18 00:55:28 2021.
