 Entering Gaussian System, Link 0=g16
 Initial command:
 /apps/gaussian/g16-c01-avx/g16/l1.exe "/rds/general/ephemeral/user/atarzia/ephemeral/Gau-1833315.inp" -scrdir="/rds/general/ephemeral/user/atarzia/ephemeral/"
 Entering Link 1 = /apps/gaussian/g16-c01-avx/g16/l1.exe PID=   1833316.
  
 Copyright (c) 1988-2019, Gaussian, Inc.  All Rights Reserved.
  
 This is part of the Gaussian(R) 16 program.  It is based on
 the Gaussian(R) 09 system (copyright 2009, Gaussian, Inc.),
 the Gaussian(R) 03 system (copyright 2003, Gaussian, Inc.),
 the Gaussian(R) 98 system (copyright 1998, Gaussian, Inc.),
 the Gaussian(R) 94 system (copyright 1995, Gaussian, Inc.),
 the Gaussian 92(TM) system (copyright 1992, Gaussian, Inc.),
 the Gaussian 90(TM) system (copyright 1990, Gaussian, Inc.),
 the Gaussian 88(TM) system (copyright 1988, Gaussian, Inc.),
 the Gaussian 86(TM) system (copyright 1986, Carnegie Mellon
 University), and the Gaussian 82(TM) system (copyright 1983,
 Carnegie Mellon University). Gaussian is a federally registered
 trademark of Gaussian, Inc.
  
 This software contains proprietary and confidential information,
 including trade secrets, belonging to Gaussian, Inc.
  
 This software is provided under written license and may be
 used, copied, transmitted, or stored only in accord with that
 written license.
  
 The following legend is applicable only to US Government
 contracts under FAR:
  
                    RESTRICTED RIGHTS LEGEND
  
 Use, reproduction and disclosure by the US Government is
 subject to restrictions as set forth in subparagraphs (a)
 and (c) of the Commercial Computer Software - Restricted
 Rights clause in FAR 52.227-19.
  
 Gaussian, Inc.
 340 Quinnipiac St., Bldg. 40, Wallingford CT 06492
  
  
 ---------------------------------------------------------------
 Warning -- This program may not be used in any manner that
 competes with the business of Gaussian, Inc. or will provide
 assistance to any competitor of Gaussian, Inc.  The licensee
 of this program is prohibited from giving any competitor of
 Gaussian, Inc. access to this program.  By using this program,
 the user acknowledges that Gaussian, Inc. is engaged in the
 business of creating and licensing software in the field of
 computational chemistry and represents and warrants to the
 licensee that it is not a competitor of Gaussian, Inc. and that
 it will not use this program in any manner prohibited above.
 ---------------------------------------------------------------
  

 Cite this work as:
 Gaussian 16, Revision C.01,
 M. J. Frisch, G. W. Trucks, H. B. Schlegel, G. E. Scuseria, 
 M. A. Robb, J. R. Cheeseman, G. Scalmani, V. Barone, 
 G. A. Petersson, H. Nakatsuji, X. Li, M. Caricato, A. V. Marenich, 
 J. Bloino, B. G. Janesko, R. Gomperts, B. Mennucci, H. P. Hratchian, 
 J. V. Ortiz, A. F. Izmaylov, J. L. Sonnenberg, D. Williams-Young, 
 F. Ding, F. Lipparini, F. Egidi, J. Goings, B. Peng, A. Petrone, 
 T. Henderson, D. Ranasinghe, V. G. Zakrzewski, J. Gao, N. Rega, 
 G. Zheng, W. Liang, M. Hada, M. Ehara, K. Toyota, R. Fukuda, 
 J. Hasegawa, M. Ishida, T. Nakajima, Y. Honda, O. Kitao, H. Nakai, 
 T. Vreven, K. Throssell, J. A. Montgomery, Jr., J. E. Peralta, 
 F. Ogliaro, M. J. Bearpark, J. J. Heyd, E. N. Brothers, K. N. Kudin, 
 V. N. Staroverov, T. A. Keith, R. Kobayashi, J. Normand, 
 K. Raghavachari, A. P. Rendell, J. C. Burant, S. S. Iyengar, 
 J. Tomasi, M. Cossi, J. M. Millam, M. Klene, C. Adamo, R. Cammi, 
 J. W. Ochterski, R. L. Martin, K. Morokuma, O. Farkas, 
 J. B. Foresman, and D. J. Fox, Gaussian, Inc., Wallingford CT, 2019.
 
 ******************************************
 Gaussian 16:  ES64L-G16RevC.01  3-Jul-2019
                18-Oct-2021 
 ******************************************
 %chk=_1_alde1_2_ami3_2_opt_gas.chk
 %mem=60000mb
 %nprocshared=32
 Will use up to   32 processors via shared memory.
 ----------------------------------------------------------------------
 #P PBE1PBE/Def2TZVP SP SCF=(YQC,MaxCycle=900) int=(Grid=Superfinegrid)
  EmpiricalDispersion=GD3
 ----------------------------------------------------------------------
 1/38=1,172=1/1;
 2/12=2,17=6,18=5,40=1/2;
 3/5=44,7=101,11=2,25=1,30=1,74=-13,75=-7,124=31/1,2,3;
 4//1;
 5/5=2,7=900,8=4,13=1,38=1/8,2,8;
 6/7=2,8=2,9=2,10=2,28=1/1;
 99/5=1,9=1/99;
 Leave Link    1 at Mon Oct 18 11:11:46 2021, MaxMem=  7864320000 cpu:               5.1 elap:               0.2
 (Enter /apps/gaussian/g16-c01-avx/g16/l101.exe)
 -------------------------
 _1_alde1_2_ami3_2_opt_gas
 -------------------------
 Symbolic Z-matrix:
 Charge =  0 Multiplicity = 1
 C                    -1.3091    0.9866   -2.0738 
 C                    -1.628    -0.2097   -1.28 
 C                    -2.3264    1.6736   -2.7327 
 C                    -2.0391    2.8083   -3.4862 
 H                    -3.3453    1.327    -2.6607 
 C                    -0.7197    3.2476   -3.5733 
 C                     0.3076    2.5698   -2.9204 
 H                    -0.4888    4.1286   -4.1571 
 C                     0.0043    1.4364   -2.1696 
 C                     1.6817    3.0441   -3.0238 
 H                     0.8091    0.9212   -1.6682 
 C                    -3.1013    3.5302   -4.1758 
 O                    -2.7274   -0.6765   -1.1328 
 C                    -5.3308    3.8637   -4.7952 
 C                    -6.2894    4.4401   -3.73 
 N                    -4.2981    3.1439   -4.1214 
 H                    -4.9295    4.7144   -5.3771 
 C                    -6.0614    2.9025   -5.742 
 N                    -7.1535    5.4272   -4.3546 
 H                    -5.6771    4.9861   -2.9993 
 C                    -7.0172    3.3015   -2.9986 
 C                    -6.7607    1.7899   -4.9694 
 C                    -7.7476    2.3761   -3.9666 
 C                     4.7969    1.8664   -3.3115 
 C                     3.969     2.9315   -2.5594 
 N                     6.0585    2.4537   -3.7276 
 H                     4.2532    1.6199   -4.2337 
 C                     4.9169    0.5897   -2.4642 
 N                     2.6278    2.4532   -2.4389 
 H                     4.0213    3.867    -3.1465 
 C                     4.5298    3.1851   -1.1541 
 C                     5.494     0.8746   -1.0812 
 C                     4.6227    1.8915   -0.353 
 H                    -0.7409   -0.6734   -0.8032 
 H                     6.5751    1.7942   -4.2993 
 H                     6.6306    2.6721   -2.9194 
 H                    -7.7767    4.9803   -5.0181 
 H                    -7.7287    5.8765   -3.6502 
 H                    -8.5311    2.9252   -4.4973 
 H                    -8.233     1.5738   -3.4073 
 H                    -6.0098    1.2071   -4.4351 
 H                    -7.2791    1.1281   -5.6667 
 H                    -6.7856    3.4707   -6.3292 
 H                    -5.3325    2.4749   -6.4341 
 H                    -6.2733    2.7255   -2.4472 
 H                    -7.7215    3.7296   -2.2794 
 H                    -2.7905    4.4241   -4.7405 
 H                     1.8364    3.944    -3.6401 
 H                     3.6193    1.4825   -0.2295 
 H                     5.0338    2.1007    0.637 
 H                     5.5152    3.6454   -1.2468 
 H                     3.8765    3.8948   -0.6416 
 H                     5.5422   -0.135    -2.9936 
 H                     3.9188    0.1639   -2.3548 
 H                     6.5141    1.2597   -1.1694 
 H                     5.5447   -0.0537   -0.5083 
 
 ITRead=  0  0  0  0  0  0  0  0  0  0  0  0  0  0  0  0  0  0  0  0
 ITRead=  0  0  0  0  0  0  0  0  0  0  0  0  0  0  0  0  0  0  0  0
 ITRead=  0  0  0  0  0  0  0  0  0  0  0  0  0  0  0  0
 MicOpt= -1 -1 -1 -1 -1 -1 -1 -1 -1 -1 -1 -1 -1 -1 -1 -1 -1 -1 -1 -1
 MicOpt= -1 -1 -1 -1 -1 -1 -1 -1 -1 -1 -1 -1 -1 -1 -1 -1 -1 -1 -1 -1
 MicOpt= -1 -1 -1 -1 -1 -1 -1 -1 -1 -1 -1 -1 -1 -1 -1 -1
 NAtoms=     56 NQM=       56 NQMF=       0 NMMI=      0 NMMIF=      0
                NMic=       0 NMicF=      0.
                    Isotopes and Nuclear Properties:
 (Nuclear quadrupole moments (NQMom) in fm**2, nuclear magnetic moments (NMagM)
  in nuclear magnetons)

  Atom         1           2           3           4           5           6           7           8           9          10
 IAtWgt=          12          12          12          12           1          12          12           1          12          12
 AtmWgt=  12.0000000  12.0000000  12.0000000  12.0000000   1.0078250  12.0000000  12.0000000   1.0078250  12.0000000  12.0000000
 NucSpn=           0           0           0           0           1           0           0           1           0           0
 AtZEff=  -0.0000000  -0.0000000  -0.0000000  -0.0000000  -0.0000000  -0.0000000  -0.0000000  -0.0000000  -0.0000000  -0.0000000
 NQMom=    0.0000000   0.0000000   0.0000000   0.0000000   0.0000000   0.0000000   0.0000000   0.0000000   0.0000000   0.0000000
 NMagM=    0.0000000   0.0000000   0.0000000   0.0000000   2.7928460   0.0000000   0.0000000   2.7928460   0.0000000   0.0000000
 AtZNuc=   6.0000000   6.0000000   6.0000000   6.0000000   1.0000000   6.0000000   6.0000000   1.0000000   6.0000000   6.0000000

  Atom        11          12          13          14          15          16          17          18          19          20
 IAtWgt=           1          12          16          12          12          14           1          12          14           1
 AtmWgt=   1.0078250  12.0000000  15.9949146  12.0000000  12.0000000  14.0030740   1.0078250  12.0000000  14.0030740   1.0078250
 NucSpn=           1           0           0           0           0           2           1           0           2           1
 AtZEff=  -0.0000000  -0.0000000  -0.0000000  -0.0000000  -0.0000000  -0.0000000  -0.0000000  -0.0000000  -0.0000000  -0.0000000
 NQMom=    0.0000000   0.0000000   0.0000000   0.0000000   0.0000000   2.0440000   0.0000000   0.0000000   2.0440000   0.0000000
 NMagM=    2.7928460   0.0000000   0.0000000   0.0000000   0.0000000   0.4037610   2.7928460   0.0000000   0.4037610   2.7928460
 AtZNuc=   1.0000000   6.0000000   8.0000000   6.0000000   6.0000000   7.0000000   1.0000000   6.0000000   7.0000000   1.0000000

  Atom        21          22          23          24          25          26          27          28          29          30
 IAtWgt=          12          12          12          12          12          14           1          12          14           1
 AtmWgt=  12.0000000  12.0000000  12.0000000  12.0000000  12.0000000  14.0030740   1.0078250  12.0000000  14.0030740   1.0078250
 NucSpn=           0           0           0           0           0           2           1           0           2           1
 AtZEff=  -0.0000000  -0.0000000  -0.0000000  -0.0000000  -0.0000000  -0.0000000  -0.0000000  -0.0000000  -0.0000000  -0.0000000
 NQMom=    0.0000000   0.0000000   0.0000000   0.0000000   0.0000000   2.0440000   0.0000000   0.0000000   2.0440000   0.0000000
 NMagM=    0.0000000   0.0000000   0.0000000   0.0000000   0.0000000   0.4037610   2.7928460   0.0000000   0.4037610   2.7928460
 AtZNuc=   6.0000000   6.0000000   6.0000000   6.0000000   6.0000000   7.0000000   1.0000000   6.0000000   7.0000000   1.0000000

  Atom        31          32          33          34          35          36          37          38          39          40
 IAtWgt=          12          12          12           1           1           1           1           1           1           1
 AtmWgt=  12.0000000  12.0000000  12.0000000   1.0078250   1.0078250   1.0078250   1.0078250   1.0078250   1.0078250   1.0078250
 NucSpn=           0           0           0           1           1           1           1           1           1           1
 AtZEff=  -0.0000000  -0.0000000  -0.0000000  -0.0000000  -0.0000000  -0.0000000  -0.0000000  -0.0000000  -0.0000000  -0.0000000
 NQMom=    0.0000000   0.0000000   0.0000000   0.0000000   0.0000000   0.0000000   0.0000000   0.0000000   0.0000000   0.0000000
 NMagM=    0.0000000   0.0000000   0.0000000   2.7928460   2.7928460   2.7928460   2.7928460   2.7928460   2.7928460   2.7928460
 AtZNuc=   6.0000000   6.0000000   6.0000000   1.0000000   1.0000000   1.0000000   1.0000000   1.0000000   1.0000000   1.0000000

  Atom        41          42          43          44          45          46          47          48          49          50
 IAtWgt=           1           1           1           1           1           1           1           1           1           1
 AtmWgt=   1.0078250   1.0078250   1.0078250   1.0078250   1.0078250   1.0078250   1.0078250   1.0078250   1.0078250   1.0078250
 NucSpn=           1           1           1           1           1           1           1           1           1           1
 AtZEff=  -0.0000000  -0.0000000  -0.0000000  -0.0000000  -0.0000000  -0.0000000  -0.0000000  -0.0000000  -0.0000000  -0.0000000
 NQMom=    0.0000000   0.0000000   0.0000000   0.0000000   0.0000000   0.0000000   0.0000000   0.0000000   0.0000000   0.0000000
 NMagM=    2.7928460   2.7928460   2.7928460   2.7928460   2.7928460   2.7928460   2.7928460   2.7928460   2.7928460   2.7928460
 AtZNuc=   1.0000000   1.0000000   1.0000000   1.0000000   1.0000000   1.0000000   1.0000000   1.0000000   1.0000000   1.0000000

  Atom        51          52          53          54          55          56
 IAtWgt=           1           1           1           1           1           1
 AtmWgt=   1.0078250   1.0078250   1.0078250   1.0078250   1.0078250   1.0078250
 NucSpn=           1           1           1           1           1           1
 AtZEff=  -0.0000000  -0.0000000  -0.0000000  -0.0000000  -0.0000000  -0.0000000
 NQMom=    0.0000000   0.0000000   0.0000000   0.0000000   0.0000000   0.0000000
 NMagM=    2.7928460   2.7928460   2.7928460   2.7928460   2.7928460   2.7928460
 AtZNuc=   1.0000000   1.0000000   1.0000000   1.0000000   1.0000000   1.0000000
 Leave Link  101 at Mon Oct 18 11:11:46 2021, MaxMem=  7864320000 cpu:               2.4 elap:               0.1
 (Enter /apps/gaussian/g16-c01-avx/g16/l202.exe)
 Stoichiometry    C21H30N4O
 Framework group  C1[X(C21H30N4O)]
 Deg. of freedom   162
 Full point group                 C1      NOp   1
 Largest Abelian subgroup         C1      NOp   1
 Largest concise Abelian subgroup C1      NOp   1
                         Standard orientation:                         
 ---------------------------------------------------------------------
 Center     Atomic      Atomic             Coordinates (Angstroms)
 Number     Number       Type             X           Y           Z
 ---------------------------------------------------------------------
      1          6           0        0.019322    1.729755   -0.012799
      2          6           0       -0.000507    3.200313   -0.016787
      3          6           0       -1.177703    1.019852    0.051915
      4          6           0       -1.173805   -0.372205    0.054852
      5          1           0       -2.116347    1.549106    0.099985
      6          6           0        0.043953   -1.046461   -0.007055
      7          6           0        1.248510   -0.349347   -0.071169
      8          1           0        0.054849   -2.128208   -0.005105
      9          6           0        1.228351    1.043447   -0.074012
     10          6           0        2.512380   -1.072118   -0.134703
     11          1           0        2.168244    1.571225   -0.124875
     12          6           0       -2.424512   -1.118054    0.121166
     13          8           0       -0.989247    3.884721    0.030415
     14          6           0       -4.753900   -1.271289    0.247736
     15          6           0       -5.560097   -0.971673   -1.035260
     16          7           0       -3.535149   -0.529686    0.190644
     17          1           0       -4.572834   -2.361936    0.280029
     18          6           0       -5.526831   -0.849009    1.504068
     19          7           0       -6.637393   -1.939300   -1.154801
     20          1           0       -4.892807   -1.147518   -1.890101
     21          6           0       -5.997217    0.501263   -1.056107
     22          6           0       -5.931626    0.619146    1.437200
     23          6           0       -6.778191    0.882817    0.197436
     24          6           0        5.638410   -0.899581    1.036786
     25          6           0        4.842806   -1.194753   -0.253717
     26          7           0        6.720902   -1.860625    1.156377
     27          1           0        4.966468   -1.085705    1.885713
     28          6           0        6.066203    0.576226    1.072381
     29          7           0        3.614678   -0.466174   -0.199105
     30          1           0        4.672367   -2.286449   -0.295332
     31          6           0        5.620319   -0.756997   -1.501723
     32          6           0        6.851711    0.973061   -0.173573
     33          6           0        6.015131    0.713174   -1.421018
     34          1           0        1.008891    3.656002   -0.069381
     35          1           0        7.197712   -1.735917    2.042805
     36          1           0        7.402736   -1.718900    0.419356
     37          1           0       -7.314732   -1.805874   -0.412010
     38          1           0       -7.121450   -1.808756   -2.036591
     39          1           0       -7.706827    0.307196    0.255062
     40          1           0       -7.051286    1.938844    0.149069
     41          1           0       -5.030065    1.230865    1.392810
     42          1           0       -6.487228    0.888492    2.338147
     43          1           0       -6.410427   -1.482808    1.602442
     44          1           0       -4.893204   -1.021904    2.376859
     45          1           0       -5.100122    1.118089   -1.118980
     46          1           0       -6.601879    0.683381   -1.949289
     47          1           0       -2.333697   -2.216277    0.107095
     48          1           0        2.440656   -2.171347   -0.123361
     49          1           0        5.108666    1.318047   -1.378653
     50          1           0        6.574835    0.993356   -2.316059
     51          1           0        6.508790   -1.383467   -1.599893
     52          1           0        4.993168   -0.926859   -2.379766
     53          1           0        6.664711    0.754907    1.970332
     54          1           0        5.164305    1.186125    1.136264
     55          1           0        7.783891    0.403372   -0.229973
     56          1           0        7.119094    2.030250   -0.115422
 ---------------------------------------------------------------------
 Rotational constants (GHZ):           0.4918255           0.0635600           0.0596831
 Leave Link  202 at Mon Oct 18 11:11:46 2021, MaxMem=  7864320000 cpu:               0.2 elap:               0.0
 (Enter /apps/gaussian/g16-c01-avx/g16/l301.exe)
 Standard basis: def2TZVP (5D, 7F)
 Ernie: Thresh=  0.10000D-02 Tol=  0.10000D-05 Strict=F.
 There are  1116 symmetry adapted cartesian basis functions of A   symmetry.
 There are   986 symmetry adapted basis functions of A   symmetry.
   986 basis functions,  1566 primitive gaussians,  1116 cartesian basis functions
    96 alpha electrons       96 beta electrons
       nuclear repulsion energy      2214.0992421352 Hartrees.
 IExCor= 1009 DFT=T Ex+Corr=PBE1PBE ExCW=0 ScaHFX=  0.250000
 ScaDFX=  0.750000  0.750000  1.000000  1.000000 ScalE2=  1.000000  1.000000
 IRadAn=      7 IRanWt=     -1 IRanGd=            0 ICorTp=0 IEmpDi=131
 NAtoms=   56 NActive=   56 NUniq=   56 SFac= 1.00D+00 NAtFMM=   60 NAOKFM=F Big=F
 Integral buffers will be    131072 words long.
 Raffenetti 2 integral format.
 Two-electron integral symmetry is turned on.
 R6Disp:  Grimme-D3 Dispersion energy=       -0.0370864648 Hartrees.
 Nuclear repulsion after empirical dispersion term =     2214.0621556704 Hartrees.
 Leave Link  301 at Mon Oct 18 11:11:47 2021, MaxMem=  7864320000 cpu:               1.0 elap:               0.0
 (Enter /apps/gaussian/g16-c01-avx/g16/l302.exe)
 NPDir=0 NMtPBC=     1 NCelOv=     1 NCel=       1 NClECP=     1 NCelD=      1
         NCelK=      1 NCelE2=     1 NClLst=     1 CellRange=     0.0.
 One-electron integrals computed using PRISM.
 One-electron integral symmetry used in STVInt
   1 Symmetry operations used in ECPInt.
 ECPInt:  NShTT=   82621 NPrTT=  246012 LenC2=   60859 LenP2D=  126334.
 LDataN:  DoStor=T MaxTD1= 6 Len=  172
 NBasis=   986 RedAO= T EigKep=  5.60D-06  NBF=   986
 NBsUse=   986 1.00D-06 EigRej= -1.00D+00 NBFU=   986
 Precomputing XC quadrature grid using
 IXCGrd= 4 IRadAn=           7 IRanWt=          -1 IRanGd=           0 AccXCQ= 0.00D+00.
 Generated NRdTot=       0 NPtTot=           0 NUsed=           0 NTot=          32
 NSgBfM=  1077  1075  1076  1076  1077 MxSgAt=    56 MxSgA2=    56.
 Leave Link  302 at Mon Oct 18 11:11:49 2021, MaxMem=  7864320000 cpu:              91.4 elap:               2.9
 (Enter /apps/gaussian/g16-c01-avx/g16/l303.exe)
 DipDrv:  MaxL=1.
 Leave Link  303 at Mon Oct 18 11:11:50 2021, MaxMem=  7864320000 cpu:               8.9 elap:               0.4
 (Enter /apps/gaussian/g16-c01-avx/g16/l401.exe)
 ExpMin= 9.52D-02 ExpMax= 2.70D+04 ExpMxC= 9.22D+02 IAcc=3 IRadAn=         7 AccDes= 0.00D+00
 Harris functional with IExCor= 1009 and IRadAn=       7 diagonalized for initial guess.
 HarFok:  IExCor= 1009 AccDes= 0.00D+00 IRadAn=         7 IDoV= 1 UseB2=F ITyADJ=14
 ICtDFT=  3500011 ScaDFX=  1.000000  1.000000  1.000000  1.000000
 FoFCou: FMM=F IPFlag=           0 FMFlag=      100000 FMFlg1=           0
         NFxFlg=           0 DoJE=T BraDBF=F KetDBF=T FulRan=T
         wScrn=  0.000000 ICntrl=       500 IOpCl=  0 I1Cent=   200000004 NGrid=           0
         NMat0=    1 NMatS0=      1 NMatT0=    0 NMatD0=    1 NMtDS0=    0 NMtDT0=    0
 Petite list used in FoFCou.
 Harris En= -1112.00702082301    
 JPrj=0 DoOrth=F DoCkMO=F.
 Leave Link  401 at Mon Oct 18 11:12:00 2021, MaxMem=  7864320000 cpu:             307.2 elap:               9.7
 (Enter /apps/gaussian/g16-c01-avx/g16/l508.exe)
 Integral symmetry usage will be decided dynamically.
 Tight linear equation convergence will be used.
 RPBE1PBE wavefunction.
 Linear searches until partial convergence.
 Full line searches.
 Fock matrices will be formed incrementally for  20 cycles.
 FoFJK:  IHMeth= 1 ICntrl=       0 DoSepK=F KAlg= 0 I1Cent=           0 FoldK=F
 IRaf= 640000000 NMat=       1 IRICut=       1 DoRegI=T DoRafI=F ISym2E= 1 IDoP0=0 IntGTp=1.
 FoFCou: FMM=F IPFlag=           0 FMFlag=      100000 FMFlg1=           0
         NFxFlg=           0 DoJE=F BraDBF=F KetDBF=F FulRan=T
         wScrn=  0.000000 ICntrl=         0 IOpCl=  0 I1Cent=           0 NGrid=           0
         NMat0=    1 NMatS0=      1 NMatT0=    0 NMatD0=    1 NMtDS0=    0 NMtDT0=    0
 Petite list used in FoFCou.
 Iteration   1 EE= -1110.97334823957                                    Grad=1.221D+00 Max rot=    2.1185 deg.
 Gradient too large for Newton-Raphson -- use scaled steepest descent instead.
 Alpha Gap=     0.153 HL deriv= 2.38D-02
     ILin= 1 X=0.000D+00 Y=-1.110973348240D+03 DE= 0.00D+00 F= -3.05D+00
 RMSU=  7.77D-04    CP:  9.89D-01
     ILin= 2 X=3.000D-01 Y=-1.111552955731D+03 DE=-5.80D-01 F= -7.98D-01 OKLS=F
 RMSU=  1.53D-04    CP:  9.84D-01  1.71D+00
     ILin= 3 X=5.000D-01 Y=-1.111558952386D+03 DE=-5.86D-01 F=  7.40D-01
     Accept linear search using points  2 and  3.
     An  expanding polynomial of degree  3 produced  0.3993
 RMSU=  9.62D-08    CP:  9.86D-01  1.35D+00  3.97D-01
 Iteration   2 EE= -1111.59438103233     Delta-E=       -0.621032792765 Grad=3.853D-01 Max rot=    1.3249 deg.
 Gradient too large for Newton-Raphson -- use scaled steepest descent instead.
 Alpha Gap=     0.193 HL deriv= 2.14D-02
     ILin= 1 X=0.000D+00 Y=-1.111594381032D+03 DE= 0.00D+00 F= -1.68D-01
 RMSU=  1.45D-04    CP:  9.83D-01  1.38D+00  3.75D-01 -3.00D+00
     ILin= 2 X=3.000D-01 Y=-1.111628442260D+03 DE=-3.41D-02 F= -5.93D-02 OKLS=F
 RMSU=  8.92D-06    CP:  9.80D-01  1.41D+00  3.83D-01 -3.00D+00  2.00D+00
     ILin= 3 X=6.000D-01 Y=-1.111630102987D+03 DE=-3.57D-02 F=  4.80D-02
     Accept linear search using points  2 and  3.
     An  expanding polynomial of degree  3 produced  0.4490
 RMSU=  4.70D-08    CP:  9.81D-01  1.39D+00  3.75D-01 -3.00D+00  1.50D+00
                    CP:  3.72D-01
 Iteration   3 EE= -1111.63329167932     Delta-E=       -0.038910646989 Grad=1.842D-01 Max rot=    0.6672 deg.
 Gradient too large for Newton-Raphson -- use scaled steepest descent instead.
 Alpha Gap=     0.184 HL deriv= 1.18D-02
     ILin= 1 X=0.000D+00 Y=-1.111633291679D+03 DE= 0.00D+00 F= -3.44D-02
 RMSU=  9.62D-05    CP:  9.81D-01  1.56D+00  6.53D-01 -3.00D+00  1.78D+00
                    CP:  1.28D+00  3.00D+00
     ILin= 2 X=4.000D-01 Y=-1.111640684077D+03 DE=-7.39D-03 F= -2.50D-03 OKLS=F
 RMSU=  5.59D-06    CP:  9.80D-01  1.73D+00  9.83D-01 -3.00D+00  2.06D+00
                    CP:  2.64D+00  3.00D+00  2.02D+00
     ILin= 3 X=8.000D-01 Y=-1.111635282033D+03 DE=-1.99D-03 F=  2.95D-02
     An  expanding polynomial of degree  3 produced  0.4311
     Minimum is close to point  2 DX=  3.11D-02 DF= -3.87D-05 DXR=  7.22D-02 DFR=  5.24D-03 which will be used.
 Iteration   4 EE= -1111.64068407719     Delta-E=       -0.007392397867 Grad=1.016D-01 Max rot=    0.4088 deg.
 Gradient too large for Newton-Raphson -- use scaled steepest descent instead.
 Alpha Gap=     0.186 HL deriv= 4.92D-03
     ILin= 1 X=0.000D+00 Y=-1.111640684077D+03 DE= 0.00D+00 F= -7.62D-03
 RMSU=  3.74D-05    CP:  9.79D-01  1.58D+00  6.85D-01 -3.00D+00  2.10D+00
                    CP:  1.16D+00  3.00D+00  1.15D+00 -8.87D-01
     ILin= 2 X=4.000D-01 Y=-1.111642578360D+03 DE=-1.89D-03 F= -1.85D-03 OKLS=F
 RMSU=  1.51D-06    CP:  9.77D-01  1.61D+00  7.35D-01 -3.00D+00  2.51D+00
                    CP:  1.16D+00 -3.00D+00  1.35D+00 -1.95D+00  2.26D+00
     ILin= 3 X=9.000D-01 Y=-1.111641707376D+03 DE=-1.02D-03 F=  5.33D-03
     An  expanding polynomial of degree  3 produced  0.5290
 RMSU=  3.96D-08    CP:  9.79D-01  1.59D+00  6.97D-01 -3.00D+00  2.21D+00
                    CP:  1.14D+00  3.00D+00  1.20D+00 -1.17D+00  1.32D+00
                    CP:  1.46D-01
 Iteration   5 EE= -1111.64269760032     Delta-E=       -0.002013523128 Grad=4.974D-02 Max rot=    0.1730 deg.
 Gradient too large for Newton-Raphson -- use scaled steepest descent instead.
 Alpha Gap=     0.186 HL deriv= 4.24D-03
     ILin= 1 X=0.000D+00 Y=-1.111642697600D+03 DE= 0.00D+00 F= -2.72D-03
 RMSU=  1.32D-05    CP:  9.78D-01  1.65D+00  8.19D-01 -3.00D+00  2.30D+00
                    CP:  1.61D+00  3.00D+00  1.63D+00 -1.09D+00  1.59D+00
                    CP:  7.02D-01 -3.00D+00
     ILin= 2 X=5.000D-01 Y=-1.111643170026D+03 DE=-4.72D-04 F=  8.34D-04 OKLS=T
     Accept linear search using points  1 and  2.
     An  expanding polynomial of degree  2 produced  0.2875
 RMSU=  8.41D-08    CP:  9.78D-01  1.62D+00  7.66D-01 -3.00D+00  2.26D+00
                    CP:  1.41D+00  3.00D+00  1.45D+00 -1.14D+00  1.48D+00
                    CP:  4.48D-01 -3.00D+00  5.74D-01
 Iteration   6 EE= -1111.64318656381     Delta-E=       -0.000488963494 Grad=3.074D-02 Max rot=    0.1226 deg.
 Gradient too large for Newton-Raphson -- use scaled steepest descent instead.
 Alpha Gap=     0.186 HL deriv= 1.00D-05
     ILin= 1 X=0.000D+00 Y=-1.111643186564D+03 DE= 0.00D+00 F= -4.75D-04
 RMSU=  2.62D-06    CP:  9.78D-01  1.64D+00  8.15D-01 -3.00D+00  2.37D+00
                    CP:  1.54D+00  3.00D+00  1.63D+00 -1.40D+00  1.93D+00
                    CP:  8.03D-01 -3.00D+00  1.17D+00  3.00D+00
     ILin= 2 X=5.000D-01 Y=-1.111643364196D+03 DE=-1.78D-04 F= -2.36D-04 OKLS=F
 RMSU=  1.50D-07    CP:  9.78D-01  1.67D+00  8.77D-01 -3.00D+00  2.50D+00
                    CP:  1.73D+00 -3.00D+00  1.83D+00 -1.67D+00  2.48D+00
                    CP:  1.51D+00 -3.00D+00  1.89D+00  3.00D+00  2.20D+00
     ILin= 3 X=1.100D+00 Y=-1.111643419433D+03 DE=-2.33D-04 F=  5.15D-05
     Accept linear search using points  2 and  3.
     An  expanding polynomial of degree  3 produced  0.8922
 RMSU=  1.01D-07    CP:  9.78D-01  1.66D+00  8.55D-01 -3.00D+00  2.45D+00
                    CP:  1.66D+00 -3.00D+00  1.76D+00 -1.58D+00  2.29D+00
                    CP:  1.25D+00 -3.00D+00  1.64D+00  3.00D+00  1.79D+00
                    CP:  7.13D-01
 Iteration   7 EE= -1111.64341980563     Delta-E=       -0.000233241820 Grad=3.707D-03 Max rot=    0.0095 deg.
 SCF Done:  E(RPBE1PBE) =  -1111.64341981     a.u. after    7 cycles
            Convg  =    0.3707D-02                    17 Fock formations.
              S**2 =  0.0000                  -V/T =  2.0047
 Leave Link  508 at Mon Oct 18 11:22:22 2021, MaxMem=  7864320000 cpu:           19761.1 elap:             622.4
 (Enter /apps/gaussian/g16-c01-avx/g16/l502.exe)
 Integral symmetry usage will be decided dynamically.
 Closed shell SCF:
 Using DIIS extrapolation, IDIIS=  1040.
 NGot=  7864320000 LenX=  7861782098 LenY=  7860535526
 Requested convergence on RMS density matrix=1.00D-08 within 128 cycles.
 Requested convergence on MAX density matrix=1.00D-06.
 Requested convergence on             energy=1.00D-06.
 No special actions if energy rises.
 Fock matrices will be formed incrementally for  20 cycles.

 Cycle   1  Pass 1  IDiag  1:
 FoFJK:  IHMeth= 1 ICntrl=       0 DoSepK=F KAlg= 0 I1Cent=           0 FoldK=F
 IRaf= 640000000 NMat=       1 IRICut=       1 DoRegI=T DoRafI=F ISym2E= 0 IDoP0=0 IntGTp=1.
 FoFCou: FMM=F IPFlag=           0 FMFlag=      100000 FMFlg1=           0
         NFxFlg=           0 DoJE=F BraDBF=F KetDBF=F FulRan=T
         wScrn=  0.000000 ICntrl=         0 IOpCl=  0 I1Cent=           0 NGrid=           0
         NMat0=    1 NMatS0=      1 NMatT0=    0 NMatD0=    1 NMtDS0=    0 NMtDT0=    0
 Symmetry not used in FoFCou.
 E= -1111.64341980564    
 DIIS: error= 3.36D-05 at cycle   1 NSaved=   1.
 NSaved= 1 IEnMin= 1 EnMin= -1111.64341980564     IErMin= 1 ErrMin= 3.36D-05
 ErrMax= 3.36D-05  0.00D+00 EMaxC= 1.00D-01 BMatC= 6.87D-06 BMatP= 6.87D-06
 IDIUse=1 WtCom= 1.00D+00 WtEn= 0.00D+00
 Coeff-Com:  0.100D+01
 Coeff:      0.100D+01
 Gap=     0.186 Goal=   None    Shift=    0.000
 RMSDP=2.21D-05 MaxDP=1.08D-03              OVMax= 5.93D-04

 Cycle   2  Pass 1  IDiag  1:
 RMSU=  2.21D-05    CP:  1.00D+00
 E= -1111.64342573676     Delta-E=       -0.000005931115 Rises=F Damp=F
 DIIS: error= 6.82D-05 at cycle   2 NSaved=   2.
 NSaved= 2 IEnMin= 2 EnMin= -1111.64342573676     IErMin= 1 ErrMin= 3.36D-05
 ErrMax= 6.82D-05  0.00D+00 EMaxC= 1.00D-01 BMatC= 1.51D-06 BMatP= 6.87D-06
 IDIUse=1 WtCom= 1.00D+00 WtEn= 0.00D+00
 Coeff-Com:  0.221D+00 0.779D+00
 Coeff:      0.221D+00 0.779D+00
 Gap=     0.175 Goal=   None    Shift=    0.000
 RMSDP=4.82D-06 MaxDP=1.66D-03 DE=-5.93D-06 OVMax= 4.43D-04

 Cycle   3  Pass 1  IDiag  1:
 RMSU=  4.72D-06    CP:  1.00D+00  1.01D+00
 E= -1111.64342456353     Delta-E=        0.000001173222 Rises=F Damp=F
 DIIS: error= 9.07D-05 at cycle   3 NSaved=   3.
 NSaved= 3 IEnMin= 2 EnMin= -1111.64342573676     IErMin= 1 ErrMin= 3.36D-05
 ErrMax= 9.07D-05  0.00D+00 EMaxC= 1.00D-01 BMatC= 3.10D-06 BMatP= 1.51D-06
 IDIUse=1 WtCom= 1.00D+00 WtEn= 0.00D+00
 Coeff-Com: -0.127D-01 0.596D+00 0.417D+00
 Coeff:     -0.127D-01 0.596D+00 0.417D+00
 Gap=     0.175 Goal=   None    Shift=    0.000
 RMSDP=3.27D-06 MaxDP=1.17D-03 DE= 1.17D-06 OVMax= 2.65D-04

 Cycle   4  Pass 1  IDiag  1:
 RMSU=  8.59D-07    CP:  1.00D+00  1.06D+00  3.79D-01
 E= -1111.64342691651     Delta-E=       -0.000002352973 Rises=F Damp=F
 DIIS: error= 3.03D-06 at cycle   4 NSaved=   4.
 NSaved= 4 IEnMin= 4 EnMin= -1111.64342691651     IErMin= 4 ErrMin= 3.03D-06
 ErrMax= 3.03D-06  0.00D+00 EMaxC= 1.00D-01 BMatC= 7.58D-09 BMatP= 1.51D-06
 IDIUse=1 WtCom= 1.00D+00 WtEn= 0.00D+00
 Coeff-Com: -0.936D-02 0.149D+00 0.119D+00 0.741D+00
 Coeff:     -0.936D-02 0.149D+00 0.119D+00 0.741D+00
 Gap=     0.175 Goal=   None    Shift=    0.000
 RMSDP=2.36D-07 MaxDP=1.96D-05 DE=-2.35D-06 OVMax= 4.07D-05

 Cycle   5  Pass 1  IDiag  1:
 RMSU=  2.07D-07    CP:  1.00D+00  1.07D+00  3.80D-01  1.00D+00
 E= -1111.64342692034     Delta-E=       -0.000000003830 Rises=F Damp=F
 DIIS: error= 2.01D-06 at cycle   5 NSaved=   5.
 NSaved= 5 IEnMin= 5 EnMin= -1111.64342692034     IErMin= 5 ErrMin= 2.01D-06
 ErrMax= 2.01D-06  0.00D+00 EMaxC= 1.00D-01 BMatC= 3.83D-09 BMatP= 7.58D-09
 IDIUse=1 WtCom= 1.00D+00 WtEn= 0.00D+00
 Coeff-Com: -0.474D-02 0.421D-01 0.368D-01 0.442D+00 0.484D+00
 Coeff:     -0.474D-02 0.421D-01 0.368D-01 0.442D+00 0.484D+00
 Gap=     0.175 Goal=   None    Shift=    0.000
 RMSDP=1.00D-07 MaxDP=1.80D-05 DE=-3.83D-09 OVMax= 2.73D-05

 Cycle   6  Pass 1  IDiag  1:
 RMSU=  6.57D-08    CP:  1.00D+00  1.07D+00  3.80D-01  1.04D+00  6.73D-01
 E= -1111.64342692412     Delta-E=       -0.000000003782 Rises=F Damp=F
 DIIS: error= 4.80D-07 at cycle   6 NSaved=   6.
 NSaved= 6 IEnMin= 6 EnMin= -1111.64342692412     IErMin= 6 ErrMin= 4.80D-07
 ErrMax= 4.80D-07  0.00D+00 EMaxC= 1.00D-01 BMatC= 2.59D-10 BMatP= 3.83D-09
 IDIUse=1 WtCom= 1.00D+00 WtEn= 0.00D+00
 Coeff-Com: -0.114D-02 0.111D-02 0.175D-02 0.127D+00 0.246D+00 0.625D+00
 Coeff:     -0.114D-02 0.111D-02 0.175D-02 0.127D+00 0.246D+00 0.625D+00
 Gap=     0.175 Goal=   None    Shift=    0.000
 RMSDP=4.38D-08 MaxDP=1.01D-05 DE=-3.78D-09 OVMax= 6.74D-06

 Cycle   7  Pass 1  IDiag  1:
 RMSU=  2.20D-08    CP:  1.00D+00  1.07D+00  3.76D-01  1.06D+00  7.51D-01
                    CP:  7.25D-01
 E= -1111.64342692430     Delta-E=       -0.000000000178 Rises=F Damp=F
 DIIS: error= 1.84D-07 at cycle   7 NSaved=   7.
 NSaved= 7 IEnMin= 7 EnMin= -1111.64342692430     IErMin= 7 ErrMin= 1.84D-07
 ErrMax= 1.84D-07  0.00D+00 EMaxC= 1.00D-01 BMatC= 4.43D-11 BMatP= 2.59D-10
 IDIUse=1 WtCom= 1.00D+00 WtEn= 0.00D+00
 Coeff-Com: -0.704D-04-0.389D-02-0.333D-02 0.244D-01 0.881D-01 0.357D+00
 Coeff-Com:  0.537D+00
 Coeff:     -0.704D-04-0.389D-02-0.333D-02 0.244D-01 0.881D-01 0.357D+00
 Coeff:      0.537D+00
 Gap=     0.175 Goal=   None    Shift=    0.000
 RMSDP=1.22D-08 MaxDP=2.20D-06 DE=-1.78D-10 OVMax= 2.28D-06

 Cycle   8  Pass 1  IDiag  1:
 RMSU=  6.53D-09    CP:  1.00D+00  1.07D+00  3.75D-01  1.06D+00  7.43D-01
                    CP:  8.06D-01  6.97D-01
 E= -1111.64342692438     Delta-E=       -0.000000000085 Rises=F Damp=F
 DIIS: error= 4.44D-08 at cycle   8 NSaved=   8.
 NSaved= 8 IEnMin= 8 EnMin= -1111.64342692438     IErMin= 8 ErrMin= 4.44D-08
 ErrMax= 4.44D-08  0.00D+00 EMaxC= 1.00D-01 BMatC= 3.49D-12 BMatP= 4.43D-11
 IDIUse=1 WtCom= 1.00D+00 WtEn= 0.00D+00
 Coeff-Com:  0.845D-04-0.194D-02-0.191D-02-0.233D-02 0.154D-01 0.102D+00
 Coeff-Com:  0.270D+00 0.619D+00
 Coeff:      0.845D-04-0.194D-02-0.191D-02-0.233D-02 0.154D-01 0.102D+00
 Coeff:      0.270D+00 0.619D+00
 Gap=     0.175 Goal=   None    Shift=    0.000
 RMSDP=3.61D-09 MaxDP=6.92D-07 DE=-8.55D-11 OVMax= 7.94D-07

 SCF Done:  E(RPBE1PBE) =  -1111.64342692     A.U. after    8 cycles
            NFock=  8  Conv=0.36D-08     -V/T= 2.0047
 KE= 1.106426120720D+03 PE=-7.013852484082D+03 EE= 2.581720780767D+03
 Leave Link  502 at Mon Oct 18 11:27:26 2021, MaxMem=  7864320000 cpu:            9666.0 elap:             304.5
 (Enter /apps/gaussian/g16-c01-avx/g16/l508.exe)
 QCSCF skips out because SCF is already converged.
 Leave Link  508 at Mon Oct 18 11:27:26 2021, MaxMem=  7864320000 cpu:               0.1 elap:               0.0
 (Enter /apps/gaussian/g16-c01-avx/g16/l601.exe)
 Copying SCF densities to generalized density rwf, IOpCl= 0 IROHF=0.

 **********************************************************************

            Population analysis using the SCF Density.

 **********************************************************************

 Orbital symmetries:
       Occupied  (A) (A) (A) (A) (A) (A) (A) (A) (A) (A) (A) (A)
                 (A) (A) (A) (A) (A) (A) (A) (A) (A) (A) (A) (A)
                 (A) (A) (A) (A) (A) (A) (A) (A) (A) (A) (A) (A)
                 (A) (A) (A) (A) (A) (A) (A) (A) (A) (A) (A) (A)
                 (A) (A) (A) (A) (A) (A) (A) (A) (A) (A) (A) (A)
                 (A) (A) (A) (A) (A) (A) (A) (A) (A) (A) (A) (A)
                 (A) (A) (A) (A) (A) (A) (A) (A) (A) (A) (A) (A)
                 (A) (A) (A) (A) (A) (A) (A) (A) (A) (A) (A) (A)
       Virtual   (A) (A) (A) (A) (A) (A) (A) (A) (A) (A) (A) (A)
                 (A) (A) (A) (A) (A) (A) (A) (A) (A) (A) (A) (A)
                 (A) (A) (A) (A) (A) (A) (A) (A) (A) (A) (A) (A)
                 (A) (A) (A) (A) (A) (A) (A) (A) (A) (A) (A) (A)
                 (A) (A) (A) (A) (A) (A) (A) (A) (A) (A) (A) (A)
                 (A) (A) (A) (A) (A) (A) (A) (A) (A) (A) (A) (A)
                 (A) (A) (A) (A) (A) (A) (A) (A) (A) (A) (A) (A)
                 (A) (A) (A) (A) (A) (A) (A) (A) (A) (A) (A) (A)
                 (A) (A) (A) (A) (A) (A) (A) (A) (A) (A) (A) (A)
                 (A) (A) (A) (A) (A) (A) (A) (A) (A) (A) (A) (A)
                 (A) (A) (A) (A) (A) (A) (A) (A) (A) (A) (A) (A)
                 (A) (A) (A) (A) (A) (A) (A) (A) (A) (A) (A) (A)
                 (A) (A) (A) (A) (A) (A) (A) (A) (A) (A) (A) (A)
                 (A) (A) (A) (A) (A) (A) (A) (A) (A) (A) (A) (A)
                 (A) (A) (A) (A) (A) (A) (A) (A) (A) (A) (A) (A)
                 (A) (A) (A) (A) (A) (A) (A) (A) (A) (A) (A) (A)
                 (A) (A) (A) (A) (A) (A) (A) (A) (A) (A) (A) (A)
                 (A) (A) (A) (A) (A) (A) (A) (A) (A) (A) (A) (A)
                 (A) (A) (A) (A) (A) (A) (A) (A) (A) (A) (A) (A)
                 (A) (A) (A) (A) (A) (A) (A) (A) (A) (A) (A) (A)
                 (A) (A) (A) (A) (A) (A) (A) (A) (A) (A) (A) (A)
                 (A) (A) (A) (A) (A) (A) (A) (A) (A) (A) (A) (A)
                 (A) (A) (A) (A) (A) (A) (A) (A) (A) (A) (A) (A)
                 (A) (A) (A) (A) (A) (A) (A) (A) (A) (A) (A) (A)
                 (A) (A) (A) (A) (A) (A) (A) (A) (A) (A) (A) (A)
                 (A) (A) (A) (A) (A) (A) (A) (A) (A) (A) (A) (A)
                 (A) (A) (A) (A) (A) (A) (A) (A) (A) (A) (A) (A)
                 (A) (A) (A) (A) (A) (A) (A) (A) (A) (A) (A) (A)
                 (A) (A) (A) (A) (A) (A) (A) (A) (A) (A) (A) (A)
                 (A) (A) (A) (A) (A) (A) (A) (A) (A) (A) (A) (A)
                 (A) (A) (A) (A) (A) (A) (A) (A) (A) (A) (A) (A)
                 (A) (A) (A) (A) (A) (A) (A) (A) (A) (A) (A) (A)
                 (A) (A) (A) (A) (A) (A) (A) (A) (A) (A) (A) (A)
                 (A) (A) (A) (A) (A) (A) (A) (A) (A) (A) (A) (A)
                 (A) (A) (A) (A) (A) (A) (A) (A) (A) (A) (A) (A)
                 (A) (A) (A) (A) (A) (A) (A) (A) (A) (A) (A) (A)
                 (A) (A) (A) (A) (A) (A) (A) (A) (A) (A) (A) (A)
                 (A) (A) (A) (A) (A) (A) (A) (A) (A) (A) (A) (A)
                 (A) (A) (A) (A) (A) (A) (A) (A) (A) (A) (A) (A)
                 (A) (A) (A) (A) (A) (A) (A) (A) (A) (A) (A) (A)
                 (A) (A) (A) (A) (A) (A) (A) (A) (A) (A) (A) (A)
                 (A) (A) (A) (A) (A) (A) (A) (A) (A) (A) (A) (A)
                 (A) (A) (A) (A) (A) (A) (A) (A) (A) (A) (A) (A)
                 (A) (A) (A) (A) (A) (A) (A) (A) (A) (A) (A) (A)
                 (A) (A) (A) (A) (A) (A) (A) (A) (A) (A) (A) (A)
                 (A) (A) (A) (A) (A) (A) (A) (A) (A) (A) (A) (A)
                 (A) (A) (A) (A) (A) (A) (A) (A) (A) (A) (A) (A)
                 (A) (A) (A) (A) (A) (A) (A) (A) (A) (A) (A) (A)
                 (A) (A) (A) (A) (A) (A) (A) (A) (A) (A) (A) (A)
                 (A) (A) (A) (A) (A) (A) (A) (A) (A) (A) (A) (A)
                 (A) (A) (A) (A) (A) (A) (A) (A) (A) (A) (A) (A)
                 (A) (A) (A) (A) (A) (A) (A) (A) (A) (A) (A) (A)
                 (A) (A) (A) (A) (A) (A) (A) (A) (A) (A) (A) (A)
                 (A) (A) (A) (A) (A) (A) (A) (A) (A) (A) (A) (A)
                 (A) (A) (A) (A) (A) (A) (A) (A) (A) (A) (A) (A)
                 (A) (A) (A) (A) (A) (A) (A) (A) (A) (A) (A) (A)
                 (A) (A) (A) (A) (A) (A) (A) (A) (A) (A) (A) (A)
                 (A) (A) (A) (A) (A) (A) (A) (A) (A) (A) (A) (A)
                 (A) (A) (A) (A) (A) (A) (A) (A) (A) (A) (A) (A)
                 (A) (A) (A) (A) (A) (A) (A) (A) (A) (A) (A) (A)
                 (A) (A) (A) (A) (A) (A) (A) (A) (A) (A) (A) (A)
                 (A) (A) (A) (A) (A) (A) (A) (A) (A) (A) (A) (A)
                 (A) (A) (A) (A) (A) (A) (A) (A) (A) (A) (A) (A)
                 (A) (A) (A) (A) (A) (A) (A) (A) (A) (A) (A) (A)
                 (A) (A) (A) (A) (A) (A) (A) (A) (A) (A) (A) (A)
                 (A) (A) (A) (A) (A) (A) (A) (A) (A) (A) (A) (A)
                 (A) (A) (A) (A) (A) (A) (A) (A) (A) (A) (A) (A)
                 (A) (A) (A) (A) (A) (A) (A) (A) (A) (A) (A) (A)
                 (A) (A) (A) (A) (A) (A) (A) (A) (A) (A) (A) (A)
                 (A) (A) (A) (A) (A) (A) (A) (A) (A) (A) (A) (A)
                 (A) (A) (A) (A) (A) (A) (A) (A) (A) (A) (A) (A)
                 (A) (A) (A) (A) (A) (A) (A) (A) (A) (A) (A) (A)
                 (A) (A) (A) (A) (A) (A) (A) (A) (A) (A) (A) (A)
                 (A) (A) (A) (A) (A) (A) (A) (A) (A) (A) (A) (A)
                 (A) (A)
 The electronic state is 1-A.
 Alpha  occ. eigenvalues --  -19.20505 -14.38312 -14.38031 -14.36352 -14.36024
 Alpha  occ. eigenvalues --  -10.31093 -10.27427 -10.27147 -10.25479 -10.25319
 Alpha  occ. eigenvalues --  -10.25183 -10.25164 -10.25032 -10.25014 -10.24855
 Alpha  occ. eigenvalues --  -10.24838 -10.24667 -10.24479 -10.21960 -10.21594
 Alpha  occ. eigenvalues --  -10.21520 -10.21218 -10.21086 -10.21031 -10.20706
 Alpha  occ. eigenvalues --  -10.20589  -1.08177  -0.97383  -0.97058  -0.92286
 Alpha  occ. eigenvalues --   -0.91820  -0.90657  -0.84272  -0.83721  -0.81573
 Alpha  occ. eigenvalues --   -0.81043  -0.76814  -0.76123  -0.74838  -0.74307
 Alpha  occ. eigenvalues --   -0.69115  -0.68281  -0.66453  -0.63209  -0.62919
 Alpha  occ. eigenvalues --   -0.62587  -0.61561  -0.59259  -0.58364  -0.55867
 Alpha  occ. eigenvalues --   -0.55684  -0.53839  -0.52902  -0.52492  -0.51156
 Alpha  occ. eigenvalues --   -0.50358  -0.49387  -0.48799  -0.48006  -0.47070
 Alpha  occ. eigenvalues --   -0.46992  -0.46494  -0.46024  -0.45804  -0.45364
 Alpha  occ. eigenvalues --   -0.44966  -0.44088  -0.43919  -0.41705  -0.41377
 Alpha  occ. eigenvalues --   -0.41097  -0.40745  -0.40015  -0.39625  -0.39497
 Alpha  occ. eigenvalues --   -0.38971  -0.38559  -0.38464  -0.37869  -0.37269
 Alpha  occ. eigenvalues --   -0.36453  -0.36023  -0.34321  -0.33861  -0.33669
 Alpha  occ. eigenvalues --   -0.32073  -0.31646  -0.31274  -0.30705  -0.28017
 Alpha  occ. eigenvalues --   -0.27814  -0.27164  -0.26820  -0.26394  -0.25289
 Alpha  occ. eigenvalues --   -0.24947
 Alpha virt. eigenvalues --   -0.07399  -0.06849  -0.02709   0.03272   0.03626
 Alpha virt. eigenvalues --    0.04583   0.05041   0.05511   0.06090   0.06170
 Alpha virt. eigenvalues --    0.06444   0.06670   0.06941   0.07660   0.08377
 Alpha virt. eigenvalues --    0.08750   0.09257   0.09988   0.10382   0.10578
 Alpha virt. eigenvalues --    0.10667   0.11010   0.11375   0.11736   0.11917
 Alpha virt. eigenvalues --    0.12438   0.12630   0.12908   0.13832   0.13892
 Alpha virt. eigenvalues --    0.14667   0.14982   0.15309   0.15403   0.15707
 Alpha virt. eigenvalues --    0.16610   0.16649   0.17079   0.18241   0.19137
 Alpha virt. eigenvalues --    0.19574   0.19745   0.20072   0.20331   0.20493
 Alpha virt. eigenvalues --    0.20646   0.21081   0.21245   0.21484   0.22209
 Alpha virt. eigenvalues --    0.22335   0.22555   0.22875   0.22999   0.23283
 Alpha virt. eigenvalues --    0.23704   0.23770   0.23867   0.23964   0.24372
 Alpha virt. eigenvalues --    0.25205   0.25474   0.25643   0.25887   0.26474
 Alpha virt. eigenvalues --    0.26716   0.27247   0.27482   0.27702   0.28277
 Alpha virt. eigenvalues --    0.28667   0.29233   0.29622   0.29872   0.30404
 Alpha virt. eigenvalues --    0.30429   0.31196   0.32219   0.32939   0.33400
 Alpha virt. eigenvalues --    0.33678   0.34173   0.34312   0.34523   0.34913
 Alpha virt. eigenvalues --    0.35539   0.36294   0.36492   0.37099   0.37553
 Alpha virt. eigenvalues --    0.37752   0.38038   0.38278   0.38646   0.39072
 Alpha virt. eigenvalues --    0.39291   0.39992   0.40061   0.40364   0.40477
 Alpha virt. eigenvalues --    0.40983   0.41256   0.41471   0.41579   0.42066
 Alpha virt. eigenvalues --    0.42926   0.43267   0.43348   0.43556   0.43841
 Alpha virt. eigenvalues --    0.44095   0.44474   0.44777   0.45031   0.45298
 Alpha virt. eigenvalues --    0.45517   0.45595   0.45674   0.45987   0.46526
 Alpha virt. eigenvalues --    0.46728   0.47178   0.47263   0.47413   0.47721
 Alpha virt. eigenvalues --    0.48207   0.48461   0.48650   0.48925   0.49138
 Alpha virt. eigenvalues --    0.49358   0.49536   0.50103   0.50604   0.50907
 Alpha virt. eigenvalues --    0.51224   0.51820   0.52041   0.52403   0.52985
 Alpha virt. eigenvalues --    0.53477   0.53656   0.53743   0.54194   0.54640
 Alpha virt. eigenvalues --    0.54826   0.55372   0.55750   0.56177   0.56815
 Alpha virt. eigenvalues --    0.57248   0.57916   0.58239   0.58713   0.59470
 Alpha virt. eigenvalues --    0.60044   0.60397   0.60732   0.60910   0.61169
 Alpha virt. eigenvalues --    0.62459   0.62904   0.63185   0.63684   0.64593
 Alpha virt. eigenvalues --    0.65016   0.65817   0.66322   0.67402   0.67933
 Alpha virt. eigenvalues --    0.68386   0.69162   0.69878   0.70147   0.70297
 Alpha virt. eigenvalues --    0.70868   0.71138   0.71607   0.72070   0.72164
 Alpha virt. eigenvalues --    0.72757   0.72856   0.73067   0.74099   0.74290
 Alpha virt. eigenvalues --    0.76092   0.76827   0.76921   0.77268   0.77533
 Alpha virt. eigenvalues --    0.77920   0.78159   0.78606   0.78722   0.79623
 Alpha virt. eigenvalues --    0.79860   0.80591   0.81009   0.81108   0.82477
 Alpha virt. eigenvalues --    0.82533   0.82914   0.83454   0.84203   0.84784
 Alpha virt. eigenvalues --    0.85076   0.85723   0.85845   0.86278   0.86552
 Alpha virt. eigenvalues --    0.87792   0.88240   0.88272   0.89019   0.89914
 Alpha virt. eigenvalues --    0.91274   0.91677   0.91878   0.92545   0.93467
 Alpha virt. eigenvalues --    0.94006   0.94639   0.95290   0.95701   0.96417
 Alpha virt. eigenvalues --    0.96970   0.97708   0.99453   1.00136   1.00649
 Alpha virt. eigenvalues --    1.01186   1.01409   1.03199   1.03521   1.03992
 Alpha virt. eigenvalues --    1.04797   1.05302   1.05528   1.06336   1.06849
 Alpha virt. eigenvalues --    1.07659   1.08902   1.10006   1.10198   1.10808
 Alpha virt. eigenvalues --    1.11103   1.12356   1.12696   1.13495   1.13825
 Alpha virt. eigenvalues --    1.14315   1.14929   1.16088   1.16316   1.16945
 Alpha virt. eigenvalues --    1.17458   1.17696   1.18234   1.19014   1.19423
 Alpha virt. eigenvalues --    1.19951   1.20255   1.21132   1.21832   1.22125
 Alpha virt. eigenvalues --    1.22786   1.23776   1.24224   1.24794   1.25337
 Alpha virt. eigenvalues --    1.25566   1.26112   1.26226   1.26512   1.28557
 Alpha virt. eigenvalues --    1.29659   1.30245   1.30366   1.30833   1.31134
 Alpha virt. eigenvalues --    1.31461   1.32011   1.33490   1.33688   1.34227
 Alpha virt. eigenvalues --    1.34445   1.35051   1.35937   1.36338   1.36847
 Alpha virt. eigenvalues --    1.37212   1.37469   1.37756   1.39395   1.40660
 Alpha virt. eigenvalues --    1.41811   1.42140   1.42643   1.44027   1.44850
 Alpha virt. eigenvalues --    1.45082   1.45473   1.45826   1.46859   1.47056
 Alpha virt. eigenvalues --    1.48502   1.48976   1.49514   1.50074   1.50564
 Alpha virt. eigenvalues --    1.52281   1.52946   1.53679   1.53961   1.54212
 Alpha virt. eigenvalues --    1.55175   1.55395   1.56212   1.56419   1.56721
 Alpha virt. eigenvalues --    1.56944   1.57334   1.58488   1.58961   1.59579
 Alpha virt. eigenvalues --    1.60759   1.60907   1.61200   1.61320   1.61735
 Alpha virt. eigenvalues --    1.63154   1.63574   1.63867   1.64605   1.65089
 Alpha virt. eigenvalues --    1.65720   1.66333   1.67123   1.67341   1.67696
 Alpha virt. eigenvalues --    1.68055   1.68596   1.68971   1.69335   1.69974
 Alpha virt. eigenvalues --    1.70627   1.70776   1.71887   1.73061   1.73603
 Alpha virt. eigenvalues --    1.74002   1.74799   1.75228   1.75665   1.76555
 Alpha virt. eigenvalues --    1.76941   1.77261   1.77856   1.79133   1.79438
 Alpha virt. eigenvalues --    1.80294   1.80546   1.81069   1.81426   1.82207
 Alpha virt. eigenvalues --    1.82425   1.84540   1.84634   1.85408   1.86322
 Alpha virt. eigenvalues --    1.87297   1.88899   1.89255   1.90650   1.91041
 Alpha virt. eigenvalues --    1.92131   1.92546   1.93060   1.93477   1.93987
 Alpha virt. eigenvalues --    1.94515   1.95281   1.95725   1.96861   1.97576
 Alpha virt. eigenvalues --    1.97717   1.98074   1.98524   1.98976   1.99383
 Alpha virt. eigenvalues --    1.99893   2.00244   2.01084   2.01497   2.01872
 Alpha virt. eigenvalues --    2.02195   2.03159   2.05076   2.05448   2.05823
 Alpha virt. eigenvalues --    2.05977   2.06563   2.07764   2.07855   2.08679
 Alpha virt. eigenvalues --    2.10345   2.10583   2.12330   2.12840   2.12877
 Alpha virt. eigenvalues --    2.13593   2.14736   2.15398   2.16247   2.16715
 Alpha virt. eigenvalues --    2.17858   2.18070   2.18371   2.18855   2.19782
 Alpha virt. eigenvalues --    2.20358   2.20874   2.21875   2.22216   2.23041
 Alpha virt. eigenvalues --    2.23834   2.24150   2.25048   2.26505   2.28153
 Alpha virt. eigenvalues --    2.28600   2.29377   2.29514   2.30025   2.31367
 Alpha virt. eigenvalues --    2.32239   2.32456   2.33962   2.34587   2.35410
 Alpha virt. eigenvalues --    2.36157   2.36562   2.36930   2.37986   2.38970
 Alpha virt. eigenvalues --    2.39405   2.40249   2.41029   2.41271   2.42920
 Alpha virt. eigenvalues --    2.43656   2.44590   2.44888   2.45259   2.45647
 Alpha virt. eigenvalues --    2.46809   2.47508   2.48806   2.49056   2.49701
 Alpha virt. eigenvalues --    2.50427   2.51126   2.51450   2.52132   2.52600
 Alpha virt. eigenvalues --    2.54397   2.54825   2.55431   2.56209   2.56859
 Alpha virt. eigenvalues --    2.57876   2.58279   2.59160   2.59273   2.59877
 Alpha virt. eigenvalues --    2.59959   2.60632   2.61191   2.61629   2.61695
 Alpha virt. eigenvalues --    2.61948   2.62404   2.62955   2.63136   2.63903
 Alpha virt. eigenvalues --    2.64682   2.65281   2.65671   2.66215   2.66391
 Alpha virt. eigenvalues --    2.66800   2.67495   2.67652   2.68492   2.68770
 Alpha virt. eigenvalues --    2.69005   2.69577   2.70800   2.71147   2.71594
 Alpha virt. eigenvalues --    2.71693   2.72098   2.72329   2.72846   2.73621
 Alpha virt. eigenvalues --    2.73945   2.74506   2.74742   2.75598   2.75920
 Alpha virt. eigenvalues --    2.76064   2.76939   2.77245   2.77993   2.78278
 Alpha virt. eigenvalues --    2.78750   2.79763   2.79914   2.80022   2.80654
 Alpha virt. eigenvalues --    2.80904   2.81284   2.82521   2.82662   2.83237
 Alpha virt. eigenvalues --    2.83735   2.84605   2.84852   2.85617   2.85838
 Alpha virt. eigenvalues --    2.86309   2.88266   2.88356   2.89278   2.89454
 Alpha virt. eigenvalues --    2.89814   2.90769   2.91101   2.91875   2.91888
 Alpha virt. eigenvalues --    2.92604   2.94078   2.94731   2.95058   2.95470
 Alpha virt. eigenvalues --    2.96408   2.96660   2.97096   2.97725   2.98547
 Alpha virt. eigenvalues --    2.99196   2.99665   3.00573   3.01250   3.01997
 Alpha virt. eigenvalues --    3.02433   3.03554   3.04343   3.04596   3.05190
 Alpha virt. eigenvalues --    3.05660   3.06005   3.06187   3.06901   3.07777
 Alpha virt. eigenvalues --    3.07983   3.08826   3.08985   3.09518   3.09820
 Alpha virt. eigenvalues --    3.10742   3.11680   3.12452   3.13150   3.13212
 Alpha virt. eigenvalues --    3.14208   3.15997   3.16433   3.16760   3.17541
 Alpha virt. eigenvalues --    3.17665   3.17916   3.18455   3.19119   3.19895
 Alpha virt. eigenvalues --    3.20301   3.20655   3.20792   3.21413   3.22040
 Alpha virt. eigenvalues --    3.22641   3.23024   3.23501   3.23973   3.24711
 Alpha virt. eigenvalues --    3.25222   3.26475   3.26701   3.27377   3.27771
 Alpha virt. eigenvalues --    3.27984   3.28453   3.28751   3.29717   3.30031
 Alpha virt. eigenvalues --    3.30689   3.30979   3.31080   3.32510   3.32552
 Alpha virt. eigenvalues --    3.32971   3.33559   3.34289   3.34793   3.35842
 Alpha virt. eigenvalues --    3.36238   3.36504   3.37562   3.37919   3.38290
 Alpha virt. eigenvalues --    3.38739   3.39441   3.39919   3.40246   3.41047
 Alpha virt. eigenvalues --    3.41561   3.41741   3.42798   3.43067   3.43416
 Alpha virt. eigenvalues --    3.43881   3.44661   3.45815   3.45896   3.46009
 Alpha virt. eigenvalues --    3.46519   3.46832   3.47237   3.47481   3.49312
 Alpha virt. eigenvalues --    3.50322   3.50759   3.52186   3.52701   3.52722
 Alpha virt. eigenvalues --    3.53106   3.53764   3.54434   3.54878   3.55329
 Alpha virt. eigenvalues --    3.55827   3.56145   3.56754   3.57267   3.58240
 Alpha virt. eigenvalues --    3.58819   3.58862   3.59341   3.59575   3.60050
 Alpha virt. eigenvalues --    3.60618   3.61077   3.62786   3.63009   3.63334
 Alpha virt. eigenvalues --    3.64703   3.65215   3.65802   3.66052   3.68057
 Alpha virt. eigenvalues --    3.68947   3.70612   3.71672   3.72321   3.72605
 Alpha virt. eigenvalues --    3.73311   3.73620   3.75168   3.77053   3.77829
 Alpha virt. eigenvalues --    3.78435   3.79141   3.79961   3.80671   3.82639
 Alpha virt. eigenvalues --    3.84289   3.84417   3.84948   3.86936   3.87794
 Alpha virt. eigenvalues --    3.89907   3.91170   3.91496   3.91758   3.94499
 Alpha virt. eigenvalues --    3.94924   3.96179   3.97606   3.98027   4.00062
 Alpha virt. eigenvalues --    4.00447   4.00658   4.01544   4.01765   4.02441
 Alpha virt. eigenvalues --    4.02772   4.03137   4.03954   4.04732   4.05045
 Alpha virt. eigenvalues --    4.05569   4.06541   4.06928   4.08320   4.08884
 Alpha virt. eigenvalues --    4.09140   4.10072   4.10426   4.11018   4.11353
 Alpha virt. eigenvalues --    4.12923   4.13177   4.13359   4.14152   4.14307
 Alpha virt. eigenvalues --    4.15240   4.15753   4.16070   4.17739   4.18355
 Alpha virt. eigenvalues --    4.19341   4.20442   4.22392   4.23240   4.23879
 Alpha virt. eigenvalues --    4.24009   4.24650   4.25564   4.26347   4.27380
 Alpha virt. eigenvalues --    4.27497   4.28824   4.29199   4.29508   4.29925
 Alpha virt. eigenvalues --    4.30963   4.33204   4.33825   4.34402   4.35700
 Alpha virt. eigenvalues --    4.35951   4.38185   4.38959   4.39639   4.40004
 Alpha virt. eigenvalues --    4.40135   4.40762   4.43120   4.43230   4.43631
 Alpha virt. eigenvalues --    4.46836   4.47522   4.48837   4.49346   4.52327
 Alpha virt. eigenvalues --    4.53398   4.53963   4.54688   4.55317   4.56764
 Alpha virt. eigenvalues --    4.60973   4.61885   4.62808   4.63569   4.64913
 Alpha virt. eigenvalues --    4.64991   4.67013   4.67253   4.71399   4.72266
 Alpha virt. eigenvalues --    4.74972   4.75842   4.75937   4.76225   4.76614
 Alpha virt. eigenvalues --    4.77302   4.78470   4.80472   4.81643   4.83397
 Alpha virt. eigenvalues --    4.83932   4.84222   4.84623   4.88801   4.91190
 Alpha virt. eigenvalues --    4.91305   4.91870   4.92104   4.92725   4.93601
 Alpha virt. eigenvalues --    4.93995   4.96452   4.96836   4.98176   4.99953
 Alpha virt. eigenvalues --    5.00393   5.02945   5.03501   5.05583   5.06828
 Alpha virt. eigenvalues --    5.08574   5.09863   5.11918   5.12611   5.12925
 Alpha virt. eigenvalues --    5.14879   5.16399   5.18053   5.19225   5.19402
 Alpha virt. eigenvalues --    5.19676   5.21415   5.24681   5.25110   5.26804
 Alpha virt. eigenvalues --    5.27922   5.28909   5.30311   5.31125   5.35477
 Alpha virt. eigenvalues --    5.35968   5.37923   5.39058   5.40486   5.43694
 Alpha virt. eigenvalues --    5.44292   5.45302   5.47731   5.50968   5.54884
 Alpha virt. eigenvalues --    5.56280   5.58697   5.60117   5.60552   5.64761
 Alpha virt. eigenvalues --    5.70834   5.74035   5.75000   5.80098   5.83224
 Alpha virt. eigenvalues --    5.90676   5.91023   5.96185   6.03967   6.05496
 Alpha virt. eigenvalues --    6.07221   6.12290   6.36532   6.42695   6.51570
 Alpha virt. eigenvalues --    6.56072   6.81302   7.02784   7.10213  22.40000
 Alpha virt. eigenvalues --   22.58709  22.59210  22.60849  22.61349  22.64890
 Alpha virt. eigenvalues --   22.65425  22.69712  22.70228  22.78422  22.78753
 Alpha virt. eigenvalues --   22.84100  22.87928  22.90697  22.91780  22.99546
 Alpha virt. eigenvalues --   23.10845  23.11681  23.14530  23.18626  23.49570
 Alpha virt. eigenvalues --   32.18610  32.18925  32.88530  32.90291  43.97370
          Condensed to atoms (all electrons):
 Mulliken charges:
               1
     1  C    0.282781
     2  C    0.039222
     3  C   -0.322036
     4  C    0.350029
     5  H    0.164552
     6  C   -0.329843
     7  C    0.295750
     8  H    0.115942
     9  C   -0.289036
    10  C   -0.185422
    11  H    0.147742
    12  C   -0.194986
    13  O   -0.273245
    14  C    0.235728
    15  C   -0.031072
    16  N   -0.219118
    17  H    0.048205
    18  C   -0.285918
    19  N   -0.491876
    20  H    0.081451
    21  C   -0.202061
    22  C   -0.182075
    23  C   -0.212247
    24  C   -0.029956
    25  C    0.235167
    26  N   -0.491423
    27  H    0.082624
    28  C   -0.199462
    29  N   -0.228771
    30  H    0.050332
    31  C   -0.286413
    32  C   -0.213005
    33  C   -0.178685
    34  H    0.073983
    35  H    0.215066
    36  H    0.209148
    37  H    0.209014
    38  H    0.214634
    39  H    0.081632
    40  H    0.109762
    41  H    0.115524
    42  H    0.101810
    43  H    0.111974
    44  H    0.103380
    45  H    0.112246
    46  H    0.094272
    47  H    0.071647
    48  H    0.073592
    49  H    0.105770
    50  H    0.103675
    51  H    0.113425
    52  H    0.104666
    53  H    0.096024
    54  H    0.103409
    55  H    0.083663
    56  H    0.108808
 Sum of Mulliken charges =   0.00000
 Mulliken charges with hydrogens summed into heavy atoms:
               1
     1  C    0.282781
     2  C    0.113206
     3  C   -0.157484
     4  C    0.350029
     6  C   -0.213902
     7  C    0.295750
     9  C   -0.141294
    10  C   -0.111830
    12  C   -0.123339
    13  O   -0.273245
    14  C    0.283933
    15  C    0.050379
    16  N   -0.219118
    18  C   -0.070564
    19  N   -0.068228
    21  C    0.004457
    22  C    0.035259
    23  C   -0.020854
    24  C    0.052668
    25  C    0.285499
    26  N   -0.067208
    28  C   -0.000029
    29  N   -0.228771
    31  C   -0.068322
    32  C   -0.020534
    33  C    0.030760
 Electronic spatial extent (au):  <R**2>=          17854.4746
 Charge=              0.0000 electrons
 Dipole moment (field-independent basis, Debye):
    X=              1.6775    Y=             -2.1422    Z=             -0.0589  Tot=              2.7215
 Quadrupole moment (field-independent basis, Debye-Ang):
   XX=           -133.8486   YY=           -173.6485   ZZ=           -154.9702
   XY=              6.9085   XZ=              2.3224   YZ=             -0.3540
 Traceless Quadrupole moment (field-independent basis, Debye-Ang):
   XX=             20.3071   YY=            -19.4927   ZZ=             -0.8144
   XY=              6.9085   XZ=              2.3224   YZ=             -0.3540
 Octapole moment (field-independent basis, Debye-Ang**2):
  XXX=              3.5708  YYY=            -22.8743  ZZZ=              0.3393  XYY=             29.9504
  XXY=             26.2740  XXZ=              0.6862  XZZ=             -0.9748  YZZ=             -2.1314
  YYZ=             -0.8763  XYZ=             11.7947
 Hexadecapole moment (field-independent basis, Debye-Ang**3):
 XXXX=         -18971.7089 YYYY=          -2528.3937 ZZZZ=           -885.4548 XXXY=             -8.9826
 XXXZ=            292.3120 YYYX=            102.6652 YYYZ=             -5.9219 ZZZX=            126.3574
 ZZZY=              0.8463 XXYY=          -4254.3227 XXZZ=          -3464.7024 YYZZ=           -522.3138
 XXYZ=             -0.3139 YYXZ=            -59.6939 ZZXY=             -5.9535
 N-N= 2.214062155670D+03 E-N=-7.013852474690D+03  KE= 1.106426120720D+03
 No NMR shielding tensors so no spin-rotation constants.
 Leave Link  601 at Mon Oct 18 11:27:27 2021, MaxMem=  7864320000 cpu:              20.3 elap:               0.7
 (Enter /apps/gaussian/g16-c01-avx/g16/l9999.exe)
 Unable to Open any file for archive entry.
 1\1\GINC-CX3-6-1\SP\RPBE1PBE\def2TZVP\C21H30N4O1\ATARZIA\18-Oct-2021\0
 \\#P PBE1PBE/Def2TZVP SP SCF=(YQC,MaxCycle=900) int=(Grid=Superfinegri
 d) EmpiricalDispersion=GD3\\_1_alde1_2_ami3_2_opt_gas\\0,1\C,0,-1.3091
 ,0.9866,-2.0738\C,0,-1.628,-0.2097,-1.28\C,0,-2.3264,1.6736,-2.7327\C,
 0,-2.0391,2.8083,-3.4862\H,0,-3.3453,1.327,-2.6607\C,0,-0.7197,3.2476,
 -3.5733\C,0,0.3076,2.5698,-2.9204\H,0,-0.4888,4.1286,-4.1571\C,0,0.004
 3,1.4364,-2.1696\C,0,1.6817,3.0441,-3.0238\H,0,0.8091,0.9212,-1.6682\C
 ,0,-3.1013,3.5302,-4.1758\O,0,-2.7274,-0.6765,-1.1328\C,0,-5.3308,3.86
 37,-4.7952\C,0,-6.2894,4.4401,-3.73\N,0,-4.2981,3.1439,-4.1214\H,0,-4.
 9295,4.7144,-5.3771\C,0,-6.0614,2.9025,-5.742\N,0,-7.1535,5.4272,-4.35
 46\H,0,-5.6771,4.9861,-2.9993\C,0,-7.0172,3.3015,-2.9986\C,0,-6.7607,1
 .7899,-4.9694\C,0,-7.7476,2.3761,-3.9666\C,0,4.7969,1.8664,-3.3115\C,0
 ,3.969,2.9315,-2.5594\N,0,6.0585,2.4537,-3.7276\H,0,4.2532,1.6199,-4.2
 337\C,0,4.9169,0.5897,-2.4642\N,0,2.6278,2.4532,-2.4389\H,0,4.0213,3.8
 67,-3.1465\C,0,4.5298,3.1851,-1.1541\C,0,5.494,0.8746,-1.0812\C,0,4.62
 27,1.8915,-0.353\H,0,-0.7409,-0.6734,-0.8032\H,0,6.5751,1.7942,-4.2993
 \H,0,6.6306,2.6721,-2.9194\H,0,-7.7767,4.9803,-5.0181\H,0,-7.7287,5.87
 65,-3.6502\H,0,-8.5311,2.9252,-4.4973\H,0,-8.233,1.5738,-3.4073\H,0,-6
 .0098,1.2071,-4.4351\H,0,-7.2791,1.1281,-5.6667\H,0,-6.7856,3.4707,-6.
 3292\H,0,-5.3325,2.4749,-6.4341\H,0,-6.2733,2.7255,-2.4472\H,0,-7.7215
 ,3.7296,-2.2794\H,0,-2.7905,4.4241,-4.7405\H,0,1.8364,3.944,-3.6401\H,
 0,3.6193,1.4825,-0.2295\H,0,5.0338,2.1007,0.637\H,0,5.5152,3.6454,-1.2
 468\H,0,3.8765,3.8948,-0.6416\H,0,5.5422,-0.135,-2.9936\H,0,3.9188,0.1
 639,-2.3548\H,0,6.5141,1.2597,-1.1694\H,0,5.5447,-0.0537,-0.5083\\Vers
 ion=ES64L-G16RevC.01\State=1-A\HF=-1111.6434269\RMSD=3.614e-09\Dipole=
 0.8130952,0.6220781,-0.3135461\Quadrupole=12.0177435,-8.6411013,-3.376
 6423,-9.0922914,5.4715004,4.5549227\PG=C01 [X(C21H30N4O1)]\\@
 The archive entry for this job was punched.


 Boundary, n.  In political geography, an imaginary
 line between two nations, separating the imaginary
 rights of one from the imaginary rights of another.
                               -- Ambrose Bierce
 Job cpu time:       0 days  8 hours 17 minutes 46.2 seconds.
 Elapsed time:       0 days  0 hours 15 minutes 41.0 seconds.
 File lengths (MBytes):  RWF=    952 Int=      0 D2E=      0 Chk=     72 Scr=     16
 Normal termination of Gaussian 16 at Mon Oct 18 11:27:27 2021.
