 Entering Gaussian System, Link 0=g16
 Initial command:
 /apps/gaussian/g16-c01-avx/g16/l1.exe "/rds/general/ephemeral/user/atarzia/ephemeral/Gau-133187.inp" -scrdir="/rds/general/ephemeral/user/atarzia/ephemeral/"
 Entering Link 1 = /apps/gaussian/g16-c01-avx/g16/l1.exe PID=    133188.
  
 Copyright (c) 1988-2019, Gaussian, Inc.  All Rights Reserved.
  
 This is part of the Gaussian(R) 16 program.  It is based on
 the Gaussian(R) 09 system (copyright 2009, Gaussian, Inc.),
 the Gaussian(R) 03 system (copyright 2003, Gaussian, Inc.),
 the Gaussian(R) 98 system (copyright 1998, Gaussian, Inc.),
 the Gaussian(R) 94 system (copyright 1995, Gaussian, Inc.),
 the Gaussian 92(TM) system (copyright 1992, Gaussian, Inc.),
 the Gaussian 90(TM) system (copyright 1990, Gaussian, Inc.),
 the Gaussian 88(TM) system (copyright 1988, Gaussian, Inc.),
 the Gaussian 86(TM) system (copyright 1986, Carnegie Mellon
 University), and the Gaussian 82(TM) system (copyright 1983,
 Carnegie Mellon University). Gaussian is a federally registered
 trademark of Gaussian, Inc.
  
 This software contains proprietary and confidential information,
 including trade secrets, belonging to Gaussian, Inc.
  
 This software is provided under written license and may be
 used, copied, transmitted, or stored only in accord with that
 written license.
  
 The following legend is applicable only to US Government
 contracts under FAR:
  
                    RESTRICTED RIGHTS LEGEND
  
 Use, reproduction and disclosure by the US Government is
 subject to restrictions as set forth in subparagraphs (a)
 and (c) of the Commercial Computer Software - Restricted
 Rights clause in FAR 52.227-19.
  
 Gaussian, Inc.
 340 Quinnipiac St., Bldg. 40, Wallingford CT 06492
  
  
 ---------------------------------------------------------------
 Warning -- This program may not be used in any manner that
 competes with the business of Gaussian, Inc. or will provide
 assistance to any competitor of Gaussian, Inc.  The licensee
 of this program is prohibited from giving any competitor of
 Gaussian, Inc. access to this program.  By using this program,
 the user acknowledges that Gaussian, Inc. is engaged in the
 business of creating and licensing software in the field of
 computational chemistry and represents and warrants to the
 licensee that it is not a competitor of Gaussian, Inc. and that
 it will not use this program in any manner prohibited above.
 ---------------------------------------------------------------
  

 Cite this work as:
 Gaussian 16, Revision C.01,
 M. J. Frisch, G. W. Trucks, H. B. Schlegel, G. E. Scuseria, 
 M. A. Robb, J. R. Cheeseman, G. Scalmani, V. Barone, 
 G. A. Petersson, H. Nakatsuji, X. Li, M. Caricato, A. V. Marenich, 
 J. Bloino, B. G. Janesko, R. Gomperts, B. Mennucci, H. P. Hratchian, 
 J. V. Ortiz, A. F. Izmaylov, J. L. Sonnenberg, D. Williams-Young, 
 F. Ding, F. Lipparini, F. Egidi, J. Goings, B. Peng, A. Petrone, 
 T. Henderson, D. Ranasinghe, V. G. Zakrzewski, J. Gao, N. Rega, 
 G. Zheng, W. Liang, M. Hada, M. Ehara, K. Toyota, R. Fukuda, 
 J. Hasegawa, M. Ishida, T. Nakajima, Y. Honda, O. Kitao, H. Nakai, 
 T. Vreven, K. Throssell, J. A. Montgomery, Jr., J. E. Peralta, 
 F. Ogliaro, M. J. Bearpark, J. J. Heyd, E. N. Brothers, K. N. Kudin, 
 V. N. Staroverov, T. A. Keith, R. Kobayashi, J. Normand, 
 K. Raghavachari, A. P. Rendell, J. C. Burant, S. S. Iyengar, 
 J. Tomasi, M. Cossi, J. M. Millam, M. Klene, C. Adamo, R. Cammi, 
 J. W. Ochterski, R. L. Martin, K. Morokuma, O. Farkas, 
 J. B. Foresman, and D. J. Fox, Gaussian, Inc., Wallingford CT, 2019.
 
 ******************************************
 Gaussian 16:  ES64L-G16RevC.01  3-Jul-2019
                18-Oct-2021 
 ******************************************
 %chk=_1_alde1_2_ami4_1_opt_cfm.chk
 %mem=60000mb
 %nprocshared=32
 Will use up to   32 processors via shared memory.
 ----------------------------------------------------------------------
 #P PBE1PBE/Def2TZVP SP SCF=(YQC,MaxCycle=900) int=(Grid=Superfinegrid)
  EmpiricalDispersion=GD3 SCRF=(PCM,Solvent=Chloroform)
 ----------------------------------------------------------------------
 1/38=1,172=1/1;
 2/12=2,17=6,18=5,40=1/2;
 3/5=44,7=101,11=2,25=1,30=1,70=2201,72=7,74=-13,75=-7,124=31/1,2,3;
 4//1;
 5/5=2,7=900,8=4,13=1,38=1,53=7/8,2,8;
 6/7=2,8=2,9=2,10=2,28=1/1;
 99/5=1,9=1/99;
 Leave Link    1 at Mon Oct 18 05:50:08 2021, MaxMem=  7864320000 cpu:               6.3 elap:               0.2
 (Enter /apps/gaussian/g16-c01-avx/g16/l101.exe)
 -------------------------
 _1_alde1_2_ami4_1_opt_cfm
 -------------------------
 Symbolic Z-matrix:
 Charge =  0 Multiplicity = 1
 C                    -1.2081    1.2297   -0.1228 
 C                    -1.0556    0.6211    1.2033 
 C                    -2.4766    1.4984   -0.6334 
 C                    -2.6146    2.0807   -1.883 
 H                    -3.356     1.2484   -0.0576 
 C                    -1.4808    2.3881   -2.6243 
 C                    -0.2111    2.1285   -2.1253 
 H                    -1.6062    2.843    -3.5951 
 C                    -0.0782    1.5507   -0.8741 
 C                     1.0191    2.5068   -2.9094 
 H                     0.9004    1.3279   -0.4768 
 C                    -3.9923    2.3251   -2.4453 
 O                    -0.0081    0.3869    1.7505 
 C                    -5.5878    1.5264   -3.8781 
 C                    -4.9697    2.7665   -4.557 
 N                    -4.5833    1.085    -2.9242 
 H                    -5.8459    0.7335   -4.5769 
 N                    -3.9713    3.2368   -3.5993 
 H                    -5.7208    3.5229   -4.7941 
 C                     3.3462    2.2493   -2.5312 
 C                     2.9623    3.7196   -2.7884 
 N                     2.0961    1.5176   -2.7197 
 H                     3.6755    2.1176   -1.4934 
 N                     1.5473    3.7867   -2.4604 
 H                     3.0732    3.9609   -3.8504 
 H                     2.1383    0.8664   -3.4915 
 H                     0.7566    2.6157   -3.9762 
 H                     1.4349    3.8507   -1.4519 
 H                    -3.8667    0.5472   -3.4049 
 H                    -4.116     4.1968   -3.3175 
 H                    -4.6488    2.7062   -1.6406 
 H                    -2.0206    0.383     1.6956 
 H                    -4.4578    2.4838   -5.4847 
 H                     4.1404    1.9011   -3.1931 
 H                    -6.4823    1.8097   -3.3146 
 H                     3.5392    4.4302   -2.2002 
 
 ITRead=  0  0  0  0  0  0  0  0  0  0  0  0  0  0  0  0  0  0  0  0
 ITRead=  0  0  0  0  0  0  0  0  0  0  0  0  0  0  0  0
 MicOpt= -1 -1 -1 -1 -1 -1 -1 -1 -1 -1 -1 -1 -1 -1 -1 -1 -1 -1 -1 -1
 MicOpt= -1 -1 -1 -1 -1 -1 -1 -1 -1 -1 -1 -1 -1 -1 -1 -1
 NAtoms=     36 NQM=       36 NQMF=       0 NMMI=      0 NMMIF=      0
                NMic=       0 NMicF=      0.
                    Isotopes and Nuclear Properties:
 (Nuclear quadrupole moments (NQMom) in fm**2, nuclear magnetic moments (NMagM)
  in nuclear magnetons)

  Atom         1           2           3           4           5           6           7           8           9          10
 IAtWgt=          12          12          12          12           1          12          12           1          12          12
 AtmWgt=  12.0000000  12.0000000  12.0000000  12.0000000   1.0078250  12.0000000  12.0000000   1.0078250  12.0000000  12.0000000
 NucSpn=           0           0           0           0           1           0           0           1           0           0
 AtZEff=  -0.0000000  -0.0000000  -0.0000000  -0.0000000  -0.0000000  -0.0000000  -0.0000000  -0.0000000  -0.0000000  -0.0000000
 NQMom=    0.0000000   0.0000000   0.0000000   0.0000000   0.0000000   0.0000000   0.0000000   0.0000000   0.0000000   0.0000000
 NMagM=    0.0000000   0.0000000   0.0000000   0.0000000   2.7928460   0.0000000   0.0000000   2.7928460   0.0000000   0.0000000
 AtZNuc=   6.0000000   6.0000000   6.0000000   6.0000000   1.0000000   6.0000000   6.0000000   1.0000000   6.0000000   6.0000000

  Atom        11          12          13          14          15          16          17          18          19          20
 IAtWgt=           1          12          16          12          12          14           1          14           1          12
 AtmWgt=   1.0078250  12.0000000  15.9949146  12.0000000  12.0000000  14.0030740   1.0078250  14.0030740   1.0078250  12.0000000
 NucSpn=           1           0           0           0           0           2           1           2           1           0
 AtZEff=  -0.0000000  -0.0000000  -0.0000000  -0.0000000  -0.0000000  -0.0000000  -0.0000000  -0.0000000  -0.0000000  -0.0000000
 NQMom=    0.0000000   0.0000000   0.0000000   0.0000000   0.0000000   2.0440000   0.0000000   2.0440000   0.0000000   0.0000000
 NMagM=    2.7928460   0.0000000   0.0000000   0.0000000   0.0000000   0.4037610   2.7928460   0.4037610   2.7928460   0.0000000
 AtZNuc=   1.0000000   6.0000000   8.0000000   6.0000000   6.0000000   7.0000000   1.0000000   7.0000000   1.0000000   6.0000000

  Atom        21          22          23          24          25          26          27          28          29          30
 IAtWgt=          12          14           1          14           1           1           1           1           1           1
 AtmWgt=  12.0000000  14.0030740   1.0078250  14.0030740   1.0078250   1.0078250   1.0078250   1.0078250   1.0078250   1.0078250
 NucSpn=           0           2           1           2           1           1           1           1           1           1
 AtZEff=  -0.0000000  -0.0000000  -0.0000000  -0.0000000  -0.0000000  -0.0000000  -0.0000000  -0.0000000  -0.0000000  -0.0000000
 NQMom=    0.0000000   2.0440000   0.0000000   2.0440000   0.0000000   0.0000000   0.0000000   0.0000000   0.0000000   0.0000000
 NMagM=    0.0000000   0.4037610   2.7928460   0.4037610   2.7928460   2.7928460   2.7928460   2.7928460   2.7928460   2.7928460
 AtZNuc=   6.0000000   7.0000000   1.0000000   7.0000000   1.0000000   1.0000000   1.0000000   1.0000000   1.0000000   1.0000000

  Atom        31          32          33          34          35          36
 IAtWgt=           1           1           1           1           1           1
 AtmWgt=   1.0078250   1.0078250   1.0078250   1.0078250   1.0078250   1.0078250
 NucSpn=           1           1           1           1           1           1
 AtZEff=  -0.0000000  -0.0000000  -0.0000000  -0.0000000  -0.0000000  -0.0000000
 NQMom=    0.0000000   0.0000000   0.0000000   0.0000000   0.0000000   0.0000000
 NMagM=    2.7928460   2.7928460   2.7928460   2.7928460   2.7928460   2.7928460
 AtZNuc=   1.0000000   1.0000000   1.0000000   1.0000000   1.0000000   1.0000000
 Leave Link  101 at Mon Oct 18 05:50:08 2021, MaxMem=  7864320000 cpu:               2.2 elap:               0.1
 (Enter /apps/gaussian/g16-c01-avx/g16/l202.exe)
                          Input orientation:                          
 ---------------------------------------------------------------------
 Center     Atomic      Atomic             Coordinates (Angstroms)
 Number     Number       Type             X           Y           Z
 ---------------------------------------------------------------------
      1          6           0       -1.208100    1.229700   -0.122800
      2          6           0       -1.055600    0.621100    1.203300
      3          6           0       -2.476600    1.498400   -0.633400
      4          6           0       -2.614600    2.080700   -1.883000
      5          1           0       -3.356000    1.248400   -0.057600
      6          6           0       -1.480800    2.388100   -2.624300
      7          6           0       -0.211100    2.128500   -2.125300
      8          1           0       -1.606200    2.843000   -3.595100
      9          6           0       -0.078200    1.550700   -0.874100
     10          6           0        1.019100    2.506800   -2.909400
     11          1           0        0.900400    1.327900   -0.476800
     12          6           0       -3.992300    2.325100   -2.445300
     13          8           0       -0.008100    0.386900    1.750500
     14          6           0       -5.587800    1.526400   -3.878100
     15          6           0       -4.969700    2.766500   -4.557000
     16          7           0       -4.583300    1.085000   -2.924200
     17          1           0       -5.845900    0.733500   -4.576900
     18          7           0       -3.971300    3.236800   -3.599300
     19          1           0       -5.720800    3.522900   -4.794100
     20          6           0        3.346200    2.249300   -2.531200
     21          6           0        2.962300    3.719600   -2.788400
     22          7           0        2.096100    1.517600   -2.719700
     23          1           0        3.675500    2.117600   -1.493400
     24          7           0        1.547300    3.786700   -2.460400
     25          1           0        3.073200    3.960900   -3.850400
     26          1           0        2.138300    0.866400   -3.491500
     27          1           0        0.756600    2.615700   -3.976200
     28          1           0        1.434900    3.850700   -1.451900
     29          1           0       -3.866700    0.547200   -3.404900
     30          1           0       -4.116000    4.196800   -3.317500
     31          1           0       -4.648800    2.706200   -1.640600
     32          1           0       -2.020600    0.383000    1.695600
     33          1           0       -4.457800    2.483800   -5.484700
     34          1           0        4.140400    1.901100   -3.193100
     35          1           0       -6.482300    1.809700   -3.314600
     36          1           0        3.539200    4.430200   -2.200200
 ---------------------------------------------------------------------
                    Distance matrix (angstroms):
                    1          2          3          4          5
     1  C    0.000000
     2  C    1.467035   0.000000
     3  C    1.393558   2.482411   0.000000
     4  C    2.408474   3.753153   1.385503   0.000000
     5  H    2.148971   2.697261   1.080458   2.138804   0.000000
     6  C    2.770155   4.237170   2.397262   1.389073   3.376868
     7  C    2.410779   3.750335   2.784831   2.416155   3.865276
     8  H    3.849427   5.316450   3.367078   2.128205   4.256578
     9  C    1.394334   2.476905   2.411015   2.780666   3.391464
    10  C    3.789003   4.977404   4.291499   3.799847   5.371949
    11  H    2.140264   2.673619   3.384926   3.859965   4.277732
    12  C    3.787569   4.983985   2.502751   1.507969   2.695417
    13  O    2.378984   1.204796   3.607202   4.781749   3.901262
    14  C    5.776857   6.868845   4.495378   3.623202   4.433332
    15  C    6.014442   7.287247   4.818533   3.628649   5.015302
    16  N    4.388708   5.449415   3.139562   2.439528   3.122557
    17  H    6.449373   7.508017   5.242943   4.417391   5.185441
    18  N    4.873374   6.197432   3.748697   2.474447   4.108037
    19  H    6.887980   8.133470   5.651094   4.494766   5.761949
    20  C    5.251821   5.997780   6.170129   5.998310   7.213874
    21  C    5.540511   6.455842   6.257746   5.882819   7.313345
    22  N    4.212424   5.111443   5.026192   4.817452   6.073273
    23  H    5.149414   5.647567   6.242703   6.302262   7.229040
    24  N    4.426607   5.497164   4.976547   4.534891   6.021525
    25  H    6.299523   7.330835   6.871192   6.305306   7.942141
    26  H    4.762197   5.683513   5.464930   5.162543   6.490372
    27  H    4.541997   5.838640   4.782913   4.004085   5.842809
    28  H    3.952417   4.866518   4.637142   4.440405   5.627500
    29  H    4.278568   5.398449   3.243204   2.497110   3.457877
    30  H    5.240770   6.526049   4.144079   2.964772   4.460674
    31  H    4.040072   5.034530   2.681732   2.141957   2.510458
    32  H    2.164171   1.109178   2.622269   4.005172   2.367683
    33  H    6.394004   7.731362   5.332099   4.065971   5.673940
    34  H    6.203545   6.925688   7.106259   6.883215   8.151895
    35  H    6.192025   7.160535   4.830256   4.133040   4.549380
    36  H    6.090620   6.870607   6.873148   6.594696   7.890397
                    6          7          8          9         10
     6  C    0.000000
     7  C    1.388716   0.000000
     8  H    1.079403   2.148750   0.000000
     9  C    2.394102   1.384564   3.377671   0.000000
    10  C    2.518903   1.507088   2.734121   2.502127   0.000000
    11  H    3.377261   2.143349   4.278127   1.079419   2.705816
    12  C    2.518659   3.799806   2.698839   4.288187   5.036123
    13  O    5.031155   4.253963   6.096047   2.871910   5.221473
    14  C    4.379725   5.687155   4.203173   6.275372   6.749125
    15  C    4.006362   5.381866   3.499176   6.242491   6.216732
    16  N    3.378390   4.565443   3.521902   4.971490   5.780019
    17  H    5.060084   6.301376   4.836215   6.902529   7.283775
    18  N    2.805977   4.188091   2.397664   5.042408   5.090477
    19  H    4.896264   6.278825   4.339332   7.148070   7.071832
    20  C    4.829893   3.582420   5.100062   3.867885   2.371653
    21  C    4.641224   3.611339   4.721269   4.196822   2.293807
    22  N    3.682538   2.459610   4.028652   2.852177   1.474595
    23  H    5.285786   3.937649   5.730594   3.846449   3.035291
    24  N    3.339511   2.440059   3.481763   3.187208   1.455589
    25  H    4.971513   4.137667   4.817848   4.959712   2.686860
    26  H    4.020633   2.996511   4.235441   3.497416   2.069387
    27  H    2.624003   2.144677   2.404106   3.384397   1.104005
    28  H    3.466270   2.475633   3.854485   2.813063   2.025651
    29  H    3.113000   4.183455   3.227497   4.665265   5.287400
    30  H    3.270505   4.576838   2.865123   5.410719   5.421429
    31  H    3.332428   4.501317   3.618867   4.776305   5.811601
    32  H    4.793052   4.573876   5.849345   3.426339   5.912388
    33  H    4.129598   5.426441   3.439656   6.427224   6.052201
    34  H    5.670855   4.486364   5.837139   4.826710   3.192158
    35  H    5.081935   6.390932   4.992268   6.858252   7.544610
    36  H    5.436031   4.400930   5.562382   4.809953   3.248590
                   11         12         13         14         15
    11  H    0.000000
    12  C    5.367300   0.000000
    13  O    2.582967   6.102066   0.000000
    14  C    7.328368   2.288331   8.007038   0.000000
    15  C    7.292165   2.368422   8.370456   1.542984   0.000000
    16  N    6.009969   1.454811   6.578193   1.453884   2.375454
    17  H    7.916861   3.242336   8.616033   1.087946   2.213868
    18  N    6.093223   1.470834   7.242185   2.369867   1.461223
    19  H    8.203499   3.152665   9.235866   2.200627   1.092020
    20  C    3.324376   7.339394   5.749158   9.063834   8.574704
    21  C    3.913458   7.101324   6.366457   8.893918   8.182479
    22  N    2.548781   6.147842   5.068415   7.770733   7.406818
    23  H    3.059131   7.729445   5.204529   9.583582   9.194901
    24  N    3.224724   5.729195   5.631127   7.617643   6.921548
    25  H    4.799471   7.387248   7.323795   8.996693   8.161747
    26  H    3.291473   6.388004   5.684674   7.763870   7.434335
    27  H    3.731609   4.998015   6.192528   6.437982   5.757654
    28  H    2.756997   5.724404   4.933105   7.785058   7.199725
    29  H    5.648761   2.024237   6.441478   2.035912   2.732990
    30  H    6.439288   2.068646   7.554787   3.100243   2.076276
    31  H    5.835046   1.106242   6.197968   2.698158   2.934621
    32  H    3.760904   4.980603   2.013252   6.715535   7.312542
    33  H    7.424653   3.078933   8.748996   2.185104   1.096626
    34  H    4.266667   8.178006   6.628879   9.759483   9.252192
    35  H    7.923983   2.687270   8.342354   1.094496   2.178757
    36  H    4.422402   7.824002   6.673803   9.723658   8.984642
                   16         17         18         19         20
    16  N    0.000000
    17  H    2.109296   0.000000
    18  N    2.336781   3.276635   0.000000
    19  H    3.276246   2.800639   2.137791   0.000000
    20  C    8.024152   9.538199   7.460684   9.431504   0.000000
    21  C    7.993475   9.471004   6.997533   8.913908   1.541205
    22  N    6.696518   8.193862   6.367314   8.332364   1.460708
    23  H    8.445190  10.103503   8.010055  10.057830   1.096728
    24  N    6.715545   8.274117   5.661663   7.638130   2.367415
    25  H    8.231078   9.512847   7.086067   8.855329   2.178163
    26  H    6.749039   8.058735   6.554207   8.397572   2.072103
    27  H    5.653696   6.891772   4.783394   6.591562   2.988026
    28  H    6.784946   8.514259   5.849376   7.904543   2.717064
    29  H    1.016768   2.307710   2.698644   3.771254   7.462334
    30  H    3.171175   4.071006   1.010915   2.282514   7.752126
    31  H    2.068867   3.734495   2.139404   3.429394   8.057416
    32  H    5.329427   7.355272   6.323399   8.103497   7.081769
    33  H    2.920368   2.411322   2.087684   1.775338   8.347489
    34  H    8.765915  10.149107   8.230964  10.121102   1.090921
    35  H    2.069735   1.776686   2.902204   2.388275   9.869467
    36  H    8.814167  10.363127   7.732354   9.659146   2.214302
                   21         22         23         24         25
    21  C    0.000000
    22  N    2.367240   0.000000
    23  H    2.179927   2.087658   0.000000
    24  N    1.454067   2.348879   2.872319   0.000000
    25  H    1.094700   2.864074   3.052207   2.071429   0.000000
    26  H    3.051897   1.010701   2.814407   3.152872   3.252503
    27  H    2.737622   2.139831   3.864243   2.072220   2.681795
    28  H    2.033807   2.736395   2.832957   1.016761   2.906712
    29  H    7.555093   6.079980   7.937554   6.379486   7.746872
    30  H    7.114070   6.791588   8.267883   5.742453   7.212782
    31  H    7.763586   6.933318   8.346382   6.342808   8.129377
    32  H    7.487887   6.142427   6.754562   6.448831   8.337043
    33  H    7.990940   7.178605   9.067257   6.848735   7.846574
    34  H    2.204233   2.133153   1.775383   3.288845   2.411169
    35  H    9.650133   8.603963  10.324363   8.313403   9.809298
    36  H    1.088001   3.291756   2.422037   2.109375   1.777796
                   26         27         28         29         30
    26  H    0.000000
    27  H    2.281245   0.000000
    28  H    3.682497   2.890918   0.000000
    29  H    6.014101   5.097056   6.544791   0.000000
    30  H    7.087885   5.164881   5.866237   3.659149   0.000000
    31  H    7.271549   5.889106   6.193294   2.895810   2.306026
    32  H    6.666043   6.698291   5.819981   5.426799   6.638294
    33  H    7.077949   5.429819   7.270200   2.902652   2.783514
    34  H    2.273335   3.545984   3.761974   8.123519   8.570522
    35  H    8.673860   7.313619   8.385546   2.905757   3.361195
    36  H    4.041120   3.766889   2.307347   8.448452   7.739827
                   31         32         33         34         35
    31  H    0.000000
    32  H    4.840963   0.000000
    33  H    3.855262   7.868292   0.000000
    34  H    8.961500   8.010115   8.917399   0.000000
    35  H    2.639642   6.858888   3.043410  10.623788   0.000000
    36  H    8.386219   7.903699   8.861626   2.782739  10.418223
                   36
    36  H    0.000000
 Stoichiometry    C13H18N4O
 Framework group  C1[X(C13H18N4O)]
 Deg. of freedom   102
 Full point group                 C1      NOp   1
 Largest Abelian subgroup         C1      NOp   1
 Largest concise Abelian subgroup C1      NOp   1
                         Standard orientation:                         
 ---------------------------------------------------------------------
 Center     Atomic      Atomic             Coordinates (Angstroms)
 Number     Number       Type             X           Y           Z
 ---------------------------------------------------------------------
      1          6           0        0.345219    2.086327   -0.123314
      2          6           0        0.749759    3.496334   -0.143748
      3          6           0       -0.990899    1.733669   -0.303384
      4          6           0       -1.366189    0.400017   -0.291220
      5          1           0       -1.738352    2.500354   -0.447950
      6          6           0       -0.402863   -0.580723   -0.092034
      7          6           0        0.932339   -0.242552    0.085187
      8          1           0       -0.712090   -1.614873   -0.087189
      9          6           0        1.303159    1.091315    0.067656
     10          6           0        1.983578   -1.309404    0.252632
     11          1           0        2.334033    1.373408    0.218878
     12          6           0       -2.820810    0.031850   -0.441217
     13          8           0        1.879064    3.902862   -0.039156
     14          6           0       -4.712246   -0.584450    0.689757
     15          6           0       -4.203105   -1.847941   -0.034928
     16          7           0       -3.547361    0.279155    0.794678
     17          1           0       -5.142493   -0.789728    1.667702
     18          7           0       -3.007799   -1.395451   -0.743214
     19          1           0       -4.957192   -2.271956   -0.701315
     20          6           0        4.326268   -1.257708    0.618511
     21          6           0        3.954482   -2.087118   -0.626145
     22          7           0        3.036929   -0.876182    1.189222
     23          1           0        4.861387   -0.347011    0.323400
     24          7           0        2.644042   -1.590282   -1.013715
     25          1           0        3.848523   -3.143829   -0.360621
     26          1           0        2.890163   -1.260928    2.112233
     27          1           0        1.506710   -2.246418    0.589425
     28          1           0        2.749181   -0.719188   -1.527469
     29          1           0       -2.969641   -0.017720    1.576932
     30          1           0       -3.052316   -1.562098   -1.739305
     31          1           0       -3.277693    0.672985   -1.218375
     32          1           0       -0.098431    4.199211   -0.273418
     33          1           0       -3.909534   -2.616772    0.689850
     34          1           0        4.949018   -1.812509    1.321709
     35          1           0       -5.456227   -0.068974    0.074373
     36          1           0        4.669620   -1.995228   -1.440933
 ---------------------------------------------------------------------
 Rotational constants (GHZ):           0.5786405           0.2492132           0.1862819
 Leave Link  202 at Mon Oct 18 05:50:08 2021, MaxMem=  7864320000 cpu:               0.2 elap:               0.0
 (Enter /apps/gaussian/g16-c01-avx/g16/l301.exe)
 Standard basis: def2TZVP (5D, 7F)
 Ernie: Thresh=  0.10000D-02 Tol=  0.10000D-05 Strict=F.
 There are   756 symmetry adapted cartesian basis functions of A   symmetry.
 There are   666 symmetry adapted basis functions of A   symmetry.
   666 basis functions,  1062 primitive gaussians,   756 cartesian basis functions
    66 alpha electrons       66 beta electrons
       nuclear repulsion energy      1303.0498299330 Hartrees.
 IExCor= 1009 DFT=T Ex+Corr=PBE1PBE ExCW=0 ScaHFX=  0.250000
 ScaDFX=  0.750000  0.750000  1.000000  1.000000 ScalE2=  1.000000  1.000000
 IRadAn=      7 IRanWt=     -1 IRanGd=            0 ICorTp=0 IEmpDi=131
 NAtoms=   36 NActive=   36 NUniq=   36 SFac= 1.00D+00 NAtFMM=   60 NAOKFM=F Big=F
 Integral buffers will be    131072 words long.
 Raffenetti 2 integral format.
 Two-electron integral symmetry is turned on.
 R6Disp:  Grimme-D3 Dispersion energy=       -0.0208087412 Hartrees.
 Nuclear repulsion after empirical dispersion term =     1303.0290211918 Hartrees.
 ------------------------------------------------------------------------------
 Polarizable Continuum Model (PCM)
 =================================
 Model                : PCM.
 Atomic radii         : UFF (Universal Force Field).
 Polarization charges : Total charges.
 Charge compensation  : None.
 Solution method      : On-the-fly selection.
 Cavity type          : Scaled VdW (van der Waals Surface) (Alpha=1.100).
 Cavity algorithm     : GePol (No added spheres)
                        Default sphere list used, NSphG=   36.
                        Lebedev-Laikov grids with approx.  5.0 points / Ang**2.
                        Smoothing algorithm: York/Karplus (Gamma=1.0000).
                        Polarization charges: spherical gaussians, with
                                              point-specific exponents (IZeta= 3).
                        Self-potential: point-specific (ISelfS= 7).
                        Self-field    : sphere-specific E.n sum rule (ISelfD= 2).
 Solvent              : Chloroform, Eps=   4.711300 Eps(inf)=   2.090627
 ------------------------------------------------------------------------------
 GePol: Number of generator spheres                  =      36
 GePol: Total number of spheres                      =      36
 GePol: Number of exposed spheres                    =      36 (100.00%)
 GePol: Number of points                             =    2571
 GePol: Average weight of points                     =       0.13
 GePol: Minimum weight of points                     =   0.22D-10
 GePol: Maximum weight of points                     =    0.20577
 GePol: Number of points with low weight             =     180
 GePol: Fraction of low-weight points (<1% of avg)   =       7.00%
 GePol: Cavity surface area                          =    334.240 Ang**2
 GePol: Cavity volume                                =    354.454 Ang**3
 Leave Link  301 at Mon Oct 18 05:50:08 2021, MaxMem=  7864320000 cpu:               1.6 elap:               0.1
 (Enter /apps/gaussian/g16-c01-avx/g16/l302.exe)
 NPDir=0 NMtPBC=     1 NCelOv=     1 NCel=       1 NClECP=     1 NCelD=      1
         NCelK=      1 NCelE2=     1 NClLst=     1 CellRange=     0.0.
 One-electron integrals computed using PRISM.
 One-electron integral symmetry used in STVInt
   1 Symmetry operations used in ECPInt.
 ECPInt:  NShTT=   36585 NPrTT=  110196 LenC2=   31862 LenP2D=   69474.
 LDataN:  DoStor=T MaxTD1= 6 Len=  172
 NBasis=   666 RedAO= T EigKep=  5.83D-06  NBF=   666
 NBsUse=   666 1.00D-06 EigRej= -1.00D+00 NBFU=   666
 Precomputing XC quadrature grid using
 IXCGrd= 4 IRadAn=           7 IRanWt=          -1 IRanGd=           0 AccXCQ= 0.00D+00.
 Generated NRdTot=       0 NPtTot=           0 NUsed=           0 NTot=          32
 NSgBfM=   746   746   746   746   746 MxSgAt=    36 MxSgA2=    36.
 Leave Link  302 at Mon Oct 18 05:50:09 2021, MaxMem=  7864320000 cpu:              34.9 elap:               1.1
 (Enter /apps/gaussian/g16-c01-avx/g16/l303.exe)
 DipDrv:  MaxL=1.
 Leave Link  303 at Mon Oct 18 05:50:09 2021, MaxMem=  7864320000 cpu:               3.2 elap:               0.1
 (Enter /apps/gaussian/g16-c01-avx/g16/l401.exe)
 ExpMin= 9.52D-02 ExpMax= 2.70D+04 ExpMxC= 9.22D+02 IAcc=3 IRadAn=         7 AccDes= 0.00D+00
 Harris functional with IExCor= 1009 and IRadAn=       7 diagonalized for initial guess.
 HarFok:  IExCor= 1009 AccDes= 0.00D+00 IRadAn=         7 IDoV= 1 UseB2=F ITyADJ=14
 ICtDFT=  3500011 ScaDFX=  1.000000  1.000000  1.000000  1.000000
 FoFCou: FMM=F IPFlag=           0 FMFlag=      100000 FMFlg1=           0
         NFxFlg=           0 DoJE=T BraDBF=F KetDBF=T FulRan=T
         wScrn=  0.000000 ICntrl=       500 IOpCl=  0 I1Cent=   200000004 NGrid=           0
         NMat0=    1 NMatS0=      1 NMatT0=    0 NMatD0=    1 NMtDS0=    0 NMtDT0=    0
 Petite list used in FoFCou.
 Harris En= -799.989103792559    
 JPrj=0 DoOrth=F DoCkMO=F.
 Leave Link  401 at Mon Oct 18 05:50:15 2021, MaxMem=  7864320000 cpu:             198.9 elap:               6.3
 (Enter /apps/gaussian/g16-c01-avx/g16/l508.exe)
 Integral symmetry usage will be decided dynamically.
 Tight linear equation convergence will be used.
 RPBE1PBE wavefunction.
 Linear searches until partial convergence.
 Full line searches.
 Fock matrices will be formed incrementally for  20 cycles.
 Inv3:  Mode=1 IEnd=    19830123.
 Iteration    1 A*A^-1 deviation from unit magnitude is 5.77D-15 for   2537.
 Iteration    1 A*A^-1 deviation from orthogonality  is 3.87D-15 for   2569   2467.
 Iteration    1 A^-1*A deviation from unit magnitude is 5.77D-15 for   2537.
 Iteration    1 A^-1*A deviation from orthogonality  is 2.56D-15 for   2546   2514.
 FoFJK:  IHMeth= 1 ICntrl=       0 DoSepK=F KAlg= 0 I1Cent=           0 FoldK=F
 IRaf= 800000000 NMat=       1 IRICut=       1 DoRegI=T DoRafI=F ISym2E= 1 IDoP0=0 IntGTp=1.
 Iteration   1 EE= -799.452570593360                                    Grad=9.275D-01 Max rot=    2.0194 deg.
 Gradient too large for Newton-Raphson -- use scaled steepest descent instead.
 Alpha Gap=     0.152 HL deriv= 1.66D-03
     ILin= 1 X=0.000D+00 Y=-7.994525705934D+02 DE= 0.00D+00 F= -1.52D+00
 RMSU=  1.54D-03    CP:  1.06D+00
     ILin= 2 X=3.000D-01 Y=-7.997536265529D+02 DE=-3.01D-01 F= -4.85D-01 OKLS=F
 RMSU=  1.90D-04    CP:  1.12D+00  1.80D+00
     ILin= 3 X=5.000D-01 Y=-7.997806877280D+02 DE=-3.28D-01 F=  2.16D-01
     Accept linear search using points  2 and  3.
     An  expanding polynomial of degree  3 produced  0.3920
 RMSU=  6.09D-08    CP:  1.09D+00  1.36D+00  3.61D-01
 Iteration   2 EE= -799.783484061880     Delta-E=       -0.330913468521 Grad=3.070D-01 Max rot=    1.3302 deg.
 Gradient too large for Newton-Raphson -- use scaled steepest descent instead.
 Alpha Gap=     0.189 HL deriv= 4.82D-03
     ILin= 1 X=0.000D+00 Y=-7.997834840619D+02 DE= 0.00D+00 F= -8.78D-02
 RMSU=  1.67D-04    CP:  1.09D+00  1.52D+00  5.19D-01 -3.00D+00
     ILin= 2 X=3.000D-01 Y=-7.998029767256D+02 DE=-1.95D-02 F= -4.21D-02 OKLS=F
 RMSU=  1.57D-05    CP:  1.10D+00  1.74D+00  8.39D-01 -3.00D+00  2.35D+00
     ILin= 3 X=7.000D-01 Y=-7.998077120774D+02 DE=-2.42D-02 F=  1.84D-02
     Accept linear search using points  2 and  3.
     An  expanding polynomial of degree  3 produced  0.5082
 RMSU=  4.54D-08    CP:  1.10D+00  1.63D+00  6.70D-01 -3.00D+00  1.70D+00
                    CP:  3.78D-01
 Iteration   3 EE= -799.808461757709     Delta-E=       -0.024977695829 Grad=1.333D-01 Max rot=    0.6237 deg.
 Gradient too large for Newton-Raphson -- use scaled steepest descent instead.
 Alpha Gap=     0.175 HL deriv= 9.81D-04
     ILin= 1 X=0.000D+00 Y=-7.998084617577D+02 DE= 0.00D+00 F= -1.37D-02
 RMSU=  1.17D-04    CP:  1.11D+00  1.79D+00  9.61D-01 -3.00D+00  2.13D+00
                    CP: -2.06D-01 -3.00D+00
     ILin= 2 X=4.000D-01 Y=-7.998117309678D+02 DE=-3.27D-03 F= -2.62D-03 OKLS=F
 RMSU=  7.42D-06    CP:  1.12D+00  1.99D+00  1.39D+00 -3.00D+00  2.67D+00
                    CP: -6.42D-01 -3.00D+00  2.28D+00
     ILin= 3 X=9.000D-01 Y=-7.998095596850D+02 DE=-1.10D-03 F=  1.13D-02
     An  expanding polynomial of degree  3 produced  0.4939
 RMSU=  1.94D-08    CP:  1.11D+00  1.82D+00  1.04D+00 -3.00D+00  2.23D+00
                    CP: -3.12D-01 -3.00D+00  1.24D+00  1.03D-01
 Iteration   4 EE= -799.811854519016     Delta-E=       -0.003392761306 Grad=6.751D-02 Max rot=    0.3161 deg.
 Gradient too large for Newton-Raphson -- use scaled steepest descent instead.
 Alpha Gap=     0.178 HL deriv= 1.03D-03
     ILin= 1 X=0.000D+00 Y=-7.998118545190D+02 DE= 0.00D+00 F= -3.61D-03
 RMSU=  5.88D-05    CP:  1.11D+00  1.86D+00  1.15D+00 -3.00D+00  2.76D+00
                    CP:  2.39D-01 -3.00D+00  1.26D+00 -3.00D+00  3.00D+00
     ILin= 2 X=5.000D-01 Y=-7.998126374636D+02 DE=-7.83D-04 F=  4.76D-04 OKLS=T
     Accept linear search using points  1 and  2.
     An  expanding polynomial of degree  2 produced  0.3153
 RMSU=  1.55D-06    CP:  1.11D+00  1.85D+00  1.10D+00 -3.00D+00  2.56D+00
                    CP:  2.21D-02 -3.00D+00  1.25D+00 -2.07D+00  3.00D+00
                    CP:  6.29D-01
 Iteration   5 EE= -799.812586220619     Delta-E=       -0.000731701603 Grad=4.041D-02 Max rot=    0.2097 deg.
 Gradient too large for Newton-Raphson -- use scaled steepest descent instead.
 Alpha Gap=     0.178 HL deriv= 3.50D-04
     ILin= 1 X=0.000D+00 Y=-7.998125862206D+02 DE= 0.00D+00 F= -7.12D-04
 RMSU=  7.67D-06    CP:  1.11D+00  1.89D+00  1.20D+00 -3.00D+00  2.79D+00
                    CP:  5.96D-02 -3.00D+00  1.50D+00 -3.00D+00  3.00D+00
                    CP:  1.01D+00  9.89D-01
     ILin= 2 X=4.000D-01 Y=-7.998128118785D+02 DE=-2.26D-04 F= -4.16D-04 OKLS=F
 RMSU=  2.92D-06    CP:  1.11D+00  1.93D+00  1.31D+00 -3.00D+00  3.00D+00
                    CP:  1.40D-01 -3.00D+00  1.75D+00 -3.00D+00  3.00D+00
                    CP:  1.40D+00 -3.00D+00  1.99D+00
     ILin= 3 X=8.000D-01 Y=-7.998129189477D+02 DE=-3.33D-04 F= -1.19D-04
 RMSU=  7.12D-05    CP:  1.12D+00  2.02D+00  1.53D+00 -3.00D+00  3.00D+00
                    CP:  4.31D-01 -3.00D+00  2.24D+00 -3.00D+00  3.00D+00
                    CP:  2.17D+00 -3.00D+00  3.00D+00  3.00D+00
     ILin= 4 X=1.600D+00 Y=-7.998127772398D+02 DE=-1.91D-04 F=  4.74D-04
     An  expanding polynomial of degree  4 produced  0.9611
 RMSU=  1.33D-06    CP:  1.11D+00  1.95D+00  1.35D+00 -3.00D+00  3.00D+00
                    CP:  1.85D-01 -3.00D+00  1.85D+00 -3.00D+00  3.00D+00
                    CP:  1.55D+00 -3.00D+00  2.40D+00  3.00D+00  1.35D-01
 Iteration   6 EE= -799.812928566459     Delta-E=       -0.000342345840 Grad=3.689D-03 Max rot=    0.0092 deg.
 SCF Done:  E(RPBE1PBE) =  -799.812928566     a.u. after    6 cycles
            Convg  =    0.3689D-02                    16 Fock formations.
              S**2 =  0.0000                  -V/T =  2.0047
 Leave Link  508 at Mon Oct 18 05:55:02 2021, MaxMem=  7864320000 cpu:            9084.1 elap:             287.1
 (Enter /apps/gaussian/g16-c01-avx/g16/l502.exe)
 Integral symmetry usage will be decided dynamically.
 Closed shell SCF:
 Using DIIS extrapolation, IDIIS=  1040.
 NGot=  7864320000 LenX=  7863145154 LenY=  7862572862
 Requested convergence on RMS density matrix=1.00D-08 within 128 cycles.
 Requested convergence on MAX density matrix=1.00D-06.
 Requested convergence on             energy=1.00D-06.
 No special actions if energy rises.
 Fock matrices will be formed incrementally for  20 cycles.

 Cycle   1  Pass 1  IDiag  1:
 FoFJK:  IHMeth= 1 ICntrl=       0 DoSepK=F KAlg= 0 I1Cent=           0 FoldK=F
 IRaf= 800000000 NMat=       1 IRICut=       1 DoRegI=T DoRafI=F ISym2E= 0 IDoP0=0 IntGTp=1.
 FoFCou: FMM=F IPFlag=           0 FMFlag=      100000 FMFlg1=           0
         NFxFlg=           0 DoJE=F BraDBF=F KetDBF=F FulRan=T
         wScrn=  0.000000 ICntrl=         0 IOpCl=  0 I1Cent=           0 NGrid=           0
         NMat0=    1 NMatS0=      1 NMatT0=    0 NMatD0=    1 NMtDS0=    0 NMtDT0=    0
 Symmetry not used in FoFCou.
 E= -799.812928566453    
 DIIS: error= 4.21D-05 at cycle   1 NSaved=   1.
 NSaved= 1 IEnMin= 1 EnMin= -799.812928566453     IErMin= 1 ErrMin= 4.21D-05
 ErrMax= 4.21D-05  0.00D+00 EMaxC= 1.00D-01 BMatC= 6.81D-06 BMatP= 6.81D-06
 IDIUse=1 WtCom= 1.00D+00 WtEn= 0.00D+00
 Coeff-Com:  0.100D+01
 Coeff:      0.100D+01
 Gap=     0.178 Goal=   None    Shift=    0.000
 RMSDP=4.70D-05 MaxDP=5.64D-03              OVMax= 5.86D-04

 Cycle   2  Pass 1  IDiag  1:
 RMSU=  4.36D-05    CP:  1.00D+00
 E= -799.812932705208     Delta-E=       -0.000004138755 Rises=F Damp=F
 DIIS: error= 6.05D-05 at cycle   2 NSaved=   2.
 NSaved= 2 IEnMin= 2 EnMin= -799.812932705208     IErMin= 1 ErrMin= 4.21D-05
 ErrMax= 6.05D-05  0.00D+00 EMaxC= 1.00D-01 BMatC= 3.40D-06 BMatP= 6.81D-06
 IDIUse=1 WtCom= 1.00D+00 WtEn= 0.00D+00
 Coeff-Com:  0.388D+00 0.612D+00
 Coeff:      0.388D+00 0.612D+00
 Gap=     0.171 Goal=   None    Shift=    0.000
 RMSDP=7.83D-06 MaxDP=1.61D-03 DE=-4.14D-06 OVMax= 6.04D-04

 Cycle   3  Pass 1  IDiag  1:
 RMSU=  7.77D-06    CP:  1.00D+00  1.02D+00
 E= -799.812933962052     Delta-E=       -0.000001256845 Rises=F Damp=F
 DIIS: error= 4.75D-05 at cycle   3 NSaved=   3.
 NSaved= 3 IEnMin= 3 EnMin= -799.812933962052     IErMin= 1 ErrMin= 4.21D-05
 ErrMax= 4.75D-05  0.00D+00 EMaxC= 1.00D-01 BMatC= 1.92D-06 BMatP= 3.40D-06
 IDIUse=1 WtCom= 1.00D+00 WtEn= 0.00D+00
 Coeff-Com:  0.703D-01 0.422D+00 0.508D+00
 Coeff:      0.703D-01 0.422D+00 0.508D+00
 Gap=     0.171 Goal=   None    Shift=    0.000
 RMSDP=4.06D-06 MaxDP=8.82D-04 DE=-1.26D-06 OVMax= 3.21D-04

 Cycle   4  Pass 1  IDiag  1:
 RMSU=  1.86D-06    CP:  1.00D+00  1.04D+00  5.64D-01
 E= -799.812935440354     Delta-E=       -0.000001478302 Rises=F Damp=F
 DIIS: error= 6.45D-06 at cycle   4 NSaved=   4.
 NSaved= 4 IEnMin= 4 EnMin= -799.812935440354     IErMin= 4 ErrMin= 6.45D-06
 ErrMax= 6.45D-06  0.00D+00 EMaxC= 1.00D-01 BMatC= 5.71D-08 BMatP= 1.92D-06
 IDIUse=1 WtCom= 1.00D+00 WtEn= 0.00D+00
 Coeff-Com:  0.488D-02 0.154D+00 0.236D+00 0.605D+00
 Coeff:      0.488D-02 0.154D+00 0.236D+00 0.605D+00
 Gap=     0.171 Goal=   None    Shift=    0.000
 RMSDP=1.48D-06 MaxDP=2.15D-04 DE=-1.48D-06 OVMax= 5.67D-05

 Cycle   5  Pass 1  IDiag  1:
 RMSU=  6.06D-07    CP:  1.00D+00  1.06D+00  6.04D-01  7.26D-01
 E= -799.812935478922     Delta-E=       -0.000000038568 Rises=F Damp=F
 DIIS: error= 1.87D-06 at cycle   5 NSaved=   5.
 NSaved= 5 IEnMin= 5 EnMin= -799.812935478922     IErMin= 5 ErrMin= 1.87D-06
 ErrMax= 1.87D-06  0.00D+00 EMaxC= 1.00D-01 BMatC= 1.07D-08 BMatP= 5.71D-08
 IDIUse=1 WtCom= 1.00D+00 WtEn= 0.00D+00
 Coeff-Com: -0.653D-02 0.336D-01 0.668D-01 0.338D+00 0.568D+00
 Coeff:     -0.653D-02 0.336D-01 0.668D-01 0.338D+00 0.568D+00
 Gap=     0.171 Goal=   None    Shift=    0.000
 RMSDP=7.27D-07 MaxDP=9.98D-05 DE=-3.86D-08 OVMax= 1.63D-05

 Cycle   6  Pass 1  IDiag  1:
 RMSU=  2.75D-07    CP:  1.00D+00  1.06D+00  6.02D-01  9.11D-01  4.42D-01
 E= -799.812935487148     Delta-E=       -0.000000008226 Rises=F Damp=F
 DIIS: error= 5.73D-07 at cycle   6 NSaved=   6.
 NSaved= 6 IEnMin= 6 EnMin= -799.812935487148     IErMin= 6 ErrMin= 5.73D-07
 ErrMax= 5.73D-07  0.00D+00 EMaxC= 1.00D-01 BMatC= 3.04D-10 BMatP= 1.07D-08
 IDIUse=1 WtCom= 1.00D+00 WtEn= 0.00D+00
 Coeff-Com: -0.255D-02 0.529D-02 0.122D-01 0.965D-01 0.218D+00 0.670D+00
 Coeff:     -0.255D-02 0.529D-02 0.122D-01 0.965D-01 0.218D+00 0.670D+00
 Gap=     0.171 Goal=   None    Shift=    0.000
 RMSDP=6.16D-08 MaxDP=5.19D-06 DE=-8.23D-09 OVMax= 1.10D-05

 Cycle   7  Pass 1  IDiag  1:
 RMSU=  4.81D-08    CP:  1.00D+00  1.06D+00  6.04D-01  9.19D-01  4.60D-01
                    CP:  1.01D+00
 E= -799.812935487385     Delta-E=       -0.000000000237 Rises=F Damp=F
 DIIS: error= 2.84D-07 at cycle   7 NSaved=   7.
 NSaved= 7 IEnMin= 7 EnMin= -799.812935487385     IErMin= 7 ErrMin= 2.84D-07
 ErrMax= 2.84D-07  0.00D+00 EMaxC= 1.00D-01 BMatC= 1.08D-10 BMatP= 3.04D-10
 IDIUse=1 WtCom= 1.00D+00 WtEn= 0.00D+00
 Coeff-Com: -0.794D-03-0.111D-02-0.140D-02 0.161D-01 0.609D-01 0.412D+00
 Coeff-Com:  0.514D+00
 Coeff:     -0.794D-03-0.111D-02-0.140D-02 0.161D-01 0.609D-01 0.412D+00
 Coeff:      0.514D+00
 Gap=     0.171 Goal=   None    Shift=    0.000
 RMSDP=3.99D-08 MaxDP=6.67D-06 DE=-2.37D-10 OVMax= 4.54D-06

 Cycle   8  Pass 1  IDiag  1:
 RMSU=  2.20D-08    CP:  1.00D+00  1.06D+00  6.01D-01  9.28D-01  4.60D-01
                    CP:  1.02D+00  7.07D-01
 E= -799.812935487492     Delta-E=       -0.000000000106 Rises=F Damp=F
 DIIS: error= 6.69D-08 at cycle   8 NSaved=   8.
 NSaved= 8 IEnMin= 8 EnMin= -799.812935487492     IErMin= 8 ErrMin= 6.69D-08
 ErrMax= 6.69D-08  0.00D+00 EMaxC= 1.00D-01 BMatC= 2.53D-12 BMatP= 1.08D-10
 IDIUse=1 WtCom= 1.00D+00 WtEn= 0.00D+00
 Coeff-Com: -0.289D-04-0.753D-03-0.171D-02-0.365D-02-0.131D-02 0.770D-01
 Coeff-Com:  0.163D+00 0.767D+00
 Coeff:     -0.289D-04-0.753D-03-0.171D-02-0.365D-02-0.131D-02 0.770D-01
 Coeff:      0.163D+00 0.767D+00
 Gap=     0.171 Goal=   None    Shift=    0.000
 RMSDP=2.02D-08 MaxDP=3.23D-06 DE=-1.06D-10 OVMax= 7.77D-07

 Cycle   9  Pass 1  IDiag  1:
 RMSU=  4.39D-09    CP:  1.00D+00  1.06D+00  6.02D-01  9.33D-01  4.50D-01
                    CP:  1.05D+00  8.12D-01  9.00D-01
 E= -799.812935487510     Delta-E=       -0.000000000018 Rises=F Damp=F
 DIIS: error= 2.09D-08 at cycle   9 NSaved=   9.
 NSaved= 9 IEnMin= 9 EnMin= -799.812935487510     IErMin= 9 ErrMin= 2.09D-08
 ErrMax= 2.09D-08  0.00D+00 EMaxC= 1.00D-01 BMatC= 7.61D-13 BMatP= 2.53D-12
 IDIUse=1 WtCom= 1.00D+00 WtEn= 0.00D+00
 Coeff-Com:  0.649D-04-0.332D-03-0.890D-03-0.374D-02-0.676D-02 0.620D-02
 Coeff-Com:  0.397D-01 0.415D+00 0.551D+00
 Coeff:      0.649D-04-0.332D-03-0.890D-03-0.374D-02-0.676D-02 0.620D-02
 Coeff:      0.397D-01 0.415D+00 0.551D+00
 Gap=     0.171 Goal=   None    Shift=    0.000
 RMSDP=4.76D-09 MaxDP=5.71D-07 DE=-1.80D-11 OVMax= 3.03D-07

 Error on total polarization charges =  0.01399
 SCF Done:  E(RPBE1PBE) =  -799.812935488     A.U. after    9 cycles
            NFock=  9  Conv=0.48D-08     -V/T= 2.0046
 KE= 7.961149341918D+02 PE=-4.469595315217D+03 EE= 1.570638424346D+03
 Leave Link  502 at Mon Oct 18 05:57:38 2021, MaxMem=  7864320000 cpu:            4933.8 elap:             155.3
 (Enter /apps/gaussian/g16-c01-avx/g16/l508.exe)
 QCSCF skips out because SCF is already converged.
 Leave Link  508 at Mon Oct 18 05:57:38 2021, MaxMem=  7864320000 cpu:               0.0 elap:               0.0
 (Enter /apps/gaussian/g16-c01-avx/g16/l601.exe)
 Copying SCF densities to generalized density rwf, IOpCl= 0 IROHF=0.

 **********************************************************************

            Population analysis using the SCF Density.

 **********************************************************************

 Orbital symmetries:
       Occupied  (A) (A) (A) (A) (A) (A) (A) (A) (A) (A) (A) (A)
                 (A) (A) (A) (A) (A) (A) (A) (A) (A) (A) (A) (A)
                 (A) (A) (A) (A) (A) (A) (A) (A) (A) (A) (A) (A)
                 (A) (A) (A) (A) (A) (A) (A) (A) (A) (A) (A) (A)
                 (A) (A) (A) (A) (A) (A) (A) (A) (A) (A) (A) (A)
                 (A) (A) (A) (A) (A) (A)
       Virtual   (A) (A) (A) (A) (A) (A) (A) (A) (A) (A) (A) (A)
                 (A) (A) (A) (A) (A) (A) (A) (A) (A) (A) (A) (A)
                 (A) (A) (A) (A) (A) (A) (A) (A) (A) (A) (A) (A)
                 (A) (A) (A) (A) (A) (A) (A) (A) (A) (A) (A) (A)
                 (A) (A) (A) (A) (A) (A) (A) (A) (A) (A) (A) (A)
                 (A) (A) (A) (A) (A) (A) (A) (A) (A) (A) (A) (A)
                 (A) (A) (A) (A) (A) (A) (A) (A) (A) (A) (A) (A)
                 (A) (A) (A) (A) (A) (A) (A) (A) (A) (A) (A) (A)
                 (A) (A) (A) (A) (A) (A) (A) (A) (A) (A) (A) (A)
                 (A) (A) (A) (A) (A) (A) (A) (A) (A) (A) (A) (A)
                 (A) (A) (A) (A) (A) (A) (A) (A) (A) (A) (A) (A)
                 (A) (A) (A) (A) (A) (A) (A) (A) (A) (A) (A) (A)
                 (A) (A) (A) (A) (A) (A) (A) (A) (A) (A) (A) (A)
                 (A) (A) (A) (A) (A) (A) (A) (A) (A) (A) (A) (A)
                 (A) (A) (A) (A) (A) (A) (A) (A) (A) (A) (A) (A)
                 (A) (A) (A) (A) (A) (A) (A) (A) (A) (A) (A) (A)
                 (A) (A) (A) (A) (A) (A) (A) (A) (A) (A) (A) (A)
                 (A) (A) (A) (A) (A) (A) (A) (A) (A) (A) (A) (A)
                 (A) (A) (A) (A) (A) (A) (A) (A) (A) (A) (A) (A)
                 (A) (A) (A) (A) (A) (A) (A) (A) (A) (A) (A) (A)
                 (A) (A) (A) (A) (A) (A) (A) (A) (A) (A) (A) (A)
                 (A) (A) (A) (A) (A) (A) (A) (A) (A) (A) (A) (A)
                 (A) (A) (A) (A) (A) (A) (A) (A) (A) (A) (A) (A)
                 (A) (A) (A) (A) (A) (A) (A) (A) (A) (A) (A) (A)
                 (A) (A) (A) (A) (A) (A) (A) (A) (A) (A) (A) (A)
                 (A) (A) (A) (A) (A) (A) (A) (A) (A) (A) (A) (A)
                 (A) (A) (A) (A) (A) (A) (A) (A) (A) (A) (A) (A)
                 (A) (A) (A) (A) (A) (A) (A) (A) (A) (A) (A) (A)
                 (A) (A) (A) (A) (A) (A) (A) (A) (A) (A) (A) (A)
                 (A) (A) (A) (A) (A) (A) (A) (A) (A) (A) (A) (A)
                 (A) (A) (A) (A) (A) (A) (A) (A) (A) (A) (A) (A)
                 (A) (A) (A) (A) (A) (A) (A) (A) (A) (A) (A) (A)
                 (A) (A) (A) (A) (A) (A) (A) (A) (A) (A) (A) (A)
                 (A) (A) (A) (A) (A) (A) (A) (A) (A) (A) (A) (A)
                 (A) (A) (A) (A) (A) (A) (A) (A) (A) (A) (A) (A)
                 (A) (A) (A) (A) (A) (A) (A) (A) (A) (A) (A) (A)
                 (A) (A) (A) (A) (A) (A) (A) (A) (A) (A) (A) (A)
                 (A) (A) (A) (A) (A) (A) (A) (A) (A) (A) (A) (A)
                 (A) (A) (A) (A) (A) (A) (A) (A) (A) (A) (A) (A)
                 (A) (A) (A) (A) (A) (A) (A) (A) (A) (A) (A) (A)
                 (A) (A) (A) (A) (A) (A) (A) (A) (A) (A) (A) (A)
                 (A) (A) (A) (A) (A) (A) (A) (A) (A) (A) (A) (A)
                 (A) (A) (A) (A) (A) (A) (A) (A) (A) (A) (A) (A)
                 (A) (A) (A) (A) (A) (A) (A) (A) (A) (A) (A) (A)
                 (A) (A) (A) (A) (A) (A) (A) (A) (A) (A) (A) (A)
                 (A) (A) (A) (A) (A) (A) (A) (A) (A) (A) (A) (A)
                 (A) (A) (A) (A) (A) (A) (A) (A) (A) (A) (A) (A)
                 (A) (A) (A) (A) (A) (A) (A) (A) (A) (A) (A) (A)
                 (A) (A) (A) (A) (A) (A) (A) (A) (A) (A) (A) (A)
                 (A) (A) (A) (A) (A) (A) (A) (A) (A) (A) (A) (A)
 The electronic state is 1-A.
 Alpha  occ. eigenvalues --  -19.20542 -14.37769 -14.37614 -14.36827 -14.36594
 Alpha  occ. eigenvalues --  -10.31028 -10.28145 -10.27910 -10.24455 -10.24270
 Alpha  occ. eigenvalues --  -10.24177 -10.24014 -10.23974 -10.23971 -10.23918
 Alpha  occ. eigenvalues --  -10.23825 -10.23288 -10.23280  -1.08297  -0.99432
 Alpha  occ. eigenvalues --   -0.99183  -0.90089  -0.87915  -0.87701  -0.81391
 Alpha  occ. eigenvalues --   -0.80818  -0.75513  -0.74289  -0.68149  -0.65841
 Alpha  occ. eigenvalues --   -0.64673  -0.62928  -0.62838  -0.60062  -0.58401
 Alpha  occ. eigenvalues --   -0.54824  -0.53771  -0.52479  -0.51569  -0.51108
 Alpha  occ. eigenvalues --   -0.49422  -0.47581  -0.45979  -0.45728  -0.44456
 Alpha  occ. eigenvalues --   -0.44106  -0.43829  -0.43035  -0.41720  -0.41412
 Alpha  occ. eigenvalues --   -0.40437  -0.39954  -0.39710  -0.39046  -0.37568
 Alpha  occ. eigenvalues --   -0.36981  -0.36396  -0.36260  -0.35139  -0.28034
 Alpha  occ. eigenvalues --   -0.27820  -0.27706  -0.26268  -0.26030  -0.23990
 Alpha  occ. eigenvalues --   -0.23693
 Alpha virt. eigenvalues --   -0.06576  -0.02032   0.03521   0.04094   0.04706
 Alpha virt. eigenvalues --    0.05889   0.06404   0.07827   0.08019   0.08479
 Alpha virt. eigenvalues --    0.09070   0.09429   0.10277   0.11160   0.11481
 Alpha virt. eigenvalues --    0.11938   0.12255   0.12724   0.13020   0.13862
 Alpha virt. eigenvalues --    0.14184   0.15653   0.16253   0.16612   0.17111
 Alpha virt. eigenvalues --    0.17397   0.18218   0.18593   0.19555   0.19959
 Alpha virt. eigenvalues --    0.20042   0.20421   0.21668   0.22171   0.22439
 Alpha virt. eigenvalues --    0.22901   0.23471   0.24284   0.24574   0.25484
 Alpha virt. eigenvalues --    0.26226   0.26633   0.26928   0.27339   0.27904
 Alpha virt. eigenvalues --    0.29031   0.29389   0.29671   0.31180   0.31538
 Alpha virt. eigenvalues --    0.32436   0.32706   0.32996   0.33859   0.34128
 Alpha virt. eigenvalues --    0.35145   0.35474   0.35946   0.36516   0.36887
 Alpha virt. eigenvalues --    0.37231   0.37299   0.38458   0.39268   0.40324
 Alpha virt. eigenvalues --    0.40466   0.40780   0.41554   0.41939   0.42190
 Alpha virt. eigenvalues --    0.42295   0.42584   0.43307   0.43886   0.44388
 Alpha virt. eigenvalues --    0.44563   0.44709   0.45406   0.46180   0.46344
 Alpha virt. eigenvalues --    0.46556   0.47175   0.47316   0.47724   0.48250
 Alpha virt. eigenvalues --    0.49227   0.49587   0.49723   0.50114   0.50882
 Alpha virt. eigenvalues --    0.51697   0.52708   0.53286   0.53411   0.53707
 Alpha virt. eigenvalues --    0.54929   0.55278   0.55498   0.56038   0.56348
 Alpha virt. eigenvalues --    0.56915   0.58279   0.58378   0.59481   0.60169
 Alpha virt. eigenvalues --    0.60788   0.61779   0.62549   0.63607   0.64165
 Alpha virt. eigenvalues --    0.65458   0.66021   0.66492   0.67705   0.68409
 Alpha virt. eigenvalues --    0.68464   0.68866   0.70178   0.70648   0.71770
 Alpha virt. eigenvalues --    0.73063   0.73401   0.74088   0.74871   0.75666
 Alpha virt. eigenvalues --    0.76193   0.76878   0.78600   0.79036   0.79968
 Alpha virt. eigenvalues --    0.80997   0.81839   0.82075   0.83621   0.83783
 Alpha virt. eigenvalues --    0.84305   0.85667   0.86199   0.87020   0.87862
 Alpha virt. eigenvalues --    0.88217   0.89380   0.91079   0.91351   0.91942
 Alpha virt. eigenvalues --    0.92447   0.93354   0.94198   0.96161   0.98115
 Alpha virt. eigenvalues --    0.99747   1.00088   1.01084   1.01816   1.02483
 Alpha virt. eigenvalues --    1.03137   1.04050   1.05455   1.05866   1.07418
 Alpha virt. eigenvalues --    1.07843   1.08290   1.09556   1.10245   1.12193
 Alpha virt. eigenvalues --    1.13012   1.13589   1.15346   1.16091   1.17204
 Alpha virt. eigenvalues --    1.18588   1.19146   1.19547   1.19825   1.21065
 Alpha virt. eigenvalues --    1.21515   1.23010   1.23311   1.24003   1.26582
 Alpha virt. eigenvalues --    1.28510   1.28928   1.29623   1.30592   1.32342
 Alpha virt. eigenvalues --    1.33060   1.33633   1.34247   1.35306   1.36814
 Alpha virt. eigenvalues --    1.37462   1.38986   1.39900   1.40062   1.41779
 Alpha virt. eigenvalues --    1.43252   1.43763   1.44077   1.44692   1.45545
 Alpha virt. eigenvalues --    1.47118   1.47913   1.48898   1.49320   1.49655
 Alpha virt. eigenvalues --    1.50124   1.51116   1.51991   1.53408   1.54475
 Alpha virt. eigenvalues --    1.55972   1.56328   1.56937   1.58394   1.59266
 Alpha virt. eigenvalues --    1.59949   1.60433   1.60855   1.61715   1.62856
 Alpha virt. eigenvalues --    1.63229   1.64280   1.64853   1.66710   1.67083
 Alpha virt. eigenvalues --    1.68118   1.69100   1.69717   1.70216   1.71488
 Alpha virt. eigenvalues --    1.71803   1.73353   1.73904   1.74400   1.75185
 Alpha virt. eigenvalues --    1.75969   1.76749   1.77405   1.77754   1.78698
 Alpha virt. eigenvalues --    1.79219   1.81045   1.81471   1.81752   1.83369
 Alpha virt. eigenvalues --    1.84642   1.85940   1.88503   1.89624   1.92692
 Alpha virt. eigenvalues --    1.93321   1.93619   1.94357   1.95475   1.96237
 Alpha virt. eigenvalues --    1.97068   1.98362   1.99152   1.99742   2.00219
 Alpha virt. eigenvalues --    2.00602   2.01577   2.02597   2.03598   2.04166
 Alpha virt. eigenvalues --    2.05016   2.05593   2.06923   2.06967   2.07826
 Alpha virt. eigenvalues --    2.09129   2.11004   2.11322   2.13267   2.13827
 Alpha virt. eigenvalues --    2.14458   2.15756   2.16686   2.17476   2.17927
 Alpha virt. eigenvalues --    2.18826   2.19589   2.20625   2.21761   2.22850
 Alpha virt. eigenvalues --    2.23588   2.26331   2.28336   2.28481   2.29679
 Alpha virt. eigenvalues --    2.30884   2.32895   2.33886   2.35709   2.37104
 Alpha virt. eigenvalues --    2.39444   2.40632   2.41184   2.42045   2.43137
 Alpha virt. eigenvalues --    2.45287   2.46332   2.48484   2.49059   2.49701
 Alpha virt. eigenvalues --    2.50756   2.51950   2.52334   2.53348   2.53779
 Alpha virt. eigenvalues --    2.54600   2.55736   2.56162   2.57310   2.57917
 Alpha virt. eigenvalues --    2.59639   2.60311   2.62265   2.62417   2.63193
 Alpha virt. eigenvalues --    2.63298   2.64309   2.64522   2.65528   2.66195
 Alpha virt. eigenvalues --    2.66861   2.67283   2.68412   2.69098   2.70373
 Alpha virt. eigenvalues --    2.70684   2.72444   2.73432   2.74509   2.75909
 Alpha virt. eigenvalues --    2.76325   2.76994   2.77676   2.78236   2.78651
 Alpha virt. eigenvalues --    2.80002   2.81223   2.81284   2.82421   2.82890
 Alpha virt. eigenvalues --    2.83437   2.84450   2.85390   2.86082   2.86196
 Alpha virt. eigenvalues --    2.87524   2.87850   2.88423   2.89088   2.90201
 Alpha virt. eigenvalues --    2.91706   2.92389   2.93165   2.93887   2.94593
 Alpha virt. eigenvalues --    2.95294   2.95996   2.96851   2.98568   2.99707
 Alpha virt. eigenvalues --    3.00968   3.01823   3.01938   3.03093   3.04195
 Alpha virt. eigenvalues --    3.06828   3.07849   3.07999   3.09007   3.09968
 Alpha virt. eigenvalues --    3.11767   3.12334   3.13839   3.14988   3.15854
 Alpha virt. eigenvalues --    3.16360   3.16846   3.18089   3.18407   3.18941
 Alpha virt. eigenvalues --    3.19739   3.20509   3.20686   3.21938   3.22183
 Alpha virt. eigenvalues --    3.23291   3.24620   3.25465   3.26349   3.26682
 Alpha virt. eigenvalues --    3.27244   3.28355   3.29480   3.29575   3.31022
 Alpha virt. eigenvalues --    3.31365   3.32017   3.32673   3.33558   3.34056
 Alpha virt. eigenvalues --    3.35047   3.35587   3.36699   3.37914   3.38908
 Alpha virt. eigenvalues --    3.39094   3.40201   3.40375   3.41316   3.42765
 Alpha virt. eigenvalues --    3.43982   3.44994   3.45687   3.45864   3.46478
 Alpha virt. eigenvalues --    3.47737   3.47940   3.48869   3.50118   3.50386
 Alpha virt. eigenvalues --    3.52073   3.53610   3.54706   3.55487   3.56969
 Alpha virt. eigenvalues --    3.58489   3.59065   3.59814   3.60820   3.61947
 Alpha virt. eigenvalues --    3.63545   3.64514   3.66712   3.67445   3.68385
 Alpha virt. eigenvalues --    3.69689   3.70855   3.71923   3.73507   3.74874
 Alpha virt. eigenvalues --    3.75842   3.76032   3.77797   3.78628   3.80486
 Alpha virt. eigenvalues --    3.80633   3.81568   3.83213   3.84030   3.84379
 Alpha virt. eigenvalues --    3.86508   3.87983   3.89627   3.91486   3.92971
 Alpha virt. eigenvalues --    3.94052   3.94293   3.96297   3.97207   3.98994
 Alpha virt. eigenvalues --    4.01287   4.01772   4.06807   4.07617   4.08417
 Alpha virt. eigenvalues --    4.08834   4.09975   4.10117   4.11212   4.13357
 Alpha virt. eigenvalues --    4.14587   4.14840   4.15733   4.17762   4.20687
 Alpha virt. eigenvalues --    4.21649   4.22520   4.24636   4.25331   4.28013
 Alpha virt. eigenvalues --    4.28691   4.29542   4.30775   4.32103   4.33449
 Alpha virt. eigenvalues --    4.34491   4.37425   4.37486   4.39369   4.41805
 Alpha virt. eigenvalues --    4.42590   4.45600   4.47348   4.48358   4.48884
 Alpha virt. eigenvalues --    4.53283   4.56297   4.57652   4.59888   4.60963
 Alpha virt. eigenvalues --    4.65121   4.66192   4.68473   4.71245   4.72168
 Alpha virt. eigenvalues --    4.73559   4.74923   4.77045   4.78336   4.80753
 Alpha virt. eigenvalues --    4.81578   4.83637   4.86024   4.88915   4.90592
 Alpha virt. eigenvalues --    4.92427   4.94639   4.95311   4.96364   4.97698
 Alpha virt. eigenvalues --    5.00735   5.03254   5.04528   5.07429   5.08193
 Alpha virt. eigenvalues --    5.09558   5.10464   5.13399   5.13861   5.18678
 Alpha virt. eigenvalues --    5.19075   5.19416   5.19876   5.22091   5.22626
 Alpha virt. eigenvalues --    5.24169   5.25253   5.25855   5.26883   5.27482
 Alpha virt. eigenvalues --    5.29985   5.31673   5.33302   5.34946   5.35813
 Alpha virt. eigenvalues --    5.37454   5.42152   5.44543   5.45112   5.46755
 Alpha virt. eigenvalues --    5.49017   5.50191   5.56090   5.57262   5.58403
 Alpha virt. eigenvalues --    5.60735   5.61561   5.67933   5.69748   5.71120
 Alpha virt. eigenvalues --    5.71995   5.74508   5.74783   5.76259   5.81980
 Alpha virt. eigenvalues --    5.88096   5.88206   6.04413   6.05958   6.11944
 Alpha virt. eigenvalues --    6.36314   6.41930   6.51109   6.55610   6.81041
 Alpha virt. eigenvalues --    7.02197   7.09559  22.30082  22.49482  22.51149
 Alpha virt. eigenvalues --   22.57786  22.58627  22.79437  22.82580  22.92799
 Alpha virt. eigenvalues --   22.98824  23.12079  23.13549  23.16910  23.48063
 Alpha virt. eigenvalues --   32.42550  32.43791  32.49965  32.52866  43.96590
          Condensed to atoms (all electrons):
               1          2          3          4          5          6
     1  C    6.738697   0.005760  -0.238225   0.582937  -0.123936  -0.470358
     2  C    0.005760   4.783172  -0.041529  -0.009451  -0.001194   0.021002
     3  C   -0.238225  -0.041529   6.111345  -0.274287   0.492939   0.262402
     4  C    0.582937  -0.009451  -0.274287   6.489255  -0.108154  -0.716616
     5  H   -0.123936  -0.001194   0.492939  -0.108154   0.541846   0.034607
     6  C   -0.470358   0.021002   0.262402  -0.716616   0.034607   6.787651
     7  C    0.628886   0.001558  -0.406883   0.681463  -0.014648  -0.472226
     8  H   -0.018581   0.000142   0.033454  -0.178158   0.000567   0.551473
     9  C   -0.682226  -0.001636   0.381315  -0.515467   0.033131   0.366128
    10  C   -0.011022  -0.005246   0.008506   0.018003   0.000124  -0.127575
    11  H   -0.169525  -0.001666   0.030855  -0.018351   0.000463   0.034135
    12  C   -0.000746  -0.004102  -0.085736   0.147338  -0.004253  -0.003550
    13  O   -0.209526   0.691715   0.007443  -0.003144  -0.000139   0.001949
    14  C   -0.001145  -0.000018   0.004823  -0.024418   0.000702   0.004418
    15  C   -0.000039   0.000001   0.001654   0.025192   0.000025  -0.006287
    16  N   -0.003461   0.000005   0.039611  -0.057662   0.006730  -0.016262
    17  H   -0.000009  -0.000000   0.000084  -0.000060   0.000019  -0.000060
    18  N   -0.007913  -0.000040   0.043382  -0.168019   0.001424   0.018581
    19  H   -0.000019  -0.000000  -0.000051  -0.005178   0.000012   0.001333
    20  C    0.001293  -0.000008  -0.000208   0.000110  -0.000000   0.002178
    21  C   -0.001827  -0.000035   0.000374  -0.000935   0.000002   0.001692
    22  N   -0.019662  -0.000685   0.003724  -0.007172   0.000019   0.028607
    23  H    0.000707   0.000061  -0.000122   0.000171  -0.000001  -0.000639
    24  N    0.003096   0.000103  -0.001156  -0.000591  -0.000005   0.027711
    25  H    0.000037   0.000001  -0.000017   0.000145  -0.000000  -0.000959
    26  H    0.000183   0.000024  -0.000216   0.000558  -0.000001  -0.000795
    27  H   -0.006015  -0.000065   0.002052   0.000579   0.000003  -0.030796
    28  H   -0.002089  -0.000049   0.000116   0.000859  -0.000003  -0.005743
    29  H    0.001128   0.000031  -0.011302  -0.020361  -0.000014   0.026416
    30  H    0.000717   0.000006  -0.002804   0.021938  -0.000220  -0.004649
    31  H   -0.001743   0.000097  -0.025511  -0.112400   0.005959   0.061497
    32  H   -0.244911   0.499180   0.003476  -0.005751   0.009397   0.002940
    33  H    0.000168   0.000000  -0.000913   0.006011  -0.000047   0.000057
    34  H   -0.000054  -0.000004   0.000010  -0.000014   0.000000  -0.000164
    35  H    0.000210   0.000002  -0.001674   0.004308  -0.000352   0.000157
    36  H    0.000088   0.000000  -0.000008   0.000004  -0.000000   0.000053
               7          8          9         10         11         12
     1  C    0.628886  -0.018581  -0.682226  -0.011022  -0.169525  -0.000746
     2  C    0.001558   0.000142  -0.001636  -0.005246  -0.001666  -0.004102
     3  C   -0.406883   0.033454   0.381315   0.008506   0.030855  -0.085736
     4  C    0.681463  -0.178158  -0.515467   0.018003  -0.018351   0.147338
     5  H   -0.014648   0.000567   0.033131   0.000124   0.000463  -0.004253
     6  C   -0.472226   0.551473   0.366128  -0.127575   0.034135  -0.003550
     7  C    6.522503  -0.156861  -0.722937   0.088745  -0.157049  -0.005416
     8  H   -0.156861   0.541468   0.041326  -0.009095   0.000741  -0.001535
     9  C   -0.722937   0.041326   6.650270   0.044103   0.549261   0.005612
    10  C    0.088745  -0.009095   0.044103   5.051988   0.007846  -0.003248
    11  H   -0.157049   0.000741   0.549261   0.007846   0.524188   0.000072
    12  C   -0.005416  -0.001535   0.005612  -0.003248   0.000072   5.034965
    13  O   -0.002372   0.000004   0.038579  -0.000607   0.028674  -0.000033
    14  C   -0.001445   0.003053   0.000404  -0.000049   0.000002  -0.038015
    15  C    0.000340  -0.002646  -0.000036   0.000005   0.000000  -0.074408
    16  N    0.003197  -0.001270  -0.000888   0.000089  -0.000004   0.377399
    17  H    0.000052   0.000000  -0.000002   0.000001  -0.000000   0.004287
    18  N   -0.024703   0.067433   0.005088  -0.001378   0.000021   0.313777
    19  H   -0.000087   0.001018   0.000013  -0.000003   0.000000   0.004260
    20  C    0.043416  -0.000146  -0.014246  -0.088079  -0.004173  -0.000000
    21  C   -0.032912   0.000533   0.007860  -0.021786   0.003212  -0.000020
    22  N   -0.153808   0.000369   0.025644   0.343249   0.035173  -0.000062
    23  H    0.005839  -0.000035   0.000247   0.018160  -0.004728   0.000001
    24  N   -0.046606   0.000077  -0.013190   0.408908  -0.001361   0.000005
    25  H    0.002068  -0.000116   0.000633   0.014181  -0.000131   0.000001
    26  H    0.019247  -0.000227  -0.005533  -0.023414  -0.001718   0.000002
    27  H   -0.120514   0.008602   0.060887   0.418715   0.003054  -0.000074
    28  H   -0.035787   0.000181   0.027601  -0.016711   0.001921   0.000021
    29  H   -0.003785   0.001744   0.000124   0.000016  -0.000001  -0.018580
    30  H    0.000534  -0.004688  -0.000363   0.000058  -0.000001  -0.027629
    31  H   -0.008578   0.004871   0.002385  -0.000052   0.000012   0.428089
    32  H   -0.004685   0.000008   0.046886  -0.000091   0.003320  -0.000803
    33  H    0.000440  -0.004704  -0.000112   0.000046  -0.000000   0.017085
    34  H   -0.005112   0.000014   0.001715   0.005977   0.000692   0.000000
    35  H    0.000032  -0.000174  -0.000030   0.000001  -0.000000   0.012408
    36  H    0.001215  -0.000001  -0.000253   0.001200  -0.000099   0.000000
              13         14         15         16         17         18
     1  C   -0.209526  -0.001145  -0.000039  -0.003461  -0.000009  -0.007913
     2  C    0.691715  -0.000018   0.000001   0.000005  -0.000000  -0.000040
     3  C    0.007443   0.004823   0.001654   0.039611   0.000084   0.043382
     4  C   -0.003144  -0.024418   0.025192  -0.057662  -0.000060  -0.168019
     5  H   -0.000139   0.000702   0.000025   0.006730   0.000019   0.001424
     6  C    0.001949   0.004418  -0.006287  -0.016262  -0.000060   0.018581
     7  C   -0.002372  -0.001445   0.000340   0.003197   0.000052  -0.024703
     8  H    0.000004   0.003053  -0.002646  -0.001270   0.000000   0.067433
     9  C    0.038579   0.000404  -0.000036  -0.000888  -0.000002   0.005088
    10  C   -0.000607  -0.000049   0.000005   0.000089   0.000001  -0.001378
    11  H    0.028674   0.000002   0.000000  -0.000004  -0.000000   0.000021
    12  C   -0.000033  -0.038015  -0.074408   0.377399   0.004287   0.313777
    13  O    7.833543  -0.000000   0.000000   0.000000  -0.000000  -0.000000
    14  C   -0.000000   4.861834   0.383143   0.340958   0.404815  -0.096915
    15  C    0.000000   0.383143   4.856925  -0.097336  -0.025120   0.382599
    16  N    0.000000   0.340958  -0.097336   6.569171  -0.021269  -0.090944
    17  H   -0.000000   0.404815  -0.025120  -0.021269   0.538579   0.005996
    18  N   -0.000000  -0.096915   0.382599  -0.090944   0.005996   6.715620
    19  H   -0.000000   0.006591   0.371527   0.007587   0.003145  -0.034812
    20  C   -0.000039  -0.000000  -0.000000   0.000000   0.000000   0.000000
    21  C    0.000004  -0.000000   0.000000   0.000000  -0.000000  -0.000001
    22  N   -0.000016  -0.000000  -0.000000   0.000000  -0.000000  -0.000005
    23  H    0.000008  -0.000000   0.000000   0.000000   0.000000   0.000000
    24  N    0.000006   0.000000  -0.000001  -0.000000  -0.000000   0.000016
    25  H    0.000000   0.000000   0.000000   0.000000   0.000000   0.000000
    26  H    0.000001  -0.000000   0.000000   0.000000   0.000000   0.000000
    27  H    0.000000  -0.000005   0.000005   0.000003   0.000000  -0.000240
    28  H    0.000000   0.000000   0.000000  -0.000000  -0.000000   0.000002
    29  H    0.000000  -0.038006  -0.005485   0.343281  -0.010009  -0.007195
    30  H    0.000000  -0.002271  -0.023227   0.008520  -0.000344   0.340028
    31  H   -0.000000   0.020864  -0.016929  -0.068795  -0.000407  -0.078649
    32  H   -0.060016  -0.000002   0.000000  -0.000026  -0.000000  -0.000002
    33  H    0.000000  -0.065432   0.415490   0.006099  -0.009190  -0.073114
    34  H   -0.000000   0.000000   0.000000   0.000000  -0.000000  -0.000000
    35  H    0.000000   0.371785  -0.052768  -0.039176  -0.028376  -0.002341
    36  H   -0.000000  -0.000000  -0.000000  -0.000000  -0.000000  -0.000000
              19         20         21         22         23         24
     1  C   -0.000019   0.001293  -0.001827  -0.019662   0.000707   0.003096
     2  C   -0.000000  -0.000008  -0.000035  -0.000685   0.000061   0.000103
     3  C   -0.000051  -0.000208   0.000374   0.003724  -0.000122  -0.001156
     4  C   -0.005178   0.000110  -0.000935  -0.007172   0.000171  -0.000591
     5  H    0.000012  -0.000000   0.000002   0.000019  -0.000001  -0.000005
     6  C    0.001333   0.002178   0.001692   0.028607  -0.000639   0.027711
     7  C   -0.000087   0.043416  -0.032912  -0.153808   0.005839  -0.046606
     8  H    0.001018  -0.000146   0.000533   0.000369  -0.000035   0.000077
     9  C    0.000013  -0.014246   0.007860   0.025644   0.000247  -0.013190
    10  C   -0.000003  -0.088079  -0.021786   0.343249   0.018160   0.408908
    11  H    0.000000  -0.004173   0.003212   0.035173  -0.004728  -0.001361
    12  C    0.004260  -0.000000  -0.000020  -0.000062   0.000001   0.000005
    13  O   -0.000000  -0.000039   0.000004  -0.000016   0.000008   0.000006
    14  C    0.006591  -0.000000  -0.000000  -0.000000  -0.000000   0.000000
    15  C    0.371527  -0.000000   0.000000  -0.000000   0.000000  -0.000001
    16  N    0.007587   0.000000   0.000000   0.000000   0.000000  -0.000000
    17  H    0.003145   0.000000  -0.000000  -0.000000   0.000000  -0.000000
    18  N   -0.034812   0.000000  -0.000001  -0.000005   0.000000   0.000016
    19  H    0.604631   0.000000   0.000000  -0.000000  -0.000000  -0.000000
    20  C    0.000000   4.894863   0.355797   0.389118   0.415102  -0.105845
    21  C    0.000000   0.355797   4.902973  -0.113170  -0.073694   0.332669
    22  N   -0.000000   0.389118  -0.113170   6.714011  -0.072984  -0.095015
    23  H   -0.000000   0.415102  -0.073694  -0.072984   0.651872   0.005536
    24  N   -0.000000  -0.105845   0.332669  -0.095015   0.005536   6.534044
    25  H   -0.000000  -0.053447   0.369725  -0.001113   0.011927  -0.040270
    26  H    0.000000  -0.024083  -0.004326   0.337649   0.008591   0.007664
    27  H   -0.000001  -0.020683   0.026820  -0.074413  -0.001646  -0.057137
    28  H   -0.000000  -0.005822  -0.034846  -0.005756   0.001928   0.354215
    29  H    0.000359   0.000000   0.000000   0.000001  -0.000000   0.000000
    30  H   -0.015643   0.000000   0.000000   0.000000  -0.000000   0.000003
    31  H    0.004739   0.000000   0.000000   0.000000  -0.000000   0.000001
    32  H   -0.000000  -0.000001   0.000000   0.000002   0.000000   0.000001
    33  H   -0.050633   0.000000   0.000000   0.000000   0.000000  -0.000000
    34  H    0.000000   0.370697   0.007743  -0.032355  -0.046793   0.008106
    35  H   -0.011170   0.000000   0.000000   0.000000  -0.000000  -0.000000
    36  H   -0.000000  -0.021452   0.399540   0.006821  -0.007560  -0.019266
              25         26         27         28         29         30
     1  C    0.000037   0.000183  -0.006015  -0.002089   0.001128   0.000717
     2  C    0.000001   0.000024  -0.000065  -0.000049   0.000031   0.000006
     3  C   -0.000017  -0.000216   0.002052   0.000116  -0.011302  -0.002804
     4  C    0.000145   0.000558   0.000579   0.000859  -0.020361   0.021938
     5  H   -0.000000  -0.000001   0.000003  -0.000003  -0.000014  -0.000220
     6  C   -0.000959  -0.000795  -0.030796  -0.005743   0.026416  -0.004649
     7  C    0.002068   0.019247  -0.120514  -0.035787  -0.003785   0.000534
     8  H   -0.000116  -0.000227   0.008602   0.000181   0.001744  -0.004688
     9  C    0.000633  -0.005533   0.060887   0.027601   0.000124  -0.000363
    10  C    0.014181  -0.023414   0.418715  -0.016711   0.000016   0.000058
    11  H   -0.000131  -0.001718   0.003054   0.001921  -0.000001  -0.000001
    12  C    0.000001   0.000002  -0.000074   0.000021  -0.018580  -0.027629
    13  O    0.000000   0.000001   0.000000   0.000000   0.000000   0.000000
    14  C    0.000000  -0.000000  -0.000005   0.000000  -0.038006  -0.002271
    15  C    0.000000   0.000000   0.000005   0.000000  -0.005485  -0.023227
    16  N    0.000000   0.000000   0.000003  -0.000000   0.343281   0.008520
    17  H    0.000000   0.000000   0.000000  -0.000000  -0.010009  -0.000344
    18  N    0.000000   0.000000  -0.000240   0.000002  -0.007195   0.340028
    19  H   -0.000000   0.000000  -0.000001  -0.000000   0.000359  -0.015643
    20  C   -0.053447  -0.024083  -0.020683  -0.005822   0.000000   0.000000
    21  C    0.369725  -0.004326   0.026820  -0.034846   0.000000   0.000000
    22  N   -0.001113   0.337649  -0.074413  -0.005756   0.000001   0.000000
    23  H    0.011927   0.008591  -0.001646   0.001928  -0.000000  -0.000000
    24  N   -0.040270   0.007664  -0.057137   0.354215   0.000000   0.000003
    25  H    0.630763   0.001754   0.003273   0.008878  -0.000000  -0.000000
    26  H    0.001754   0.497696  -0.012293  -0.000522   0.000000  -0.000000
    27  H    0.003273  -0.012293   0.690183   0.010385  -0.000007  -0.000001
    28  H    0.008878  -0.000522   0.010385   0.497482  -0.000000  -0.000000
    29  H   -0.000000   0.000000  -0.000007  -0.000000   0.507437  -0.000515
    30  H   -0.000000  -0.000000  -0.000001  -0.000000  -0.000515   0.493343
    31  H   -0.000000   0.000000  -0.000008  -0.000001   0.012059  -0.011207
    32  H    0.000000   0.000000   0.000000   0.000000   0.000004   0.000000
    33  H   -0.000000  -0.000000   0.000015  -0.000000   0.001548   0.008005
    34  H   -0.009612  -0.015184   0.003563   0.000154   0.000000  -0.000000
    35  H   -0.000000   0.000000   0.000000  -0.000000   0.009262   0.001363
    36  H   -0.028175  -0.000322  -0.000654  -0.010110   0.000000   0.000000
              31         32         33         34         35         36
     1  C   -0.001743  -0.244911   0.000168  -0.000054   0.000210   0.000088
     2  C    0.000097   0.499180   0.000000  -0.000004   0.000002   0.000000
     3  C   -0.025511   0.003476  -0.000913   0.000010  -0.001674  -0.000008
     4  C   -0.112400  -0.005751   0.006011  -0.000014   0.004308   0.000004
     5  H    0.005959   0.009397  -0.000047   0.000000  -0.000352  -0.000000
     6  C    0.061497   0.002940   0.000057  -0.000164   0.000157   0.000053
     7  C   -0.008578  -0.004685   0.000440  -0.005112   0.000032   0.001215
     8  H    0.004871   0.000008  -0.004704   0.000014  -0.000174  -0.000001
     9  C    0.002385   0.046886  -0.000112   0.001715  -0.000030  -0.000253
    10  C   -0.000052  -0.000091   0.000046   0.005977   0.000001   0.001200
    11  H    0.000012   0.003320  -0.000000   0.000692  -0.000000  -0.000099
    12  C    0.428089  -0.000803   0.017085   0.000000   0.012408   0.000000
    13  O   -0.000000  -0.060016   0.000000  -0.000000   0.000000  -0.000000
    14  C    0.020864  -0.000002  -0.065432   0.000000   0.371785  -0.000000
    15  C   -0.016929   0.000000   0.415490   0.000000  -0.052768  -0.000000
    16  N   -0.068795  -0.000026   0.006099   0.000000  -0.039176  -0.000000
    17  H   -0.000407  -0.000000  -0.009190  -0.000000  -0.028376  -0.000000
    18  N   -0.078649  -0.000002  -0.073114  -0.000000  -0.002341  -0.000000
    19  H    0.004739  -0.000000  -0.050633   0.000000  -0.011170  -0.000000
    20  C    0.000000  -0.000001   0.000000   0.370697   0.000000  -0.021452
    21  C    0.000000   0.000000   0.000000   0.007743   0.000000   0.399540
    22  N    0.000000   0.000002   0.000000  -0.032355   0.000000   0.006821
    23  H   -0.000000   0.000000   0.000000  -0.046793  -0.000000  -0.007560
    24  N    0.000001   0.000001  -0.000000   0.008106  -0.000000  -0.019266
    25  H   -0.000000   0.000000  -0.000000  -0.009612  -0.000000  -0.028175
    26  H    0.000000   0.000000  -0.000000  -0.015184   0.000000  -0.000322
    27  H   -0.000008   0.000000   0.000015   0.003563   0.000000  -0.000654
    28  H   -0.000001   0.000000  -0.000000   0.000154  -0.000000  -0.010110
    29  H    0.012059   0.000004   0.001548   0.000000   0.009262   0.000000
    30  H   -0.011207   0.000000   0.008005  -0.000000   0.001363   0.000000
    31  H    0.686193   0.000062  -0.001603  -0.000000   0.003441  -0.000000
    32  H    0.000062   0.662503   0.000000  -0.000000   0.000001  -0.000000
    33  H   -0.001603   0.000000   0.650712   0.000000   0.011516   0.000000
    34  H   -0.000000  -0.000000   0.000000   0.590904   0.000000   0.002107
    35  H    0.003441   0.000001   0.011516   0.000000   0.627168   0.000000
    36  H   -0.000000  -0.000000   0.000000   0.002107   0.000000   0.540717
 Mulliken charges:
               1
     1  C    0.249127
     2  C    0.062868
     3  C   -0.336922
     4  C    0.247318
     5  H    0.124999
     6  C   -0.378307
     7  C    0.376882
     8  H    0.121159
     9  C   -0.332293
    10  C   -0.121564
    11  H    0.135168
    12  C   -0.077112
    13  O   -0.326032
    14  C   -0.135671
    15  C   -0.132625
    16  N   -0.305556
    17  H    0.137870
    18  N   -0.307696
    19  H    0.112383
    20  C   -0.134340
    21  C   -0.125394
    22  N   -0.308170
    23  H    0.088052
    24  N   -0.301717
    25  H    0.090456
    26  H    0.215264
    27  H    0.096412
    28  H    0.213698
    29  H    0.211848
    30  H    0.219047
    31  H    0.095614
    32  H    0.088506
    33  H    0.088555
    34  H    0.117610
    35  H    0.094407
    36  H    0.136155
 Sum of Mulliken charges =   0.00000
 Mulliken charges with hydrogens summed into heavy atoms:
               1
     1  C    0.249127
     2  C    0.151374
     3  C   -0.211923
     4  C    0.247318
     6  C   -0.257148
     7  C    0.376882
     9  C   -0.197125
    10  C   -0.025152
    12  C    0.018502
    13  O   -0.326032
    14  C    0.096606
    15  C    0.068313
    16  N   -0.093708
    18  N   -0.088649
    20  C    0.071322
    21  C    0.101218
    22  N   -0.092906
    24  N   -0.088018
 Electronic spatial extent (au):  <R**2>=           5826.0216
 Charge=              0.0000 electrons
 Dipole moment (field-independent basis, Debye):
    X=             -2.9537    Y=             -4.4641    Z=              0.0109  Tot=              5.3529
 Quadrupole moment (field-independent basis, Debye-Ang):
   XX=            -92.4361   YY=           -118.0862   ZZ=           -102.4200
   XY=            -10.3089   XZ=              3.7718   YZ=             -6.9673
 Traceless Quadrupole moment (field-independent basis, Debye-Ang):
   XX=             11.8780   YY=            -13.7721   ZZ=              1.8941
   XY=            -10.3089   XZ=              3.7718   YZ=             -6.9673
 Octapole moment (field-independent basis, Debye-Ang**2):
  XXX=            -10.2425  YYY=            -50.1364  ZZZ=              7.5089  XYY=            -42.1797
  XXY=            -74.4156  XXZ=            -14.4790  XZZ=             -6.2604  YZZ=             -7.6963
  YYZ=              5.5630  XYZ=             -7.9033
 Hexadecapole moment (field-independent basis, Debye-Ang**3):
 XXXX=          -4858.5358 YYYY=          -2330.6904 ZZZZ=           -336.2672 XXXY=             -5.5445
 XXXZ=             18.4912 YYYX=           -207.2275 YYYZ=            -31.7886 ZZZX=             18.8670
 ZZZY=            -14.1541 XXYY=          -1297.9150 XXZZ=           -862.4731 YYZZ=           -409.3082
 XXYZ=            -40.4306 YYXZ=             42.7151 ZZXY=             18.1441
 N-N= 1.303029021192D+03 E-N=-4.469595301518D+03  KE= 7.961149341918D+02
 No NMR shielding tensors so no spin-rotation constants.
 Leave Link  601 at Mon Oct 18 05:57:38 2021, MaxMem=  7864320000 cpu:              10.1 elap:               0.4
 (Enter /apps/gaussian/g16-c01-avx/g16/l9999.exe)
 Unable to Open any file for archive entry.
 1\1\GINC-CX3-6-2\SP\RPBE1PBE\def2TZVP\C13H18N4O1\ATARZIA\18-Oct-2021\0
 \\#P PBE1PBE/Def2TZVP SP SCF=(YQC,MaxCycle=900) int=(Grid=Superfinegri
 d) EmpiricalDispersion=GD3 SCRF=(PCM,Solvent=Chloroform)\\_1_alde1_2_a
 mi4_1_opt_cfm\\0,1\C,0,-1.2081,1.2297,-0.1228\C,0,-1.0556,0.6211,1.203
 3\C,0,-2.4766,1.4984,-0.6334\C,0,-2.6146,2.0807,-1.883\H,0,-3.356,1.24
 84,-0.0576\C,0,-1.4808,2.3881,-2.6243\C,0,-0.2111,2.1285,-2.1253\H,0,-
 1.6062,2.843,-3.5951\C,0,-0.0782,1.5507,-0.8741\C,0,1.0191,2.5068,-2.9
 094\H,0,0.9004,1.3279,-0.4768\C,0,-3.9923,2.3251,-2.4453\O,0,-0.0081,0
 .3869,1.7505\C,0,-5.5878,1.5264,-3.8781\C,0,-4.9697,2.7665,-4.557\N,0,
 -4.5833,1.085,-2.9242\H,0,-5.8459,0.7335,-4.5769\N,0,-3.9713,3.2368,-3
 .5993\H,0,-5.7208,3.5229,-4.7941\C,0,3.3462,2.2493,-2.5312\C,0,2.9623,
 3.7196,-2.7884\N,0,2.0961,1.5176,-2.7197\H,0,3.6755,2.1176,-1.4934\N,0
 ,1.5473,3.7867,-2.4604\H,0,3.0732,3.9609,-3.8504\H,0,2.1383,0.8664,-3.
 4915\H,0,0.7566,2.6157,-3.9762\H,0,1.4349,3.8507,-1.4519\H,0,-3.8667,0
 .5472,-3.4049\H,0,-4.116,4.1968,-3.3175\H,0,-4.6488,2.7062,-1.6406\H,0
 ,-2.0206,0.383,1.6956\H,0,-4.4578,2.4838,-5.4847\H,0,4.1404,1.9011,-3.
 1931\H,0,-6.4823,1.8097,-3.3146\H,0,3.5392,4.4302,-2.2002\\Version=ES6
 4L-G16RevC.01\State=1-A\HF=-799.8129355\RMSD=4.759e-09\Dipole=-0.83559
 97,0.75121,-1.7811759\Quadrupole=11.6434731,-5.1197997,-6.5236734,-0.0
 564223,-5.1064264,7.5891991\PG=C01 [X(C13H18N4O1)]\\@
 The archive entry for this job was punched.


 A FOOL CAN ASK MORE QUESTIONS THAN
 A WISE MAN CAN ANSWER.
 Job cpu time:       0 days  3 hours 57 minutes 57.3 seconds.
 Elapsed time:       0 days  0 hours  7 minutes 30.8 seconds.
 File lengths (MBytes):  RWF=    896 Int=      0 D2E=      0 Chk=     40 Scr=     16
 Normal termination of Gaussian 16 at Mon Oct 18 05:57:38 2021.
