 Entering Gaussian System, Link 0=g16
 Initial command:
 /apps/gaussian/g16-c01-avx/g16/l1.exe "/rds/general/ephemeral/user/atarzia/ephemeral/Gau-1922165.inp" -scrdir="/rds/general/ephemeral/user/atarzia/ephemeral/"
 Entering Link 1 = /apps/gaussian/g16-c01-avx/g16/l1.exe PID=   1922166.
  
 Copyright (c) 1988-2019, Gaussian, Inc.  All Rights Reserved.
  
 This is part of the Gaussian(R) 16 program.  It is based on
 the Gaussian(R) 09 system (copyright 2009, Gaussian, Inc.),
 the Gaussian(R) 03 system (copyright 2003, Gaussian, Inc.),
 the Gaussian(R) 98 system (copyright 1998, Gaussian, Inc.),
 the Gaussian(R) 94 system (copyright 1995, Gaussian, Inc.),
 the Gaussian 92(TM) system (copyright 1992, Gaussian, Inc.),
 the Gaussian 90(TM) system (copyright 1990, Gaussian, Inc.),
 the Gaussian 88(TM) system (copyright 1988, Gaussian, Inc.),
 the Gaussian 86(TM) system (copyright 1986, Carnegie Mellon
 University), and the Gaussian 82(TM) system (copyright 1983,
 Carnegie Mellon University). Gaussian is a federally registered
 trademark of Gaussian, Inc.
  
 This software contains proprietary and confidential information,
 including trade secrets, belonging to Gaussian, Inc.
  
 This software is provided under written license and may be
 used, copied, transmitted, or stored only in accord with that
 written license.
  
 The following legend is applicable only to US Government
 contracts under FAR:
  
                    RESTRICTED RIGHTS LEGEND
  
 Use, reproduction and disclosure by the US Government is
 subject to restrictions as set forth in subparagraphs (a)
 and (c) of the Commercial Computer Software - Restricted
 Rights clause in FAR 52.227-19.
  
 Gaussian, Inc.
 340 Quinnipiac St., Bldg. 40, Wallingford CT 06492
  
  
 ---------------------------------------------------------------
 Warning -- This program may not be used in any manner that
 competes with the business of Gaussian, Inc. or will provide
 assistance to any competitor of Gaussian, Inc.  The licensee
 of this program is prohibited from giving any competitor of
 Gaussian, Inc. access to this program.  By using this program,
 the user acknowledges that Gaussian, Inc. is engaged in the
 business of creating and licensing software in the field of
 computational chemistry and represents and warrants to the
 licensee that it is not a competitor of Gaussian, Inc. and that
 it will not use this program in any manner prohibited above.
 ---------------------------------------------------------------
  

 Cite this work as:
 Gaussian 16, Revision C.01,
 M. J. Frisch, G. W. Trucks, H. B. Schlegel, G. E. Scuseria, 
 M. A. Robb, J. R. Cheeseman, G. Scalmani, V. Barone, 
 G. A. Petersson, H. Nakatsuji, X. Li, M. Caricato, A. V. Marenich, 
 J. Bloino, B. G. Janesko, R. Gomperts, B. Mennucci, H. P. Hratchian, 
 J. V. Ortiz, A. F. Izmaylov, J. L. Sonnenberg, D. Williams-Young, 
 F. Ding, F. Lipparini, F. Egidi, J. Goings, B. Peng, A. Petrone, 
 T. Henderson, D. Ranasinghe, V. G. Zakrzewski, J. Gao, N. Rega, 
 G. Zheng, W. Liang, M. Hada, M. Ehara, K. Toyota, R. Fukuda, 
 J. Hasegawa, M. Ishida, T. Nakajima, Y. Honda, O. Kitao, H. Nakai, 
 T. Vreven, K. Throssell, J. A. Montgomery, Jr., J. E. Peralta, 
 F. Ogliaro, M. J. Bearpark, J. J. Heyd, E. N. Brothers, K. N. Kudin, 
 V. N. Staroverov, T. A. Keith, R. Kobayashi, J. Normand, 
 K. Raghavachari, A. P. Rendell, J. C. Burant, S. S. Iyengar, 
 J. Tomasi, M. Cossi, J. M. Millam, M. Klene, C. Adamo, R. Cammi, 
 J. W. Ochterski, R. L. Martin, K. Morokuma, O. Farkas, 
 J. B. Foresman, and D. J. Fox, Gaussian, Inc., Wallingford CT, 2019.
 
 ******************************************
 Gaussian 16:  ES64L-G16RevC.01  3-Jul-2019
                17-Oct-2021 
 ******************************************
 %chk=_1_alde1_2_ami2_2_opt_cfm.chk
 %mem=60000mb
 %nprocshared=32
 Will use up to   32 processors via shared memory.
 ----------------------------------------------------------------------
 #P PBE1PBE/Def2TZVP SP SCF=(YQC,MaxCycle=900) int=(Grid=Superfinegrid)
  EmpiricalDispersion=GD3 SCRF=(PCM,Solvent=Chloroform)
 ----------------------------------------------------------------------
 1/38=1,172=1/1;
 2/12=2,17=6,18=5,40=1/2;
 3/5=44,7=101,11=2,25=1,30=1,70=2201,72=7,74=-13,75=-7,124=31/1,2,3;
 4//1;
 5/5=2,7=900,8=4,13=1,38=1,53=7/8,2,8;
 6/7=2,8=2,9=2,10=2,28=1/1;
 99/5=1,9=1/99;
 Leave Link    1 at Sun Oct 17 21:18:30 2021, MaxMem=  7864320000 cpu:               6.4 elap:               0.2
 (Enter /apps/gaussian/g16-c01-avx/g16/l101.exe)
 -------------------------
 _1_alde1_2_ami2_2_opt_cfm
 -------------------------
 Symbolic Z-matrix:
 Charge =  0 Multiplicity = 1
 C                    -2.1249    1.4052    0.3148 
 C                    -2.8063    0.6719    1.3915 
 C                    -2.8578    2.0313   -0.6864 
 C                    -2.2073    2.7281   -1.7051 
 H                    -3.9364    1.9933   -0.6917 
 C                    -0.8176    2.7882   -1.7064 
 C                    -0.0693    2.1644   -0.7072 
 H                    -0.2889    3.3233   -2.4809 
 C                    -0.7312    1.4737    0.3013 
 C                     1.3854    2.2339   -0.7155 
 H                    -0.1826    0.9796    1.0903 
 C                    -2.9691    3.3879   -2.7568 
 O                    -2.2577    0.1035    2.3 
 C                    -4.9555    3.977    -3.8326 
 C                    -5.7917    2.914    -4.609 
 N                    -4.2299    3.3519   -2.7815 
 N                    -6.6453    2.1401   -3.7274 
 C                     3.9768    2.2004   -2.9253 
 C                     3.4353    2.8762   -1.6284 
 N                     3.3998    2.7798   -4.1242 
 N                     2.0134    2.8466   -1.6222 
 H                    -3.9109    0.68      1.3042 
 H                     3.6267    3.7666   -4.185 
 H                     2.3896    2.6973   -4.0882 
 H                    -7.3033    2.7458   -3.2488 
 H                    -6.0789    1.6814   -3.0222 
 H                    -2.3776    3.9204   -3.5171 
 H                     1.8949    1.7262    0.1172 
 C                    -4.8475    1.9449   -5.323 
 C                     5.4936    2.386    -2.9809 
 H                     3.7373    3.9292   -1.6434 
 H                     3.8782    2.3895   -0.7439 
 H                     5.8763    1.9351   -3.8921 
 H                     5.9708    1.9158   -2.1253 
 H                     5.7511    3.4432   -2.9854 
 H                    -5.6526    4.6837   -3.3692 
 H                    -4.306     4.5243   -4.5357 
 H                    -4.2354    2.4708   -6.0512 
 H                    -5.4315    1.1842   -5.8329 
 H                    -4.1941    1.4548   -4.6041 
 C                    -6.6761    3.6325   -5.6288 
 H                    -7.345     4.3318   -5.1316 
 H                    -7.2775    2.9001   -6.1598 
 H                    -6.0706    4.1806   -6.3457 
 C                     3.6303    0.7104   -2.9066 
 H                     2.5534    0.5732   -2.8349 
 H                     4.1035    0.2165   -2.0617 
 H                     3.9764    0.2491   -3.827 
 
 ITRead=  0  0  0  0  0  0  0  0  0  0  0  0  0  0  0  0  0  0  0  0
 ITRead=  0  0  0  0  0  0  0  0  0  0  0  0  0  0  0  0  0  0  0  0
 ITRead=  0  0  0  0  0  0  0  0
 MicOpt= -1 -1 -1 -1 -1 -1 -1 -1 -1 -1 -1 -1 -1 -1 -1 -1 -1 -1 -1 -1
 MicOpt= -1 -1 -1 -1 -1 -1 -1 -1 -1 -1 -1 -1 -1 -1 -1 -1 -1 -1 -1 -1
 MicOpt= -1 -1 -1 -1 -1 -1 -1 -1
 NAtoms=     48 NQM=       48 NQMF=       0 NMMI=      0 NMMIF=      0
                NMic=       0 NMicF=      0.
                    Isotopes and Nuclear Properties:
 (Nuclear quadrupole moments (NQMom) in fm**2, nuclear magnetic moments (NMagM)
  in nuclear magnetons)

  Atom         1           2           3           4           5           6           7           8           9          10
 IAtWgt=          12          12          12          12           1          12          12           1          12          12
 AtmWgt=  12.0000000  12.0000000  12.0000000  12.0000000   1.0078250  12.0000000  12.0000000   1.0078250  12.0000000  12.0000000
 NucSpn=           0           0           0           0           1           0           0           1           0           0
 AtZEff=  -0.0000000  -0.0000000  -0.0000000  -0.0000000  -0.0000000  -0.0000000  -0.0000000  -0.0000000  -0.0000000  -0.0000000
 NQMom=    0.0000000   0.0000000   0.0000000   0.0000000   0.0000000   0.0000000   0.0000000   0.0000000   0.0000000   0.0000000
 NMagM=    0.0000000   0.0000000   0.0000000   0.0000000   2.7928460   0.0000000   0.0000000   2.7928460   0.0000000   0.0000000
 AtZNuc=   6.0000000   6.0000000   6.0000000   6.0000000   1.0000000   6.0000000   6.0000000   1.0000000   6.0000000   6.0000000

  Atom        11          12          13          14          15          16          17          18          19          20
 IAtWgt=           1          12          16          12          12          14          14          12          12          14
 AtmWgt=   1.0078250  12.0000000  15.9949146  12.0000000  12.0000000  14.0030740  14.0030740  12.0000000  12.0000000  14.0030740
 NucSpn=           1           0           0           0           0           2           2           0           0           2
 AtZEff=  -0.0000000  -0.0000000  -0.0000000  -0.0000000  -0.0000000  -0.0000000  -0.0000000  -0.0000000  -0.0000000  -0.0000000
 NQMom=    0.0000000   0.0000000   0.0000000   0.0000000   0.0000000   2.0440000   2.0440000   0.0000000   0.0000000   2.0440000
 NMagM=    2.7928460   0.0000000   0.0000000   0.0000000   0.0000000   0.4037610   0.4037610   0.0000000   0.0000000   0.4037610
 AtZNuc=   1.0000000   6.0000000   8.0000000   6.0000000   6.0000000   7.0000000   7.0000000   6.0000000   6.0000000   7.0000000

  Atom        21          22          23          24          25          26          27          28          29          30
 IAtWgt=          14           1           1           1           1           1           1           1          12          12
 AtmWgt=  14.0030740   1.0078250   1.0078250   1.0078250   1.0078250   1.0078250   1.0078250   1.0078250  12.0000000  12.0000000
 NucSpn=           2           1           1           1           1           1           1           1           0           0
 AtZEff=  -0.0000000  -0.0000000  -0.0000000  -0.0000000  -0.0000000  -0.0000000  -0.0000000  -0.0000000  -0.0000000  -0.0000000
 NQMom=    2.0440000   0.0000000   0.0000000   0.0000000   0.0000000   0.0000000   0.0000000   0.0000000   0.0000000   0.0000000
 NMagM=    0.4037610   2.7928460   2.7928460   2.7928460   2.7928460   2.7928460   2.7928460   2.7928460   0.0000000   0.0000000
 AtZNuc=   7.0000000   1.0000000   1.0000000   1.0000000   1.0000000   1.0000000   1.0000000   1.0000000   6.0000000   6.0000000

  Atom        31          32          33          34          35          36          37          38          39          40
 IAtWgt=           1           1           1           1           1           1           1           1           1           1
 AtmWgt=   1.0078250   1.0078250   1.0078250   1.0078250   1.0078250   1.0078250   1.0078250   1.0078250   1.0078250   1.0078250
 NucSpn=           1           1           1           1           1           1           1           1           1           1
 AtZEff=  -0.0000000  -0.0000000  -0.0000000  -0.0000000  -0.0000000  -0.0000000  -0.0000000  -0.0000000  -0.0000000  -0.0000000
 NQMom=    0.0000000   0.0000000   0.0000000   0.0000000   0.0000000   0.0000000   0.0000000   0.0000000   0.0000000   0.0000000
 NMagM=    2.7928460   2.7928460   2.7928460   2.7928460   2.7928460   2.7928460   2.7928460   2.7928460   2.7928460   2.7928460
 AtZNuc=   1.0000000   1.0000000   1.0000000   1.0000000   1.0000000   1.0000000   1.0000000   1.0000000   1.0000000   1.0000000

  Atom        41          42          43          44          45          46          47          48
 IAtWgt=          12           1           1           1          12           1           1           1
 AtmWgt=  12.0000000   1.0078250   1.0078250   1.0078250  12.0000000   1.0078250   1.0078250   1.0078250
 NucSpn=           0           1           1           1           0           1           1           1
 AtZEff=  -0.0000000  -0.0000000  -0.0000000  -0.0000000  -0.0000000  -0.0000000  -0.0000000  -0.0000000
 NQMom=    0.0000000   0.0000000   0.0000000   0.0000000   0.0000000   0.0000000   0.0000000   0.0000000
 NMagM=    0.0000000   2.7928460   2.7928460   2.7928460   0.0000000   2.7928460   2.7928460   2.7928460
 AtZNuc=   6.0000000   1.0000000   1.0000000   1.0000000   6.0000000   1.0000000   1.0000000   1.0000000
 Leave Link  101 at Sun Oct 17 21:18:31 2021, MaxMem=  7864320000 cpu:               2.2 elap:               0.1
 (Enter /apps/gaussian/g16-c01-avx/g16/l202.exe)
                          Input orientation:                          
 ---------------------------------------------------------------------
 Center     Atomic      Atomic             Coordinates (Angstroms)
 Number     Number       Type             X           Y           Z
 ---------------------------------------------------------------------
      1          6           0       -2.124900    1.405200    0.314800
      2          6           0       -2.806300    0.671900    1.391500
      3          6           0       -2.857800    2.031300   -0.686400
      4          6           0       -2.207300    2.728100   -1.705100
      5          1           0       -3.936400    1.993300   -0.691700
      6          6           0       -0.817600    2.788200   -1.706400
      7          6           0       -0.069300    2.164400   -0.707200
      8          1           0       -0.288900    3.323300   -2.480900
      9          6           0       -0.731200    1.473700    0.301300
     10          6           0        1.385400    2.233900   -0.715500
     11          1           0       -0.182600    0.979600    1.090300
     12          6           0       -2.969100    3.387900   -2.756800
     13          8           0       -2.257700    0.103500    2.300000
     14          6           0       -4.955500    3.977000   -3.832600
     15          6           0       -5.791700    2.914000   -4.609000
     16          7           0       -4.229900    3.351900   -2.781500
     17          7           0       -6.645300    2.140100   -3.727400
     18          6           0        3.976800    2.200400   -2.925300
     19          6           0        3.435300    2.876200   -1.628400
     20          7           0        3.399800    2.779800   -4.124200
     21          7           0        2.013400    2.846600   -1.622200
     22          1           0       -3.910900    0.680000    1.304200
     23          1           0        3.626700    3.766600   -4.185000
     24          1           0        2.389600    2.697300   -4.088200
     25          1           0       -7.303300    2.745800   -3.248800
     26          1           0       -6.078900    1.681400   -3.022200
     27          1           0       -2.377600    3.920400   -3.517100
     28          1           0        1.894900    1.726200    0.117200
     29          6           0       -4.847500    1.944900   -5.323000
     30          6           0        5.493600    2.386000   -2.980900
     31          1           0        3.737300    3.929200   -1.643400
     32          1           0        3.878200    2.389500   -0.743900
     33          1           0        5.876300    1.935100   -3.892100
     34          1           0        5.970800    1.915800   -2.125300
     35          1           0        5.751100    3.443200   -2.985400
     36          1           0       -5.652600    4.683700   -3.369200
     37          1           0       -4.306000    4.524300   -4.535700
     38          1           0       -4.235400    2.470800   -6.051200
     39          1           0       -5.431500    1.184200   -5.832900
     40          1           0       -4.194100    1.454800   -4.604100
     41          6           0       -6.676100    3.632500   -5.628800
     42          1           0       -7.345000    4.331800   -5.131600
     43          1           0       -7.277500    2.900100   -6.159800
     44          1           0       -6.070600    4.180600   -6.345700
     45          6           0        3.630300    0.710400   -2.906600
     46          1           0        2.553400    0.573200   -2.834900
     47          1           0        4.103500    0.216500   -2.061700
     48          1           0        3.976400    0.249100   -3.827000
 ---------------------------------------------------------------------
                    Distance matrix (angstroms):
                    1          2          3          4          5
     1  C    0.000000
     2  C    1.470142   0.000000
     3  C    1.389800   2.483604   0.000000
     4  C    2.415957   3.765062   1.395145   0.000000
     5  H    2.154167   2.713475   1.079282   2.134642   0.000000
     6  C    2.776143   4.246250   2.403271   1.391000   3.374670
     7  C    2.417925   3.758094   2.791752   2.425821   3.870914
     8  H    3.855638   5.325665   3.389505   2.153227   4.274856
     9  C    1.395448   2.477390   2.410165   2.788912   3.395488
    10  C    3.751062   4.944658   4.248134   3.759127   5.327289
    11  H    2.134260   2.658797   3.379265   3.869228   4.277163
    12  C    3.752133   4.961003   2.477763   1.456622   2.673054
    13  O    2.377620   1.203916   3.604874   4.788725   3.916586
    14  C    5.641576   6.544766   4.252607   3.693049   3.852127
    15  C    6.321844   7.067222   4.977320   4.616830   4.431147
    16  N    4.219922   5.159745   2.831269   2.374589   2.509821
    17  N    6.108476   6.564805   4.858464   4.912360   4.071261
    18  C    6.954231   8.184224   7.193958   6.325381   8.224998
    19  C    6.070889   7.275734   6.419060   5.645064   7.483240
    20  N    7.219180   8.566322   7.178877   6.106905   8.137596
    21  N    4.791151   6.086150   5.026831   4.223177   6.082275
    22  H    2.166708   1.108074   2.626313   4.019061   2.389356
    23  H    7.674980   9.058588   7.569690   6.423702   8.517524
    24  H    6.437130   7.818359   6.288959   5.177992   7.214576
    25  H    6.427463   6.786491   5.180625   5.324710   4.294302
    26  H    5.181310   5.586569   3.994230   4.221329   3.181009
    27  H    4.590593   5.901770   3.436881   2.175759   3.758518
    28  H    4.037435   4.983640   4.829805   4.599198   5.893193
    29  C    6.283997   7.132429   5.046229   4.546786   4.720316
    30  C    8.358538   9.536475   8.668127   7.813358   9.711825
    31  H    6.676115   7.914501   6.929157   6.065041   7.971143
    32  H    6.174699   7.224446   6.745762   6.170240   7.824811
    33  H    9.055275  10.242053   9.304315   8.411683  10.321581
    34  H    8.470842   9.536910   8.945834   8.229078  10.010686
    35  H    8.779302  10.003322   9.021753   8.092383  10.060364
    36  H    6.063422   6.845453   4.695056   4.296940   4.165645
    37  H    6.165495   7.226464   4.809308   3.955145   4.617240
    38  H    6.790852   7.789233   5.556260   4.802914   5.389030
    39  H    6.984029   7.703641   5.816182   5.460570   5.414970
    40  H    5.336631   6.203720   4.179285   3.738030   3.957684
    41  C    7.810292   8.545473   6.447525   6.015275   5.879446
    42  H    8.091829   8.749028   6.722133   6.380338   6.066288
    43  H    8.408594   9.054205   7.088488   6.751360   6.471889
    44  H    8.223968   9.101148   6.853412   6.210476   6.427037
    45  C    6.631930   7.739830   6.983517   6.292240   7.987901
    46  H    5.700818   6.826315   6.001932   5.346429   6.980508
    47  H    6.771538   7.738043   7.324251   6.801580   8.347090
    48  H    7.464378   8.568344   7.729547   6.991856   8.688196
                    6          7          8          9         10
     6  C    0.000000
     7  C    1.395521   0.000000
     8  H    1.079679   2.130090   0.000000
     9  C    2.401299   1.390054   3.370057   0.000000
    10  C    2.478375   1.456383   2.665841   2.468154   0.000000
    11  H    3.390544   2.155828   4.272903   1.080564   2.700520
    12  C    2.468184   3.755882   2.695137   4.245507   4.945735
    13  O    5.033164   4.252018   6.091001   2.863992   5.186909
    14  C    4.801686   6.076890   4.902201   6.418750   7.277481
    15  C    5.760433   6.966477   5.914148   7.196817   8.193451
    16  N    3.621794   4.798278   3.952551   5.027146   6.086861
    17  N    6.202142   7.236434   6.584645   7.186869   8.577440
    18  C    4.981716   4.614346   4.433350   5.753634   3.405832
    19  C    4.254525   3.692897   3.846599   4.801091   2.334101
    20  N    4.861305   4.908081   4.074596   6.193231   3.996880
    21  N    2.832854   2.374923   2.503037   3.621814   1.261701
    22  H    4.803824   4.583346   5.867955   3.427282   5.877464
    23  H    5.181942   5.321894   4.293297   6.661499   4.405681
    24  H    3.995919   4.214420   3.185852   5.523070   3.549403
    25  H    6.666716   7.689507   7.079900   7.577199   9.064941
    26  H    5.535125   6.458158   6.042594   6.299737   7.832107
    27  H    2.644638   4.038233   2.406846   4.824640   4.985320
    28  H    3.436716   2.174796   3.750978   2.644627   1.100336
    29  C    5.480059   6.647179   5.546021   6.985607   7.756392
    30  C    6.451152   6.013707   5.879272   7.096003   4.693877
    31  H    4.696058   4.298976   4.156779   5.456998   3.044088
    32  H    4.809980   3.954083   4.610192   4.814322   2.497813
    33  H    7.093191   6.748802   6.475205   7.839423   5.508925
    34  H    6.857035   6.209317   6.425835   7.141474   4.807766
    35  H    6.724038   6.379857   6.062219   7.530043   5.066970
    36  H    5.452985   6.678799   5.604377   6.927976   7.910568
    37  H    4.815383   6.178687   4.669229   6.744029   7.227164
    38  H    5.537092   6.782964   5.389681   7.323106   7.753658
    39  H    6.394442   7.482432   6.500614   7.733372   8.588351
    40  H    4.644930   5.718683   4.821811   6.004580   6.845365
    41  C    7.100710   8.368230   7.127496   8.669968   9.543814
    42  H    7.531377   8.786851   7.604724   9.023718  10.006148
    43  H    7.847012   9.068090   7.909104   9.307764  10.253295
    44  H    7.145341   8.477815   7.007118   8.945340   9.543622
    45  C    5.053865   4.542963   4.729545   5.467717   3.487341
    46  H    4.188482   3.733307   3.970773   4.629822   2.934962
    47  H    5.563911   4.800130   5.396398   5.526178   3.642832
    48  H    5.824638   5.456117   5.427290   6.379969   4.509340
                   11         12         13         14         15
    11  H    0.000000
    12  C    5.325849   0.000000
    13  O    2.556749   6.071622   0.000000
    14  C    7.483310   2.334560   7.738922   0.000000
    15  C    8.227146   3.409149   8.253626   1.559486   0.000000
    16  N    6.082703   1.261556   6.345338   1.421990   2.443508
    17  N    8.143923   4.001689   7.728410   2.498138   1.450783
    18  C    5.908977   7.048693   8.400580   9.152349   9.938192
    19  C    4.906895   6.523148   7.451875   8.745043   9.696542
    20  N    6.577638   6.542359   8.968848   8.445671   9.205255
    21  N    3.958000   5.138641   6.414869   7.397921   8.357338
    22  H    3.746430   4.971059   2.014210   6.192585   6.595006
    23  H    7.078625   6.759271   9.492086   8.592009   9.466412
    24  H    6.031879   5.564640   8.314704   7.460124   8.200723
    25  H    8.523592   4.409041   7.951667   2.714561   2.040434
    26  H    7.222986   3.557167   6.739225   2.681148   2.029710
    27  H    5.890201   1.100675   6.958574   2.597751   3.723059
    28  H    2.412538   5.888940   4.964057   8.221618   9.101190
    29  C    7.988962   3.492280   8.258810   2.522377   1.529858
    30  C    7.125439   8.524747   9.652998  10.603790  11.414355
    31  H    5.615948   6.819712   8.131815   8.964355  10.031314
    32  H    4.673564   7.206531   7.220830   9.491811  10.426939
    33  H    7.902377   9.035521  10.385510  11.022740  11.730917
    34  H    7.005775   9.082273   9.517138  11.249331  12.063232
    35  H    7.608512   8.723371  10.160213  10.753324  11.668434
    36  H    7.970470   3.042253   8.040112   1.095497   2.165246
    37  H    7.824270   2.498638   8.394391   1.102605   2.192201
    38  H    8.345651   3.646596   8.902693   2.776575   2.167588
    39  H    8.690426   4.514654   8.796873   3.468070   2.149391
    40  H    6.981700   2.941091   7.296729   2.745257   2.163704
    41  C    9.713379   4.695749   9.738684   2.511071   1.529182
    42  H   10.062269   5.067457   9.949262   2.742808   2.167028
    43  H   10.324237   5.511866  10.226807   3.459372   2.147737
    44  H   10.010447   4.809145  10.291214   2.756914   2.167530
    45  C    5.530451   7.123449   7.883245   9.232774   9.824872
    46  H    4.801880   6.198923   7.052269   8.304507   8.846890
    47  H    5.374763   7.782198   7.713758   9.967092  10.567887
    48  H    6.481570   7.696581   8.742158   9.678642  10.155245
                   16         17         18         19         20
    16  N    0.000000
    17  N    2.863100   0.000000
    18  C    8.288339  10.652512   0.000000
    19  C    7.766030  10.323088   1.559448   0.000000
    20  N    7.768041  10.073267   1.451205   2.497913   0.000000
    21  N    6.370094   8.938909   2.443478   1.422222   2.861218
    22  H    4.892214   5.909808   9.078331   8.209147   9.344679
    23  H    7.991743  10.410038   2.040195   2.713973   1.014374
    24  H    6.778919   9.059253   2.029396   2.678826   1.014202
    25  H    3.167257   1.014344  11.297910  10.860950  10.738893
    26  H    2.503459   1.014161  10.069551   9.689697   9.605553
    27  H    2.072514   4.628926   6.609616   6.200593   5.920126
    28  H    6.968396   9.374822   3.716985   2.596623   4.622150
    29  C    2.969899   2.411665   9.147815   9.117136   8.375687
    30  C    9.773391  12.164318   1.529124   2.511205   2.417894
    31  H    8.068756  10.739754   2.165497   1.095554   2.754886
    32  H    8.415421  10.941093   2.191800   1.102442   3.436223
    33  H   10.265283  12.524361   2.147833   3.459550   2.626869
    34  H   10.322173  12.719395   2.167264   2.756454   3.369293
    35  H    9.983500  12.486768   2.167096   2.743331   2.695473
    36  H    2.035475   2.753845   9.954354   9.428010   9.281207
    37  H    2.111286   3.436580   8.752067   8.431865   7.911508
    38  H    3.386341   3.364079   8.791166   8.863698   7.880678
    39  H    3.931133   2.611548   9.899642   9.957953   9.135505
    40  H    2.630996   2.691955   8.374837   8.311613   7.723551
    41  C    3.764273   2.417339  11.083506  10.900257  10.223242
    42  H    4.023310   2.695349  11.730038  11.428300  10.902948
    43  H    4.572188   2.625614  11.730765  11.631777  10.870275
    44  H    4.096150   3.368889  10.796785  10.691890   9.827806
    45  C    8.293125  10.407003   1.529873   2.522402   2.412073
    46  H    7.330565   9.373783   2.163797   2.745396   2.692168
    47  H    8.932771  11.045881   2.167422   2.776372   3.364462
    48  H    8.835372  10.789176   2.149566   3.468182   2.612516
                   21         22         23         24         25
    21  N    0.000000
    22  H    6.953798   0.000000
    23  H    3.164977   9.822109   0.000000
    24  H    2.498994   8.534857   1.638044   0.000000
    25  H    9.458165   6.041996  11.017414   9.729299   0.000000
    26  H    8.294758   4.941737   9.994940   8.595575   1.638124
    27  H    4.901487   6.008006   6.043291   4.954627   5.070916
    28  H    2.072402   6.017542   5.066684   4.344324   9.847661
    29  C    7.847352   6.811532   8.742179   7.380139   3.312808
    30  C    3.764307  10.474595   2.615574   3.310262  12.804760
    31  H    2.035756   8.817064   2.549196   3.051380  11.219296
    32  H    2.111357   8.233297   3.714946   3.673556  11.464180
    33  H    4.572229  11.151955   2.915627   3.574420  13.220171
    34  H    4.096402  10.532648   3.628034   4.157970  13.347392
    35  H    4.023015  10.926582   2.461037   3.615552  13.075668
    36  H    8.074311   6.395608   9.360129   8.315030   2.548483
    37  H    7.158071   7.002798   7.976517   6.954800   3.715236
    38  H    7.668427   7.577214   8.183790   6.913414   4.164262
    39  H    8.713214   7.314686   9.562183   8.154941   3.552436
    40  H    7.025802   5.965612   8.166087   6.719752   3.629138
    41  C    9.600932   8.026835  10.404337   9.243104   2.616107
    42  H   10.104522   8.157708  11.026953   9.925861   2.462127
    43  H   10.339898   8.483757  11.115405   9.888654   2.915201
    44  H    9.457381   8.685590   9.943724   8.880961   3.628910
    45  C    2.971094   8.637214   3.312805   2.623602  11.126705
    46  H    2.632601   7.676635   3.629400   2.471718  10.101784
    47  H    3.388083   8.704868   4.164007   3.632977  11.744005
    48  H    3.932114   9.419362   3.552923   2.929137  11.567172
                   26         27         28         29         30
    26  H    0.000000
    27  H    4.354041   0.000000
    28  H    8.569675   6.023031   0.000000
    29  C    2.622872   3.642016   8.666231   0.000000
    30  C   11.594004   8.037268   4.794184  10.612179   0.000000
    31  H   10.164225   6.395532   3.368584   9.548596   2.693504
    32  H   10.238940   7.012084   2.261623   9.864262   2.759293
    33  H   11.989491   8.497582   5.654173  10.818847   1.086304
    34  H   12.085307   8.697776   4.655933  11.281035   1.086673
    35  H   11.960526   8.160036   5.238749  10.956258   1.088117
    36  H    3.052203   3.366025   8.824202   3.459270  11.387185
    37  H    3.676403   2.262956   8.241966   2.750703  10.149970
    38  H    3.632697   3.460408   8.728354   1.086974  10.202322
    39  H    2.926836   4.709143   9.453761   1.086148  11.355001
    40  H    2.471078   3.249681   7.709750   1.088093   9.866785
    41  C    3.310257   4.797840  10.493452   2.507047  12.516658
    42  H    3.616241   5.239363  10.941426   3.459976  13.162116
    43  H    3.573011   5.659849  11.176390   2.741814  13.170828
    44  H    4.158332   4.659070  10.547149   2.745950  12.176748
    45  C    9.758318   6.838982   3.631367   8.901465   2.506999
    46  H    8.705159   5.998659   3.236962   7.927517   3.457215
    47  H   10.331978   7.605375   3.450321   9.682141   2.735697
    48  H   10.188633   7.344916   4.697997   9.109059   2.753929
                   31         32         33         34         35
    31  H    0.000000
    32  H    1.788751   0.000000
    33  H    3.688958   3.756334   0.000000
    34  H    3.045411   2.551790   1.769431   0.000000
    35  H    2.468309   3.105215   1.764127   1.766633   0.000000
    36  H    9.576945  10.148483  11.863548  12.012992  11.477392
    37  H    8.568210   9.269102  10.526035  10.873220  10.233155
    38  H    9.226027   9.695594  10.353510  10.949303  10.491657
    39  H   10.447671  10.678070  11.497691  12.012243  11.758481
    40  H    8.820176   8.996490  10.106957  10.472925  10.270391
    41  C   11.153938  11.696177  12.785149  13.235016  12.706640
    42  H   11.625274  12.205927  13.493825  13.863096  13.300512
    43  H   11.949173  12.411379  13.382681  13.883929  13.420737
    44  H   10.879785  11.557111  12.401244  12.959028  12.312106
    45  C    3.459450   2.749200   2.741462   2.746154   3.460086
    46  H    3.752869   3.070232   3.743542   3.739616   4.299399
    47  H    3.754094   2.551330   3.073560   2.525564   3.738904
    48  H    4.285839   3.754525   2.540955   3.106655   3.749683
                   36         37         38         39         40
    36  H    0.000000
    37  H    1.788704   0.000000
    38  H    3.754798   2.553152   0.000000
    39  H    4.285464   3.755762   1.770212   0.000000
    40  H    3.752065   3.072301   1.768632   1.764747   0.000000
    41  C    2.694135   2.758179   2.735870   2.754062   3.457269
    42  H    2.468624   3.102849   3.738796   3.749759   4.299251
    43  H    3.689035   3.755734   3.074161   2.541435   3.743855
    44  H    3.047521   2.551087   2.525491   3.106417   3.739573
    45  C   10.108083   8.954589   8.651980   9.534356   8.040950
    46  H    9.193483   8.096622   7.748114   8.551021   7.031077
    47  H   10.809575   9.767165   9.515000  10.299253   8.766262
    48  H   10.610980   9.347606   8.792990   9.664711   8.295461
                   41         42         43         44         45
    41  C    0.000000
    42  H    1.087959   0.000000
    43  H    1.086302   1.763949   0.000000
    44  H    1.086733   1.766634   1.769420   0.000000
    45  C   11.053096  11.769553  11.591298  10.861729   0.000000
    46  H   10.116762  10.834216  10.635601   9.985611   1.087970
    47  H   11.857193  12.547037  12.390452  11.729410   1.087066
    48  H   11.321203  12.105557  11.794915  11.078933   1.086149
                   46         47         48
    46  H    0.000000
    47  H    1.768582   0.000000
    48  H    1.764719   1.770170   0.000000
 Stoichiometry    C17H26N4O
 Framework group  C1[X(C17H26N4O)]
 Deg. of freedom   138
 Full point group                 C1      NOp   1
 Largest Abelian subgroup         C1      NOp   1
 Largest concise Abelian subgroup C1      NOp   1
                         Standard orientation:                         
 ---------------------------------------------------------------------
 Center     Atomic      Atomic             Coordinates (Angstroms)
 Number     Number       Type             X           Y           Z
 ---------------------------------------------------------------------
      1          6           0       -0.418655    2.824876    0.044975
      2          6           0       -0.849522    4.185819    0.396407
      3          6           0       -1.356420    1.831369   -0.210148
      4          6           0       -0.943280    0.541703   -0.545568
      5          1           0       -2.414191    2.039220   -0.157550
      6          6           0        0.417372    0.262802   -0.621216
      7          6           0        1.369753    1.250853   -0.367828
      8          1           0        0.764619   -0.725757   -0.881745
      9          6           0        0.943216    2.531218   -0.034690
     10          6           0        2.792371    0.950361   -0.450979
     11          1           0        1.653820    3.319767    0.167423
     12          6           0       -1.920575   -0.504091   -0.815675
     13          8           0       -0.112961    5.109090    0.629778
     14          6           0       -4.099896   -1.321946   -0.994119
     15          6           0       -4.976335   -1.550069    0.275452
     16          7           0       -3.160821   -0.281009   -0.756114
     17          7           0       -5.606844   -0.325547    0.731276
     18          6           0        4.961820   -1.575489    0.265448
     19          6           0        4.602487   -0.484000   -0.788787
     20          7           0        4.146754   -2.766943    0.116781
     21          7           0        3.208798   -0.204253   -0.743120
     22          1           0       -1.950289    4.307616    0.432534
     23          1           0        4.286647   -3.179512   -0.799281
     24          1           0        3.166537   -2.519272    0.197025
     25          1           0       -6.215785    0.049185    0.011789
     26          1           0       -4.895726    0.370528    0.927011
     27          1           0       -1.509004   -1.490307   -1.079248
     28          1           0        3.473056    1.791136   -0.249721
     29          6           0       -4.099848   -2.081321    1.411237
     30          6           0        6.428795   -1.968431    0.087121
     31          1           0        4.819143   -0.889019   -1.783401
     32          1           0        5.225078    0.410644   -0.623348
     33          1           0        6.681706   -2.743333    0.805188
     34          1           0        7.078915   -1.112283    0.245913
     35          1           0        6.603225   -2.356744   -0.914270
     36          1           0       -4.757287   -0.986190   -1.803574
     37          1           0       -3.622625   -2.270485   -1.291141
     38          1           0       -3.662049   -3.039430    1.143147
     39          1           0       -4.705059   -2.204760    2.304657
     40          1           0       -3.298598   -1.378712    1.630978
     41          6           0       -6.072926   -2.562063   -0.058843
     42          1           0       -6.696272   -2.197779   -0.872718
     43          1           0       -6.700932   -2.710880    0.814950
     44          1           0       -5.641307   -3.515500   -0.351511
     45          6           0        4.734229   -1.019773    1.672534
     46          1           0        3.698628   -0.709107    1.793763
     47          1           0        5.380328   -0.165291    1.857273
     48          1           0        4.950370   -1.793110    2.403939
 ---------------------------------------------------------------------
 Rotational constants (GHZ):           0.3261128           0.1151022           0.0901901
 Leave Link  202 at Sun Oct 17 21:18:31 2021, MaxMem=  7864320000 cpu:               0.2 elap:               0.0
 (Enter /apps/gaussian/g16-c01-avx/g16/l301.exe)
 Standard basis: def2TZVP (5D, 7F)
 Ernie: Thresh=  0.10000D-02 Tol=  0.10000D-05 Strict=F.
 There are   948 symmetry adapted cartesian basis functions of A   symmetry.
 There are   838 symmetry adapted basis functions of A   symmetry.
   838 basis functions,  1330 primitive gaussians,   948 cartesian basis functions
    82 alpha electrons       82 beta electrons
       nuclear repulsion energy      1707.5400818421 Hartrees.
 IExCor= 1009 DFT=T Ex+Corr=PBE1PBE ExCW=0 ScaHFX=  0.250000
 ScaDFX=  0.750000  0.750000  1.000000  1.000000 ScalE2=  1.000000  1.000000
 IRadAn=      7 IRanWt=     -1 IRanGd=            0 ICorTp=0 IEmpDi=131
 NAtoms=   48 NActive=   48 NUniq=   48 SFac= 1.00D+00 NAtFMM=   60 NAOKFM=F Big=F
 Integral buffers will be    131072 words long.
 Raffenetti 2 integral format.
 Two-electron integral symmetry is turned on.
 R6Disp:  Grimme-D3 Dispersion energy=       -0.0294514352 Hartrees.
 Nuclear repulsion after empirical dispersion term =     1707.5106304069 Hartrees.
 ------------------------------------------------------------------------------
 Polarizable Continuum Model (PCM)
 =================================
 Model                : PCM.
 Atomic radii         : UFF (Universal Force Field).
 Polarization charges : Total charges.
 Charge compensation  : None.
 Solution method      : On-the-fly selection.
 Cavity type          : Scaled VdW (van der Waals Surface) (Alpha=1.100).
 Cavity algorithm     : GePol (No added spheres)
                        Default sphere list used, NSphG=   48.
                        Lebedev-Laikov grids with approx.  5.0 points / Ang**2.
                        Smoothing algorithm: York/Karplus (Gamma=1.0000).
                        Polarization charges: spherical gaussians, with
                                              point-specific exponents (IZeta= 3).
                        Self-potential: point-specific (ISelfS= 7).
                        Self-field    : sphere-specific E.n sum rule (ISelfD= 2).
 Solvent              : Chloroform, Eps=   4.711300 Eps(inf)=   2.090627
 ------------------------------------------------------------------------------
 GePol: Number of generator spheres                  =      48
 GePol: Total number of spheres                      =      48
 GePol: Number of exposed spheres                    =      47 ( 97.92%)
 GePol: Number of points                             =    3294
 GePol: Average weight of points                     =       0.13
 GePol: Minimum weight of points                     =   0.10D-09
 GePol: Maximum weight of points                     =    0.20577
 GePol: Number of points with low weight             =     201
 GePol: Fraction of low-weight points (<1% of avg)   =       6.10%
 GePol: Cavity surface area                          =    435.983 Ang**2
 GePol: Cavity volume                                =    468.684 Ang**3
 Leave Link  301 at Sun Oct 17 21:18:31 2021, MaxMem=  7864320000 cpu:               2.1 elap:               0.1
 (Enter /apps/gaussian/g16-c01-avx/g16/l302.exe)
 NPDir=0 NMtPBC=     1 NCelOv=     1 NCel=       1 NClECP=     1 NCelD=      1
         NCelK=      1 NCelE2=     1 NClLst=     1 CellRange=     0.0.
 One-electron integrals computed using PRISM.
 One-electron integral symmetry used in STVInt
   1 Symmetry operations used in ECPInt.
 ECPInt:  NShTT=   60031 NPrTT=  178468 LenC2=   46672 LenP2D=   97617.
 LDataN:  DoStor=T MaxTD1= 6 Len=  172
 NBasis=   838 RedAO= T EigKep=  6.16D-06  NBF=   838
 NBsUse=   838 1.00D-06 EigRej= -1.00D+00 NBFU=   838
 Precomputing XC quadrature grid using
 IXCGrd= 4 IRadAn=           7 IRanWt=          -1 IRanGd=           0 AccXCQ= 0.00D+00.
 Generated NRdTot=       0 NPtTot=           0 NUsed=           0 NTot=          32
 NSgBfM=   925   925   925   925   925 MxSgAt=    48 MxSgA2=    48.
 Leave Link  302 at Sun Oct 17 21:18:32 2021, MaxMem=  7864320000 cpu:              43.7 elap:               1.4
 (Enter /apps/gaussian/g16-c01-avx/g16/l303.exe)
 DipDrv:  MaxL=1.
 Leave Link  303 at Sun Oct 17 21:18:33 2021, MaxMem=  7864320000 cpu:               4.3 elap:               0.2
 (Enter /apps/gaussian/g16-c01-avx/g16/l401.exe)
 ExpMin= 9.52D-02 ExpMax= 2.70D+04 ExpMxC= 9.22D+02 IAcc=3 IRadAn=         7 AccDes= 0.00D+00
 Harris functional with IExCor= 1009 and IRadAn=       7 diagonalized for initial guess.
 HarFok:  IExCor= 1009 AccDes= 0.00D+00 IRadAn=         7 IDoV= 1 UseB2=F ITyADJ=14
 ICtDFT=  3500011 ScaDFX=  1.000000  1.000000  1.000000  1.000000
 FoFCou: FMM=F IPFlag=           0 FMFlag=      100000 FMFlg1=           0
         NFxFlg=           0 DoJE=T BraDBF=F KetDBF=T FulRan=T
         wScrn=  0.000000 ICntrl=       500 IOpCl=  0 I1Cent=   200000004 NGrid=           0
         NMat0=    1 NMatS0=      1 NMatT0=    0 NMatD0=    1 NMtDS0=    0 NMtDT0=    0
 Petite list used in FoFCou.
 Harris En= -957.253188889444    
 JPrj=0 DoOrth=F DoCkMO=F.
 Leave Link  401 at Sun Oct 17 21:18:39 2021, MaxMem=  7864320000 cpu:             202.1 elap:               6.4
 (Enter /apps/gaussian/g16-c01-avx/g16/l508.exe)
 Integral symmetry usage will be decided dynamically.
 Tight linear equation convergence will be used.
 RPBE1PBE wavefunction.
 Linear searches until partial convergence.
 Full line searches.
 Fock matrices will be formed incrementally for  20 cycles.
 Inv3:  Mode=1 IEnd=    32551308.
 Iteration    1 A*A^-1 deviation from unit magnitude is 5.77D-15 for   3271.
 Iteration    1 A*A^-1 deviation from orthogonality  is 1.90D-15 for    153    119.
 Iteration    1 A^-1*A deviation from unit magnitude is 5.55D-15 for   3271.
 Iteration    1 A^-1*A deviation from orthogonality  is 3.61D-15 for   2323   2303.
 FoFJK:  IHMeth= 1 ICntrl=       0 DoSepK=F KAlg= 0 I1Cent=           0 FoldK=F
 IRaf= 690000000 NMat=       1 IRICut=       1 DoRegI=T DoRafI=F ISym2E= 1 IDoP0=0 IntGTp=1.
 Iteration   1 EE= -956.338451548121                                    Grad=1.165D+00 Max rot=    3.2701 deg.
 Gradient too large for Newton-Raphson -- use scaled steepest descent instead.
 Alpha Gap=     0.142 HL deriv= 9.39D-03
     ILin= 1 X=0.000D+00 Y=-9.563384515481D+02 DE= 0.00D+00 F= -2.69D+00
 RMSU=  8.99D-04    CP:  1.01D+00
     ILin= 2 X=3.000D-01 Y=-9.568553429556D+02 DE=-5.17D-01 F= -7.53D-01 OKLS=F
 RMSU=  5.47D-05    CP:  1.01D+00  1.37D+00
     ILin= 3 X=4.000D-01 Y=-9.568980454200D+02 DE=-5.60D-01 F= -1.01D-01
 RMSU=  2.18D-04    CP:  1.02D+00  2.58D+00  3.00D+00
     ILin= 4 X=7.000D-01 Y=-9.566355566967D+02 DE=-2.97D-01 F=  1.85D+00
     An  expanding polynomial of degree  4 produced  0.4157
     Minimum is close to point  3 DX=  1.57D-02 DF= -8.03D-04 DXR=  3.78D-02 DFR=  1.43D-03 which will be used.
 Iteration   2 EE= -956.898045420018     Delta-E=       -0.559593871898 Grad=3.333D-01 Max rot=    1.6191 deg.
 Gradient too large for Newton-Raphson -- use scaled steepest descent instead.
 Alpha Gap=     0.188 HL deriv= 2.80D-03
     ILin= 1 X=0.000D+00 Y=-9.568980454200D+02 DE= 0.00D+00 F= -1.07D-01
 RMSU=  2.10D-04    CP:  1.01D+00  1.55D+00  1.91D+00  2.83D-03
     ILin= 2 X=4.000D-01 Y=-9.569247246488D+02 DE=-2.67D-02 F= -2.64D-02 OKLS=F
 RMSU=  1.23D-05    CP:  1.01D+00  1.70D+00  2.82D+00  4.96D-03  1.77D+00
     ILin= 3 X=7.000D-01 Y=-9.569236315499D+02 DE=-2.56D-02 F=  3.35D-02
     An  expanding polynomial of degree  3 produced  0.5319
 RMSU=  4.22D-09    CP:  1.01D+00  1.62D+00  2.29D+00  3.76D-03  1.33D+00
                    CP:  3.34D-01
 Iteration   3 EE= -956.926457037733     Delta-E=       -0.028411617714 Grad=1.480D-01 Max rot=    0.6558 deg.
 Gradient too large for Newton-Raphson -- use scaled steepest descent instead.
 Alpha Gap=     0.177 HL deriv= 2.93D-03
     ILin= 1 X=0.000D+00 Y=-9.569264570377D+02 DE= 0.00D+00 F= -2.35D-02
 RMSU=  1.20D-04    CP:  1.01D+00  1.86D+00  3.00D+00  2.02D-01  1.60D+00
                    CP:  5.36D-01 -3.00D+00
     ILin= 2 X=5.000D-01 Y=-9.569309448181D+02 DE=-4.49D-03 F=  5.57D-03 OKLS=T
     Accept linear search using points  1 and  2.
     An  expanding polynomial of degree  2 produced  0.2962
 RMSU=  8.66D-07    CP:  1.01D+00  1.76D+00  3.00D+00  4.07D-02  1.49D+00
                    CP:  4.13D-01 -3.00D+00  5.90D-01
 Iteration   4 EE= -956.930869655816     Delta-E=       -0.004412618083 Grad=8.778D-02 Max rot=    0.4651 deg.
 Gradient too large for Newton-Raphson -- use scaled steepest descent instead.
 Alpha Gap=     0.180 HL deriv= 2.43D-05
     ILin= 1 X=0.000D+00 Y=-9.569308696558D+02 DE= 0.00D+00 F= -3.96D-03
 RMSU=  2.90D-05    CP:  1.01D+00  1.86D+00  3.00D+00  2.20D-01  1.78D+00
                    CP:  7.65D-01 -3.00D+00  9.06D-01  3.00D+00
     ILin= 2 X=5.000D-01 Y=-9.569323030380D+02 DE=-1.43D-03 F= -1.78D-03 OKLS=F
 RMSU=  2.16D-06    CP:  1.01D+00  1.98D+00  3.00D+00  4.55D-01  2.14D+00
                    CP:  1.42D+00 -3.00D+00  1.29D+00  3.00D+00  2.23D+00
     ILin= 3 X=1.100D+00 Y=-9.569325851075D+02 DE=-1.72D-03 F=  8.37D-04
     Accept linear search using points  2 and  3.
     An  expanding polynomial of degree  3 produced  0.8453
 RMSU=  2.29D-07    CP:  1.01D+00  1.93D+00  3.00D+00  3.53D-01  1.99D+00
                    CP:  1.11D+00 -3.00D+00  1.12D+00  3.00D+00  1.70D+00
                    CP:  5.13D-01
 Iteration   5 EE= -956.932657034628     Delta-E=       -0.001787378812 Grad=1.461D-02 Max rot=    0.0591 deg.
 Gradient too large for Newton-Raphson -- use scaled steepest descent instead.
 Alpha Gap=     0.180 HL deriv= 6.70D-05
     ILin= 1 X=0.000D+00 Y=-9.569326570346D+02 DE= 0.00D+00 F= -1.95D-04
 RMSU=  1.34D-05    CP:  1.01D+00  1.94D+00  3.00D+00  3.96D-01  2.07D+00
                    CP:  1.23D+00 -3.00D+00  1.19D+00  3.00D+00  2.10D+00
                    CP:  1.19D+00  2.96D+00
     ILin= 2 X=5.000D-01 Y=-9.569327076891D+02 DE=-5.07D-05 F= -7.46D-06 OKLS=T
     Reject lnstep IMin12=  1  2 Big=T Turn=F Min= 6.168D-01 FVal=-9.569327088670D+02 Lims=  0.00D+00  5.00D-01
 RMSU=  3.67D-07    CP:  1.01D+00  1.96D+00  3.00D+00  4.41D-01  2.15D+00
                    CP:  1.36D+00 -3.00D+00  1.25D+00  3.00D+00  2.50D+00
                    CP:  1.90D+00  3.00D+00  2.00D+00
     ILin= 3 X=1.000D+00 Y=-9.569326645076D+02 DE=-7.47D-06 F=  1.80D-04
     An  expanding polynomial of degree  3 produced  0.5199
     Minimum is close to point  2 DX=  1.99D-02 DF= -7.44D-08 DXR=  3.83D-02 DFR=  1.47D-03 which will be used.
 Iteration   6 EE= -956.932707689141     Delta-E=       -0.000050654513 Grad=6.803D-03 Max rot=    0.0241 deg.
 SCF Done:  E(RPBE1PBE) =  -956.932707689     a.u. after    6 cycles
            Convg  =    0.6803D-02                    14 Fock formations.
              S**2 =  0.0000                  -V/T =  2.0047
 Leave Link  508 at Sun Oct 17 21:24:01 2021, MaxMem=  7864320000 cpu:           10051.3 elap:             320.7
 (Enter /apps/gaussian/g16-c01-avx/g16/l502.exe)
 Integral symmetry usage will be decided dynamically.
 Closed shell SCF:
 Using DIIS extrapolation, IDIIS=  1040.
 NGot=  7864320000 LenX=  7862482626 LenY=  7861582974
 Requested convergence on RMS density matrix=1.00D-08 within 128 cycles.
 Requested convergence on MAX density matrix=1.00D-06.
 Requested convergence on             energy=1.00D-06.
 No special actions if energy rises.
 Fock matrices will be formed incrementally for  20 cycles.

 Cycle   1  Pass 1  IDiag  1:
 FoFJK:  IHMeth= 1 ICntrl=       0 DoSepK=F KAlg= 0 I1Cent=           0 FoldK=F
 IRaf= 690000000 NMat=       1 IRICut=       1 DoRegI=T DoRafI=F ISym2E= 0 IDoP0=0 IntGTp=1.
 FoFCou: FMM=F IPFlag=           0 FMFlag=      100000 FMFlg1=           0
         NFxFlg=           0 DoJE=F BraDBF=F KetDBF=F FulRan=T
         wScrn=  0.000000 ICntrl=         0 IOpCl=  0 I1Cent=           0 NGrid=           0
         NMat0=    1 NMatS0=      1 NMatT0=    0 NMatD0=    1 NMtDS0=    0 NMtDT0=    0
 Symmetry not used in FoFCou.
 E= -956.932707689140    
 DIIS: error= 8.67D-05 at cycle   1 NSaved=   1.
 NSaved= 1 IEnMin= 1 EnMin= -956.932707689140     IErMin= 1 ErrMin= 8.67D-05
 ErrMax= 8.67D-05  0.00D+00 EMaxC= 1.00D-01 BMatC= 2.31D-05 BMatP= 2.31D-05
 IDIUse=1 WtCom= 1.00D+00 WtEn= 0.00D+00
 Coeff-Com:  0.100D+01
 Coeff:      0.100D+01
 Gap=     0.180 Goal=   None    Shift=    0.000
 RMSDP=4.65D-05 MaxDP=6.63D-03              OVMax= 1.16D-03

 Cycle   2  Pass 1  IDiag  1:
 RMSU=  4.41D-05    CP:  1.00D+00
 E= -956.932714001201     Delta-E=       -0.000006312061 Rises=F Damp=F
 DIIS: error= 1.28D-04 at cycle   2 NSaved=   2.
 NSaved= 2 IEnMin= 2 EnMin= -956.932714001201     IErMin= 1 ErrMin= 8.67D-05
 ErrMax= 1.28D-04  0.00D+00 EMaxC= 1.00D-01 BMatC= 1.32D-05 BMatP= 2.31D-05
 IDIUse=3 WtCom= 9.99D-01 WtEn= 1.28D-03
 Coeff-Com:  0.399D+00 0.601D+00
 Coeff-En:   0.283D+00 0.717D+00
 Coeff:      0.399D+00 0.601D+00
 Gap=     0.171 Goal=   None    Shift=    0.000
 RMSDP=1.43D-05 MaxDP=4.03D-03 DE=-6.31D-06 OVMax= 1.27D-03

 Cycle   3  Pass 1  IDiag  1:
 RMSU=  1.18D-05    CP:  1.00D+00  8.48D-01
 E= -956.932718454784     Delta-E=       -0.000004453583 Rises=F Damp=F
 DIIS: error= 1.11D-04 at cycle   3 NSaved=   3.
 NSaved= 3 IEnMin= 3 EnMin= -956.932718454784     IErMin= 1 ErrMin= 8.67D-05
 ErrMax= 1.11D-04  0.00D+00 EMaxC= 1.00D-01 BMatC= 7.59D-06 BMatP= 1.32D-05
 IDIUse=3 WtCom= 9.99D-01 WtEn= 1.11D-03
 Coeff-Com:  0.675D-02 0.429D+00 0.564D+00
 Coeff-En:   0.000D+00 0.386D+00 0.614D+00
 Coeff:      0.674D-02 0.429D+00 0.564D+00
 Gap=     0.171 Goal=   None    Shift=    0.000
 RMSDP=6.93D-06 MaxDP=1.94D-03 DE=-4.45D-06 OVMax= 5.96D-04

 Cycle   4  Pass 1  IDiag  1:
 RMSU=  1.64D-06    CP:  1.00D+00  9.48D-01  6.18D-01
 E= -956.932723780365     Delta-E=       -0.000005325581 Rises=F Damp=F
 DIIS: error= 1.14D-05 at cycle   4 NSaved=   4.
 NSaved= 4 IEnMin= 4 EnMin= -956.932723780365     IErMin= 4 ErrMin= 1.14D-05
 ErrMax= 1.14D-05  0.00D+00 EMaxC= 1.00D-01 BMatC= 2.60D-07 BMatP= 7.59D-06
 IDIUse=1 WtCom= 1.00D+00 WtEn= 0.00D+00
 Coeff-Com: -0.697D-02 0.235D+00 0.329D+00 0.443D+00
 Coeff:     -0.697D-02 0.235D+00 0.329D+00 0.443D+00
 Gap=     0.171 Goal=   None    Shift=    0.000
 RMSDP=1.04D-06 MaxDP=1.76D-04 DE=-5.33D-06 OVMax= 1.45D-04

 Cycle   5  Pass 1  IDiag  1:
 RMSU=  6.32D-07    CP:  1.00D+00  9.45D-01  6.49D-01  5.69D-01
 E= -956.932724000405     Delta-E=       -0.000000220040 Rises=F Damp=F
 DIIS: error= 2.35D-06 at cycle   5 NSaved=   5.
 NSaved= 5 IEnMin= 5 EnMin= -956.932724000405     IErMin= 5 ErrMin= 2.35D-06
 ErrMax= 2.35D-06  0.00D+00 EMaxC= 1.00D-01 BMatC= 4.10D-09 BMatP= 2.60D-07
 IDIUse=1 WtCom= 1.00D+00 WtEn= 0.00D+00
 Coeff-Com: -0.261D-02 0.225D-01 0.314D-01 0.126D+00 0.823D+00
 Coeff:     -0.261D-02 0.225D-01 0.314D-01 0.126D+00 0.823D+00
 Gap=     0.171 Goal=   None    Shift=    0.000
 RMSDP=1.97D-07 MaxDP=2.43D-05 DE=-2.20D-07 OVMax= 3.09D-05

 Cycle   6  Pass 1  IDiag  1:
 RMSU=  1.12D-07    CP:  1.00D+00  9.48D-01  6.56D-01  6.20D-01  9.73D-01
 E= -956.932724003574     Delta-E=       -0.000000003169 Rises=F Damp=F
 DIIS: error= 1.23D-06 at cycle   6 NSaved=   6.
 NSaved= 6 IEnMin= 6 EnMin= -956.932724003574     IErMin= 6 ErrMin= 1.23D-06
 ErrMax= 1.23D-06  0.00D+00 EMaxC= 1.00D-01 BMatC= 1.03D-09 BMatP= 4.10D-09
 IDIUse=1 WtCom= 1.00D+00 WtEn= 0.00D+00
 Coeff-Com: -0.121D-02 0.333D-02 0.489D-02 0.515D-01 0.460D+00 0.481D+00
 Coeff:     -0.121D-02 0.333D-02 0.489D-02 0.515D-01 0.460D+00 0.481D+00
 Gap=     0.171 Goal=   None    Shift=    0.000
 RMSDP=8.44D-08 MaxDP=1.82D-05 DE=-3.17D-09 OVMax= 1.46D-05

 Cycle   7  Pass 1  IDiag  1:
 RMSU=  4.03D-08    CP:  1.00D+00  9.47D-01  6.54D-01  6.28D-01  1.04D+00
                    CP:  5.90D-01
 E= -956.932724004568     Delta-E=       -0.000000000994 Rises=F Damp=F
 DIIS: error= 2.75D-07 at cycle   7 NSaved=   7.
 NSaved= 7 IEnMin= 7 EnMin= -956.932724004568     IErMin= 7 ErrMin= 2.75D-07
 ErrMax= 2.75D-07  0.00D+00 EMaxC= 1.00D-01 BMatC= 7.59D-11 BMatP= 1.03D-09
 IDIUse=1 WtCom= 1.00D+00 WtEn= 0.00D+00
 Coeff-Com: -0.160D-03-0.269D-02-0.344D-02 0.383D-02 0.977D-01 0.238D+00
 Coeff-Com:  0.666D+00
 Coeff:     -0.160D-03-0.269D-02-0.344D-02 0.383D-02 0.977D-01 0.238D+00
 Coeff:      0.666D+00
 Gap=     0.171 Goal=   None    Shift=    0.000
 RMSDP=2.86D-08 MaxDP=5.04D-06 DE=-9.94D-10 OVMax= 3.16D-06

 Cycle   8  Pass 1  IDiag  1:
 RMSU=  9.08D-09    CP:  1.00D+00  9.47D-01  6.56D-01  6.27D-01  1.04D+00
                    CP:  7.07D-01  7.46D-01
 E= -956.932724004668     Delta-E=       -0.000000000100 Rises=F Damp=F
 DIIS: error= 4.95D-08 at cycle   8 NSaved=   8.
 NSaved= 8 IEnMin= 8 EnMin= -956.932724004668     IErMin= 8 ErrMin= 4.95D-08
 ErrMax= 4.95D-08  0.00D+00 EMaxC= 1.00D-01 BMatC= 5.63D-12 BMatP= 7.59D-11
 IDIUse=1 WtCom= 1.00D+00 WtEn= 0.00D+00
 Coeff-Com:  0.132D-04-0.136D-02-0.171D-02-0.162D-02 0.123D-01 0.784D-01
 Coeff-Com:  0.301D+00 0.613D+00
 Coeff:      0.132D-04-0.136D-02-0.171D-02-0.162D-02 0.123D-01 0.784D-01
 Coeff:      0.301D+00 0.613D+00
 Gap=     0.171 Goal=   None    Shift=    0.000
 RMSDP=6.53D-09 MaxDP=1.48D-06 DE=-9.98D-11 OVMax= 7.52D-07

 Cycle   9  Pass 1  IDiag  1:
 RMSU=  4.10D-09    CP:  1.00D+00  9.47D-01  6.56D-01  6.27D-01  1.04D+00
                    CP:  6.93D-01  8.25D-01  8.85D-01
 E= -956.932724004660     Delta-E=        0.000000000007 Rises=F Damp=F
 DIIS: error= 3.10D-08 at cycle   9 NSaved=   9.
 NSaved= 9 IEnMin= 8 EnMin= -956.932724004668     IErMin= 9 ErrMin= 3.10D-08
 ErrMax= 3.10D-08  0.00D+00 EMaxC= 1.00D-01 BMatC= 1.44D-12 BMatP= 5.63D-12
 IDIUse=1 WtCom= 1.00D+00 WtEn= 0.00D+00
 Coeff-Com:  0.273D-04-0.385D-03-0.450D-03-0.145D-02-0.749D-02 0.110D-01
 Coeff-Com:  0.694D-01 0.362D+00 0.567D+00
 Coeff:      0.273D-04-0.385D-03-0.450D-03-0.145D-02-0.749D-02 0.110D-01
 Coeff:      0.694D-01 0.362D+00 0.567D+00
 Gap=     0.171 Goal=   None    Shift=    0.000
 RMSDP=2.92D-09 MaxDP=6.11D-07 DE= 7.05D-12 OVMax= 3.92D-07

 Error on total polarization charges =  0.01817
 SCF Done:  E(RPBE1PBE) =  -956.932724005     A.U. after    9 cycles
            NFock=  9  Conv=0.29D-08     -V/T= 2.0046
 KE= 9.525079888220D+02 PE=-5.641035345928D+03 EE= 2.024084002695D+03
 Leave Link  502 at Sun Oct 17 21:27:28 2021, MaxMem=  7864320000 cpu:            6531.2 elap:             207.4
 (Enter /apps/gaussian/g16-c01-avx/g16/l508.exe)
 QCSCF skips out because SCF is already converged.
 Leave Link  508 at Sun Oct 17 21:27:28 2021, MaxMem=  7864320000 cpu:               0.0 elap:               0.0
 (Enter /apps/gaussian/g16-c01-avx/g16/l601.exe)
 Copying SCF densities to generalized density rwf, IOpCl= 0 IROHF=0.

 **********************************************************************

            Population analysis using the SCF Density.

 **********************************************************************

 Orbital symmetries:
       Occupied  (A) (A) (A) (A) (A) (A) (A) (A) (A) (A) (A) (A)
                 (A) (A) (A) (A) (A) (A) (A) (A) (A) (A) (A) (A)
                 (A) (A) (A) (A) (A) (A) (A) (A) (A) (A) (A) (A)
                 (A) (A) (A) (A) (A) (A) (A) (A) (A) (A) (A) (A)
                 (A) (A) (A) (A) (A) (A) (A) (A) (A) (A) (A) (A)
                 (A) (A) (A) (A) (A) (A) (A) (A) (A) (A) (A) (A)
                 (A) (A) (A) (A) (A) (A) (A) (A) (A) (A)
       Virtual   (A) (A) (A) (A) (A) (A) (A) (A) (A) (A) (A) (A)
                 (A) (A) (A) (A) (A) (A) (A) (A) (A) (A) (A) (A)
                 (A) (A) (A) (A) (A) (A) (A) (A) (A) (A) (A) (A)
                 (A) (A) (A) (A) (A) (A) (A) (A) (A) (A) (A) (A)
                 (A) (A) (A) (A) (A) (A) (A) (A) (A) (A) (A) (A)
                 (A) (A) (A) (A) (A) (A) (A) (A) (A) (A) (A) (A)
                 (A) (A) (A) (A) (A) (A) (A) (A) (A) (A) (A) (A)
                 (A) (A) (A) (A) (A) (A) (A) (A) (A) (A) (A) (A)
                 (A) (A) (A) (A) (A) (A) (A) (A) (A) (A) (A) (A)
                 (A) (A) (A) (A) (A) (A) (A) (A) (A) (A) (A) (A)
                 (A) (A) (A) (A) (A) (A) (A) (A) (A) (A) (A) (A)
                 (A) (A) (A) (A) (A) (A) (A) (A) (A) (A) (A) (A)
                 (A) (A) (A) (A) (A) (A) (A) (A) (A) (A) (A) (A)
                 (A) (A) (A) (A) (A) (A) (A) (A) (A) (A) (A) (A)
                 (A) (A) (A) (A) (A) (A) (A) (A) (A) (A) (A) (A)
                 (A) (A) (A) (A) (A) (A) (A) (A) (A) (A) (A) (A)
                 (A) (A) (A) (A) (A) (A) (A) (A) (A) (A) (A) (A)
                 (A) (A) (A) (A) (A) (A) (A) (A) (A) (A) (A) (A)
                 (A) (A) (A) (A) (A) (A) (A) (A) (A) (A) (A) (A)
                 (A) (A) (A) (A) (A) (A) (A) (A) (A) (A) (A) (A)
                 (A) (A) (A) (A) (A) (A) (A) (A) (A) (A) (A) (A)
                 (A) (A) (A) (A) (A) (A) (A) (A) (A) (A) (A) (A)
                 (A) (A) (A) (A) (A) (A) (A) (A) (A) (A) (A) (A)
                 (A) (A) (A) (A) (A) (A) (A) (A) (A) (A) (A) (A)
                 (A) (A) (A) (A) (A) (A) (A) (A) (A) (A) (A) (A)
                 (A) (A) (A) (A) (A) (A) (A) (A) (A) (A) (A) (A)
                 (A) (A) (A) (A) (A) (A) (A) (A) (A) (A) (A) (A)
                 (A) (A) (A) (A) (A) (A) (A) (A) (A) (A) (A) (A)
                 (A) (A) (A) (A) (A) (A) (A) (A) (A) (A) (A) (A)
                 (A) (A) (A) (A) (A) (A) (A) (A) (A) (A) (A) (A)
                 (A) (A) (A) (A) (A) (A) (A) (A) (A) (A) (A) (A)
                 (A) (A) (A) (A) (A) (A) (A) (A) (A) (A) (A) (A)
                 (A) (A) (A) (A) (A) (A) (A) (A) (A) (A) (A) (A)
                 (A) (A) (A) (A) (A) (A) (A) (A) (A) (A) (A) (A)
                 (A) (A) (A) (A) (A) (A) (A) (A) (A) (A) (A) (A)
                 (A) (A) (A) (A) (A) (A) (A) (A) (A) (A) (A) (A)
                 (A) (A) (A) (A) (A) (A) (A) (A) (A) (A) (A) (A)
                 (A) (A) (A) (A) (A) (A) (A) (A) (A) (A) (A) (A)
                 (A) (A) (A) (A) (A) (A) (A) (A) (A) (A) (A) (A)
                 (A) (A) (A) (A) (A) (A) (A) (A) (A) (A) (A) (A)
                 (A) (A) (A) (A) (A) (A) (A) (A) (A) (A) (A) (A)
                 (A) (A) (A) (A) (A) (A) (A) (A) (A) (A) (A) (A)
                 (A) (A) (A) (A) (A) (A) (A) (A) (A) (A) (A) (A)
                 (A) (A) (A) (A) (A) (A) (A) (A) (A) (A) (A) (A)
                 (A) (A) (A) (A) (A) (A) (A) (A) (A) (A) (A) (A)
                 (A) (A) (A) (A) (A) (A) (A) (A) (A) (A) (A) (A)
                 (A) (A) (A) (A) (A) (A) (A) (A) (A) (A) (A) (A)
                 (A) (A) (A) (A) (A) (A) (A) (A) (A) (A) (A) (A)
                 (A) (A) (A) (A) (A) (A) (A) (A) (A) (A) (A) (A)
                 (A) (A) (A) (A) (A) (A) (A) (A) (A) (A) (A) (A)
                 (A) (A) (A) (A) (A) (A) (A) (A) (A) (A) (A) (A)
                 (A) (A) (A) (A) (A) (A) (A) (A) (A) (A) (A) (A)
                 (A) (A) (A) (A) (A) (A) (A) (A) (A) (A) (A) (A)
                 (A) (A) (A) (A) (A) (A) (A) (A) (A) (A) (A) (A)
                 (A) (A) (A) (A) (A) (A) (A) (A) (A) (A) (A) (A)
                 (A) (A) (A) (A) (A) (A) (A) (A) (A) (A) (A) (A)
                 (A) (A) (A) (A) (A) (A) (A) (A) (A) (A) (A) (A)
                 (A) (A) (A) (A) (A) (A) (A) (A) (A) (A) (A) (A)
                 (A) (A) (A) (A) (A) (A) (A) (A) (A) (A) (A) (A)
                 (A) (A) (A) (A) (A) (A) (A) (A) (A) (A) (A) (A)
                 (A) (A) (A) (A) (A) (A) (A) (A) (A) (A) (A) (A)
                 (A) (A) (A) (A) (A) (A) (A) (A) (A) (A) (A) (A)
                 (A) (A) (A) (A) (A) (A) (A) (A) (A) (A) (A) (A)
 The electronic state is 1-A.
 Alpha  occ. eigenvalues --  -19.21367 -14.38536 -14.38520 -14.35542 -14.35528
 Alpha  occ. eigenvalues --  -10.31830 -10.27348 -10.27317 -10.26026 -10.26026
 Alpha  occ. eigenvalues --  -10.25437 -10.25404 -10.25320 -10.25229 -10.25173
 Alpha  occ. eigenvalues --  -10.25134 -10.24395 -10.24380 -10.20571 -10.20569
 Alpha  occ. eigenvalues --  -10.20326 -10.20317  -1.09128  -0.97330  -0.97114
 Alpha  occ. eigenvalues --   -0.92279  -0.91792  -0.90678  -0.82106  -0.81885
 Alpha  occ. eigenvalues --   -0.78455  -0.78206  -0.73046  -0.72658  -0.71124
 Alpha  occ. eigenvalues --   -0.71119  -0.68908  -0.66502  -0.64224  -0.58159
 Alpha  occ. eigenvalues --   -0.57763  -0.56906  -0.56393  -0.54949  -0.52899
 Alpha  occ. eigenvalues --   -0.50888  -0.50581  -0.50278  -0.50159  -0.48861
 Alpha  occ. eigenvalues --   -0.48245  -0.47755  -0.47268  -0.46999  -0.45515
 Alpha  occ. eigenvalues --   -0.45194  -0.44816  -0.44395  -0.42562  -0.42558
 Alpha  occ. eigenvalues --   -0.41159  -0.39573  -0.39360  -0.39160  -0.39141
 Alpha  occ. eigenvalues --   -0.38785  -0.38426  -0.37683  -0.37284  -0.37209
 Alpha  occ. eigenvalues --   -0.36619  -0.35129  -0.34476  -0.33998  -0.32675
 Alpha  occ. eigenvalues --   -0.28721  -0.28210  -0.27765  -0.27641  -0.27245
 Alpha  occ. eigenvalues --   -0.25175  -0.24963
 Alpha virt. eigenvalues --   -0.07882  -0.06894  -0.03282   0.04018   0.04097
 Alpha virt. eigenvalues --    0.05086   0.05413   0.06146   0.06616   0.07448
 Alpha virt. eigenvalues --    0.08384   0.08523   0.09072   0.09343   0.09432
 Alpha virt. eigenvalues --    0.09776   0.09825   0.10771   0.11132   0.11474
 Alpha virt. eigenvalues --    0.11903   0.12047   0.12244   0.13211   0.13420
 Alpha virt. eigenvalues --    0.14818   0.14836   0.15288   0.15300   0.15710
 Alpha virt. eigenvalues --    0.16040   0.16244   0.16569   0.17037   0.17166
 Alpha virt. eigenvalues --    0.17422   0.17507   0.17809   0.19217   0.19296
 Alpha virt. eigenvalues --    0.19700   0.20068   0.20364   0.20501   0.21959
 Alpha virt. eigenvalues --    0.22211   0.22527   0.23074   0.23485   0.23883
 Alpha virt. eigenvalues --    0.23957   0.24716   0.25108   0.25600   0.26090
 Alpha virt. eigenvalues --    0.26946   0.27788   0.27972   0.28439   0.29031
 Alpha virt. eigenvalues --    0.29376   0.29492   0.29837   0.30301   0.30665
 Alpha virt. eigenvalues --    0.31387   0.32054   0.32150   0.32427   0.32635
 Alpha virt. eigenvalues --    0.33188   0.33439   0.33997   0.35068   0.35312
 Alpha virt. eigenvalues --    0.35398   0.35883   0.36359   0.36862   0.37469
 Alpha virt. eigenvalues --    0.37849   0.37989   0.38398   0.39332   0.39942
 Alpha virt. eigenvalues --    0.40467   0.40572   0.41051   0.41509   0.41872
 Alpha virt. eigenvalues --    0.42324   0.42635   0.42905   0.43200   0.43519
 Alpha virt. eigenvalues --    0.44102   0.44150   0.44516   0.44993   0.45305
 Alpha virt. eigenvalues --    0.45523   0.46493   0.46534   0.46976   0.47330
 Alpha virt. eigenvalues --    0.47493   0.47708   0.48058   0.48310   0.48751
 Alpha virt. eigenvalues --    0.48941   0.49271   0.49311   0.49641   0.49934
 Alpha virt. eigenvalues --    0.50174   0.50895   0.51200   0.52109   0.52649
 Alpha virt. eigenvalues --    0.52890   0.53197   0.53407   0.53475   0.53627
 Alpha virt. eigenvalues --    0.54460   0.55534   0.56166   0.56574   0.56799
 Alpha virt. eigenvalues --    0.56966   0.57849   0.58362   0.58948   0.59399
 Alpha virt. eigenvalues --    0.59758   0.60084   0.61035   0.61681   0.62286
 Alpha virt. eigenvalues --    0.62586   0.63277   0.64233   0.64755   0.65554
 Alpha virt. eigenvalues --    0.66488   0.67105   0.67650   0.68414   0.68988
 Alpha virt. eigenvalues --    0.69370   0.70713   0.71564   0.72451   0.72868
 Alpha virt. eigenvalues --    0.73041   0.73295   0.73784   0.73907   0.74049
 Alpha virt. eigenvalues --    0.74938   0.75665   0.75764   0.76859   0.77756
 Alpha virt. eigenvalues --    0.78002   0.78982   0.79521   0.79635   0.80635
 Alpha virt. eigenvalues --    0.81211   0.81506   0.82012   0.83085   0.83852
 Alpha virt. eigenvalues --    0.84322   0.85116   0.85320   0.85541   0.86548
 Alpha virt. eigenvalues --    0.87062   0.87971   0.89058   0.89886   0.90222
 Alpha virt. eigenvalues --    0.90675   0.91773   0.92413   0.92750   0.93799
 Alpha virt. eigenvalues --    0.94821   0.95494   0.96262   0.97333   0.97912
 Alpha virt. eigenvalues --    0.98057   0.98461   0.99809   1.00853   1.02593
 Alpha virt. eigenvalues --    1.02870   1.03417   1.03505   1.03868   1.04429
 Alpha virt. eigenvalues --    1.04998   1.05971   1.06404   1.07435   1.07518
 Alpha virt. eigenvalues --    1.09232   1.09835   1.10940   1.11569   1.12809
 Alpha virt. eigenvalues --    1.14537   1.15329   1.17761   1.18130   1.18464
 Alpha virt. eigenvalues --    1.18932   1.19572   1.20847   1.21644   1.22889
 Alpha virt. eigenvalues --    1.22950   1.23303   1.24775   1.24978   1.25236
 Alpha virt. eigenvalues --    1.26074   1.26613   1.27542   1.28195   1.30014
 Alpha virt. eigenvalues --    1.30207   1.30384   1.31883   1.32456   1.33609
 Alpha virt. eigenvalues --    1.33867   1.35636   1.35715   1.36935   1.37326
 Alpha virt. eigenvalues --    1.38179   1.39078   1.39676   1.41131   1.42058
 Alpha virt. eigenvalues --    1.42978   1.43538   1.43742   1.44800   1.45279
 Alpha virt. eigenvalues --    1.45685   1.45857   1.46418   1.47505   1.48121
 Alpha virt. eigenvalues --    1.48644   1.49688   1.50550   1.50883   1.51328
 Alpha virt. eigenvalues --    1.52248   1.52572   1.53202   1.53867   1.54677
 Alpha virt. eigenvalues --    1.54825   1.55112   1.56063   1.56751   1.57607
 Alpha virt. eigenvalues --    1.58636   1.59165   1.59314   1.60121   1.60378
 Alpha virt. eigenvalues --    1.60774   1.61931   1.62706   1.63047   1.63370
 Alpha virt. eigenvalues --    1.63814   1.63846   1.64058   1.64759   1.65188
 Alpha virt. eigenvalues --    1.65823   1.65879   1.66705   1.67379   1.67503
 Alpha virt. eigenvalues --    1.67934   1.68331   1.68576   1.69441   1.69747
 Alpha virt. eigenvalues --    1.71172   1.72712   1.72957   1.73716   1.73745
 Alpha virt. eigenvalues --    1.75200   1.75778   1.75989   1.77616   1.78665
 Alpha virt. eigenvalues --    1.80157   1.81106   1.83176   1.84368   1.85199
 Alpha virt. eigenvalues --    1.85795   1.86584   1.86974   1.87496   1.89126
 Alpha virt. eigenvalues --    1.89451   1.92218   1.92728   1.94284   1.94562
 Alpha virt. eigenvalues --    1.94913   1.96587   1.96685   1.97746   1.98112
 Alpha virt. eigenvalues --    1.98217   1.98990   1.99706   2.01313   2.01560
 Alpha virt. eigenvalues --    2.02431   2.02809   2.03855   2.04281   2.04581
 Alpha virt. eigenvalues --    2.05473   2.05667   2.06188   2.06358   2.08425
 Alpha virt. eigenvalues --    2.09221   2.10079   2.10449   2.11937   2.13172
 Alpha virt. eigenvalues --    2.14497   2.14972   2.15552   2.15911   2.16277
 Alpha virt. eigenvalues --    2.16557   2.16936   2.18333   2.18880   2.19032
 Alpha virt. eigenvalues --    2.20328   2.20610   2.21370   2.21488   2.22670
 Alpha virt. eigenvalues --    2.23452   2.26871   2.27398   2.28799   2.29620
 Alpha virt. eigenvalues --    2.30453   2.30705   2.31849   2.31909   2.32387
 Alpha virt. eigenvalues --    2.32793   2.34110   2.35592   2.35800   2.36460
 Alpha virt. eigenvalues --    2.37226   2.38658   2.39704   2.39866   2.40167
 Alpha virt. eigenvalues --    2.41047   2.41638   2.42393   2.43093   2.43690
 Alpha virt. eigenvalues --    2.43917   2.44570   2.46187   2.47052   2.47587
 Alpha virt. eigenvalues --    2.47964   2.49033   2.50005   2.50801   2.51437
 Alpha virt. eigenvalues --    2.51855   2.53093   2.53280   2.54612   2.54972
 Alpha virt. eigenvalues --    2.55779   2.56036   2.56736   2.58791   2.59290
 Alpha virt. eigenvalues --    2.59608   2.60082   2.60555   2.61591   2.61683
 Alpha virt. eigenvalues --    2.62267   2.62551   2.63332   2.63608   2.63649
 Alpha virt. eigenvalues --    2.64856   2.65703   2.66131   2.66543   2.67564
 Alpha virt. eigenvalues --    2.67672   2.68372   2.68812   2.69224   2.69566
 Alpha virt. eigenvalues --    2.70437   2.70829   2.72075   2.72183   2.72856
 Alpha virt. eigenvalues --    2.73707   2.74145   2.74379   2.74657   2.75272
 Alpha virt. eigenvalues --    2.75680   2.76146   2.76511   2.77084   2.78785
 Alpha virt. eigenvalues --    2.79091   2.80215   2.80538   2.81872   2.82330
 Alpha virt. eigenvalues --    2.82852   2.83688   2.84125   2.85677   2.86755
 Alpha virt. eigenvalues --    2.87610   2.88348   2.89407   2.89907   2.90270
 Alpha virt. eigenvalues --    2.90374   2.91825   2.92698   2.92962   2.94052
 Alpha virt. eigenvalues --    2.94738   2.95262   2.95575   2.96790   2.97854
 Alpha virt. eigenvalues --    2.98422   2.98895   2.99945   3.01756   3.02623
 Alpha virt. eigenvalues --    3.04575   3.05727   3.06158   3.07438   3.07733
 Alpha virt. eigenvalues --    3.08186   3.08450   3.08752   3.08916   3.09490
 Alpha virt. eigenvalues --    3.12350   3.12484   3.13226   3.13979   3.14690
 Alpha virt. eigenvalues --    3.14890   3.15242   3.15626   3.16185   3.16663
 Alpha virt. eigenvalues --    3.17398   3.18131   3.18761   3.19611   3.20010
 Alpha virt. eigenvalues --    3.20289   3.20618   3.21223   3.21643   3.23095
 Alpha virt. eigenvalues --    3.23278   3.23957   3.24266   3.25096   3.25719
 Alpha virt. eigenvalues --    3.26478   3.27093   3.28224   3.28849   3.29672
 Alpha virt. eigenvalues --    3.30296   3.30815   3.31726   3.32901   3.33407
 Alpha virt. eigenvalues --    3.33495   3.33708   3.34328   3.34862   3.35560
 Alpha virt. eigenvalues --    3.36283   3.37009   3.37835   3.38251   3.38556
 Alpha virt. eigenvalues --    3.39503   3.39711   3.40069   3.41313   3.41494
 Alpha virt. eigenvalues --    3.41655   3.41952   3.42579   3.43026   3.43096
 Alpha virt. eigenvalues --    3.43549   3.44311   3.45112   3.46711   3.47363
 Alpha virt. eigenvalues --    3.48202   3.48542   3.50762   3.52090   3.52337
 Alpha virt. eigenvalues --    3.53092   3.53256   3.53748   3.54906   3.55897
 Alpha virt. eigenvalues --    3.56618   3.57711   3.59850   3.60794   3.61042
 Alpha virt. eigenvalues --    3.61658   3.62038   3.62370   3.64392   3.65052
 Alpha virt. eigenvalues --    3.67461   3.67694   3.68442   3.68625   3.69127
 Alpha virt. eigenvalues --    3.69986   3.71741   3.72871   3.73679   3.73911
 Alpha virt. eigenvalues --    3.75396   3.75686   3.77817   3.78774   3.79404
 Alpha virt. eigenvalues --    3.81150   3.81885   3.82978   3.84107   3.84824
 Alpha virt. eigenvalues --    3.86368   3.87838   3.88122   3.89140   3.90220
 Alpha virt. eigenvalues --    3.92551   3.94988   3.95345   3.96391   3.97152
 Alpha virt. eigenvalues --    3.99635   4.00057   4.01249   4.03099   4.04431
 Alpha virt. eigenvalues --    4.05077   4.05518   4.07103   4.08180   4.09050
 Alpha virt. eigenvalues --    4.09794   4.11196   4.12373   4.12811   4.13093
 Alpha virt. eigenvalues --    4.14186   4.14369   4.14635   4.15313   4.16421
 Alpha virt. eigenvalues --    4.17571   4.19137   4.20684   4.20818   4.21662
 Alpha virt. eigenvalues --    4.22178   4.23567   4.23713   4.25013   4.25937
 Alpha virt. eigenvalues --    4.26756   4.27187   4.29259   4.30893   4.31313
 Alpha virt. eigenvalues --    4.33094   4.35165   4.35667   4.36007   4.36644
 Alpha virt. eigenvalues --    4.39411   4.41036   4.42081   4.42651   4.44876
 Alpha virt. eigenvalues --    4.46962   4.46987   4.48066   4.48261   4.50864
 Alpha virt. eigenvalues --    4.51882   4.53752   4.55662   4.56461   4.57655
 Alpha virt. eigenvalues --    4.58211   4.59878   4.60589   4.62192   4.62608
 Alpha virt. eigenvalues --    4.64945   4.67238   4.67400   4.70350   4.72914
 Alpha virt. eigenvalues --    4.75985   4.76387   4.77333   4.78503   4.81989
 Alpha virt. eigenvalues --    4.82764   4.83049   4.85401   4.88112   4.88144
 Alpha virt. eigenvalues --    4.89339   4.90892   4.91148   4.91949   4.92526
 Alpha virt. eigenvalues --    4.93808   4.94844   4.95153   4.98097   4.98263
 Alpha virt. eigenvalues --    5.02711   5.02871   5.05831   5.08018   5.09190
 Alpha virt. eigenvalues --    5.09696   5.13630   5.15889   5.18578   5.18741
 Alpha virt. eigenvalues --    5.22580   5.23691   5.24030   5.24696   5.28198
 Alpha virt. eigenvalues --    5.28636   5.30022   5.32274   5.33004   5.34055
 Alpha virt. eigenvalues --    5.35586   5.36551   5.37187   5.38244   5.39010
 Alpha virt. eigenvalues --    5.40504   5.41534   5.44871   5.49783   5.51126
 Alpha virt. eigenvalues --    5.55188   5.57561   5.61731   5.61975   5.63412
 Alpha virt. eigenvalues --    5.69165   5.70424   5.72335   5.76239   5.80116
 Alpha virt. eigenvalues --    5.91365   5.92094   5.94494   5.96694   5.99373
 Alpha virt. eigenvalues --    6.06807   6.11147   6.35481   6.41327   6.50624
 Alpha virt. eigenvalues --    6.54952   6.80183   7.01548   7.08942  22.39739
 Alpha virt. eigenvalues --   22.51568  22.51594  22.53671  22.53838  22.69673
 Alpha virt. eigenvalues --   22.70302  22.80068  22.80226  22.85168  22.87236
 Alpha virt. eigenvalues --   22.98319  23.11690  23.12588  23.13493  23.14903
 Alpha virt. eigenvalues --   23.48989  32.22099  32.22150  32.71930  32.77469
 Alpha virt. eigenvalues --   43.96236
          Condensed to atoms (all electrons):
               1          2          3          4          5          6
     1  C    6.201177   0.008138   0.073971   0.298894  -0.100216  -0.225369
     2  C    0.008138   4.763900  -0.039969  -0.002754  -0.005131   0.020011
     3  C    0.073971  -0.039969   5.955161  -0.253513   0.485608   0.161945
     4  C    0.298894  -0.002754  -0.253513   5.727861  -0.109623   0.057732
     5  H   -0.100216  -0.005131   0.485608  -0.109623   0.520070   0.016183
     6  C   -0.225369   0.020011   0.161945   0.057732   0.016183   6.014130
     7  C    0.225042  -0.007312  -0.264057   0.297176  -0.008458  -0.213341
     8  H   -0.007876   0.000236   0.031161  -0.101988   0.000315   0.497642
     9  C   -0.192323   0.015131   0.146341  -0.235290   0.028966   0.088046
    10  C    0.019852  -0.005349   0.004290   0.012291   0.000192  -0.095944
    11  H   -0.114388   0.000831   0.017784  -0.009723   0.000228   0.029001
    12  C    0.013862  -0.002586  -0.095808   0.272924  -0.014043  -0.094362
    13  O   -0.209994   0.686674   0.005846  -0.002648  -0.000110   0.001733
    14  C   -0.000268  -0.000030  -0.004262   0.017483  -0.001167  -0.000294
    15  C    0.000193   0.000012  -0.001137  -0.000023  -0.001937   0.000207
    16  N   -0.005137  -0.000655   0.042439  -0.176002   0.033454   0.001805
    17  N   -0.000174  -0.000011  -0.000115  -0.000311   0.002679  -0.000059
    18  C   -0.000003   0.000001  -0.000025   0.000225  -0.000000  -0.001162
    19  C    0.000034  -0.000007   0.000041  -0.000353   0.000000  -0.003840
    20  N   -0.000002   0.000000   0.000012  -0.000199   0.000000  -0.000217
    21  N   -0.001148   0.000029   0.001200  -0.006875   0.000004   0.040367
    22  H   -0.232427   0.497689  -0.000719  -0.003695   0.007249   0.002387
    23  H   -0.000001   0.000000   0.000002  -0.000012   0.000000  -0.000055
    24  H   -0.000005   0.000000   0.000018  -0.000223   0.000000   0.000351
    25  H   -0.000011  -0.000003  -0.000041  -0.000321   0.000473   0.000001
    26  H   -0.000191  -0.000001   0.000361  -0.000903   0.002013   0.000016
    27  H   -0.003437  -0.000074   0.041878  -0.134389   0.002821  -0.001163
    28  H    0.000072  -0.000157   0.001565  -0.003740   0.000002   0.043716
    29  C    0.000105   0.000004  -0.001474   0.003767  -0.000575  -0.000241
    30  C   -0.000000   0.000000   0.000000  -0.000002   0.000000   0.000050
    31  H    0.000000  -0.000000  -0.000002   0.000008  -0.000000  -0.000007
    32  H   -0.000048   0.000001   0.000040  -0.000185   0.000000   0.002941
    33  H    0.000000  -0.000000  -0.000000   0.000000  -0.000000   0.000000
    34  H    0.000000  -0.000000  -0.000000   0.000000  -0.000000  -0.000001
    35  H   -0.000000   0.000000   0.000000  -0.000000  -0.000000  -0.000001
    36  H    0.000002  -0.000000   0.000033   0.000637   0.000050   0.000021
    37  H   -0.000165  -0.000003   0.002995  -0.002664   0.000746  -0.000325
    38  H    0.000009   0.000000  -0.000029  -0.000477  -0.000027   0.000053
    39  H    0.000004   0.000000  -0.000035  -0.000059  -0.000036   0.000013
    40  H   -0.000157  -0.000006   0.001771  -0.002291   0.000395  -0.000327
    41  C   -0.000002  -0.000000   0.000051  -0.000139   0.000035  -0.000004
    42  H   -0.000000  -0.000000  -0.000001   0.000007   0.000003   0.000000
    43  H    0.000000   0.000000   0.000000  -0.000006  -0.000003   0.000000
    44  H    0.000000   0.000000  -0.000001  -0.000025  -0.000004   0.000000
    45  C    0.000041  -0.000000  -0.000034   0.000117  -0.000000  -0.001397
    46  H   -0.000032   0.000000   0.000040  -0.000186   0.000000   0.001707
    47  H   -0.000000  -0.000000  -0.000001   0.000010  -0.000000  -0.000021
    48  H   -0.000000  -0.000000  -0.000001   0.000005  -0.000000  -0.000032
               7          8          9         10         11         12
     1  C    0.225042  -0.007876  -0.192323   0.019852  -0.114388   0.013862
     2  C   -0.007312   0.000236   0.015131  -0.005349   0.000831  -0.002586
     3  C   -0.264057   0.031161   0.146341   0.004290   0.017784  -0.095808
     4  C    0.297176  -0.101988  -0.235290   0.012291  -0.009723   0.272924
     5  H   -0.008458   0.000315   0.028966   0.000192   0.000228  -0.014043
     6  C   -0.213341   0.497642   0.088046  -0.095944   0.029001  -0.094362
     7  C    5.626964  -0.119642   0.207222   0.245506  -0.078114   0.033713
     8  H   -0.119642   0.526049   0.014635  -0.011963   0.000257  -0.011315
     9  C    0.207222   0.014635   5.743735  -0.057457   0.469374   0.002287
    10  C    0.245506  -0.011963  -0.057457   5.047859  -0.009297  -0.003547
    11  H   -0.078114   0.000257   0.469374  -0.009297   0.515668   0.000058
    12  C    0.033713  -0.011315   0.002287  -0.003547   0.000058   5.047270
    13  O   -0.001319   0.000004   0.044365  -0.000907   0.027738  -0.000014
    14  C    0.000192  -0.000110   0.000015  -0.000004  -0.000000  -0.069003
    15  C   -0.000017   0.000016  -0.000029  -0.000000   0.000000  -0.004843
    16  N   -0.001171  -0.000178   0.001315   0.000028   0.000002   0.656268
    17  N   -0.000002   0.000002   0.000013   0.000000   0.000000   0.004499
    18  C    0.000270  -0.002026   0.000111  -0.004851   0.000010   0.000013
    19  C    0.017122  -0.001071   0.000011  -0.070240  -0.000050  -0.000017
    20  N   -0.000330   0.002712  -0.000045   0.004528   0.000001  -0.000015
    21  N   -0.173302   0.035552   0.003748   0.653217  -0.000125  -0.000735
    22  H   -0.003621   0.000005   0.044875  -0.000175   0.002997  -0.000283
    23  H   -0.000325   0.000487   0.000002   0.000764   0.000000  -0.000004
    24  H   -0.000890   0.002009   0.000017   0.000659   0.000001  -0.000003
    25  H   -0.000001   0.000000   0.000002   0.000000   0.000000   0.000760
    26  H   -0.000007   0.000002   0.000023   0.000000   0.000000   0.000653
    27  H    0.001166   0.006812   0.001787  -0.000111   0.000003   0.425731
    28  H   -0.134426   0.002990   0.000619   0.423137   0.007881  -0.000078
[...]
    13  O   -0.000000  -0.000000  -0.000000  -0.000066   0.000000   0.000000
    14  C    0.001485   0.000052  -0.013354   0.000000  -0.061659  -0.000000
    15  C   -0.044014  -0.043708  -0.000926   0.000000   0.346233   0.000000
    16  N    0.001013   0.007279  -0.063293   0.000000  -0.006622   0.000000
    17  N    0.367140   0.379174   0.000165  -0.000000  -0.068138  -0.000000
    18  C    0.000000   0.000000   0.000004  -0.001011   0.000000   0.339039
    19  C   -0.000000  -0.000000  -0.000001  -0.013149   0.000000  -0.066075
    20  N    0.000000  -0.000000  -0.000006   0.000170  -0.000000  -0.044987
    21  N   -0.000000   0.000000  -0.000116  -0.062999  -0.000000   0.010235
    22  H   -0.000001   0.000010  -0.000004  -0.000006   0.000000   0.000000
    23  H   -0.000000   0.000000  -0.000002   0.000046  -0.000000  -0.012998
    24  H   -0.000000  -0.000000   0.000003   0.000191  -0.000000   0.009584
    25  H    0.481220  -0.032752   0.000046  -0.000000   0.010517   0.000000
    26  H   -0.032752   0.458563   0.000185  -0.000000  -0.011339   0.000000
    27  H    0.000046   0.000185   0.625419  -0.000007  -0.004731  -0.000000
    28  H   -0.000000  -0.000000  -0.000007   0.622952   0.000000   0.000363
    29  C    0.010517  -0.011339  -0.004731   0.000000   5.044321  -0.000000
    30  C    0.000000   0.000000  -0.000000   0.000363  -0.000000   4.975298
    31  H    0.000000   0.000000   0.000000  -0.000347  -0.000000  -0.005610
    32  H   -0.000000   0.000000  -0.000001   0.023989  -0.000000   0.007226
    33  H    0.000000  -0.000000   0.000000   0.000009   0.000000   0.412847
    34  H   -0.000000  -0.000000   0.000000   0.000007   0.000000   0.408770
    35  H   -0.000000   0.000000  -0.000000  -0.000008  -0.000000   0.394948
    36  H    0.003478  -0.000795  -0.000339  -0.000000   0.012391  -0.000000
    37  H    0.000711   0.000474   0.024135   0.000000  -0.018832   0.000000
    38  H   -0.000720   0.000173   0.000871   0.000000   0.403527   0.000000
    39  H   -0.000556  -0.000852   0.000019   0.000000   0.400171   0.000000
    40  H   -0.000221   0.004068   0.001240  -0.000000   0.398283   0.000000
    41  C   -0.012924   0.009599   0.000373   0.000000  -0.055684  -0.000000
    42  H    0.004594  -0.000332  -0.000008  -0.000000   0.013453   0.000000
    43  H   -0.001284  -0.000252   0.000009  -0.000000  -0.009767   0.000000
    44  H   -0.000060  -0.000607   0.000007   0.000000  -0.011020   0.000000
    45  C   -0.000000  -0.000000   0.000000  -0.004739   0.000000  -0.055668
    46  H    0.000000   0.000000  -0.000001   0.001253  -0.000000   0.011932
    47  H    0.000000  -0.000000   0.000000   0.000875   0.000000  -0.008475
    48  H    0.000000  -0.000000   0.000000   0.000021   0.000000  -0.006495
              31         32         33         34         35         36
     1  C    0.000000  -0.000048   0.000000   0.000000  -0.000000   0.000002
     2  C   -0.000000   0.000001  -0.000000  -0.000000   0.000000  -0.000000
     3  C   -0.000002   0.000040  -0.000000  -0.000000   0.000000   0.000033
     4  C    0.000008  -0.000185   0.000000   0.000000  -0.000000   0.000637
     5  H   -0.000000   0.000000  -0.000000  -0.000000  -0.000000   0.000050
     6  C   -0.000007   0.002941   0.000000  -0.000001  -0.000001   0.000021
     7  C    0.000519  -0.002865  -0.000006  -0.000023   0.000006  -0.000001
     8  H    0.000034   0.000774  -0.000003  -0.000004   0.000003   0.000002
     9  C    0.000027  -0.000224   0.000000   0.000000   0.000000  -0.000001
    10  C   -0.001909   0.000739  -0.000049  -0.000131   0.000016   0.000000
    11  H   -0.000000   0.000163   0.000000  -0.000000   0.000000  -0.000000
    12  C    0.000000  -0.000005   0.000000   0.000000  -0.000000  -0.002155
    13  O   -0.000000   0.000000  -0.000000   0.000000  -0.000000  -0.000000
    14  C    0.000000  -0.000000   0.000000   0.000000   0.000000   0.393024
    15  C   -0.000000   0.000000  -0.000000  -0.000000   0.000000  -0.031126
    16  N    0.000000   0.000000  -0.000000   0.000000   0.000000  -0.032114
    17  N    0.000000  -0.000000   0.000000  -0.000000  -0.000000  -0.006572
    18  C   -0.031027  -0.050208  -0.044607  -0.035667  -0.018430   0.000000
    19  C    0.392758   0.396145   0.013689  -0.001965  -0.016742   0.000000
    20  N   -0.006578   0.012785   0.004994   0.008230  -0.006998   0.000000
    21  N   -0.032298  -0.058437  -0.000421   0.000064   0.000332  -0.000000
    22  H   -0.000000   0.000000  -0.000000   0.000000  -0.000000  -0.000000
    23  H    0.003490   0.000709  -0.001277  -0.000062   0.004619  -0.000000
    24  H   -0.000786   0.000480  -0.000254  -0.000609  -0.000329  -0.000000
    25  H    0.000000  -0.000000   0.000000  -0.000000  -0.000000   0.003478
    26  H    0.000000   0.000000  -0.000000  -0.000000   0.000000  -0.000795
    27  H    0.000000  -0.000001   0.000000   0.000000  -0.000000  -0.000339
    28  H   -0.000347   0.023989   0.000009   0.000007  -0.000008  -0.000000
    29  C   -0.000000  -0.000000   0.000000   0.000000  -0.000000   0.012391
    30  C   -0.005610   0.007226   0.412847   0.408770   0.394948  -0.000000
    31  H    0.567688  -0.026964  -0.000527  -0.000972   0.007331  -0.000000
    32  H   -0.026964   0.624207  -0.000613   0.001526  -0.000350  -0.000000
    33  H   -0.000527  -0.000613   0.530404  -0.018148  -0.022416   0.000000
    34  H   -0.000972   0.001526  -0.018148   0.546448  -0.022767  -0.000000
    35  H    0.007331  -0.000350  -0.022416  -0.022767   0.544744  -0.000000
    36  H   -0.000000  -0.000000   0.000000  -0.000000  -0.000000   0.567080
    37  H    0.000000   0.000000  -0.000000  -0.000000   0.000000  -0.026985
    38  H    0.000000   0.000000  -0.000000  -0.000000   0.000000  -0.000194
    39  H   -0.000000   0.000000  -0.000000  -0.000000   0.000000  -0.000436
    40  H    0.000000   0.000000  -0.000000  -0.000000   0.000000  -0.000277
    41  C   -0.000000   0.000000   0.000000   0.000000  -0.000000  -0.005655
    42  H    0.000000  -0.000000   0.000000  -0.000000  -0.000000   0.007317
    43  H    0.000000  -0.000000  -0.000000   0.000000   0.000000  -0.000527
    44  H   -0.000000   0.000000  -0.000000   0.000000   0.000000  -0.000963
    45  C    0.012367  -0.018697  -0.009812  -0.011011   0.013461  -0.000000
    46  H   -0.000279   0.002210  -0.000160  -0.000106  -0.000508  -0.000000
    47  H   -0.000194   0.000939   0.000737   0.004029  -0.000179   0.000000
    48  H   -0.000439  -0.000474   0.004931   0.000733  -0.000304   0.000000
              37         38         39         40         41         42
     1  C   -0.000165   0.000009   0.000004  -0.000157  -0.000002  -0.000000
     2  C   -0.000003   0.000000   0.000000  -0.000006  -0.000000  -0.000000
     3  C    0.002995  -0.000029  -0.000035   0.001771   0.000051  -0.000001
     4  C   -0.002664  -0.000477  -0.000059  -0.002291  -0.000139   0.000007
     5  H    0.000746  -0.000027  -0.000036   0.000395   0.000035   0.000003
     6  C   -0.000325   0.000053   0.000013  -0.000327  -0.000004   0.000000
     7  C   -0.000054   0.000000  -0.000000  -0.000047  -0.000000  -0.000000
     8  H    0.000180   0.000001   0.000000   0.000029   0.000001   0.000000
     9  C    0.000044  -0.000002  -0.000001   0.000043   0.000000   0.000000
    10  C    0.000001  -0.000000  -0.000000  -0.000000   0.000000   0.000000
    11  H    0.000000  -0.000000  -0.000000   0.000000   0.000000  -0.000000
    12  C    0.000884  -0.000269  -0.000420   0.001763   0.000190   0.000019
    13  O   -0.000000  -0.000000   0.000000  -0.000000  -0.000000   0.000000
    14  C    0.394751   0.001869   0.012704  -0.013256  -0.066183  -0.016726
    15  C   -0.049755  -0.039629  -0.037287  -0.025578   0.339106  -0.018447
    16  N   -0.058599  -0.000299   0.000015   0.002373   0.010184   0.000333
    17  N    0.012781   0.008227   0.005354  -0.003601  -0.045261  -0.006985
    18  C    0.000000  -0.000000  -0.000000   0.000000   0.000000   0.000000
    19  C   -0.000000  -0.000000   0.000000  -0.000000   0.000000   0.000000
    20  N    0.000000  -0.000000  -0.000000   0.000000   0.000000   0.000000
    21  N    0.000000   0.000000   0.000000   0.000000   0.000000  -0.000000
    22  H   -0.000000   0.000000   0.000000  -0.000000  -0.000000  -0.000000
    23  H    0.000000  -0.000000   0.000000   0.000000   0.000000  -0.000000
    24  H    0.000000   0.000000   0.000000   0.000000  -0.000000  -0.000000
    25  H    0.000711  -0.000720  -0.000556  -0.000221  -0.012924   0.004594
    26  H    0.000474   0.000173  -0.000852   0.004068   0.009599  -0.000332
    27  H    0.024135   0.000871   0.000019   0.001240   0.000373  -0.000008
    28  H    0.000000   0.000000   0.000000  -0.000000   0.000000  -0.000000
    29  C   -0.018832   0.403527   0.400171   0.398283  -0.055684   0.013453
    30  C    0.000000   0.000000   0.000000   0.000000  -0.000000   0.000000
    31  H    0.000000   0.000000  -0.000000   0.000000  -0.000000   0.000000
    32  H    0.000000   0.000000   0.000000   0.000000   0.000000  -0.000000
    33  H   -0.000000  -0.000000  -0.000000  -0.000000   0.000000   0.000000
    34  H   -0.000000  -0.000000  -0.000000  -0.000000   0.000000  -0.000000
    35  H    0.000000   0.000000   0.000000   0.000000  -0.000000  -0.000000
    36  H   -0.026985  -0.000194  -0.000436  -0.000277  -0.005655   0.007317
    37  H    0.625722   0.000943  -0.000479   0.002218   0.007370  -0.000357
    38  H    0.000943   0.551515  -0.017209  -0.022370  -0.008483  -0.000177
    39  H   -0.000479  -0.017209   0.531935  -0.020786  -0.006478  -0.000303
    40  H    0.002218  -0.022370  -0.020786   0.534431   0.011939  -0.000507
    41  C    0.007370  -0.008483  -0.006478   0.011939   4.975516   0.395066
    42  H   -0.000357  -0.000177  -0.000303  -0.000507   0.395066   0.544555
    43  H   -0.000618   0.000741   0.004917  -0.000164   0.412857  -0.022367
    44  H    0.001498   0.004025   0.000737  -0.000109   0.408539  -0.022796
    45  C   -0.000000  -0.000000   0.000000  -0.000000  -0.000000   0.000000
    46  H    0.000000  -0.000000   0.000000   0.000000  -0.000000  -0.000000
    47  H   -0.000000  -0.000000  -0.000000  -0.000000   0.000000   0.000000
    48  H   -0.000000  -0.000000  -0.000000  -0.000000   0.000000   0.000000
              43         44         45         46         47         48
     1  C    0.000000   0.000000   0.000041  -0.000032  -0.000000  -0.000000
     2  C    0.000000   0.000000  -0.000000   0.000000  -0.000000  -0.000000
     3  C    0.000000  -0.000001  -0.000034   0.000040  -0.000001  -0.000001
     4  C   -0.000006  -0.000025   0.000117  -0.000186   0.000010   0.000005
     5  H   -0.000003  -0.000004  -0.000000   0.000000  -0.000000  -0.000000
     6  C    0.000000   0.000000  -0.001397   0.001707  -0.000021  -0.000032
     7  C    0.000000   0.000000   0.003829  -0.002247  -0.000456  -0.000053
     8  H   -0.000000  -0.000000  -0.000572   0.000411  -0.000027  -0.000036
     9  C   -0.000000  -0.000000  -0.000289  -0.000259   0.000052   0.000011
    10  C   -0.000000  -0.000000   0.002071   0.001766  -0.000276  -0.000433
    11  H   -0.000000  -0.000000  -0.000044   0.000021   0.000002   0.000000
    12  C   -0.000051  -0.000139   0.000006  -0.000012   0.000000   0.000000
    13  O   -0.000000   0.000000   0.000000   0.000000  -0.000000   0.000000
    14  C    0.013709  -0.001921   0.000000  -0.000000   0.000000   0.000000
    15  C   -0.044649  -0.035677  -0.000000   0.000000  -0.000000  -0.000000
    16  N   -0.000421   0.000061  -0.000000  -0.000000   0.000000  -0.000000
    17  N    0.005068   0.008251  -0.000000   0.000000   0.000000   0.000000
    18  C   -0.000000  -0.000000   0.346618  -0.025540  -0.039508  -0.037212
    19  C   -0.000000  -0.000000  -0.061855  -0.013177   0.001750   0.012702
    20  N   -0.000000  -0.000000  -0.068178  -0.003597   0.008215   0.005353
    21  N   -0.000000   0.000000  -0.006591   0.002246  -0.000296   0.000006
    22  H    0.000000   0.000000   0.000000  -0.000000  -0.000000   0.000000
    23  H   -0.000000   0.000000   0.010541  -0.000224  -0.000719  -0.000559
    24  H    0.000000   0.000000  -0.011209   0.004051   0.000166  -0.000854
    25  H   -0.001284  -0.000060  -0.000000   0.000000   0.000000   0.000000
    26  H   -0.000252  -0.000607  -0.000000   0.000000  -0.000000  -0.000000
    27  H    0.000009   0.000007   0.000000  -0.000001   0.000000   0.000000
    28  H   -0.000000   0.000000  -0.004739   0.001253   0.000875   0.000021
    29  C   -0.009767  -0.011020   0.000000  -0.000000   0.000000   0.000000
    30  C    0.000000   0.000000  -0.055668   0.011932  -0.008475  -0.006495
    31  H    0.000000  -0.000000   0.012367  -0.000279  -0.000194  -0.000439
    32  H   -0.000000   0.000000  -0.018697   0.002210   0.000939  -0.000474
    33  H   -0.000000  -0.000000  -0.009812  -0.000160   0.000737   0.004931
    34  H    0.000000   0.000000  -0.011011  -0.000106   0.004029   0.000733
    35  H    0.000000   0.000000   0.013461  -0.000508  -0.000179  -0.000304
    36  H   -0.000527  -0.000963  -0.000000  -0.000000   0.000000   0.000000
    37  H   -0.000618   0.001498  -0.000000   0.000000  -0.000000  -0.000000
    38  H    0.000741   0.004025  -0.000000  -0.000000  -0.000000  -0.000000
    39  H    0.004917   0.000737   0.000000   0.000000  -0.000000  -0.000000
    40  H   -0.000164  -0.000109  -0.000000   0.000000  -0.000000  -0.000000
    41  C    0.412857   0.408539  -0.000000  -0.000000   0.000000   0.000000
    42  H   -0.022367  -0.022796   0.000000  -0.000000   0.000000   0.000000
    43  H    0.530060  -0.018128   0.000000   0.000000  -0.000000  -0.000000
    44  H   -0.018128   0.547003   0.000000  -0.000000  -0.000000   0.000000
    45  C    0.000000   0.000000   5.043479   0.398271   0.403644   0.399947
    46  H    0.000000  -0.000000   0.398271   0.534324  -0.022231  -0.020832
    47  H   -0.000000  -0.000000   0.403644  -0.022231   0.550973  -0.017245
    48  H   -0.000000   0.000000   0.399947  -0.020832  -0.017245   0.532472
 Mulliken charges:
               1
     1  C    0.251976
     2  C    0.071391
     3  C   -0.313330
     4  C    0.359484
     5  H    0.139842
     6  C   -0.341894
     7  C    0.353451
     8  H    0.134502
     9  C   -0.326861
    10  C   -0.154442
    11  H    0.139722
    12  C   -0.163298
    13  O   -0.318371
    14  C   -0.134274
    15  C    0.151676
    16  N   -0.187663
    17  N   -0.540190
    18  C    0.151438
    19  C   -0.136192
    20  N   -0.540098
    21  N   -0.188081
    22  H    0.096045
    23  H    0.221227
    24  H    0.228818
    25  H    0.221468
    26  H    0.229097
    27  H    0.089291
    28  H    0.090875
    29  C   -0.384754
    30  C   -0.370048
    31  H    0.123720
    32  H    0.084198
    33  H    0.130683
    34  H    0.121659
    35  H    0.123572
    36  H    0.124104
    37  H    0.083384
    38  H    0.117930
    39  H    0.129067
    40  H    0.131143
    41  C   -0.370013
    42  H    0.123661
    43  H    0.130874
    44  H    0.121328
    45  C   -0.384297
    46  H    0.131158
    47  H    0.118237
    48  H    0.128786
 Sum of Mulliken charges =  -0.00000
 Mulliken charges with hydrogens summed into heavy atoms:
               1
     1  C    0.251976
     2  C    0.167436
     3  C   -0.173488
     4  C    0.359484
     6  C   -0.207392
     7  C    0.353451
     9  C   -0.187139
    10  C   -0.063567
    12  C   -0.074008
    13  O   -0.318371
    14  C    0.073214
    15  C    0.151676
    16  N   -0.187663
    17  N   -0.089625
    18  C    0.151438
    19  C    0.071726
    20  N   -0.090053
    21  N   -0.188081
    29  C   -0.006614
    30  C    0.005866
    41  C    0.005850
    45  C   -0.006116
 Electronic spatial extent (au):  <R**2>=          11929.3290
 Charge=             -0.0000 electrons
 Dipole moment (field-independent basis, Debye):
    X=              0.6011    Y=             -2.3162    Z=             -2.9069  Tot=              3.7651
 Quadrupole moment (field-independent basis, Debye-Ang):
   XX=           -129.0888   YY=           -156.0265   ZZ=           -137.6144
   XY=              4.7634   XZ=              3.9933   YZ=              2.8027
 Traceless Quadrupole moment (field-independent basis, Debye-Ang):
   XX=             11.8211   YY=            -15.1166   ZZ=              3.2955
   XY=              4.7634   XZ=              3.9933   YZ=              2.8027
 Octapole moment (field-independent basis, Debye-Ang**2):
  XXX=             82.3047  YYY=           -122.6651  ZZZ=             -2.7970  XYY=            -47.7255
  XXY=             42.8413  XXZ=            -78.8022  XZZ=              9.8654  YZZ=             -5.6807
  YYZ=            -37.6045  XYZ=              9.8194
 Hexadecapole moment (field-independent basis, Debye-Ang**3):
 XXXX=         -11867.4386 YYYY=          -4663.6114 ZZZZ=           -656.1519 XXXY=             44.1394
 XXXZ=            282.1569 YYYX=             20.4983 YYYZ=            -59.1023 ZZZX=              2.0153
 ZZZY=             21.1518 XXYY=          -2574.8731 XXZZ=          -2125.0029 YYZZ=           -737.3720
 XXYZ=            113.9771 YYXZ=            -74.4591 ZZXY=            -22.6182
 N-N= 1.707510630407D+03 E-N=-5.641035343033D+03  KE= 9.525079888220D+02
 No NMR shielding tensors so no spin-rotation constants.
 Leave Link  601 at Sun Oct 17 21:27:29 2021, MaxMem=  7864320000 cpu:              14.8 elap:               0.6
 (Enter /apps/gaussian/g16-c01-avx/g16/l9999.exe)
 Unable to Open any file for archive entry.
 1\1\GINC-CX3-12-27\SP\RPBE1PBE\def2TZVP\C17H26N4O1\ATARZIA\17-Oct-2021
 \0\\#P PBE1PBE/Def2TZVP SP SCF=(YQC,MaxCycle=900) int=(Grid=Superfineg
 rid) EmpiricalDispersion=GD3 SCRF=(PCM,Solvent=Chloroform)\\_1_alde1_2
 _ami2_2_opt_cfm\\0,1\C,0,-2.1249,1.4052,0.3148\C,0,-2.8063,0.6719,1.39
 15\C,0,-2.8578,2.0313,-0.6864\C,0,-2.2073,2.7281,-1.7051\H,0,-3.9364,1
 .9933,-0.6917\C,0,-0.8176,2.7882,-1.7064\C,0,-0.0693,2.1644,-0.7072\H,
 0,-0.2889,3.3233,-2.4809\C,0,-0.7312,1.4737,0.3013\C,0,1.3854,2.2339,-
 0.7155\H,0,-0.1826,0.9796,1.0903\C,0,-2.9691,3.3879,-2.7568\O,0,-2.257
 7,0.1035,2.3\C,0,-4.9555,3.977,-3.8326\C,0,-5.7917,2.914,-4.609\N,0,-4
 .2299,3.3519,-2.7815\N,0,-6.6453,2.1401,-3.7274\C,0,3.9768,2.2004,-2.9
 253\C,0,3.4353,2.8762,-1.6284\N,0,3.3998,2.7798,-4.1242\N,0,2.0134,2.8
 466,-1.6222\H,0,-3.9109,0.68,1.3042\H,0,3.6267,3.7666,-4.185\H,0,2.389
 6,2.6973,-4.0882\H,0,-7.3033,2.7458,-3.2488\H,0,-6.0789,1.6814,-3.0222
 \H,0,-2.3776,3.9204,-3.5171\H,0,1.8949,1.7262,0.1172\C,0,-4.8475,1.944
 9,-5.323\C,0,5.4936,2.386,-2.9809\H,0,3.7373,3.9292,-1.6434\H,0,3.8782
 ,2.3895,-0.7439\H,0,5.8763,1.9351,-3.8921\H,0,5.9708,1.9158,-2.1253\H,
 0,5.7511,3.4432,-2.9854\H,0,-5.6526,4.6837,-3.3692\H,0,-4.306,4.5243,-
 4.5357\H,0,-4.2354,2.4708,-6.0512\H,0,-5.4315,1.1842,-5.8329\H,0,-4.19
 41,1.4548,-4.6041\C,0,-6.6761,3.6325,-5.6288\H,0,-7.345,4.3318,-5.1316
 \H,0,-7.2775,2.9001,-6.1598\H,0,-6.0706,4.1806,-6.3457\C,0,3.6303,0.71
 04,-2.9066\H,0,2.5534,0.5732,-2.8349\H,0,4.1035,0.2165,-2.0617\H,0,3.9
 764,0.2491,-3.827\\Version=ES64L-G16RevC.01\State=1-A\HF=-956.932724\R
 MSD=2.919e-09\Dipole=0.4177585,1.3534151,-0.4336341\Quadrupole=6.72921
 76,2.9313047,-9.6605223,-4.7045455,5.6984218,1.5070253\PG=C01 [X(C17H2
 6N4O1)]\\@
 The archive entry for this job was punched.


      TO SUSPECT YOUR OWN MORTALITY IS TO KNOW THE BEGINNING OF TERROR.
      TO LEARN IRREFUTABLY THAT YOU ARE MORTAL IS TO KNOW THE END
      OF TERROR.

                                                  -- JESSICA
                                                     CHILDREN OF DUNE
                                                     BY FRANK HERBERT
 Job cpu time:       0 days  4 hours 41 minutes  0.0 seconds.
 Elapsed time:       0 days  0 hours  8 minutes 57.2 seconds.
 File lengths (MBytes):  RWF=   1048 Int=      0 D2E=      0 Chk=     56 Scr=     16
 Normal termination of Gaussian 16 at Sun Oct 17 21:27:30 2021.
