 Entering Gaussian System, Link 0=g16
 Initial command:
 /apps/gaussian/g16-c01-avx/g16/l1.exe "/rds/general/ephemeral/user/atarzia/ephemeral/Gau-3437035.inp" -scrdir="/rds/general/ephemeral/user/atarzia/ephemeral/"
 Entering Link 1 = /apps/gaussian/g16-c01-avx/g16/l1.exe PID=   3437036.
  
 Copyright (c) 1988-2019, Gaussian, Inc.  All Rights Reserved.
  
 This is part of the Gaussian(R) 16 program.  It is based on
 the Gaussian(R) 09 system (copyright 2009, Gaussian, Inc.),
 the Gaussian(R) 03 system (copyright 2003, Gaussian, Inc.),
 the Gaussian(R) 98 system (copyright 1998, Gaussian, Inc.),
 the Gaussian(R) 94 system (copyright 1995, Gaussian, Inc.),
 the Gaussian 92(TM) system (copyright 1992, Gaussian, Inc.),
 the Gaussian 90(TM) system (copyright 1990, Gaussian, Inc.),
 the Gaussian 88(TM) system (copyright 1988, Gaussian, Inc.),
 the Gaussian 86(TM) system (copyright 1986, Carnegie Mellon
 University), and the Gaussian 82(TM) system (copyright 1983,
 Carnegie Mellon University). Gaussian is a federally registered
 trademark of Gaussian, Inc.
  
 This software contains proprietary and confidential information,
 including trade secrets, belonging to Gaussian, Inc.
  
 This software is provided under written license and may be
 used, copied, transmitted, or stored only in accord with that
 written license.
  
 The following legend is applicable only to US Government
 contracts under FAR:
  
                    RESTRICTED RIGHTS LEGEND
  
 Use, reproduction and disclosure by the US Government is
 subject to restrictions as set forth in subparagraphs (a)
 and (c) of the Commercial Computer Software - Restricted
 Rights clause in FAR 52.227-19.
  
 Gaussian, Inc.
 340 Quinnipiac St., Bldg. 40, Wallingford CT 06492
  
  
 ---------------------------------------------------------------
 Warning -- This program may not be used in any manner that
 competes with the business of Gaussian, Inc. or will provide
 assistance to any competitor of Gaussian, Inc.  The licensee
 of this program is prohibited from giving any competitor of
 Gaussian, Inc. access to this program.  By using this program,
 the user acknowledges that Gaussian, Inc. is engaged in the
 business of creating and licensing software in the field of
 computational chemistry and represents and warrants to the
 licensee that it is not a competitor of Gaussian, Inc. and that
 it will not use this program in any manner prohibited above.
 ---------------------------------------------------------------
  

 Cite this work as:
 Gaussian 16, Revision C.01,
 M. J. Frisch, G. W. Trucks, H. B. Schlegel, G. E. Scuseria, 
 M. A. Robb, J. R. Cheeseman, G. Scalmani, V. Barone, 
 G. A. Petersson, H. Nakatsuji, X. Li, M. Caricato, A. V. Marenich, 
 J. Bloino, B. G. Janesko, R. Gomperts, B. Mennucci, H. P. Hratchian, 
 J. V. Ortiz, A. F. Izmaylov, J. L. Sonnenberg, D. Williams-Young, 
 F. Ding, F. Lipparini, F. Egidi, J. Goings, B. Peng, A. Petrone, 
 T. Henderson, D. Ranasinghe, V. G. Zakrzewski, J. Gao, N. Rega, 
 G. Zheng, W. Liang, M. Hada, M. Ehara, K. Toyota, R. Fukuda, 
 J. Hasegawa, M. Ishida, T. Nakajima, Y. Honda, O. Kitao, H. Nakai, 
 T. Vreven, K. Throssell, J. A. Montgomery, Jr., J. E. Peralta, 
 F. Ogliaro, M. J. Bearpark, J. J. Heyd, E. N. Brothers, K. N. Kudin, 
 V. N. Staroverov, T. A. Keith, R. Kobayashi, J. Normand, 
 K. Raghavachari, A. P. Rendell, J. C. Burant, S. S. Iyengar, 
 J. Tomasi, M. Cossi, J. M. Millam, M. Klene, C. Adamo, R. Cammi, 
 J. W. Ochterski, R. L. Martin, K. Morokuma, O. Farkas, 
 J. B. Foresman, and D. J. Fox, Gaussian, Inc., Wallingford CT, 2019.
 
 ******************************************
 Gaussian 16:  ES64L-G16RevC.01  3-Jul-2019
                18-Oct-2021 
 ******************************************
 %chk=_1_alde1_3_ami4_2_opt_gas.chk
 %mem=60000mb
 %nprocshared=32
 Will use up to   32 processors via shared memory.
 ----------------------------------------------------------------------
 #P PBE1PBE/Def2TZVP SP SCF=(YQC,MaxCycle=900) int=(Grid=Superfinegrid)
  EmpiricalDispersion=GD3
 ----------------------------------------------------------------------
 1/38=1,172=1/1;
 2/12=2,17=6,18=5,40=1/2;
 3/5=44,7=101,11=2,25=1,30=1,74=-13,75=-7,124=31/1,2,3;
 4//1;
 5/5=2,7=900,8=4,13=1,38=1/8,2,8;
 6/7=2,8=2,9=2,10=2,28=1/1;
 99/5=1,9=1/99;
 Leave Link    1 at Mon Oct 18 15:12:27 2021, MaxMem=  7864320000 cpu:               5.2 elap:               0.2
 (Enter /apps/gaussian/g16-c01-avx/g16/l101.exe)
 -------------------------
 _1_alde1_3_ami4_2_opt_gas
 -------------------------
 Symbolic Z-matrix:
 Charge =  0 Multiplicity = 1
 C                    -0.872    -0.345    -1.1043 
 C                    -0.9763   -1.6702   -0.4649 
 C                    -1.9469    0.5299   -1.1924 
 C                    -1.8029    1.7806   -1.7969 
 H                    -2.924     0.2578   -0.8281 
 C                    -0.5718    2.1486   -2.3227 
 C                     0.5137    1.2753   -2.2575 
 H                    -0.4284    3.1084   -2.7946 
 C                     0.353     0.0323   -1.6541 
 C                     1.8029    1.654    -2.8188 
 H                     1.1917   -0.6484   -1.5975 
 C                    -2.9389    2.6896   -1.8681 
 C                    -3.7274   -1.4104    1.4381 
 C                    -2.2088   -1.1167    1.4918 
 N                    -4.0997   -2.7471    1.8404 
 N                    -1.5185   -2.0151    0.6181 
 H                    -1.8536   -1.3407    2.5044 
 C                    -5.1426    3.316    -1.3961 
 C                    -6.3839    2.5511   -1.8665 
 N                    -4.0378    2.4162   -1.3143 
 N                    -6.813     1.645    -0.817 
 C                     3.2595    3.1182   -3.9053 
 C                     3.7866    4.3718   -3.1965 
 N                     1.9813    2.771    -3.3759 
 H                     4.0027    2.3103   -3.8133 
 N                     5.0715    4.7461   -3.7608 
 H                     4.9631    5.0123   -4.7343 
 H                     5.4557    5.5417   -3.2633 
 H                    -3.8164   -2.9162    2.8003 
 H                    -3.6127   -3.4219    1.2592 
 H                    -7.5458    1.0294   -1.1527 
 H                    -6.0246    1.072    -0.534 
 H                    -0.4636   -2.4705   -0.9959 
 H                    -2.7701    3.6266   -2.4218 
 H                     2.6045    0.9037   -2.7295 
 H                    -2.0305   -0.0539    1.2782 
 H                     3.1215    3.3508   -4.9669 
 H                    -4.9446    4.1735   -2.0608 
 H                    -5.3425    3.6826   -0.3846 
 H                    -6.1419    2.0453   -2.8178 
 H                    -7.1936    3.2625   -2.0561 
 H                    -4.0831   -1.2657    0.4139 
 H                    -4.2426   -0.6965    2.0863 
 H                     3.0184    5.1587   -3.2671 
 H                     3.9381    4.1432   -2.1376 
 
 ITRead=  0  0  0  0  0  0  0  0  0  0  0  0  0  0  0  0  0  0  0  0
 ITRead=  0  0  0  0  0  0  0  0  0  0  0  0  0  0  0  0  0  0  0  0
 ITRead=  0  0  0  0  0
 MicOpt= -1 -1 -1 -1 -1 -1 -1 -1 -1 -1 -1 -1 -1 -1 -1 -1 -1 -1 -1 -1
 MicOpt= -1 -1 -1 -1 -1 -1 -1 -1 -1 -1 -1 -1 -1 -1 -1 -1 -1 -1 -1 -1
 MicOpt= -1 -1 -1 -1 -1
 NAtoms=     45 NQM=       45 NQMF=       0 NMMI=      0 NMMIF=      0
                NMic=       0 NMicF=      0.
                    Isotopes and Nuclear Properties:
 (Nuclear quadrupole moments (NQMom) in fm**2, nuclear magnetic moments (NMagM)
  in nuclear magnetons)

  Atom         1           2           3           4           5           6           7           8           9          10
 IAtWgt=          12          12          12          12           1          12          12           1          12          12
 AtmWgt=  12.0000000  12.0000000  12.0000000  12.0000000   1.0078250  12.0000000  12.0000000   1.0078250  12.0000000  12.0000000
 NucSpn=           0           0           0           0           1           0           0           1           0           0
 AtZEff=  -0.0000000  -0.0000000  -0.0000000  -0.0000000  -0.0000000  -0.0000000  -0.0000000  -0.0000000  -0.0000000  -0.0000000
 NQMom=    0.0000000   0.0000000   0.0000000   0.0000000   0.0000000   0.0000000   0.0000000   0.0000000   0.0000000   0.0000000
 NMagM=    0.0000000   0.0000000   0.0000000   0.0000000   2.7928460   0.0000000   0.0000000   2.7928460   0.0000000   0.0000000
 AtZNuc=   6.0000000   6.0000000   6.0000000   6.0000000   1.0000000   6.0000000   6.0000000   1.0000000   6.0000000   6.0000000

  Atom        11          12          13          14          15          16          17          18          19          20
 IAtWgt=           1          12          12          12          14          14           1          12          12          14
 AtmWgt=   1.0078250  12.0000000  12.0000000  12.0000000  14.0030740  14.0030740   1.0078250  12.0000000  12.0000000  14.0030740
 NucSpn=           1           0           0           0           2           2           1           0           0           2
 AtZEff=  -0.0000000  -0.0000000  -0.0000000  -0.0000000  -0.0000000  -0.0000000  -0.0000000  -0.0000000  -0.0000000  -0.0000000
 NQMom=    0.0000000   0.0000000   0.0000000   0.0000000   2.0440000   2.0440000   0.0000000   0.0000000   0.0000000   2.0440000
 NMagM=    2.7928460   0.0000000   0.0000000   0.0000000   0.4037610   0.4037610   2.7928460   0.0000000   0.0000000   0.4037610
 AtZNuc=   1.0000000   6.0000000   6.0000000   6.0000000   7.0000000   7.0000000   1.0000000   6.0000000   6.0000000   7.0000000

  Atom        21          22          23          24          25          26          27          28          29          30
 IAtWgt=          14          12          12          14           1          14           1           1           1           1
 AtmWgt=  14.0030740  12.0000000  12.0000000  14.0030740   1.0078250  14.0030740   1.0078250   1.0078250   1.0078250   1.0078250
 NucSpn=           2           0           0           2           1           2           1           1           1           1
 AtZEff=  -0.0000000  -0.0000000  -0.0000000  -0.0000000  -0.0000000  -0.0000000  -0.0000000  -0.0000000  -0.0000000  -0.0000000
 NQMom=    2.0440000   0.0000000   0.0000000   2.0440000   0.0000000   2.0440000   0.0000000   0.0000000   0.0000000   0.0000000
 NMagM=    0.4037610   0.0000000   0.0000000   0.4037610   2.7928460   0.4037610   2.7928460   2.7928460   2.7928460   2.7928460
 AtZNuc=   7.0000000   6.0000000   6.0000000   7.0000000   1.0000000   7.0000000   1.0000000   1.0000000   1.0000000   1.0000000

  Atom        31          32          33          34          35          36          37          38          39          40
 IAtWgt=           1           1           1           1           1           1           1           1           1           1
 AtmWgt=   1.0078250   1.0078250   1.0078250   1.0078250   1.0078250   1.0078250   1.0078250   1.0078250   1.0078250   1.0078250
 NucSpn=           1           1           1           1           1           1           1           1           1           1
 AtZEff=  -0.0000000  -0.0000000  -0.0000000  -0.0000000  -0.0000000  -0.0000000  -0.0000000  -0.0000000  -0.0000000  -0.0000000
 NQMom=    0.0000000   0.0000000   0.0000000   0.0000000   0.0000000   0.0000000   0.0000000   0.0000000   0.0000000   0.0000000
 NMagM=    2.7928460   2.7928460   2.7928460   2.7928460   2.7928460   2.7928460   2.7928460   2.7928460   2.7928460   2.7928460
 AtZNuc=   1.0000000   1.0000000   1.0000000   1.0000000   1.0000000   1.0000000   1.0000000   1.0000000   1.0000000   1.0000000

  Atom        41          42          43          44          45
 IAtWgt=           1           1           1           1           1
 AtmWgt=   1.0078250   1.0078250   1.0078250   1.0078250   1.0078250
 NucSpn=           1           1           1           1           1
 AtZEff=  -0.0000000  -0.0000000  -0.0000000  -0.0000000  -0.0000000
 NQMom=    0.0000000   0.0000000   0.0000000   0.0000000   0.0000000
 NMagM=    2.7928460   2.7928460   2.7928460   2.7928460   2.7928460
 AtZNuc=   1.0000000   1.0000000   1.0000000   1.0000000   1.0000000
 Leave Link  101 at Mon Oct 18 15:12:27 2021, MaxMem=  7864320000 cpu:               1.6 elap:               0.1
 (Enter /apps/gaussian/g16-c01-avx/g16/l202.exe)
                          Input orientation:                          
 ---------------------------------------------------------------------
 Center     Atomic      Atomic             Coordinates (Angstroms)
 Number     Number       Type             X           Y           Z
 ---------------------------------------------------------------------
      1          6           0       -0.872000   -0.345000   -1.104300
      2          6           0       -0.976300   -1.670200   -0.464900
      3          6           0       -1.946900    0.529900   -1.192400
      4          6           0       -1.802900    1.780600   -1.796900
      5          1           0       -2.924000    0.257800   -0.828100
      6          6           0       -0.571800    2.148600   -2.322700
      7          6           0        0.513700    1.275300   -2.257500
      8          1           0       -0.428400    3.108400   -2.794600
      9          6           0        0.353000    0.032300   -1.654100
     10          6           0        1.802900    1.654000   -2.818800
     11          1           0        1.191700   -0.648400   -1.597500
     12          6           0       -2.938900    2.689600   -1.868100
     13          6           0       -3.727400   -1.410400    1.438100
     14          6           0       -2.208800   -1.116700    1.491800
     15          7           0       -4.099700   -2.747100    1.840400
     16          7           0       -1.518500   -2.015100    0.618100
     17          1           0       -1.853600   -1.340700    2.504400
     18          6           0       -5.142600    3.316000   -1.396100
     19          6           0       -6.383900    2.551100   -1.866500
     20          7           0       -4.037800    2.416200   -1.314300
     21          7           0       -6.813000    1.645000   -0.817000
     22          6           0        3.259500    3.118200   -3.905300
     23          6           0        3.786600    4.371800   -3.196500
     24          7           0        1.981300    2.771000   -3.375900
     25          1           0        4.002700    2.310300   -3.813300
     26          7           0        5.071500    4.746100   -3.760800
     27          1           0        4.963100    5.012300   -4.734300
     28          1           0        5.455700    5.541700   -3.263300
     29          1           0       -3.816400   -2.916200    2.800300
     30          1           0       -3.612700   -3.421900    1.259200
     31          1           0       -7.545800    1.029400   -1.152700
     32          1           0       -6.024600    1.072000   -0.534000
     33          1           0       -0.463600   -2.470500   -0.995900
     34          1           0       -2.770100    3.626600   -2.421800
     35          1           0        2.604500    0.903700   -2.729500
     36          1           0       -2.030500   -0.053900    1.278200
     37          1           0        3.121500    3.350800   -4.966900
     38          1           0       -4.944600    4.173500   -2.060800
     39          1           0       -5.342500    3.682600   -0.384600
     40          1           0       -6.141900    2.045300   -2.817800
     41          1           0       -7.193600    3.262500   -2.056100
     42          1           0       -4.083100   -1.265700    0.413900
     43          1           0       -4.242600   -0.696500    2.086300
     44          1           0        3.018400    5.158700   -3.267100
     45          1           0        3.938100    4.143200   -2.137600
 ---------------------------------------------------------------------
                    Distance matrix (angstroms):
                    1          2          3          4          5
     1  C    0.000000
     2  C    1.475082   0.000000
     3  C    1.388748   2.512322   0.000000
     4  C    2.421662   3.790186   1.396570   0.000000
     5  H    2.156469   2.764531   1.077719   2.124702   0.000000
     6  C    2.791534   4.265944   2.405965   1.388343   3.367759
     7  C    2.423924   3.756259   2.782914   2.415391   3.859569
     8  H    3.870383   5.344410   3.394341   2.155854   4.268614
     9  C    1.394726   2.465713   2.397981   2.779361   3.387013
    10  C    3.753745   4.931035   4.239077   3.749947   5.315623
    11  H    2.143398   2.650864   3.376878   3.861014   4.283942
    12  C    3.750235   4.982833   2.470817   1.456656   2.644896
    13  C    3.968902   3.355213   3.722160   4.934714   2.926432
    14  C    3.020313   2.377834   3.159875   4.401664   2.789749
    15  N    4.985919   4.028616   4.956930   6.245423   4.187193
    16  N    2.484725   1.259296   3.152533   4.507821   3.038585
    17  H    3.870100   3.113674   4.144174   5.314722   3.847923
    18  C    5.632592   6.564098   4.244567   3.697525   3.820654
    19  C    6.272909   7.001856   4.922055   4.645866   4.278832
    20  N    4.206021   5.176189   2.818661   2.373114   2.477021
    21  N    6.272011   6.721725   5.006326   5.106828   4.129015
    22  C    6.075249   7.259968   6.416052   5.644681   7.475742
    23  C    6.951838   8.164106   7.186768   6.317888   8.219882
    24  N    4.796972   6.078287   5.022047   4.218329   6.072020
    25  H    6.176730   7.200459   6.740674   6.168585   7.816863
    26  N    8.264471   9.413169   8.580848   7.740056   9.626712
    27  H    8.713550   9.907576   8.965772   8.053009  10.003500
    28  H    8.908103  10.060476   9.176342   8.305629  10.201430
    29  H    5.525076   4.503356   5.595738   6.873744   4.902646
    30  H    4.750251   3.604383   4.939834   6.299296   4.286178
    31  H    6.814024   7.135772   5.621277   5.827538   4.696996
    32  H    5.374236   5.745413   4.165933   4.463158   3.219183
    33  H    2.167093   1.088716   3.352789   4.528485   3.677682
    34  H    4.594801   5.924801   3.432001   2.175705   3.729930
    35  H    4.035663   4.957369   4.818469   4.589539   5.881906
    36  H    2.665177   2.600416   2.540015   3.587957   2.309112
    37  H    6.672830   7.891160   6.920477   6.063344   7.952634
    38  H    6.157744   7.241763   4.797514   3.958016   4.575487
    39  H    6.060107   6.908156   4.703420   4.259221   4.216051
    40  H    6.035020   6.784136   4.747251   4.465336   4.184369
    41  H    7.340477   8.094335   5.978373   5.596683   5.363366
    42  H    3.669303   3.253939   3.219896   4.400783   2.281913
    43  H    4.654506   4.257397   4.186188   5.212236   3.338131
    44  H    7.078392   8.393082   7.098195   6.067782   8.079583
    45  H    6.659483   7.793900   6.970119   6.217478   7.993719
                    6          7          8          9         10
     6  C    0.000000
     7  C    1.394709   0.000000
     8  H    1.079106   2.129855   0.000000
     9  C    2.404372   1.391030   3.372494   0.000000
    10  C    2.475872   1.456196   2.663562   2.467518   0.000000
    11  H    3.385123   2.143806   4.262783   1.081653   2.676973
    12  C    2.470325   3.751310   2.708580   4.235994   4.945803
    13  C    6.063655   6.233568   7.015604   5.319093   7.622071
    14  C    5.281322   5.214491   6.276505   4.216599   6.507825
    15  N    7.331123   7.365864   8.321571   6.305801   8.713123
    16  N    5.184684   4.819299   6.251807   3.585701   6.025469
    17  H    6.092546   5.926488   7.064353   4.903808   7.118615
    18  C    4.807663   6.074553   4.921644   6.407095   7.281915
    19  C    5.843854   7.025484   6.053093   7.195505   8.290679
    20  N    3.619618   4.786171   3.962095   5.007751   6.079329
    21  N    6.439978   7.476112   6.842190   7.392773   8.845395
    22  C    4.257183   3.694718   3.851540   4.799836   2.333677
    23  C    4.970090   4.602381   4.418589   5.744551   3.385877
    24  N    2.831065   2.375245   2.501680   3.621662   1.260903
    25  H    4.813947   3.957886   4.616206   4.813703   2.501775
    26  N    6.376674   5.922829   5.819322   6.994450   4.596976
    27  H    6.682194   6.316397   6.037843   7.452587   4.993414
    28  H    6.980588   6.605843   6.384611   7.679880   5.353012
    29  H    7.900934   7.867641   8.892539   6.776373   9.167199
    30  H    7.287493   7.173426   8.319728   6.012120   8.468977
    31  H    7.159482   8.138586   7.594436   7.977258   9.516523
    32  H    5.838796   6.764699   6.369827   6.558154   8.174888
    33  H    4.807098   4.071580   5.861799   2.713682   5.046928
    34  H    2.650816   4.042147   2.427153   4.823081   4.996107
    35  H    3.435716   2.175389   3.750123   2.642929   1.101584
    36  H    4.466015   4.554218   5.399497   3.779800   5.864920
    37  H    4.698675   4.295250   4.168865   5.445335   3.038449
    38  H    4.825991   6.183146   4.697761   6.736431   7.242320
    39  H    5.372985   6.602873   5.503289   6.882953   7.816475
    40  H    5.593014   6.723381   5.811609   6.898557   7.954430
    41  H    6.720125   7.961909   6.807133   8.218696   9.170932
    42  H    5.610317   5.892676   6.540952   5.063636   7.322567
    43  H    6.403799   6.736392   7.269702   5.970032   8.132215
    44  H    4.779344   4.730075   4.038244   5.998842   3.736487
    45  H    4.934763   4.468304   4.535282   5.475967   3.349512
                   11         12         13         14         15
    11  H    0.000000
    12  C    5.317643   0.000000
    13  C    5.830356   5.325663   0.000000
    14  C    4.618060   5.129317   1.547672   0.000000
    15  N    6.650008   6.682674   1.444721   2.520958   0.000000
    16  N    3.757916   5.507534   2.432550   1.430730   2.948294
    17  H    5.155455   6.044828   2.157077   1.096222   2.732000
    18  C    7.475318   2.339114   5.689845   6.049461   6.951529
    19  C    8.227933   3.447783   5.802659   6.493258   6.857813
    20  N    6.067919   1.260565   4.723867   4.868349   6.051085
    21  N    8.363258   4.147849   4.893043   5.844331   5.806403
    22  C    4.877398   6.538658   9.893276   8.772991  11.025998
    23  C    5.873050   7.058810  10.553367   9.383422  11.757671
    24  N    3.934269   5.146694   8.558502   7.507706   9.728195
    25  H    4.643856   7.218967  10.058591   8.858394  11.099122
    26  N    6.988086   8.483986  11.931123  10.722173  13.100855
    27  H    7.490427   8.720759  12.444854  11.303323  13.622383
    28  H    7.698956   8.974986  12.440425  11.211147  13.640294
    29  H    7.040215   7.347718   2.032472   2.744950   1.015018
    30  H    6.239815   6.898148   2.022695   2.709056   1.015046
    31  H    8.908241   4.948898   5.219679   6.331090   5.924205
    32  H    7.494384   3.730683   3.915178   4.842995   4.891681
    33  H    2.534164   5.789169   4.207203   3.326732   4.619776
    34  H    5.886506   1.101384   6.417680   6.174967   7.781917
    35  H    2.384626   5.887337   7.925712   6.713363   8.897113
    36  H    4.359547   4.272141   2.178332   1.098617   3.442526
    37  H    5.574099   6.838728  10.516676   9.491336  11.647723
    38  H    7.817899   2.502384   6.701031   6.934824   7.989238
    39  H    7.932494   2.994013   5.645302   6.031105   6.916373
    40  H    7.907392   3.402391   5.990355   6.636277   6.988312
    41  H    9.263839   4.297212   6.786750   7.524176   7.801937
    42  H    5.678935   4.707559   1.093822   2.167272   2.056629
    43  H    6.565387   5.366804   1.093274   2.160171   2.070229
    44  H    6.312433   6.598718  10.526053   9.452587  11.800660
    45  H    5.549221   7.034111  10.118695   8.866988  11.309595
                   16         17         18         19         20
    16  N    0.000000
    17  H    2.031067   0.000000
    18  C    6.753646   6.907697   0.000000
    19  C    7.120080   7.400979   1.532049   0.000000
    20  N    5.451372   5.785110   1.427205   2.413982   0.000000
    21  N    6.594511   6.673961   2.432660   1.451411   2.922977
    22  C    8.345130   9.333265   8.771003   9.872865   7.775389
    23  C    9.137163   9.846054   9.169884  10.417433   8.281804
    24  N    7.148943   8.135752   7.413945   8.503130   6.372256
    25  H    8.296387   9.356248   9.512665  10.570216   8.420562
    26  N   10.407530  11.147147  10.581344  11.816623   9.715613
    27  H   10.956444  11.799440  10.777114  11.959774   9.972579
    28  H   10.991358  11.578414  10.989274  12.291089  10.183020
    29  H    3.294590   2.534234   7.629475   7.632984   6.738950
    30  H    2.603031   2.996056   7.402061   7.288778   6.394296
    31  H    6.980907   7.168884   3.326132   2.043304   3.775631
    32  H    5.582334   5.696511   2.560601   2.022966   2.522522
    33  H    1.981212   3.932003   7.452301   7.811809   6.062683
    34  H    6.529646   7.055600   2.603323   3.811116   2.073328
    35  H    6.060111   7.232268   8.222816   9.178782   6.957772
    36  H    2.131709   1.786257   5.309734   5.968857   4.105083
    37  H    9.028550  10.128283   9.002620  10.030186   8.091387
    38  H    7.563956   7.797547   1.102876   2.177503   2.113682
    39  H    6.934852   6.764044   1.094298   2.135611   2.042144
    40  H    7.047559   7.627603   2.152791   1.104251   2.612531
    41  H    8.198242   8.396619   2.155241   1.094373   3.350457
    42  H    2.679640   3.057202   5.038910   5.006183   4.067569
    43  H    3.363783   2.509407   5.388624   5.545872   4.614642
    44  H    9.334969   9.964376   8.573104   9.857206   7.818228
    45  H    8.677155   9.228495   9.148398  10.447582   8.202154
                   21         22         23         24         25
    21  N    0.000000
    22  C   10.637818   0.000000
    23  C   11.200401   1.533540   0.000000
    24  N    9.227977   1.426397   2.419474   0.000000
    25  H   11.242767   1.101596   2.162620   2.118873   0.000000
    26  N   12.630286   2.440140   1.452413   3.687615   2.660491
    27  H   12.859257   2.679013   2.039417   3.969862   3.011879
    28  H   13.103040   3.332988   2.039368   4.445325   3.585478
    29  H    6.547443  11.465052  12.119495  10.203089  11.497579
    30  H    6.342397  10.801486  11.633773   9.546151  10.797346
    31  H    1.014226  11.344355  11.990498   9.936872  11.920040
    32  H    1.014885  10.086977  10.688182   8.663569  10.622332
    33  H    7.568634   7.318446   8.350084   6.254219   7.123316
    34  H    4.779871   6.230194   6.644230   4.921195   7.038447
    35  H    9.638282   2.591436   3.693666   2.071961   2.260113
    36  H    5.490759   8.056984   8.570205   6.762784   8.240893
    37  H   10.900721   1.095510   2.149213   2.041447   1.786042
    38  H    3.381016   8.474851   8.806985   7.187808   9.305748
    39  H    2.549736   9.311728   9.577173   7.963475  10.048480
    40  H    2.147980   9.524710  10.204466   8.174625  10.196772
    41  H    2.072808  10.616387  11.094857   9.282361  11.373283
    42  H    4.176080   9.580597  10.331920   8.211850   9.799855
    43  H    4.529760  10.331152  10.865712   8.977534  10.575022
    44  H   10.724062   2.151527   1.101965   2.605480   3.062771
    45  H   11.116256   2.153111   1.093837   2.691725   2.484284
                   26         27         28         29         30
    26  N    0.000000
    27  H    1.015044   0.000000
    28  H    1.013950   1.639134   0.000000
    29  H   13.444465  14.025367  13.938262   0.000000
    30  H   12.935685  13.438829  13.529043   1.634691   0.000000
    31  H   13.409411  13.607495  13.923164   6.715831   6.410976
    32  H   12.125786  12.405565  12.618422   5.647959   5.406289
    33  H    9.505857   9.970808  10.216387   5.084393   3.988417
    34  H    8.033486   8.189640   8.487610   8.436427   7.996317
    35  H    4.681208   5.144202   5.470405   9.295068   8.560030
    36  H    9.943336  10.522689  10.391302   3.701214   3.721175
    37  H    2.684034   2.491220   3.626401  12.154799  11.401019
    38  H   10.175467  10.296296  10.558609   8.669889   8.395621
    39  H   10.999143  11.264696  11.328914   7.484433   7.494545
    40  H   11.572550  11.653201  12.121370   7.847769   7.273861
    41  H   12.471558  12.570597  12.909565   8.553738   8.276186
    42  H   11.720775  12.155286  12.282150   2.913792   2.363262
    43  H   12.270409  12.800621  12.711821   2.370340   2.916963
    44  H    2.151557   2.440485   2.467212  12.195567  11.750982
    45  H    2.069508   2.923835   2.350768  11.590956  11.215327
                   31         32         33         34         35
    31  H    0.000000
    32  H    1.642758   0.000000
    33  H    7.901357   6.609643   0.000000
    34  H    5.582416   4.547696   6.672913   0.000000
    35  H   10.272813   8.905611   4.878917   6.032843   0.000000
    36  H    6.123834   4.528195   3.669695   5.270967   6.201764
    37  H   11.564096  10.416078   7.906283   6.423749   3.355823
    38  H    4.180461   3.621715   8.084313   2.271095   8.253948
    39  H    3.533267   2.702372   7.876420   3.281853   8.739316
    40  H    2.403237   2.485320   7.480298   3.745178   8.821029
    41  H    2.434525   2.912325   8.904168   4.453499  10.100503
    42  H    4.439821   3.183202   4.066923   5.805150   7.701380
    43  H    4.937710   3.628924   5.189207   6.417197   8.522637
    44  H   11.537943  10.293046   8.688347   6.047197   4.308753
    45  H   11.939252  10.547947   8.026174   6.734062   3.552914
                   36         37         38         39         40
    36  H    0.000000
    37  H    8.782731   0.000000
    38  H    6.124689   8.613026   0.000000
    39  H    5.262669   9.630517   1.791355   0.000000
    40  H    6.171504   9.598622   2.556523   3.039779   0.000000
    41  H    6.983815  10.718295   2.426509   2.529223   1.779841
    42  H    2.535476  10.107984   6.037484   5.168110   5.064115
    43  H    2.441177  10.970790   6.434916   5.147003   5.930852
    44  H    8.562847   2.483637   8.113886   8.966177   9.685361
    45  H    8.056521   3.049536   8.883084   9.455935  10.318443
                   41         42         43         44         45
    41  H    0.000000
    42  H    6.023347   0.000000
    43  H    6.445274   1.773796   0.000000
    44  H   10.456913  10.259336  10.754738   0.000000
    45  H   11.166782  10.005299  10.401340   1.775629   0.000000
 Stoichiometry    C15H24N6
 Framework group  C1[X(C15H24N6)]
 Deg. of freedom   129
 Full point group                 C1      NOp   1
 Largest Abelian subgroup         C1      NOp   1
 Largest concise Abelian subgroup C1      NOp   1
                         Standard orientation:                         
 ---------------------------------------------------------------------
 Center     Atomic      Atomic             Coordinates (Angstroms)
 Number     Number       Type             X           Y           Z
 ---------------------------------------------------------------------
      1          6           0       -0.362819   -1.562710   -0.526628
      2          6           0       -1.197398   -2.767940   -0.690230
      3          6           0       -0.903432   -0.302319   -0.308054
      4          6           0       -0.076975    0.811984   -0.147728
      5          1           0       -1.969269   -0.143988   -0.288084
      6          6           0        1.301014    0.657176   -0.216111
      7          6           0        1.859924   -0.598769   -0.451559
      8          1           0        1.966024    1.498330   -0.094902
      9          6           0        1.022733   -1.698111   -0.611316
     10          6           0        3.304506   -0.761935   -0.535623
     11          1           0        1.449932   -2.675435   -0.791076
     12          6           0       -0.662619    2.123707    0.093623
     13          6           0       -4.145143   -1.868807    0.636351
     14          6           0       -2.774669   -2.449516    1.060460
     15          7           0       -5.119240   -2.854130    0.227090
     16          7           0       -2.199208   -3.163501   -0.037747
     17          1           0       -2.947504   -3.189809    1.850267
     18          6           0       -2.462851    3.564592    0.486649
     19          6           0       -3.618815    3.798877   -0.491121
     20          7           0       -1.904068    2.272034    0.254334
     21          7           0       -4.725149    2.927197   -0.140704
     22          6           0        5.502339    0.020284   -0.474664
     23          6           0        6.150440    0.439590    0.850437
     24          7           0        4.091162    0.214037   -0.399505
     25          1           0        5.787323   -1.018634   -0.704765
     26          7           0        7.590879    0.276414    0.760925
     27          1           0        7.972727    0.906549    0.062758
     28          1           0        8.025831    0.498722    1.649458
     29          1           0       -5.311706   -3.495106    0.990220
     30          1           0       -4.742246   -3.402641   -0.539283
     31          1           0       -5.447545    2.961754   -0.851762
     32          1           0       -4.386119    1.972447   -0.081501
     33          1           0       -0.865500   -3.445059   -1.475504
     34          1           0        0.046442    2.965322    0.137919
     35          1           0        3.661562   -1.785865   -0.729439
     36          1           0       -2.140012   -1.645585    1.457783
     37          1           0        5.880207    0.673442   -1.268856
     38          1           0       -1.716853    4.372320    0.400634
     39          1           0       -2.879262    3.564743    1.498622
     40          1           0       -3.242695    3.647330   -1.518222
     41          1           0       -3.959075    4.835282   -0.403141
     42          1           0       -3.998341   -1.184657   -0.204384
     43          1           0       -4.556710   -1.301186    1.475198
     44          1           0        5.828246    1.467204    1.083950
     45          1           0        5.786496   -0.216458    1.646443
 ---------------------------------------------------------------------
 Rotational constants (GHZ):           0.3657374           0.1263789           0.0974064
 Leave Link  202 at Mon Oct 18 15:12:27 2021, MaxMem=  7864320000 cpu:               0.1 elap:               0.0
 (Enter /apps/gaussian/g16-c01-avx/g16/l301.exe)
 Standard basis: def2TZVP (5D, 7F)
 Ernie: Thresh=  0.10000D-02 Tol=  0.10000D-05 Strict=F.
 There are   900 symmetry adapted cartesian basis functions of A   symmetry.
 There are   795 symmetry adapted basis functions of A   symmetry.
   795 basis functions,  1263 primitive gaussians,   900 cartesian basis functions
    78 alpha electrons       78 beta electrons
       nuclear repulsion energy      1563.4281750939 Hartrees.
 IExCor= 1009 DFT=T Ex+Corr=PBE1PBE ExCW=0 ScaHFX=  0.250000
 ScaDFX=  0.750000  0.750000  1.000000  1.000000 ScalE2=  1.000000  1.000000
 IRadAn=      7 IRanWt=     -1 IRanGd=            0 ICorTp=0 IEmpDi=131
 NAtoms=   45 NActive=   45 NUniq=   45 SFac= 1.00D+00 NAtFMM=   60 NAOKFM=F Big=F
 Integral buffers will be    131072 words long.
 Raffenetti 2 integral format.
 Two-electron integral symmetry is turned on.
 R6Disp:  Grimme-D3 Dispersion energy=       -0.0241316341 Hartrees.
 Nuclear repulsion after empirical dispersion term =     1563.4040434598 Hartrees.
 Leave Link  301 at Mon Oct 18 15:12:27 2021, MaxMem=  7864320000 cpu:               0.7 elap:               0.0
 (Enter /apps/gaussian/g16-c01-avx/g16/l302.exe)
 NPDir=0 NMtPBC=     1 NCelOv=     1 NCel=       1 NClECP=     1 NCelD=      1
         NCelK=      1 NCelE2=     1 NClLst=     1 CellRange=     0.0.
 One-electron integrals computed using PRISM.
 One-electron integral symmetry used in STVInt
   1 Symmetry operations used in ECPInt.
 ECPInt:  NShTT=   53628 NPrTT=  159864 LenC2=   42244 LenP2D=   88231.
 LDataN:  DoStor=T MaxTD1= 6 Len=  172
 NBasis=   795 RedAO= T EigKep=  5.23D-06  NBF=   795
 NBsUse=   795 1.00D-06 EigRej= -1.00D+00 NBFU=   795
 Precomputing XC quadrature grid using
 IXCGrd= 4 IRadAn=           7 IRanWt=          -1 IRanGd=           0 AccXCQ= 0.00D+00.
 Generated NRdTot=       0 NPtTot=           0 NUsed=           0 NTot=          32
 NSgBfM=   862   862   862   862   862 MxSgAt=    45 MxSgA2=    45.
 Leave Link  302 at Mon Oct 18 15:12:28 2021, MaxMem=  7864320000 cpu:              33.3 elap:               1.1
 (Enter /apps/gaussian/g16-c01-avx/g16/l303.exe)
 DipDrv:  MaxL=1.
 Leave Link  303 at Mon Oct 18 15:12:28 2021, MaxMem=  7864320000 cpu:               2.6 elap:               0.1
 (Enter /apps/gaussian/g16-c01-avx/g16/l401.exe)
 ExpMin= 9.52D-02 ExpMax= 1.97D+04 ExpMxC= 6.73D+02 IAcc=3 IRadAn=         7 AccDes= 0.00D+00
 Harris functional with IExCor= 1009 and IRadAn=       7 diagonalized for initial guess.
 HarFok:  IExCor= 1009 AccDes= 0.00D+00 IRadAn=         7 IDoV= 1 UseB2=F ITyADJ=14
 ICtDFT=  3500011 ScaDFX=  1.000000  1.000000  1.000000  1.000000
 FoFCou: FMM=F IPFlag=           0 FMFlag=      100000 FMFlg1=           0
         NFxFlg=           0 DoJE=T BraDBF=F KetDBF=T FulRan=T
         wScrn=  0.000000 ICntrl=       500 IOpCl=  0 I1Cent=   200000004 NGrid=           0
         NMat0=    1 NMatS0=      1 NMatT0=    0 NMatD0=    1 NMtDS0=    0 NMtDT0=    0
 Petite list used in FoFCou.
 Harris En= -914.028828939627    
 JPrj=0 DoOrth=F DoCkMO=F.
 Leave Link  401 at Mon Oct 18 15:12:34 2021, MaxMem=  7864320000 cpu:             170.0 elap:               5.4
 (Enter /apps/gaussian/g16-c01-avx/g16/l508.exe)
 Integral symmetry usage will be decided dynamically.
 Tight linear equation convergence will be used.
 RPBE1PBE wavefunction.
 Linear searches until partial convergence.
 Full line searches.
 Fock matrices will be formed incrementally for  20 cycles.
 FoFJK:  IHMeth= 1 ICntrl=       0 DoSepK=F KAlg= 0 I1Cent=           0 FoldK=F
 IRaf= 700000000 NMat=       1 IRICut=       1 DoRegI=T DoRafI=F ISym2E= 1 IDoP0=0 IntGTp=1.
 FoFCou: FMM=F IPFlag=           0 FMFlag=      100000 FMFlg1=           0
         NFxFlg=           0 DoJE=F BraDBF=F KetDBF=F FulRan=T
         wScrn=  0.000000 ICntrl=         0 IOpCl=  0 I1Cent=           0 NGrid=           0
         NMat0=    1 NMatS0=      1 NMatT0=    0 NMatD0=    1 NMtDS0=    0 NMtDT0=    0
 Petite list used in FoFCou.
 Iteration   1 EE= -913.283086021974                                    Grad=1.060D+00 Max rot=    2.0222 deg.
 Gradient too large for Newton-Raphson -- use scaled steepest descent instead.
 Alpha Gap=     0.179 HL deriv= 5.95D-03
     ILin= 1 X=0.000D+00 Y=-9.132830860220D+02 DE= 0.00D+00 F= -2.12D+00
 RMSU=  7.98D-04    CP:  9.98D-01
     ILin= 2 X=3.000D-01 Y=-9.136991480956D+02 DE=-4.16D-01 F= -6.46D-01 OKLS=F
 RMSU=  1.38D-04    CP:  9.99D-01  1.74D+00
     ILin= 3 X=5.000D-01 Y=-9.137283556046D+02 DE=-4.45D-01 F=  3.56D-01
     Accept linear search using points  2 and  3.
     An  expanding polynomial of degree  3 produced  0.3941
 RMSU=  7.71D-08    CP:  9.98D-01  1.34D+00  3.71D-01
 Iteration   2 EE= -913.737856332422     Delta-E=       -0.454770310448 Grad=3.303D-01 Max rot=    1.7567 deg.
 Gradient too large for Newton-Raphson -- use scaled steepest descent instead.
 Alpha Gap=     0.204 HL deriv= 2.59D-03
     ILin= 1 X=0.000D+00 Y=-9.137378563324D+02 DE= 0.00D+00 F= -9.94D-02
 RMSU=  1.32D-04    CP:  9.97D-01  1.52D+00  7.21D-01 -3.00D+00
     ILin= 2 X=3.000D-01 Y=-9.137598896216D+02 DE=-2.20D-02 F= -4.75D-02 OKLS=F
 RMSU=  1.04D-05    CP:  9.97D-01  1.71D+00  1.16D+00 -3.00D+00  2.02D+00
     ILin= 3 X=6.000D-01 Y=-9.137663562091D+02 DE=-2.85D-02 F=  4.32D-03
 RMSU=  1.47D-04    CP:  9.96D-01  2.11D+00  2.33D+00 -3.00D+00  3.00D+00
                    CP:  3.00D+00
     ILin= 4 X=1.200D+00 Y=-9.137328579675D+02 DE= 5.00D-03 F=  1.07D-01
     An  expanding polynomial of degree  4 produced  0.5750
     Minimum is close to point  3 DX= -2.50D-02 DF= -5.40D-05 DXR=  4.36D-02 DFR=  1.90D-03 which will be used.
 Iteration   3 EE= -913.766356209098     Delta-E=       -0.028499876676 Grad=1.297D-01 Max rot=    0.6644 deg.
 Gradient too large for Newton-Raphson -- use scaled steepest descent instead.
 Alpha Gap=     0.183 HL deriv= 2.54D-03
     ILin= 1 X=0.000D+00 Y=-9.137663562091D+02 DE= 0.00D+00 F= -2.17D-02
 RMSU=  1.14D-04    CP:  9.98D-01  1.88D+00  1.56D+00 -3.00D+00  2.29D+00
                    CP:  1.10D+00  4.67D-05
     ILin= 2 X=5.000D-01 Y=-9.137697731166D+02 DE=-3.42D-03 F=  8.00D-03 OKLS=T
     Accept linear search using points  1 and  2.
     An  expanding polynomial of degree  2 produced  0.2815
 RMSU=  7.81D-07    CP:  9.97D-01  1.81D+00  1.38D+00 -3.00D+00  2.17D+00
                    CP:  1.03D+00  2.87D-05  5.62D-01
 Iteration   4 EE= -913.770104275976     Delta-E=       -0.003748066878 Grad=7.602D-02 Max rot=    0.4314 deg.
 Gradient too large for Newton-Raphson -- use scaled steepest descent instead.
 Alpha Gap=     0.193 HL deriv= 1.51D-04
     ILin= 1 X=0.000D+00 Y=-9.137701042760D+02 DE= 0.00D+00 F= -2.81D-03
 RMSU=  3.49D-05    CP:  9.97D-01  1.89D+00  1.57D+00 -3.00D+00  2.56D+00
                    CP:  1.52D+00  5.62D-04  9.88D-01  9.65D-01
     ILin= 2 X=6.000D-01 Y=-9.137711804275D+02 DE=-1.08D-03 F= -7.73D-04 OKLS=F
 RMSU=  1.10D-06    CP:  9.97D-01  1.95D+00  1.74D+00 -3.00D+00  2.88D+00
                    CP:  2.07D+00  1.01D-03  1.34D+00 -3.80D-01  1.84D+00
     ILin= 3 X=1.100D+00 Y=-9.137711417564D+02 DE=-1.04D-03 F=  9.28D-04
     An  expanding polynomial of degree  3 produced  0.8273
 RMSU=  4.57D-11    CP:  9.97D-01  1.92D+00  1.65D+00 -3.00D+00  2.71D+00
                    CP:  1.75D+00  7.64D-04  1.15D+00  5.02D-01  1.38D+00
                    CP:  3.42D-01
 Iteration   5 EE= -913.771268255113     Delta-E=       -0.001163979137 Grad=1.663D-02 Max rot=    0.0661 deg.
 Gradient too large for Newton-Raphson -- use scaled steepest descent instead.
 Alpha Gap=     0.196 HL deriv= 9.16D-05
     ILin= 1 X=0.000D+00 Y=-9.137712682551D+02 DE= 0.00D+00 F= -3.93D-04
 RMSU=  1.61D-05    CP:  9.97D-01  1.94D+00  1.71D+00 -3.00D+00  2.81D+00
                    CP:  1.94D+00  7.92D-04  1.16D+00  1.33D+00  1.58D+00
                    CP: -4.79D-01  3.00D+00
     ILin= 2 X=5.000D-01 Y=-9.137713517894D+02 DE=-8.35D-05 F=  5.92D-05 OKLS=T
     Accept linear search using points  1 and  2.
     An  expanding polynomial of degree  2 produced  0.3110
 RMSU=  1.50D-08    CP:  9.97D-01  1.93D+00  1.69D+00 -3.00D+00  2.77D+00
                    CP:  1.87D+00  7.82D-04  1.16D+00  1.02D+00  1.51D+00
                    CP: -1.75D-01  3.00D+00  6.22D-01
 Iteration   6 EE= -913.771346819316     Delta-E=       -0.000078564203 Grad=8.618D-03 Max rot=    0.0377 deg.
 SCF Done:  E(RPBE1PBE) =  -913.771346819     a.u. after    6 cycles
            Convg  =    0.8618D-02                    14 Fock formations.
              S**2 =  0.0000                  -V/T =  2.0047
 Leave Link  508 at Mon Oct 18 15:16:38 2021, MaxMem=  7864320000 cpu:            7747.3 elap:             244.0
 (Enter /apps/gaussian/g16-c01-avx/g16/l502.exe)
 Integral symmetry usage will be decided dynamically.
 Closed shell SCF:
 Using DIIS extrapolation, IDIIS=  1040.
 NGot=  7864320000 LenX=  7862662082 LenY=  7861851182
 Requested convergence on RMS density matrix=1.00D-08 within 128 cycles.
 Requested convergence on MAX density matrix=1.00D-06.
 Requested convergence on             energy=1.00D-06.
 No special actions if energy rises.
 Fock matrices will be formed incrementally for  20 cycles.

 Cycle   1  Pass 1  IDiag  1:
 FoFJK:  IHMeth= 1 ICntrl=       0 DoSepK=F KAlg= 0 I1Cent=           0 FoldK=F
 IRaf= 700000000 NMat=       1 IRICut=       1 DoRegI=T DoRafI=F ISym2E= 0 IDoP0=0 IntGTp=1.
 FoFCou: FMM=F IPFlag=           0 FMFlag=      100000 FMFlg1=           0
         NFxFlg=           0 DoJE=F BraDBF=F KetDBF=F FulRan=T
         wScrn=  0.000000 ICntrl=         0 IOpCl=  0 I1Cent=           0 NGrid=           0
         NMat0=    1 NMatS0=      1 NMatT0=    0 NMatD0=    1 NMtDS0=    0 NMtDT0=    0
 Symmetry not used in FoFCou.
 E= -913.771346819315    
 DIIS: error= 9.38D-05 at cycle   1 NSaved=   1.
 NSaved= 1 IEnMin= 1 EnMin= -913.771346819315     IErMin= 1 ErrMin= 9.38D-05
 ErrMax= 9.38D-05  0.00D+00 EMaxC= 1.00D-01 BMatC= 3.71D-05 BMatP= 3.71D-05
 IDIUse=1 WtCom= 1.00D+00 WtEn= 0.00D+00
 Coeff-Com:  0.100D+01
 Coeff:      0.100D+01
 Gap=     0.195 Goal=   None    Shift=    0.000
 RMSDP=4.33D-05 MaxDP=4.35D-03              OVMax= 1.11D-03

 Cycle   2  Pass 1  IDiag  1:
 RMSU=  4.21D-05    CP:  1.00D+00
 E= -913.771364811665     Delta-E=       -0.000017992350 Rises=F Damp=F
 DIIS: error= 3.52D-05 at cycle   2 NSaved=   2.
 NSaved= 2 IEnMin= 2 EnMin= -913.771364811665     IErMin= 2 ErrMin= 3.52D-05
 ErrMax= 3.52D-05  0.00D+00 EMaxC= 1.00D-01 BMatC= 5.53D-06 BMatP= 3.71D-05
 IDIUse=1 WtCom= 1.00D+00 WtEn= 0.00D+00
 Coeff-Com:  0.186D+00 0.814D+00
 Coeff:      0.186D+00 0.814D+00
 Gap=     0.178 Goal=   None    Shift=    0.000
 RMSDP=1.20D-05 MaxDP=2.36D-03 DE=-1.80D-05 OVMax= 5.67D-04

 Cycle   3  Pass 1  IDiag  1:
 RMSU=  1.07D-05    CP:  1.00D+00  8.82D-01
 E= -913.771366672305     Delta-E=       -0.000001860640 Rises=F Damp=F
 DIIS: error= 3.18D-05 at cycle   3 NSaved=   3.
 NSaved= 3 IEnMin= 3 EnMin= -913.771366672305     IErMin= 3 ErrMin= 3.18D-05
 ErrMax= 3.18D-05  0.00D+00 EMaxC= 1.00D-01 BMatC= 3.77D-06 BMatP= 5.53D-06
 IDIUse=1 WtCom= 1.00D+00 WtEn= 0.00D+00
 Coeff-Com: -0.131D-02 0.451D+00 0.550D+00
 Coeff:     -0.131D-02 0.451D+00 0.550D+00
 Gap=     0.178 Goal=   None    Shift=    0.000
 RMSDP=5.14D-06 MaxDP=9.20D-04 DE=-1.86D-06 OVMax= 3.78D-04

 Cycle   4  Pass 1  IDiag  1:
 RMSU=  1.25D-06    CP:  1.00D+00  9.51D-01  6.33D-01
 E= -913.771369955813     Delta-E=       -0.000003283509 Rises=F Damp=F
 DIIS: error= 8.72D-06 at cycle   4 NSaved=   4.
 NSaved= 4 IEnMin= 4 EnMin= -913.771369955813     IErMin= 4 ErrMin= 8.72D-06
 ErrMax= 8.72D-06  0.00D+00 EMaxC= 1.00D-01 BMatC= 1.87D-07 BMatP= 3.77D-06
 IDIUse=1 WtCom= 1.00D+00 WtEn= 0.00D+00
 Coeff-Com: -0.503D-02 0.230D+00 0.312D+00 0.463D+00
 Coeff:     -0.503D-02 0.230D+00 0.312D+00 0.463D+00
 Gap=     0.178 Goal=   None    Shift=    0.000
 RMSDP=7.36D-07 MaxDP=1.18D-04 DE=-3.28D-06 OVMax= 1.41D-04

 Cycle   5  Pass 1  IDiag  1:
 RMSU=  5.60D-07    CP:  1.00D+00  9.50D-01  6.67D-01  7.57D-01
 E= -913.771370116226     Delta-E=       -0.000000160413 Rises=F Damp=F
 DIIS: error= 2.77D-06 at cycle   5 NSaved=   5.
 NSaved= 5 IEnMin= 5 EnMin= -913.771370116226     IErMin= 5 ErrMin= 2.77D-06
 ErrMax= 2.77D-06  0.00D+00 EMaxC= 1.00D-01 BMatC= 1.84D-08 BMatP= 1.87D-07
 IDIUse=1 WtCom= 1.00D+00 WtEn= 0.00D+00
 Coeff-Com: -0.270D-02 0.778D-01 0.114D+00 0.267D+00 0.544D+00
 Coeff:     -0.270D-02 0.778D-01 0.114D+00 0.267D+00 0.544D+00
 Gap=     0.178 Goal=   None    Shift=    0.000
 RMSDP=3.45D-07 MaxDP=6.67D-05 DE=-1.60D-07 OVMax= 4.13D-05

 Cycle   6  Pass 1  IDiag  1:
 RMSU=  1.62D-07    CP:  1.00D+00  9.55D-01  6.56D-01  7.72D-01  7.17D-01
 E= -913.771370130960     Delta-E=       -0.000000014734 Rises=F Damp=F
 DIIS: error= 1.11D-06 at cycle   6 NSaved=   6.
 NSaved= 6 IEnMin= 6 EnMin= -913.771370130960     IErMin= 6 ErrMin= 1.11D-06
 ErrMax= 1.11D-06  0.00D+00 EMaxC= 1.00D-01 BMatC= 3.17D-09 BMatP= 1.84D-08
 IDIUse=1 WtCom= 1.00D+00 WtEn= 0.00D+00
 Coeff-Com: -0.861D-03-0.952D-03 0.434D-02 0.648D-01 0.331D+00 0.601D+00
 Coeff:     -0.861D-03-0.952D-03 0.434D-02 0.648D-01 0.331D+00 0.601D+00
 Gap=     0.178 Goal=   None    Shift=    0.000
 RMSDP=1.74D-07 MaxDP=3.90D-05 DE=-1.47D-08 OVMax= 8.51D-06

 Cycle   7  Pass 1  IDiag  1:
 RMSU=  3.80D-08    CP:  1.00D+00  9.53D-01  6.66D-01  8.09D-01  8.13D-01
                    CP:  7.23D-01
 E= -913.771370133801     Delta-E=       -0.000000002841 Rises=F Damp=F
 DIIS: error= 1.19D-07 at cycle   7 NSaved=   7.
 NSaved= 7 IEnMin= 7 EnMin= -913.771370133801     IErMin= 7 ErrMin= 1.19D-07
 ErrMax= 1.19D-07  0.00D+00 EMaxC= 1.00D-01 BMatC= 3.57D-11 BMatP= 3.17D-09
 IDIUse=1 WtCom= 1.00D+00 WtEn= 0.00D+00
 Coeff-Com: -0.205D-03-0.271D-02-0.193D-02 0.147D-01 0.104D+00 0.205D+00
 Coeff-Com:  0.682D+00
 Coeff:     -0.205D-03-0.271D-02-0.193D-02 0.147D-01 0.104D+00 0.205D+00
 Coeff:      0.682D+00
 Gap=     0.178 Goal=   None    Shift=    0.000
 RMSDP=1.77D-08 MaxDP=3.01D-06 DE=-2.84D-09 OVMax= 2.22D-06

 Cycle   8  Pass 1  IDiag  1:
 RMSU=  1.54D-08    CP:  1.00D+00  9.53D-01  6.66D-01  8.11D-01  8.24D-01
                    CP:  7.38D-01  8.86D-01
 E= -913.771370133809     Delta-E=       -0.000000000007 Rises=F Damp=F
 DIIS: error= 9.45D-08 at cycle   8 NSaved=   8.
 NSaved= 8 IEnMin= 8 EnMin= -913.771370133809     IErMin= 8 ErrMin= 9.45D-08
 ErrMax= 9.45D-08  0.00D+00 EMaxC= 1.00D-01 BMatC= 1.88D-11 BMatP= 3.57D-11
 IDIUse=1 WtCom= 1.00D+00 WtEn= 0.00D+00
 Coeff-Com: -0.182D-04-0.163D-02-0.184D-02 0.866D-03 0.232D-01 0.500D-01
 Coeff-Com:  0.432D+00 0.498D+00
 Coeff:     -0.182D-04-0.163D-02-0.184D-02 0.866D-03 0.232D-01 0.500D-01
 Coeff:      0.432D+00 0.498D+00
 Gap=     0.178 Goal=   None    Shift=    0.000
 RMSDP=1.03D-08 MaxDP=1.94D-06 DE=-7.28D-12 OVMax= 1.27D-06

 Cycle   9  Pass 1  IDiag  1:
 RMSU=  6.59D-09    CP:  1.00D+00  9.53D-01  6.66D-01  8.13D-01  8.25D-01
                    CP:  7.35D-01  9.64D-01  6.47D-01
 E= -913.771370133814     Delta-E=       -0.000000000005 Rises=F Damp=F
 DIIS: error= 3.17D-08 at cycle   9 NSaved=   9.
 NSaved= 9 IEnMin= 9 EnMin= -913.771370133814     IErMin= 9 ErrMin= 3.17D-08
 ErrMax= 3.17D-08  0.00D+00 EMaxC= 1.00D-01 BMatC= 1.89D-12 BMatP= 1.88D-11
 IDIUse=1 WtCom= 1.00D+00 WtEn= 0.00D+00
 Coeff-Com:  0.179D-04-0.473D-03-0.699D-03-0.164D-02-0.266D-02-0.395D-02
 Coeff-Com:  0.143D+00 0.288D+00 0.578D+00
 Coeff:      0.179D-04-0.473D-03-0.699D-03-0.164D-02-0.266D-02-0.395D-02
 Coeff:      0.143D+00 0.288D+00 0.578D+00
 Gap=     0.178 Goal=   None    Shift=    0.000
 RMSDP=3.24D-09 MaxDP=4.00D-07 DE=-5.00D-12 OVMax= 4.18D-07

 SCF Done:  E(RPBE1PBE) =  -913.771370134     A.U. after    9 cycles
            NFock=  9  Conv=0.32D-08     -V/T= 2.0046
 KE= 9.095480959682D+02 PE=-5.252589242887D+03 EE= 1.865865733326D+03
 Leave Link  502 at Mon Oct 18 15:19:20 2021, MaxMem=  7864320000 cpu:            5136.6 elap:             161.8
 (Enter /apps/gaussian/g16-c01-avx/g16/l508.exe)
 QCSCF skips out because SCF is already converged.
 Leave Link  508 at Mon Oct 18 15:19:20 2021, MaxMem=  7864320000 cpu:               0.1 elap:               0.0
 (Enter /apps/gaussian/g16-c01-avx/g16/l601.exe)
 Copying SCF densities to generalized density rwf, IOpCl= 0 IROHF=0.

 **********************************************************************

            Population analysis using the SCF Density.

 **********************************************************************

 Orbital symmetries:
       Occupied  (A) (A) (A) (A) (A) (A) (A) (A) (A) (A) (A) (A)
                 (A) (A) (A) (A) (A) (A) (A) (A) (A) (A) (A) (A)
                 (A) (A) (A) (A) (A) (A) (A) (A) (A) (A) (A) (A)
                 (A) (A) (A) (A) (A) (A) (A) (A) (A) (A) (A) (A)
                 (A) (A) (A) (A) (A) (A) (A) (A) (A) (A) (A) (A)
                 (A) (A) (A) (A) (A) (A) (A) (A) (A) (A) (A) (A)
                 (A) (A) (A) (A) (A) (A)
       Virtual   (A) (A) (A) (A) (A) (A) (A) (A) (A) (A) (A) (A)
                 (A) (A) (A) (A) (A) (A) (A) (A) (A) (A) (A) (A)
                 (A) (A) (A) (A) (A) (A) (A) (A) (A) (A) (A) (A)
                 (A) (A) (A) (A) (A) (A) (A) (A) (A) (A) (A) (A)
                 (A) (A) (A) (A) (A) (A) (A) (A) (A) (A) (A) (A)
                 (A) (A) (A) (A) (A) (A) (A) (A) (A) (A) (A) (A)
                 (A) (A) (A) (A) (A) (A) (A) (A) (A) (A) (A) (A)
                 (A) (A) (A) (A) (A) (A) (A) (A) (A) (A) (A) (A)
                 (A) (A) (A) (A) (A) (A) (A) (A) (A) (A) (A) (A)
                 (A) (A) (A) (A) (A) (A) (A) (A) (A) (A) (A) (A)
                 (A) (A) (A) (A) (A) (A) (A) (A) (A) (A) (A) (A)
                 (A) (A) (A) (A) (A) (A) (A) (A) (A) (A) (A) (A)
                 (A) (A) (A) (A) (A) (A) (A) (A) (A) (A) (A) (A)
                 (A) (A) (A) (A) (A) (A) (A) (A) (A) (A) (A) (A)
                 (A) (A) (A) (A) (A) (A) (A) (A) (A) (A) (A) (A)
                 (A) (A) (A) (A) (A) (A) (A) (A) (A) (A) (A) (A)
                 (A) (A) (A) (A) (A) (A) (A) (A) (A) (A) (A) (A)
                 (A) (A) (A) (A) (A) (A) (A) (A) (A) (A) (A) (A)
                 (A) (A) (A) (A) (A) (A) (A) (A) (A) (A) (A) (A)
                 (A) (A) (A) (A) (A) (A) (A) (A) (A) (A) (A) (A)
                 (A) (A) (A) (A) (A) (A) (A) (A) (A) (A) (A) (A)
                 (A) (A) (A) (A) (A) (A) (A) (A) (A) (A) (A) (A)
                 (A) (A) (A) (A) (A) (A) (A) (A) (A) (A) (A) (A)
                 (A) (A) (A) (A) (A) (A) (A) (A) (A) (A) (A) (A)
                 (A) (A) (A) (A) (A) (A) (A) (A) (A) (A) (A) (A)
                 (A) (A) (A) (A) (A) (A) (A) (A) (A) (A) (A) (A)
                 (A) (A) (A) (A) (A) (A) (A) (A) (A) (A) (A) (A)
                 (A) (A) (A) (A) (A) (A) (A) (A) (A) (A) (A) (A)
                 (A) (A) (A) (A) (A) (A) (A) (A) (A) (A) (A) (A)
                 (A) (A) (A) (A) (A) (A) (A) (A) (A) (A) (A) (A)
                 (A) (A) (A) (A) (A) (A) (A) (A) (A) (A) (A) (A)
                 (A) (A) (A) (A) (A) (A) (A) (A) (A) (A) (A) (A)
                 (A) (A) (A) (A) (A) (A) (A) (A) (A) (A) (A) (A)
                 (A) (A) (A) (A) (A) (A) (A) (A) (A) (A) (A) (A)
                 (A) (A) (A) (A) (A) (A) (A) (A) (A) (A) (A) (A)
                 (A) (A) (A) (A) (A) (A) (A) (A) (A) (A) (A) (A)
                 (A) (A) (A) (A) (A) (A) (A) (A) (A) (A) (A) (A)
                 (A) (A) (A) (A) (A) (A) (A) (A) (A) (A) (A) (A)
                 (A) (A) (A) (A) (A) (A) (A) (A) (A) (A) (A) (A)
                 (A) (A) (A) (A) (A) (A) (A) (A) (A) (A) (A) (A)
                 (A) (A) (A) (A) (A) (A) (A) (A) (A) (A) (A) (A)
                 (A) (A) (A) (A) (A) (A) (A) (A) (A) (A) (A) (A)
                 (A) (A) (A) (A) (A) (A) (A) (A) (A) (A) (A) (A)
                 (A) (A) (A) (A) (A) (A) (A) (A) (A) (A) (A) (A)
                 (A) (A) (A) (A) (A) (A) (A) (A) (A) (A) (A) (A)
                 (A) (A) (A) (A) (A) (A) (A) (A) (A) (A) (A) (A)
                 (A) (A) (A) (A) (A) (A) (A) (A) (A) (A) (A) (A)
                 (A) (A) (A) (A) (A) (A) (A) (A) (A) (A) (A) (A)
                 (A) (A) (A) (A) (A) (A) (A) (A) (A) (A) (A) (A)
                 (A) (A) (A) (A) (A) (A) (A) (A) (A) (A) (A) (A)
                 (A) (A) (A) (A) (A) (A) (A) (A) (A) (A) (A) (A)
                 (A) (A) (A) (A) (A) (A) (A) (A) (A) (A) (A) (A)
                 (A) (A) (A) (A) (A) (A) (A) (A) (A) (A) (A) (A)
                 (A) (A) (A) (A) (A) (A) (A) (A) (A) (A) (A) (A)
                 (A) (A) (A) (A) (A) (A) (A) (A) (A) (A) (A) (A)
                 (A) (A) (A) (A) (A) (A) (A) (A) (A) (A) (A) (A)
                 (A) (A) (A) (A) (A) (A) (A) (A) (A) (A) (A) (A)
                 (A) (A) (A) (A) (A) (A) (A) (A) (A) (A) (A) (A)
                 (A) (A) (A) (A) (A) (A) (A) (A) (A) (A) (A) (A)
                 (A) (A) (A) (A) (A) (A) (A) (A) (A)
 The electronic state is 1-A.
 Alpha  occ. eigenvalues --  -14.38435 -14.38369 -14.37798 -14.36583 -14.35339
 Alpha  occ. eigenvalues --  -14.35132 -10.27224 -10.27173 -10.26704 -10.25073
 Alpha  occ. eigenvalues --  -10.24916 -10.24850 -10.24805 -10.24796 -10.24697
 Alpha  occ. eigenvalues --  -10.24687 -10.24257 -10.24245 -10.24225 -10.24205
 Alpha  occ. eigenvalues --  -10.23991  -0.96984  -0.96729  -0.96022  -0.91488
 Alpha  occ. eigenvalues --   -0.90816  -0.90242  -0.89638  -0.81753  -0.81123
 Alpha  occ. eigenvalues --   -0.75962  -0.75069  -0.74944  -0.68246  -0.67486
 Alpha  occ. eigenvalues --   -0.66184  -0.63685  -0.62382  -0.60756  -0.57360
 Alpha  occ. eigenvalues --   -0.56033  -0.53929  -0.53101  -0.51630  -0.51230
 Alpha  occ. eigenvalues --   -0.50936  -0.50229  -0.49669  -0.48631  -0.48228
 Alpha  occ. eigenvalues --   -0.47566  -0.46375  -0.45797  -0.45287  -0.44829
 Alpha  occ. eigenvalues --   -0.43556  -0.42494  -0.41727  -0.40812  -0.40271
 Alpha  occ. eigenvalues --   -0.39965  -0.39466  -0.39153  -0.38495  -0.37245
 Alpha  occ. eigenvalues --   -0.36483  -0.36141  -0.35151  -0.34143  -0.31274
 Alpha  occ. eigenvalues --   -0.27915  -0.27543  -0.26919  -0.26448  -0.25867
 Alpha  occ. eigenvalues --   -0.25486  -0.24717  -0.24362
 Alpha virt. eigenvalues --   -0.06560  -0.05628  -0.01956   0.03704   0.03858
 Alpha virt. eigenvalues --    0.04422   0.05525   0.05762   0.06064   0.06151
 Alpha virt. eigenvalues --    0.07276   0.07478   0.07931   0.08344   0.09015
 Alpha virt. eigenvalues --    0.09310   0.10293   0.10569   0.10992   0.11735
 Alpha virt. eigenvalues --    0.12112   0.12230   0.12653   0.13221   0.13869
 Alpha virt. eigenvalues --    0.14065   0.14472   0.14577   0.15221   0.15366
 Alpha virt. eigenvalues --    0.16147   0.16850   0.17163   0.17373   0.18105
 Alpha virt. eigenvalues --    0.18942   0.19150   0.20093   0.20303   0.20879
 Alpha virt. eigenvalues --    0.20977   0.21407   0.21956   0.23371   0.23760
 Alpha virt. eigenvalues --    0.23847   0.24624   0.25025   0.25897   0.26139
 Alpha virt. eigenvalues --    0.26554   0.27206   0.27465   0.28323   0.28387
 Alpha virt. eigenvalues --    0.29227   0.29585   0.30213   0.30357   0.30710
 Alpha virt. eigenvalues --    0.31046   0.31505   0.31940   0.32277   0.33235
 Alpha virt. eigenvalues --    0.33555   0.33964   0.34578   0.35038   0.35205
 Alpha virt. eigenvalues --    0.35673   0.36068   0.37126   0.37570   0.38058
 Alpha virt. eigenvalues --    0.38254   0.38615   0.38831   0.39428   0.39953
 Alpha virt. eigenvalues --    0.40704   0.40911   0.41109   0.41230   0.41570
 Alpha virt. eigenvalues --    0.41933   0.42194   0.42283   0.42527   0.42775
 Alpha virt. eigenvalues --    0.43037   0.43506   0.43879   0.44451   0.44790
 Alpha virt. eigenvalues --    0.45306   0.45777   0.46124   0.46539   0.47263
 Alpha virt. eigenvalues --    0.47407   0.47751   0.48246   0.48806   0.49161
 Alpha virt. eigenvalues --    0.49568   0.50100   0.50414   0.50825   0.51275
 Alpha virt. eigenvalues --    0.51838   0.52654   0.52752   0.53025   0.53515
 Alpha virt. eigenvalues --    0.53887   0.54178   0.54424   0.54878   0.55575
 Alpha virt. eigenvalues --    0.55922   0.56672   0.57216   0.57635   0.57907
 Alpha virt. eigenvalues --    0.59278   0.59738   0.59861   0.60864   0.61208
 Alpha virt. eigenvalues --    0.61970   0.62166   0.62663   0.63178   0.63752
 Alpha virt. eigenvalues --    0.64322   0.64659   0.65186   0.65892   0.66858
 Alpha virt. eigenvalues --    0.67179   0.67977   0.68753   0.68883   0.69249
 Alpha virt. eigenvalues --    0.70047   0.71176   0.71382   0.71729   0.72370
 Alpha virt. eigenvalues --    0.73298   0.73590   0.74788   0.74977   0.75501
 Alpha virt. eigenvalues --    0.76631   0.76853   0.77773   0.77993   0.78590
 Alpha virt. eigenvalues --    0.79076   0.79846   0.81718   0.82245   0.82969
 Alpha virt. eigenvalues --    0.83729   0.84368   0.84798   0.85652   0.86332
 Alpha virt. eigenvalues --    0.86840   0.87658   0.88294   0.89339   0.89925
 Alpha virt. eigenvalues --    0.90900   0.90937   0.92792   0.93867   0.94777
 Alpha virt. eigenvalues --    0.95030   0.95997   0.96741   0.97185   0.97785
 Alpha virt. eigenvalues --    0.99175   0.99504   1.00917   1.01960   1.02656
 Alpha virt. eigenvalues --    1.03549   1.05081   1.06050   1.06839   1.07309
 Alpha virt. eigenvalues --    1.08446   1.08844   1.09629   1.10488   1.12066
 Alpha virt. eigenvalues --    1.12528   1.13696   1.15132   1.15189   1.16702
 Alpha virt. eigenvalues --    1.17057   1.18391   1.19291   1.19509   1.20568
 Alpha virt. eigenvalues --    1.21160   1.21685   1.22584   1.23484   1.23943
 Alpha virt. eigenvalues --    1.24704   1.25235   1.25955   1.26292   1.26874
 Alpha virt. eigenvalues --    1.28645   1.28849   1.29318   1.30207   1.30786
 Alpha virt. eigenvalues --    1.31865   1.34149   1.34358   1.34769   1.35832
 Alpha virt. eigenvalues --    1.36001   1.36361   1.37411   1.38776   1.39085
 Alpha virt. eigenvalues --    1.39502   1.40640   1.41405   1.42236   1.43530
 Alpha virt. eigenvalues --    1.43682   1.44082   1.44407   1.45059   1.45370
 Alpha virt. eigenvalues --    1.46566   1.47295   1.47488   1.48322   1.49549
 Alpha virt. eigenvalues --    1.50430   1.50785   1.51042   1.52367   1.52834
 Alpha virt. eigenvalues --    1.53921   1.54887   1.55205   1.55860   1.56279
 Alpha virt. eigenvalues --    1.57046   1.57754   1.58441   1.59141   1.59358
 Alpha virt. eigenvalues --    1.59761   1.60044   1.61504   1.61874   1.61988
 Alpha virt. eigenvalues --    1.64379   1.65013   1.65746   1.66108   1.67505
 Alpha virt. eigenvalues --    1.68113   1.68956   1.69166   1.70076   1.70662
 Alpha virt. eigenvalues --    1.71087   1.71286   1.71951   1.73441   1.74678
 Alpha virt. eigenvalues --    1.75043   1.75633   1.76445   1.76793   1.77677
 Alpha virt. eigenvalues --    1.78189   1.78926   1.80193   1.80544   1.81231
 Alpha virt. eigenvalues --    1.81941   1.83149   1.84338   1.85242   1.85613
 Alpha virt. eigenvalues --    1.85747   1.87357   1.87545   1.88324   1.89509
 Alpha virt. eigenvalues --    1.90075   1.90613   1.91765   1.92517   1.93803
 Alpha virt. eigenvalues --    1.94085   1.94962   1.95427   1.96860   1.97515
 Alpha virt. eigenvalues --    1.97965   1.98801   1.98951   1.99753   2.00912
 Alpha virt. eigenvalues --    2.01343   2.02261   2.02793   2.03328   2.03456
 Alpha virt. eigenvalues --    2.04055   2.04627   2.05317   2.06282   2.07073
 Alpha virt. eigenvalues --    2.07156   2.08757   2.08993   2.09990   2.11288
 Alpha virt. eigenvalues --    2.12073   2.13463   2.14557   2.14911   2.15855
 Alpha virt. eigenvalues --    2.16194   2.18030   2.18749   2.19402   2.21546
 Alpha virt. eigenvalues --    2.23099   2.24457   2.25311   2.25772   2.26292
 Alpha virt. eigenvalues --    2.26667   2.29063   2.30973   2.31227   2.31722
 Alpha virt. eigenvalues --    2.33029   2.34136   2.35630   2.37073   2.37615
 Alpha virt. eigenvalues --    2.38331   2.38490   2.38763   2.39877   2.40616
 Alpha virt. eigenvalues --    2.41848   2.42817   2.43229   2.44586   2.44939
 Alpha virt. eigenvalues --    2.45721   2.46895   2.47510   2.48352   2.49749
 Alpha virt. eigenvalues --    2.50733   2.51108   2.51432   2.52782   2.53026
 Alpha virt. eigenvalues --    2.53668   2.53820   2.55507   2.55940   2.56678
 Alpha virt. eigenvalues --    2.57226   2.58484   2.58802   2.59621   2.59970
 Alpha virt. eigenvalues --    2.61043   2.62012   2.62523   2.63416   2.63588
 Alpha virt. eigenvalues --    2.63710   2.65133   2.65839   2.66346   2.67024
 Alpha virt. eigenvalues --    2.67618   2.67748   2.68534   2.69512   2.69729
 Alpha virt. eigenvalues --    2.70368   2.70796   2.71061   2.71396   2.73171
 Alpha virt. eigenvalues --    2.73924   2.74435   2.74799   2.75532   2.76385
 Alpha virt. eigenvalues --    2.76826   2.77453   2.78399   2.78877   2.79628
 Alpha virt. eigenvalues --    2.80883   2.81390   2.81549   2.82162   2.83042
 Alpha virt. eigenvalues --    2.83590   2.84315   2.84637   2.85985   2.86898
 Alpha virt. eigenvalues --    2.87242   2.87863   2.89439   2.89869   2.90246
 Alpha virt. eigenvalues --    2.91830   2.93467   2.93807   2.95120   2.95963
 Alpha virt. eigenvalues --    2.96460   2.97642   2.98129   2.98299   2.99191
 Alpha virt. eigenvalues --    2.99483   3.01589   3.01940   3.03670   3.04574
 Alpha virt. eigenvalues --    3.05627   3.05856   3.06394   3.06485   3.08290
 Alpha virt. eigenvalues --    3.09117   3.09553   3.10572   3.10927   3.11751
 Alpha virt. eigenvalues --    3.12171   3.13642   3.14323   3.14748   3.15212
 Alpha virt. eigenvalues --    3.15788   3.15997   3.16601   3.17462   3.18051
 Alpha virt. eigenvalues --    3.18330   3.19105   3.19913   3.20276   3.21358
 Alpha virt. eigenvalues --    3.22172   3.22428   3.23710   3.24197   3.25244
 Alpha virt. eigenvalues --    3.25632   3.25990   3.26328   3.27019   3.27441
 Alpha virt. eigenvalues --    3.28359   3.29391   3.30383   3.30711   3.31262
 Alpha virt. eigenvalues --    3.31625   3.31848   3.32754   3.33072   3.34008
 Alpha virt. eigenvalues --    3.34309   3.34613   3.35604   3.35695   3.36854
 Alpha virt. eigenvalues --    3.37460   3.38046   3.38978   3.39853   3.40329
 Alpha virt. eigenvalues --    3.41008   3.41147   3.41967   3.42677   3.43302
 Alpha virt. eigenvalues --    3.43959   3.44836   3.45475   3.46619   3.47323
 Alpha virt. eigenvalues --    3.47849   3.48879   3.50193   3.51677   3.52196
 Alpha virt. eigenvalues --    3.54341   3.54997   3.56296   3.57471   3.58497
 Alpha virt. eigenvalues --    3.60457   3.60989   3.61738   3.62359   3.63134
 Alpha virt. eigenvalues --    3.65082   3.67033   3.67994   3.70189   3.72128
 Alpha virt. eigenvalues --    3.72982   3.74988   3.75140   3.75990   3.76467
 Alpha virt. eigenvalues --    3.77269   3.77784   3.78236   3.79170   3.79668
 Alpha virt. eigenvalues --    3.80371   3.81585   3.82742   3.83365   3.84397
 Alpha virt. eigenvalues --    3.85242   3.86007   3.86208   3.87637   3.88720
 Alpha virt. eigenvalues --    3.89322   3.90255   3.91249   3.91696   3.92827
 Alpha virt. eigenvalues --    3.95314   3.96145   3.97907   3.98832   4.00017
 Alpha virt. eigenvalues --    4.00790   4.01955   4.02904   4.04381   4.05607
 Alpha virt. eigenvalues --    4.07002   4.07952   4.09153   4.10409   4.12588
 Alpha virt. eigenvalues --    4.13093   4.14181   4.14726   4.15637   4.17047
 Alpha virt. eigenvalues --    4.18261   4.20615   4.21051   4.22073   4.23541
 Alpha virt. eigenvalues --    4.24215   4.24849   4.25795   4.26859   4.29551
 Alpha virt. eigenvalues --    4.30715   4.32825   4.33274   4.33747   4.35318
 Alpha virt. eigenvalues --    4.36041   4.36850   4.38056   4.38983   4.40322
 Alpha virt. eigenvalues --    4.42212   4.43752   4.45818   4.47080   4.48657
 Alpha virt. eigenvalues --    4.50691   4.52444   4.54700   4.55760   4.56473
 Alpha virt. eigenvalues --    4.57995   4.59888   4.61099   4.62211   4.64339
 Alpha virt. eigenvalues --    4.65152   4.67044   4.68921   4.70827   4.71789
 Alpha virt. eigenvalues --    4.73410   4.76534   4.76987   4.77353   4.81184
 Alpha virt. eigenvalues --    4.81819   4.83013   4.83105   4.83855   4.84890
 Alpha virt. eigenvalues --    4.86024   4.86839   4.87255   4.89102   4.89352
 Alpha virt. eigenvalues --    4.91031   4.92459   4.93794   4.95267   4.96509
 Alpha virt. eigenvalues --    4.97943   5.02622   5.03836   5.04354   5.04590
 Alpha virt. eigenvalues --    5.06936   5.08722   5.10071   5.10254   5.11312
 Alpha virt. eigenvalues --    5.12509   5.13887   5.13938   5.14954   5.15782
 Alpha virt. eigenvalues --    5.18032   5.21995   5.22376   5.23254   5.25015
 Alpha virt. eigenvalues --    5.26818   5.28095   5.29349   5.30070   5.31654
 Alpha virt. eigenvalues --    5.32912   5.33794   5.35060   5.35773   5.36563
 Alpha virt. eigenvalues --    5.37631   5.41623   5.43754   5.44587   5.48044
 Alpha virt. eigenvalues --    5.52632   5.53343   5.54285   5.55396   5.56874
 Alpha virt. eigenvalues --    5.59508   5.62150   5.64934   5.68462   5.70311
 Alpha virt. eigenvalues --    5.73524   5.77570   5.79624   5.82399   5.83459
 Alpha virt. eigenvalues --    5.84343   5.90798   5.93562   5.98776   6.03258
 Alpha virt. eigenvalues --    6.10378  22.36453  22.49856  22.50568  22.54854
 Alpha virt. eigenvalues --   22.64268  22.64974  22.65575  22.85164  22.88216
 Alpha virt. eigenvalues --   22.97822  23.09521  23.11640  23.13666  23.16575
 Alpha virt. eigenvalues --   23.49481  31.99798  32.04556  32.07129  32.62310
 Alpha virt. eigenvalues --   32.67596  32.73040
          Condensed to atoms (all electrons):
               1          2          3          4          5          6
     1  C    5.334953   0.242248   0.171614   0.160647  -0.108466  -0.203609
     2  C    0.242248   5.007809  -0.107010   0.028430  -0.008014   0.001240
     3  C    0.171614  -0.107010   5.793894  -0.039649   0.460019   0.152698
     4  C    0.160647   0.028430  -0.039649   5.530335  -0.069184   0.083793
     5  H   -0.108466  -0.008014   0.460019  -0.069184   0.540799   0.021818
     6  C   -0.203609   0.001240   0.152698   0.083793   0.021818   5.896067
     7  C    0.162809   0.010377  -0.241862   0.249774  -0.006598  -0.145654
     8  H   -0.007829   0.000022   0.027620  -0.111591   0.000245   0.485839
     9  C    0.274880  -0.059177   0.103904  -0.185866   0.017597   0.077181
    10  C   -0.004211  -0.002949   0.015014  -0.006020   0.000300  -0.044236
    11  H   -0.077665  -0.003594   0.016706  -0.006728  -0.000043   0.025734
    12  C    0.025618  -0.002052  -0.085915   0.271677  -0.027156  -0.101017
    13  C   -0.003542  -0.000404  -0.008501   0.002398  -0.001482   0.000024
    14  C   -0.026645  -0.086206   0.017624  -0.003295  -0.001780  -0.000153
    15  N   -0.000082   0.002428  -0.000392  -0.000108  -0.000226  -0.000002
    16  N   -0.109864   0.707130  -0.000363   0.003708   0.001665   0.000363
    17  H   -0.003850   0.000219   0.002188   0.000198   0.001379   0.000046
    18  C    0.000072   0.000049  -0.010093   0.039110  -0.005057  -0.000381
    19  C   -0.000043  -0.000002  -0.000114  -0.001569   0.000530   0.000013
    20  N   -0.000371  -0.000281   0.023694  -0.157210   0.026422   0.001154
    21  N    0.000005  -0.000010  -0.000119   0.000247   0.001065   0.000001
    22  C   -0.000033  -0.000004  -0.000028  -0.000125   0.000000  -0.007071
    23  C    0.000026   0.000000  -0.000017   0.000002  -0.000000  -0.000905
    24  N   -0.001508   0.000001   0.002136  -0.008286   0.000008   0.045837
    25  H   -0.000080  -0.000000   0.000048  -0.000158   0.000000   0.002942
    26  N   -0.000000  -0.000000   0.000000  -0.000000   0.000000   0.000034
    27  H    0.000000  -0.000000  -0.000000   0.000000  -0.000000   0.000001
    28  H   -0.000000  -0.000000   0.000000  -0.000000   0.000000   0.000000
    29  H   -0.000066   0.000320  -0.000047   0.000006   0.000112   0.000000
    30  H    0.000476   0.002623  -0.000066  -0.000033  -0.000073  -0.000001
    31  H    0.000001  -0.000001   0.000039  -0.000112   0.000018  -0.000002
    32  H    0.000053  -0.000019   0.000052  -0.001459   0.002034   0.000015
    33  H   -0.143326   0.445059   0.004408  -0.000415   0.000117   0.000469
    34  H   -0.001743  -0.000046   0.033921  -0.130927   0.002427   0.002366
    35  H   -0.003906  -0.000159   0.002816  -0.005261   0.000009   0.052067
    36  H    0.027831  -0.005406  -0.001365  -0.007994  -0.007367  -0.001548
    37  H    0.000004  -0.000000  -0.000006   0.000055  -0.000000  -0.000082
    38  H   -0.000025  -0.000000   0.001386  -0.003002   0.000365   0.000185
    39  H    0.000051   0.000001   0.000175  -0.002082  -0.000472   0.000017
    40  H    0.000054   0.000005  -0.000388  -0.000320  -0.000819  -0.000054
    41  H   -0.000001  -0.000000   0.000049  -0.000051   0.000073   0.000000
    42  H   -0.005059   0.003995  -0.006390   0.000817   0.015011   0.000155
    43  H   -0.000046   0.000816   0.001263  -0.000167  -0.001545  -0.000014
    44  H   -0.000006   0.000000   0.000012  -0.000039   0.000000   0.000369
    45  H    0.000001  -0.000000  -0.000000   0.000016  -0.000000   0.000058
               7          8          9         10         11         12
     1  C    0.162809  -0.007829   0.274880  -0.004211  -0.077665   0.025618
     2  C    0.010377   0.000022  -0.059177  -0.002949  -0.003594  -0.002052
     3  C   -0.241862   0.027620   0.103904   0.015014   0.016706  -0.085915
     4  C    0.249774  -0.111591  -0.185866  -0.006020  -0.006728   0.271677
     5  H   -0.006598   0.000245   0.017597   0.000300  -0.000043  -0.027156
     6  C   -0.145654   0.485839   0.077181  -0.044236   0.025734  -0.101017
     7  C    5.634335  -0.102961   0.270989   0.249950  -0.080437   0.026595
     8  H   -0.102961   0.529497   0.019726  -0.010467   0.000133  -0.007436
     9  C    0.270989   0.019726   5.392300  -0.063389   0.442619   0.002250
    10  C    0.249950  -0.010467  -0.063389   4.999772  -0.003229  -0.004277
    11  H   -0.080437   0.000133   0.442619  -0.003229   0.549275   0.000087
    12  C    0.026595  -0.007436   0.002250  -0.004277   0.000087   5.028353
    13  C   -0.000034   0.000000  -0.000291  -0.000001   0.000017   0.000289
    14  C    0.000029  -0.000002   0.003860   0.000014   0.000199  -0.000231
    15  N    0.000004   0.000000  -0.000049  -0.000000  -0.000001   0.000008
    16  N   -0.002619  -0.000003   0.009600  -0.000039   0.000825  -0.000117
    17  H   -0.000060  -0.000000   0.000093  -0.000000   0.000003  -0.000050
    18  C    0.000191  -0.000103  -0.000147  -0.000005  -0.000000  -0.071747
    19  C   -0.000008   0.000001   0.000004   0.000000   0.000000  -0.000574
    20  N   -0.000984  -0.000305   0.000828   0.000004   0.000002   0.685271
    21  N   -0.000002   0.000000   0.000005   0.000000   0.000000  -0.000501
    22  C    0.015581  -0.003130  -0.001174  -0.075779  -0.000131  -0.000011
    23  C    0.004046  -0.000608   0.000105   0.001120  -0.000004   0.000007
    24  N   -0.193548   0.044556   0.004629   0.682125  -0.000361  -0.000867
    25  H   -0.001224   0.000788   0.000371  -0.004337   0.000244  -0.000003
    26  N   -0.000134   0.000019   0.000001   0.000825   0.000000  -0.000000
    27  H   -0.000010  -0.000001  -0.000000  -0.000017  -0.000000   0.000000
    28  H   -0.000016  -0.000000   0.000000  -0.000109   0.000000  -0.000000
    29  H   -0.000000   0.000000  -0.000001  -0.000000   0.000000  -0.000001
    30  H    0.000004   0.000000  -0.000038   0.000000  -0.000002   0.000001
    31  H   -0.000000  -0.000000   0.000000  -0.000000   0.000000  -0.000007
    32  H   -0.000003   0.000001   0.000013   0.000000   0.000000   0.000658
    33  H   -0.000506  -0.000001   0.009667  -0.000161   0.004163  -0.000020
    34  H    0.001465   0.006989   0.000736  -0.000059  -0.000001   0.425330
    35  H   -0.151194   0.003816   0.005210   0.406067   0.012350  -0.000098
    36  H    0.001926   0.000006  -0.003616   0.000038  -0.000215   0.001377
    37  H   -0.000397  -0.000295  -0.000055  -0.001298  -0.000007   0.000000
    38  H   -0.000004   0.000118   0.000010   0.000000   0.000000   0.000280
    39  H    0.000002  -0.000004  -0.000009  -0.000000  -0.000000  -0.000848
    40  H    0.000011  -0.000004  -0.000014  -0.000000  -0.000000   0.003728
    41  H   -0.000000   0.000000   0.000000   0.000000   0.000000   0.000406
    42  H   -0.000057  -0.000000   0.000242  -0.000000   0.000002  -0.000401
    43  H    0.000009   0.000000  -0.000037   0.000000  -0.000001   0.000024
    44  H   -0.000394   0.001278   0.000075   0.002707   0.000005  -0.000004
    45  H   -0.001382  -0.000058  -0.000125   0.003412  -0.000003  -0.000001
              13         14         15         16         17         18
     1  C   -0.003542  -0.026645  -0.000082  -0.109864  -0.003850   0.000072
     2  C   -0.000404  -0.086206   0.002428   0.707130   0.000219   0.000049
     3  C   -0.008501   0.017624  -0.000392  -0.000363   0.002188  -0.010093
     4  C    0.002398  -0.003295  -0.000108   0.003708   0.000198   0.039110
     5  H   -0.001482  -0.001780  -0.000226   0.001665   0.001379  -0.005057
     6  C    0.000024  -0.000153  -0.000002   0.000363   0.000046  -0.000381
     7  C   -0.000034   0.000029   0.000004  -0.002619  -0.000060   0.000191
     8  H    0.000000  -0.000002   0.000000  -0.000003  -0.000000  -0.000103
     9  C   -0.000291   0.003860  -0.000049   0.009600   0.000093  -0.000147
    10  C   -0.000001   0.000014  -0.000000  -0.000039  -0.000000  -0.000005
    11  H    0.000017   0.000199  -0.000001   0.000825   0.000003  -0.000000
    12  C    0.000289  -0.000231   0.000008  -0.000117  -0.000050  -0.071747
    13  C    4.872638   0.401510   0.321926  -0.044992  -0.034460   0.000084
    14  C    0.401510   4.962822  -0.057056   0.257398   0.399066  -0.000027
    15  N    0.321926  -0.057056   6.536936  -0.015814  -0.004250  -0.000001
    16  N   -0.044992   0.257398  -0.015814   6.488778  -0.045597  -0.000001
    17  H   -0.034460   0.399066  -0.004250  -0.045597   0.591156  -0.000000
    18  C    0.000084  -0.000027  -0.000001  -0.000001  -0.000000   4.826607
    19  C    0.000005  -0.000015  -0.000001   0.000001   0.000000   0.374624
    20  N    0.001062  -0.001630   0.000011   0.000056   0.000003   0.278020
    21  N   -0.000308   0.000061  -0.000002   0.000000  -0.000000  -0.042029
    22  C    0.000000   0.000000  -0.000000  -0.000000   0.000000  -0.000000
    23  C    0.000000   0.000000  -0.000000   0.000000  -0.000000   0.000000
    24  N    0.000000  -0.000000  -0.000000  -0.000000   0.000000  -0.000000
    25  H   -0.000000   0.000000   0.000000  -0.000000  -0.000000   0.000000
    26  N   -0.000000  -0.000000  -0.000000  -0.000000   0.000000  -0.000000
    27  H    0.000000  -0.000000  -0.000000  -0.000000   0.000000  -0.000000
    28  H    0.000000   0.000000  -0.000000  -0.000000  -0.000000  -0.000000
    29  H   -0.063056   0.004760   0.371513  -0.001395   0.004842   0.000000
    30  H   -0.061953  -0.004584   0.384163   0.012822  -0.000685   0.000000
    31  H   -0.000070   0.000008  -0.000000   0.000000   0.000000   0.007116
    32  H   -0.000117  -0.000013   0.000039   0.000009   0.000003  -0.021289
    33  H   -0.001166   0.013540   0.000624  -0.038698   0.000239   0.000000
    34  H    0.000014  -0.000037   0.000000  -0.000001  -0.000000  -0.030934
    35  H   -0.000000   0.000001   0.000000  -0.000004  -0.000000   0.000000
    36  H   -0.051569   0.377367   0.013481  -0.046721  -0.025407  -0.000024
    37  H    0.000000  -0.000000  -0.000000  -0.000000   0.000000   0.000000
    38  H    0.000010  -0.000008   0.000000   0.000000  -0.000000   0.366476
    39  H    0.000018  -0.000005   0.000000  -0.000000   0.000000   0.406986
    40  H    0.000046  -0.000010   0.000000  -0.000000  -0.000000  -0.028767
    41  H   -0.000004   0.000001   0.000000   0.000000   0.000000  -0.025388
    42  H    0.384051  -0.047011  -0.035996  -0.005208   0.007235  -0.000188
    43  H    0.392599  -0.054906  -0.024393   0.006911  -0.001142   0.000053
    44  H   -0.000000   0.000000   0.000000  -0.000000  -0.000000   0.000000
    45  H    0.000000  -0.000000  -0.000000  -0.000000   0.000000  -0.000000
              19         20         21         22         23         24
     1  C   -0.000043  -0.000371   0.000005  -0.000033   0.000026  -0.001508
     2  C   -0.000002  -0.000281  -0.000010  -0.000004   0.000000   0.000001
     3  C   -0.000114   0.023694  -0.000119  -0.000028  -0.000017   0.002136
     4  C   -0.001569  -0.157210   0.000247  -0.000125   0.000002  -0.008286
     5  H    0.000530   0.026422   0.001065   0.000000  -0.000000   0.000008
     6  C    0.000013   0.001154   0.000001  -0.007071  -0.000905   0.045837
     7  C   -0.000008  -0.000984  -0.000002   0.015581   0.004046  -0.193548
     8  H    0.000001  -0.000305   0.000000  -0.003130  -0.000608   0.044556
     9  C    0.000004   0.000828   0.000005  -0.001174   0.000105   0.004629
    10  C    0.000000   0.000004   0.000000  -0.075779   0.001120   0.682125
    11  H    0.000000   0.000002   0.000000  -0.000131  -0.000004  -0.000361
    12  C   -0.000574   0.685271  -0.000501  -0.000011   0.000007  -0.000867
    13  C    0.000005   0.001062  -0.000308   0.000000   0.000000   0.000000
    14  C   -0.000015  -0.001630   0.000061   0.000000   0.000000  -0.000000
    15  N   -0.000001   0.000011  -0.000002  -0.000000  -0.000000  -0.000000
    16  N    0.000001   0.000056   0.000000  -0.000000   0.000000  -0.000000
    17  H    0.000000   0.000003  -0.000000   0.000000  -0.000000   0.000000
    18  C    0.374624   0.278020  -0.042029  -0.000000   0.000000  -0.000000
[...]
    22  C    0.000000  -0.000000   0.000000   4.900649   0.351175   0.304237
    23  C    0.000000   0.000000  -0.000000   0.351175   4.881519  -0.076551
    24  N    0.000000  -0.000001  -0.000000   0.304237  -0.076551   6.475726
    25  H    0.000000   0.000000  -0.000000   0.364318  -0.047938  -0.043547
    26  N   -0.000000  -0.000000  -0.000000  -0.061043   0.308495   0.007575
    27  H   -0.000000  -0.000000   0.000000  -0.007765  -0.040184  -0.000097
    28  H    0.000000  -0.000000   0.000000   0.010577  -0.036517  -0.000701
    29  H    0.000000   0.000000  -0.000000   0.000000  -0.000000   0.000000
    30  H    0.000000   0.000001   0.000000  -0.000000  -0.000000   0.000000
    31  H   -0.030851  -0.000366   0.355989  -0.000000   0.000000  -0.000000
    32  H   -0.037888   0.016378   0.379576   0.000000  -0.000000  -0.000000
    33  H    0.000000  -0.000000  -0.000000  -0.000000   0.000000  -0.000000
    34  H   -0.000060  -0.060212  -0.000069   0.000004  -0.000000  -0.000086
    35  H    0.000000   0.000000   0.000000  -0.020098  -0.003115  -0.061487
    36  H    0.000002   0.001120  -0.000009   0.000000  -0.000000  -0.000000
    37  H   -0.000000   0.000000   0.000000   0.406661  -0.041798  -0.034280
    38  H   -0.041292  -0.047637   0.005717   0.000000  -0.000000   0.000000
    39  H   -0.045730  -0.036292   0.007895  -0.000000  -0.000000  -0.000000
    40  H    0.401082  -0.006517  -0.062915  -0.000000   0.000000  -0.000000
    41  H    0.393962   0.007973  -0.033011   0.000000  -0.000000   0.000000
    42  H    0.000080  -0.000300   0.000454   0.000000   0.000000   0.000000
    43  H   -0.000020   0.000096   0.000092   0.000000  -0.000000   0.000000
    44  H    0.000000   0.000000  -0.000000  -0.078992   0.435399   0.018370
    45  H   -0.000000  -0.000000   0.000000  -0.006520   0.374206   0.000308
              25         26         27         28         29         30
     1  C   -0.000080  -0.000000   0.000000  -0.000000  -0.000066   0.000476
     2  C   -0.000000  -0.000000  -0.000000  -0.000000   0.000320   0.002623
     3  C    0.000048   0.000000  -0.000000   0.000000  -0.000047  -0.000066
     4  C   -0.000158  -0.000000   0.000000  -0.000000   0.000006  -0.000033
     5  H    0.000000   0.000000  -0.000000   0.000000   0.000112  -0.000073
     6  C    0.002942   0.000034   0.000001   0.000000   0.000000  -0.000001
     7  C   -0.001224  -0.000134  -0.000010  -0.000016  -0.000000   0.000004
     8  H    0.000788   0.000019  -0.000001  -0.000000   0.000000   0.000000
     9  C    0.000371   0.000001  -0.000000   0.000000  -0.000001  -0.000038
    10  C   -0.004337   0.000825  -0.000017  -0.000109  -0.000000   0.000000
    11  H    0.000244   0.000000  -0.000000   0.000000   0.000000  -0.000002
    12  C   -0.000003  -0.000000   0.000000  -0.000000  -0.000001   0.000001
    13  C   -0.000000  -0.000000   0.000000   0.000000  -0.063056  -0.061953
    14  C    0.000000  -0.000000  -0.000000   0.000000   0.004760  -0.004584
    15  N    0.000000  -0.000000  -0.000000  -0.000000   0.371513   0.384163
    16  N   -0.000000  -0.000000  -0.000000  -0.000000  -0.001395   0.012822
    17  H   -0.000000   0.000000   0.000000  -0.000000   0.004842  -0.000685
    18  C    0.000000  -0.000000  -0.000000  -0.000000   0.000000   0.000000
    19  C    0.000000  -0.000000  -0.000000   0.000000   0.000000   0.000000
    20  N    0.000000  -0.000000  -0.000000  -0.000000   0.000000   0.000001
    21  N   -0.000000  -0.000000   0.000000   0.000000  -0.000000   0.000000
    22  C    0.364318  -0.061043  -0.007765   0.010577   0.000000  -0.000000
    23  C   -0.047938   0.308495  -0.040184  -0.036517  -0.000000  -0.000000
    24  N   -0.043547   0.007575  -0.000097  -0.000701   0.000000   0.000000
    25  H    0.641474   0.018878  -0.001713  -0.000496  -0.000000   0.000000
    26  N    0.018878   6.598230   0.363282   0.362217   0.000000   0.000000
    27  H   -0.001713   0.363282   0.494664  -0.034028   0.000000   0.000000
    28  H   -0.000496   0.362217  -0.034028   0.490903  -0.000000  -0.000000
    29  H   -0.000000   0.000000   0.000000  -0.000000   0.504833  -0.033649
    30  H    0.000000   0.000000   0.000000  -0.000000  -0.033649   0.470803
    31  H   -0.000000  -0.000000  -0.000000   0.000000  -0.000000   0.000000
    32  H   -0.000000   0.000000   0.000000  -0.000000  -0.000000  -0.000003
    33  H    0.000000   0.000000  -0.000000  -0.000000   0.000019  -0.000159
    34  H   -0.000000  -0.000000  -0.000000  -0.000000  -0.000000   0.000000
    35  H    0.027742   0.000227   0.000025   0.000018  -0.000000   0.000000
    36  H   -0.000000  -0.000000   0.000000   0.000000   0.000825   0.000944
    37  H   -0.040878  -0.002506   0.007267  -0.000417   0.000000   0.000000
    38  H    0.000000  -0.000000  -0.000000   0.000000   0.000000   0.000000
    39  H   -0.000000   0.000000   0.000000  -0.000000   0.000000   0.000000
    40  H    0.000000   0.000000  -0.000000  -0.000000   0.000000  -0.000000
    41  H    0.000000   0.000000   0.000000  -0.000000  -0.000000  -0.000000
    42  H   -0.000000  -0.000000  -0.000000  -0.000000   0.010481  -0.005889
    43  H    0.000000   0.000000  -0.000000  -0.000000  -0.007366   0.009490
    44  H    0.014658  -0.057484  -0.009078  -0.005580   0.000000   0.000000
    45  H   -0.010809  -0.029448   0.010107  -0.007124   0.000000   0.000000
              31         32         33         34         35         36
     1  C    0.000001   0.000053  -0.143326  -0.001743  -0.003906   0.027831
     2  C   -0.000001  -0.000019   0.445059  -0.000046  -0.000159  -0.005406
     3  C    0.000039   0.000052   0.004408   0.033921   0.002816  -0.001365
     4  C   -0.000112  -0.001459  -0.000415  -0.130927  -0.005261  -0.007994
     5  H    0.000018   0.002034   0.000117   0.002427   0.000009  -0.007367
     6  C   -0.000002   0.000015   0.000469   0.002366   0.052067  -0.001548
     7  C   -0.000000  -0.000003  -0.000506   0.001465  -0.151194   0.001926
     8  H   -0.000000   0.000001  -0.000001   0.006989   0.003816   0.000006
     9  C    0.000000   0.000013   0.009667   0.000736   0.005210  -0.003616
    10  C   -0.000000   0.000000  -0.000161  -0.000059   0.406067   0.000038
    11  H    0.000000   0.000000   0.004163  -0.000001   0.012350  -0.000215
    12  C   -0.000007   0.000658  -0.000020   0.425330  -0.000098   0.001377
    13  C   -0.000070  -0.000117  -0.001166   0.000014  -0.000000  -0.051569
    14  C    0.000008  -0.000013   0.013540  -0.000037   0.000001   0.377367
    15  N   -0.000000   0.000039   0.000624   0.000000   0.000000   0.013481
    16  N    0.000000   0.000009  -0.038698  -0.000001  -0.000004  -0.046721
    17  H    0.000000   0.000003   0.000239  -0.000000  -0.000000  -0.025407
    18  C    0.007116  -0.021289   0.000000  -0.030934   0.000000  -0.000024
    19  C   -0.030851  -0.037888   0.000000  -0.000060   0.000000   0.000002
    20  N   -0.000366   0.016378  -0.000000  -0.060212   0.000000   0.001120
    21  N    0.355989   0.379576  -0.000000  -0.000069   0.000000  -0.000009
    22  C   -0.000000   0.000000  -0.000000   0.000004  -0.020098   0.000000
    23  C    0.000000  -0.000000   0.000000  -0.000000  -0.003115  -0.000000
    24  N   -0.000000  -0.000000  -0.000000  -0.000086  -0.061487  -0.000000
    25  H   -0.000000  -0.000000   0.000000  -0.000000   0.027742  -0.000000
    26  N   -0.000000   0.000000   0.000000  -0.000000   0.000227  -0.000000
    27  H   -0.000000   0.000000  -0.000000  -0.000000   0.000025   0.000000
    28  H    0.000000  -0.000000  -0.000000  -0.000000   0.000018   0.000000
    29  H   -0.000000  -0.000000   0.000019  -0.000000  -0.000000   0.000825
    30  H    0.000000  -0.000003  -0.000159   0.000000   0.000000   0.000944
    31  H    0.501704  -0.033378  -0.000000   0.000007  -0.000000  -0.000001
    32  H   -0.033378   0.459391  -0.000000   0.000236  -0.000000   0.000028
    33  H   -0.000000  -0.000000   0.587803  -0.000001   0.000024  -0.001374
    34  H    0.000007   0.000236  -0.000001   0.648609  -0.000006   0.000079
    35  H   -0.000000  -0.000000   0.000024  -0.000006   0.665285  -0.000001
    36  H   -0.000001   0.000028  -0.001374   0.000079  -0.000001   0.605784
    37  H    0.000000   0.000000   0.000000   0.000000  -0.000535   0.000000
    38  H   -0.000791   0.001145   0.000000   0.025746   0.000000   0.000008
    39  H   -0.000492  -0.001004  -0.000000   0.000233  -0.000000  -0.000003
    40  H   -0.009685  -0.002884   0.000000  -0.000097  -0.000000   0.000002
    41  H   -0.003368   0.009016  -0.000000   0.000203   0.000000  -0.000000
    42  H    0.000154   0.000920   0.000309  -0.000006  -0.000000   0.001518
    43  H   -0.000023  -0.000038   0.000045   0.000001   0.000000   0.002640
    44  H   -0.000000  -0.000000   0.000000  -0.000001   0.000539  -0.000000
    45  H   -0.000000   0.000000   0.000000   0.000000   0.000602   0.000000
              37         38         39         40         41         42
     1  C    0.000004  -0.000025   0.000051   0.000054  -0.000001  -0.005059
     2  C   -0.000000  -0.000000   0.000001   0.000005  -0.000000   0.003995
     3  C   -0.000006   0.001386   0.000175  -0.000388   0.000049  -0.006390
     4  C    0.000055  -0.003002  -0.002082  -0.000320  -0.000051   0.000817
     5  H   -0.000000   0.000365  -0.000472  -0.000819   0.000073   0.015011
     6  C   -0.000082   0.000185   0.000017  -0.000054   0.000000   0.000155
     7  C   -0.000397  -0.000004   0.000002   0.000011  -0.000000  -0.000057
     8  H   -0.000295   0.000118  -0.000004  -0.000004   0.000000  -0.000000
     9  C   -0.000055   0.000010  -0.000009  -0.000014   0.000000   0.000242
    10  C   -0.001298   0.000000  -0.000000  -0.000000   0.000000  -0.000000
    11  H   -0.000007   0.000000  -0.000000  -0.000000   0.000000   0.000002
    12  C    0.000000   0.000280  -0.000848   0.003728   0.000406  -0.000401
    13  C    0.000000   0.000010   0.000018   0.000046  -0.000004   0.384051
    14  C   -0.000000  -0.000008  -0.000005  -0.000010   0.000001  -0.047011
    15  N   -0.000000   0.000000   0.000000   0.000000   0.000000  -0.035996
    16  N   -0.000000   0.000000  -0.000000  -0.000000   0.000000  -0.005208
    17  H    0.000000  -0.000000   0.000000  -0.000000   0.000000   0.007235
    18  C    0.000000   0.366476   0.406986  -0.028767  -0.025388  -0.000188
    19  C   -0.000000  -0.041292  -0.045730   0.401082   0.393962   0.000080
    20  N    0.000000  -0.047637  -0.036292  -0.006517   0.007973  -0.000300
    21  N    0.000000   0.005717   0.007895  -0.062915  -0.033011   0.000454
    22  C    0.406661   0.000000  -0.000000  -0.000000   0.000000   0.000000
    23  C   -0.041798  -0.000000  -0.000000   0.000000  -0.000000   0.000000
    24  N   -0.034280   0.000000  -0.000000  -0.000000   0.000000   0.000000
    25  H   -0.040878   0.000000  -0.000000   0.000000   0.000000  -0.000000
    26  N   -0.002506  -0.000000   0.000000   0.000000   0.000000  -0.000000
    27  H    0.007267  -0.000000   0.000000  -0.000000   0.000000  -0.000000
    28  H   -0.000417   0.000000  -0.000000  -0.000000  -0.000000  -0.000000
    29  H    0.000000   0.000000   0.000000   0.000000  -0.000000   0.010481
    30  H    0.000000   0.000000   0.000000  -0.000000  -0.000000  -0.005889
    31  H    0.000000  -0.000791  -0.000492  -0.009685  -0.003368   0.000154
    32  H    0.000000   0.001145  -0.001004  -0.002884   0.009016   0.000920
    33  H    0.000000   0.000000  -0.000000   0.000000  -0.000000   0.000309
    34  H    0.000000   0.025746   0.000233  -0.000097   0.000203  -0.000006
    35  H   -0.000535   0.000000  -0.000000  -0.000000   0.000000  -0.000000
    36  H    0.000000   0.000008  -0.000003   0.000002  -0.000000   0.001518
    37  H    0.605268  -0.000000   0.000000  -0.000000   0.000000  -0.000000
    38  H   -0.000000   0.647051  -0.030407   0.001883  -0.002395  -0.000009
    39  H    0.000000  -0.030407   0.585141   0.012010  -0.005981  -0.000020
    40  H   -0.000000   0.001883   0.012010   0.651693  -0.047662  -0.000082
    41  H    0.000000  -0.002395  -0.005981  -0.047662   0.608352   0.000006
    42  H   -0.000000  -0.000009  -0.000020  -0.000082   0.000006   0.593941
    43  H    0.000000   0.000001   0.000019   0.000007  -0.000001  -0.016351
    44  H   -0.011661   0.000000   0.000000   0.000000   0.000000  -0.000000
    45  H    0.009096  -0.000000   0.000000  -0.000000   0.000000  -0.000000
              43         44         45
     1  C   -0.000046  -0.000006   0.000001
     2  C    0.000816   0.000000  -0.000000
     3  C    0.001263   0.000012  -0.000000
     4  C   -0.000167  -0.000039   0.000016
     5  H   -0.001545   0.000000  -0.000000
     6  C   -0.000014   0.000369   0.000058
     7  C    0.000009  -0.000394  -0.001382
     8  H    0.000000   0.001278  -0.000058
     9  C   -0.000037   0.000075  -0.000125
    10  C    0.000000   0.002707   0.003412
    11  H   -0.000001   0.000005  -0.000003
    12  C    0.000024  -0.000004  -0.000001
    13  C    0.392599  -0.000000   0.000000
    14  C   -0.054906   0.000000  -0.000000
    15  N   -0.024393   0.000000  -0.000000
    16  N    0.006911  -0.000000  -0.000000
    17  H   -0.001142  -0.000000   0.000000
    18  C    0.000053   0.000000  -0.000000
    19  C   -0.000020   0.000000  -0.000000
    20  N    0.000096   0.000000  -0.000000
    21  N    0.000092  -0.000000   0.000000
    22  C    0.000000  -0.078992  -0.006520
    23  C   -0.000000   0.435399   0.374206
    24  N    0.000000   0.018370   0.000308
    25  H    0.000000   0.014658  -0.010809
    26  N    0.000000  -0.057484  -0.029448
    27  H   -0.000000  -0.009078   0.010107
    28  H   -0.000000  -0.005580  -0.007124
    29  H   -0.007366   0.000000   0.000000
    30  H    0.009490   0.000000   0.000000
    31  H   -0.000023  -0.000000  -0.000000
    32  H   -0.000038  -0.000000   0.000000
    33  H    0.000045   0.000000   0.000000
    34  H    0.000001  -0.000001   0.000000
    35  H    0.000000   0.000539   0.000602
    36  H    0.002640  -0.000000   0.000000
    37  H    0.000000  -0.011661   0.009096
    38  H    0.000001   0.000000  -0.000000
    39  H    0.000019   0.000000   0.000000
    40  H    0.000007   0.000000  -0.000000
    41  H   -0.000001   0.000000   0.000000
    42  H   -0.016351  -0.000000  -0.000000
    43  H    0.573431   0.000000  -0.000000
    44  H    0.000000   0.639403  -0.046044
    45  H   -0.000000  -0.046044   0.601176
 Mulliken charges:
               1
     1  C    0.300635
     2  C   -0.177440
     3  C   -0.328957
     4  C    0.370438
     5  H    0.146268
     6  C   -0.345757
     7  C    0.301990
     8  H    0.124139
     9  C   -0.322910
    10  C   -0.140769
    11  H    0.120056
    12  C   -0.168625
    13  C   -0.104744
    14  C   -0.154646
    15  N   -0.492760
    16  N   -0.177829
    17  H    0.108831
    18  C   -0.063206
    19  C   -0.072973
    20  N   -0.200902
    21  N   -0.525070
    22  C   -0.091298
    23  C   -0.108461
    24  N   -0.164189
    25  H    0.079720
    26  N   -0.509168
    27  H    0.217548
    28  H    0.221274
    29  H    0.207871
    30  H    0.225810
    31  H    0.214110
    32  H    0.228525
    33  H    0.119339
    34  H    0.075919
    35  H    0.069067
    36  H    0.117642
    37  H    0.105862
    38  H    0.075188
    39  H    0.110803
    40  H    0.089697
    41  H    0.097820
    42  H    0.103597
    43  H    0.118553
    44  H    0.096468
    45  H    0.102533
 Sum of Mulliken charges =   0.00000
 Mulliken charges with hydrogens summed into heavy atoms:
               1
     1  C    0.300635
     2  C   -0.058101
     3  C   -0.182689
     4  C    0.370438
     6  C   -0.221617
     7  C    0.301990
     9  C   -0.202853
    10  C   -0.071702
    12  C   -0.092706
    13  C    0.117406
    14  C    0.071827
    15  N   -0.059078
    16  N   -0.177829
    18  C    0.122785
    19  C    0.114544
    20  N   -0.200902
    21  N   -0.082435
    22  C    0.094284
    23  C    0.090539
    24  N   -0.164189
    26  N   -0.070347
 Electronic spatial extent (au):  <R**2>=          10888.8744
 Charge=              0.0000 electrons
 Dipole moment (field-independent basis, Debye):
    X=              3.4099    Y=              1.3221    Z=             -0.2046  Tot=              3.6630
 Quadrupole moment (field-independent basis, Debye-Ang):
   XX=           -135.1936   YY=           -122.4881   ZZ=           -124.1853
   XY=              5.2663   XZ=              3.8854   YZ=             -2.8676
 Traceless Quadrupole moment (field-independent basis, Debye-Ang):
   XX=             -7.9046   YY=              4.8009   ZZ=              3.1037
   XY=              5.2663   XZ=              3.8854   YZ=             -2.8676
 Octapole moment (field-independent basis, Debye-Ang**2):
  XXX=            163.4020  YYY=             29.7898  ZZZ=             12.2854  XYY=              9.5163
  XXY=             80.7538  XXZ=              8.6707  XZZ=              2.2345  YZZ=             -7.4384
  YYZ=             -5.0553  XYZ=             38.6037
 Hexadecapole moment (field-independent basis, Debye-Ang**3):
 XXXX=         -10769.5184 YYYY=          -3532.3695 ZZZZ=           -418.0095 XXXY=            636.1783
 XXXZ=            287.9306 YYYX=             -3.8352 YYYZ=            -34.4239 ZZZX=             40.8785
 ZZZY=             -8.7538 XXYY=          -2325.1235 XXZZ=          -1625.0248 YYZZ=           -640.1081
 XXYZ=           -140.5608 YYXZ=              4.4608 ZZXY=             44.8435
 N-N= 1.563404043460D+03 E-N=-5.252589254014D+03  KE= 9.095480959682D+02
 No NMR shielding tensors so no spin-rotation constants.
 Leave Link  601 at Mon Oct 18 15:19:20 2021, MaxMem=  7864320000 cpu:              11.9 elap:               0.5
 (Enter /apps/gaussian/g16-c01-avx/g16/l9999.exe)
 Unable to Open any file for archive entry.
 1\1\GINC-CX3-6-18\SP\RPBE1PBE\def2TZVP\C15H24N6\ATARZIA\18-Oct-2021\0\
 \#P PBE1PBE/Def2TZVP SP SCF=(YQC,MaxCycle=900) int=(Grid=Superfinegrid
 ) EmpiricalDispersion=GD3\\_1_alde1_3_ami4_2_opt_gas\\0,1\C,0,-0.872,-
 0.345,-1.1043\C,0,-0.9763,-1.6702,-0.4649\C,0,-1.9469,0.5299,-1.1924\C
 ,0,-1.8029,1.7806,-1.7969\H,0,-2.924,0.2578,-0.8281\C,0,-0.5718,2.1486
 ,-2.3227\C,0,0.5137,1.2753,-2.2575\H,0,-0.4284,3.1084,-2.7946\C,0,0.35
 3,0.0323,-1.6541\C,0,1.8029,1.654,-2.8188\H,0,1.1917,-0.6484,-1.5975\C
 ,0,-2.9389,2.6896,-1.8681\C,0,-3.7274,-1.4104,1.4381\C,0,-2.2088,-1.11
 67,1.4918\N,0,-4.0997,-2.7471,1.8404\N,0,-1.5185,-2.0151,0.6181\H,0,-1
 .8536,-1.3407,2.5044\C,0,-5.1426,3.316,-1.3961\C,0,-6.3839,2.5511,-1.8
 665\N,0,-4.0378,2.4162,-1.3143\N,0,-6.813,1.645,-0.817\C,0,3.2595,3.11
 82,-3.9053\C,0,3.7866,4.3718,-3.1965\N,0,1.9813,2.771,-3.3759\H,0,4.00
 27,2.3103,-3.8133\N,0,5.0715,4.7461,-3.7608\H,0,4.9631,5.0123,-4.7343\
 H,0,5.4557,5.5417,-3.2633\H,0,-3.8164,-2.9162,2.8003\H,0,-3.6127,-3.42
 19,1.2592\H,0,-7.5458,1.0294,-1.1527\H,0,-6.0246,1.072,-0.534\H,0,-0.4
 636,-2.4705,-0.9959\H,0,-2.7701,3.6266,-2.4218\H,0,2.6045,0.9037,-2.72
 95\H,0,-2.0305,-0.0539,1.2782\H,0,3.1215,3.3508,-4.9669\H,0,-4.9446,4.
 1735,-2.0608\H,0,-5.3425,3.6826,-0.3846\H,0,-6.1419,2.0453,-2.8178\H,0
 ,-7.1936,3.2625,-2.0561\H,0,-4.0831,-1.2657,0.4139\H,0,-4.2426,-0.6965
 ,2.0863\H,0,3.0184,5.1587,-3.2671\H,0,3.9381,4.1432,-2.1376\\Version=E
 S64L-G16RevC.01\State=1-A\HF=-913.7713701\RMSD=3.243e-09\Dipole=0.8494
 595,0.8655119,-0.7785416\Quadrupole=-5.5242176,3.5899024,1.9343152,0.4
 006703,5.3417116,-1.5014106\PG=C01 [X(C15H24N6)]\\@
 The archive entry for this job was punched.


 VIRTUE IS LEARNED AT YOUR MOTHER'S KNEE,
 VICES ARE PICKED UP AT SOME OTHER JOINT.
 Job cpu time:       0 days  3 hours 38 minutes 30.9 seconds.
 Elapsed time:       0 days  0 hours  6 minutes 53.2 seconds.
 File lengths (MBytes):  RWF=    840 Int=      0 D2E=      0 Chk=     48 Scr=     16
 Normal termination of Gaussian 16 at Mon Oct 18 15:19:20 2021.
