 Entering Gaussian System, Link 0=g16
 Initial command:
 /apps/gaussian/g16-c01-avx/g16/l1.exe "/rds/general/ephemeral/user/atarzia/ephemeral/xtb_spe_DFT/Gau-29123.inp" -scrdir="/rds/general/ephemeral/user/atarzia/ephemeral/xtb_spe_DFT/"
 Entering Link 1 = /apps/gaussian/g16-c01-avx/g16/l1.exe PID=     29124.
  
 Copyright (c) 1988-2019, Gaussian, Inc.  All Rights Reserved.
  
 This is part of the Gaussian(R) 16 program.  It is based on
 the Gaussian(R) 09 system (copyright 2009, Gaussian, Inc.),
 the Gaussian(R) 03 system (copyright 2003, Gaussian, Inc.),
 the Gaussian(R) 98 system (copyright 1998, Gaussian, Inc.),
 the Gaussian(R) 94 system (copyright 1995, Gaussian, Inc.),
 the Gaussian 92(TM) system (copyright 1992, Gaussian, Inc.),
 the Gaussian 90(TM) system (copyright 1990, Gaussian, Inc.),
 the Gaussian 88(TM) system (copyright 1988, Gaussian, Inc.),
 the Gaussian 86(TM) system (copyright 1986, Carnegie Mellon
 University), and the Gaussian 82(TM) system (copyright 1983,
 Carnegie Mellon University). Gaussian is a federally registered
 trademark of Gaussian, Inc.
  
 This software contains proprietary and confidential information,
 including trade secrets, belonging to Gaussian, Inc.
  
 This software is provided under written license and may be
 used, copied, transmitted, or stored only in accord with that
 written license.
  
 The following legend is applicable only to US Government
 contracts under FAR:
  
                    RESTRICTED RIGHTS LEGEND
  
 Use, reproduction and disclosure by the US Government is
 subject to restrictions as set forth in subparagraphs (a)
 and (c) of the Commercial Computer Software - Restricted
 Rights clause in FAR 52.227-19.
  
 Gaussian, Inc.
 340 Quinnipiac St., Bldg. 40, Wallingford CT 06492
  
  
 ---------------------------------------------------------------
 Warning -- This program may not be used in any manner that
 competes with the business of Gaussian, Inc. or will provide
 assistance to any competitor of Gaussian, Inc.  The licensee
 of this program is prohibited from giving any competitor of
 Gaussian, Inc. access to this program.  By using this program,
 the user acknowledges that Gaussian, Inc. is engaged in the
 business of creating and licensing software in the field of
 computational chemistry and represents and warrants to the
 licensee that it is not a competitor of Gaussian, Inc. and that
 it will not use this program in any manner prohibited above.
 ---------------------------------------------------------------
  

 Cite this work as:
 Gaussian 16, Revision C.01,
 M. J. Frisch, G. W. Trucks, H. B. Schlegel, G. E. Scuseria, 
 M. A. Robb, J. R. Cheeseman, G. Scalmani, V. Barone, 
 G. A. Petersson, H. Nakatsuji, X. Li, M. Caricato, A. V. Marenich, 
 J. Bloino, B. G. Janesko, R. Gomperts, B. Mennucci, H. P. Hratchian, 
 J. V. Ortiz, A. F. Izmaylov, J. L. Sonnenberg, D. Williams-Young, 
 F. Ding, F. Lipparini, F. Egidi, J. Goings, B. Peng, A. Petrone, 
 T. Henderson, D. Ranasinghe, V. G. Zakrzewski, J. Gao, N. Rega, 
 G. Zheng, W. Liang, M. Hada, M. Ehara, K. Toyota, R. Fukuda, 
 J. Hasegawa, M. Ishida, T. Nakajima, Y. Honda, O. Kitao, H. Nakai, 
 T. Vreven, K. Throssell, J. A. Montgomery, Jr., J. E. Peralta, 
 F. Ogliaro, M. J. Bearpark, J. J. Heyd, E. N. Brothers, K. N. Kudin, 
 V. N. Staroverov, T. A. Keith, R. Kobayashi, J. Normand, 
 K. Raghavachari, A. P. Rendell, J. C. Burant, S. S. Iyengar, 
 J. Tomasi, M. Cossi, J. M. Millam, M. Klene, C. Adamo, R. Cammi, 
 J. W. Ochterski, R. L. Martin, K. Morokuma, O. Farkas, 
 J. B. Foresman, and D. J. Fox, Gaussian, Inc., Wallingford CT, 2019.
 
 ******************************************
 Gaussian 16:  ES64L-G16RevC.01  3-Jul-2019
                 2-Nov-2021 
 ******************************************
 %chk=_1_alde1_3_ami4_1_opt_dcm_mp2.chk
 %mem=60000mb
 %nprocshared=32
 Will use up to   32 processors via shared memory.
 ----------------------------------------------------------------------
 #P MP2/aug-cc-pVDZ SP SCF=(YQC,MaxCycle=900) int=(Grid=Superfinegrid) 
 SCRF=(PCM,Solvent=Dichloromethane)
 ----------------------------------------------------------------------
 1/38=1,172=1/1;
 2/12=2,17=6,18=5,40=1/2;
 3/5=16,7=10,11=9,25=1,30=1,70=2201,72=9,75=-7/1,2,3;
 4//1;
 5/5=2,7=900,8=4,13=1,38=1,53=9/8,2,8;
 8/10=1/1;
 9/16=-3/6;
 6/7=2,8=2,9=2,10=2/1;
 99/5=1,9=1/99;
 Leave Link    1 at Tue Nov  2 17:57:03 2021, MaxMem=  7864320000 cpu:               8.0 elap:               0.3
 (Enter /apps/gaussian/g16-c01-avx/g16/l101.exe)
 -----------------------------
 _1_alde1_3_ami4_1_opt_dcm_mp2
 -----------------------------
 Symbolic Z-matrix:
 Charge =  0 Multiplicity = 1
 C                    -1.1953    1.024     0.2467 
 C                    -1.2729    0.4659    1.6425 
 C                    -2.349     1.1283   -0.5174 
 C                    -2.3014    1.674    -1.7902 
 H                    -3.2813    0.7675   -0.1099 
 C                    -1.0899    2.1215   -2.2956 
 C                     0.0687    2.0246   -1.5401 
 H                    -1.0481    2.5479   -3.286 
 C                     0.0107    1.4743   -0.2685 
 C                     1.3748    2.4877   -2.1263 
 H                     0.91      1.3952    0.3249 
 C                    -3.5494    1.8217   -2.618 
 C                    -2.1945    0.7031    3.7224 
 C                    -2.8133   -0.5723    3.1054 
 N                    -1.696     1.4769    2.5969 
 N                    -2.2816   -0.5987    1.746 
 C                    -4.2021    2.3405   -4.8317 
 C                    -4.875     3.2679   -3.7938 
 N                    -3.2879    1.5267   -4.0358 
 N                    -4.0426    3.1882   -2.6044 
 C                     2.2108    3.7374   -3.9503 
 C                     2.8243    2.3194   -3.8873 
 N                     1.2044    3.7314   -2.8929 
 N                     1.9042    1.5313   -3.0831 
 H                     1.2412    4.5504   -2.301 
 H                     2.1282    2.5971   -1.3236 
 H                     1.1356    1.2007   -3.6606 
 H                    -1.9099   -1.5004    1.4793 
 H                    -0.272     0.1176    1.9607 
 H                    -2.4543    2.0113    2.1809 
 H                    -3.3564    0.5379   -4.2355 
 H                    -3.2473    3.8148   -2.6963 
 H                    -4.3508    1.1812   -2.2046 
 H                    -3.9055   -0.4965    3.0539 
 H                    -2.5574   -1.4633    3.6873 
 H                    -1.3386    0.4393    4.3518 
 H                    -2.9014    1.2799    4.3155 
 H                    -3.6173    2.9182   -5.5568 
 H                    -4.9423    1.7492   -5.3799 
 H                    -5.867     2.8848   -3.5343 
 H                    -4.9752    4.2957   -4.1373 
 H                     1.7111    3.9107   -4.9101 
 H                     2.9755    4.5094   -3.8163 
 H                     3.7854    2.3482   -3.3642 
 H                     2.973     1.872    -4.8682 
 
 ITRead=  0  0  0  0  0  0  0  0  0  0  0  0  0  0  0  0  0  0  0  0
 ITRead=  0  0  0  0  0  0  0  0  0  0  0  0  0  0  0  0  0  0  0  0
 ITRead=  0  0  0  0  0
 MicOpt= -1 -1 -1 -1 -1 -1 -1 -1 -1 -1 -1 -1 -1 -1 -1 -1 -1 -1 -1 -1
 MicOpt= -1 -1 -1 -1 -1 -1 -1 -1 -1 -1 -1 -1 -1 -1 -1 -1 -1 -1 -1 -1
 MicOpt= -1 -1 -1 -1 -1
 NAtoms=     45 NQM=       45 NQMF=       0 NMMI=      0 NMMIF=      0
                NMic=       0 NMicF=      0.
                    Isotopes and Nuclear Properties:
 (Nuclear quadrupole moments (NQMom) in fm**2, nuclear magnetic moments (NMagM)
  in nuclear magnetons)

  Atom         1           2           3           4           5           6           7           8           9          10
 IAtWgt=          12          12          12          12           1          12          12           1          12          12
 AtmWgt=  12.0000000  12.0000000  12.0000000  12.0000000   1.0078250  12.0000000  12.0000000   1.0078250  12.0000000  12.0000000
 NucSpn=           0           0           0           0           1           0           0           1           0           0
 AtZEff=  -0.0000000  -0.0000000  -0.0000000  -0.0000000  -0.0000000  -0.0000000  -0.0000000  -0.0000000  -0.0000000  -0.0000000
 NQMom=    0.0000000   0.0000000   0.0000000   0.0000000   0.0000000   0.0000000   0.0000000   0.0000000   0.0000000   0.0000000
 NMagM=    0.0000000   0.0000000   0.0000000   0.0000000   2.7928460   0.0000000   0.0000000   2.7928460   0.0000000   0.0000000
 AtZNuc=   6.0000000   6.0000000   6.0000000   6.0000000   1.0000000   6.0000000   6.0000000   1.0000000   6.0000000   6.0000000

  Atom        11          12          13          14          15          16          17          18          19          20
 IAtWgt=           1          12          12          12          14          14          12          12          14          14
 AtmWgt=   1.0078250  12.0000000  12.0000000  12.0000000  14.0030740  14.0030740  12.0000000  12.0000000  14.0030740  14.0030740
 NucSpn=           1           0           0           0           2           2           0           0           2           2
 AtZEff=  -0.0000000  -0.0000000  -0.0000000  -0.0000000  -0.0000000  -0.0000000  -0.0000000  -0.0000000  -0.0000000  -0.0000000
 NQMom=    0.0000000   0.0000000   0.0000000   0.0000000   2.0440000   2.0440000   0.0000000   0.0000000   2.0440000   2.0440000
 NMagM=    2.7928460   0.0000000   0.0000000   0.0000000   0.4037610   0.4037610   0.0000000   0.0000000   0.4037610   0.4037610
 AtZNuc=   1.0000000   6.0000000   6.0000000   6.0000000   7.0000000   7.0000000   6.0000000   6.0000000   7.0000000   7.0000000

  Atom        21          22          23          24          25          26          27          28          29          30
 IAtWgt=          12          12          14          14           1           1           1           1           1           1
 AtmWgt=  12.0000000  12.0000000  14.0030740  14.0030740   1.0078250   1.0078250   1.0078250   1.0078250   1.0078250   1.0078250
 NucSpn=           0           0           2           2           1           1           1           1           1           1
 AtZEff=  -0.0000000  -0.0000000  -0.0000000  -0.0000000  -0.0000000  -0.0000000  -0.0000000  -0.0000000  -0.0000000  -0.0000000
 NQMom=    0.0000000   0.0000000   2.0440000   2.0440000   0.0000000   0.0000000   0.0000000   0.0000000   0.0000000   0.0000000
 NMagM=    0.0000000   0.0000000   0.4037610   0.4037610   2.7928460   2.7928460   2.7928460   2.7928460   2.7928460   2.7928460
 AtZNuc=   6.0000000   6.0000000   7.0000000   7.0000000   1.0000000   1.0000000   1.0000000   1.0000000   1.0000000   1.0000000

  Atom        31          32          33          34          35          36          37          38          39          40
 IAtWgt=           1           1           1           1           1           1           1           1           1           1
 AtmWgt=   1.0078250   1.0078250   1.0078250   1.0078250   1.0078250   1.0078250   1.0078250   1.0078250   1.0078250   1.0078250
 NucSpn=           1           1           1           1           1           1           1           1           1           1
 AtZEff=  -0.0000000  -0.0000000  -0.0000000  -0.0000000  -0.0000000  -0.0000000  -0.0000000  -0.0000000  -0.0000000  -0.0000000
 NQMom=    0.0000000   0.0000000   0.0000000   0.0000000   0.0000000   0.0000000   0.0000000   0.0000000   0.0000000   0.0000000
 NMagM=    2.7928460   2.7928460   2.7928460   2.7928460   2.7928460   2.7928460   2.7928460   2.7928460   2.7928460   2.7928460
 AtZNuc=   1.0000000   1.0000000   1.0000000   1.0000000   1.0000000   1.0000000   1.0000000   1.0000000   1.0000000   1.0000000

  Atom        41          42          43          44          45
 IAtWgt=           1           1           1           1           1
 AtmWgt=   1.0078250   1.0078250   1.0078250   1.0078250   1.0078250
 NucSpn=           1           1           1           1           1
 AtZEff=  -0.0000000  -0.0000000  -0.0000000  -0.0000000  -0.0000000
 NQMom=    0.0000000   0.0000000   0.0000000   0.0000000   0.0000000
 NMagM=    2.7928460   2.7928460   2.7928460   2.7928460   2.7928460
 AtZNuc=   1.0000000   1.0000000   1.0000000   1.0000000   1.0000000
 Leave Link  101 at Tue Nov  2 17:57:04 2021, MaxMem=  7864320000 cpu:               5.3 elap:               0.2
 (Enter /apps/gaussian/g16-c01-avx/g16/l202.exe)
                          Input orientation:                          
 ---------------------------------------------------------------------
 Center     Atomic      Atomic             Coordinates (Angstroms)
 Number     Number       Type             X           Y           Z
 ---------------------------------------------------------------------
      1          6           0       -1.195300    1.024000    0.246700
      2          6           0       -1.272900    0.465900    1.642500
      3          6           0       -2.349000    1.128300   -0.517400
      4          6           0       -2.301400    1.674000   -1.790200
      5          1           0       -3.281300    0.767500   -0.109900
      6          6           0       -1.089900    2.121500   -2.295600
      7          6           0        0.068700    2.024600   -1.540100
      8          1           0       -1.048100    2.547900   -3.286000
      9          6           0        0.010700    1.474300   -0.268500
     10          6           0        1.374800    2.487700   -2.126300
     11          1           0        0.910000    1.395200    0.324900
     12          6           0       -3.549400    1.821700   -2.618000
     13          6           0       -2.194500    0.703100    3.722400
     14          6           0       -2.813300   -0.572300    3.105400
     15          7           0       -1.696000    1.476900    2.596900
     16          7           0       -2.281600   -0.598700    1.746000
     17          6           0       -4.202100    2.340500   -4.831700
     18          6           0       -4.875000    3.267900   -3.793800
     19          7           0       -3.287900    1.526700   -4.035800
     20          7           0       -4.042600    3.188200   -2.604400
     21          6           0        2.210800    3.737400   -3.950300
     22          6           0        2.824300    2.319400   -3.887300
     23          7           0        1.204400    3.731400   -2.892900
     24          7           0        1.904200    1.531300   -3.083100
     25          1           0        1.241200    4.550400   -2.301000
     26          1           0        2.128200    2.597100   -1.323600
     27          1           0        1.135600    1.200700   -3.660600
     28          1           0       -1.909900   -1.500400    1.479300
     29          1           0       -0.272000    0.117600    1.960700
     30          1           0       -2.454300    2.011300    2.180900
     31          1           0       -3.356400    0.537900   -4.235500
     32          1           0       -3.247300    3.814800   -2.696300
     33          1           0       -4.350800    1.181200   -2.204600
     34          1           0       -3.905500   -0.496500    3.053900
     35          1           0       -2.557400   -1.463300    3.687300
     36          1           0       -1.338600    0.439300    4.351800
     37          1           0       -2.901400    1.279900    4.315500
     38          1           0       -3.617300    2.918200   -5.556800
     39          1           0       -4.942300    1.749200   -5.379900
     40          1           0       -5.867000    2.884800   -3.534300
     41          1           0       -4.975200    4.295700   -4.137300
     42          1           0        1.711100    3.910700   -4.910100
     43          1           0        2.975500    4.509400   -3.816300
     44          1           0        3.785400    2.348200   -3.364200
     45          1           0        2.973000    1.872000   -4.868200
 ---------------------------------------------------------------------
                    Distance matrix (angstroms):
                    1          2          3          4          5
     1  C    0.000000
     2  C    1.505243   0.000000
     3  C    1.387714   2.502385   0.000000
     4  C    2.407264   3.781633   1.385667   0.000000
     5  H    2.131749   2.682450   1.079544   2.146009   0.000000
     6  C    2.771084   4.275878   2.394530   1.386873   3.378289
     7  C    2.406564   3.789245   2.773904   2.408909   3.853346
     8  H    3.850183   5.354939   3.372351   2.138195   4.271372
     9  C    1.386592   2.513249   2.397885   2.775114   3.370754
    10  C    3.791960   5.030094   4.278226   3.780148   5.357632
    11  H    2.139204   2.713802   3.376653   3.855446   4.260288
    12  C    3.792706   5.017221   2.516800   1.504850   2.733822
    13  C    3.630684   2.287268   4.263868   5.598467   3.983943
    14  C    3.652159   2.364480   4.028932   5.410620   3.514576
    15  N    2.445252   1.453277   3.201062   4.433058   3.216083
    16  N    2.461931   1.470225   2.847815   4.203602   2.512025
    17  C    6.046831   7.349123   4.849391   3.647959   5.061383
    18  C    5.907700   7.097865   4.657613   3.630199   4.728953
    19  N    4.792858   6.117893   3.663249   2.457153   3.998640
    20  N    4.573800   5.754851   3.386302   2.446937   3.558356
    21  C    6.048046   7.356513   6.275666   5.411432   7.330221
    22  C    5.909755   7.127496   6.287923   5.575587   7.345440
    23  N    4.790163   6.113130   5.004576   4.211826   6.054031
    24  N    4.577316   5.793128   4.983466   4.402161   6.026004
    25  H    4.986262   6.209270   5.270819   4.591798   6.290013
    26  H    3.998267   4.990716   4.780445   4.548756   5.838081
    27  H    4.553165   5.870577   4.693334   3.941494   5.683673
    28  H    2.898715   2.073340   3.330118   4.573808   3.090253
    29  H    2.147519   1.106510   3.387687   4.539834   3.710208
    30  H    2.510174   2.018376   2.841056   3.988331   2.734727
    31  H    4.999676   6.236749   3.897139   2.895383   4.132666
    32  H    4.545384   5.825682   3.573770   2.509735   3.997081
    33  H    3.998845   4.978484   2.618520   2.148167   2.388042
    34  H    4.187777   3.138287   4.221001   5.545224   3.463662
    35  H    4.458666   3.090786   4.943614   6.317531   4.463096
    36  H    4.149007   2.710227   5.020432   6.338425   4.877352
    37  H    4.419434   3.234121   4.866729   6.147755   4.471134
    38  H    6.567701   7.958637   5.496170   4.179342   5.865759
    39  H    6.798864   8.026547   5.545686   4.457124   5.612090
    40  H    6.291528   7.331854   4.956138   4.149870   4.784905
    41  H    6.649144   7.860056   5.480240   4.419434   5.615821
    42  H    6.585802   7.981696   6.597119   5.553086   7.605635
    43  H    6.786130   8.012321   7.117927   6.323784   8.178433
    44  H    6.292812   7.361827   6.871920   6.323065   7.938975
    45  H    6.652521   7.898987   6.914205   6.110040   7.935843
                    6          7          8          9         10
     6  C    0.000000
     7  C    1.386551   0.000000
     8  H    1.079100   2.137581   0.000000
     9  C    2.395688   1.386781   3.373274   0.000000
    10  C    2.497501   1.504656   2.686815   2.517771   0.000000
    11  H    3.375520   2.140597   4.266318   1.080334   2.723596
    12  C    2.498592   3.780699   2.688883   4.279620   4.993303
    13  C    6.280790   5.878975   7.337247   4.624385   7.080395
    14  C    6.276740   6.052312   7.328136   4.852499   7.367121
    15  N    4.971863   4.530884   6.014593   3.335168   5.723648
    16  N    5.015393   4.817060   6.061653   3.689198   6.155472
    17  C    4.020641   5.401311   3.518511   6.270628   6.200215
    18  C    4.229163   5.573610   3.927012   6.286080   6.515310
    19  N    2.865883   4.212266   2.573277   5.007600   5.129374
    20  N    3.154623   4.403350   3.137131   4.982281   5.483384
    21  C    4.030358   3.651211   3.532228   4.849506   2.363815
    22  C    4.230087   3.631747   3.925462   4.661143   2.287028
    23  N    2.865721   2.456226   2.574676   3.661543   1.470885
    24  N    3.151686   2.448112   3.129013   3.392722   1.452732
    25  H    3.366543   2.886761   3.197050   3.886847   2.074392
    26  H    3.395165   2.148527   3.733941   2.618725   1.106303
    27  H    2.768384   2.512689   2.593033   3.584215   2.016845
    28  H    5.295321   5.045519   6.311855   3.948715   6.300361
    29  H    4.775004   4.001041   5.834085   2.624859   5.003288
    30  H    4.681109   4.495725   5.670303   3.516270   5.782814
    31  H    3.377577   4.605081   3.204668   5.286899   5.534862
    32  H    2.771678   3.941760   2.605621   4.689000   4.842510
    33  H    3.394984   4.548062   3.734317   4.780907   5.873293
    34  H    6.587767   6.576857   7.591274   5.500820   7.976308
    35  H    7.127373   6.810841   8.185024   5.556346   8.054225
    36  H    6.861456   6.261642   7.928844   4.923313   7.316028
    37  H    6.906263   6.607883   7.926244   5.434259   7.825692
    38  H    4.202131   5.524400   3.448832   6.573686   6.072456
    39  H    4.948990   6.319021   4.493009   7.122794   7.144022
    40  H    4.993765   6.320547   4.837040   6.870394   7.388086
    41  H    4.818149   6.110996   4.381967   6.912822   6.901846
    42  H    4.228764   4.196636   3.479671   5.511067   3.144451
    43  H    4.953996   4.450259   4.507556   5.530710   3.083117
    44  H    4.996183   4.152820   4.838256   4.959377   2.713457
    45  H    4.815358   4.419784   4.373722   5.485492   3.232854
                   11         12         13         14         15
    11  H    0.000000
    12  C    5.359926   0.000000
    13  C    4.654023   6.579338   0.000000
    14  C    5.046306   6.247430   1.546043   0.000000
    15  N    3.458308   5.545193   1.453967   2.388755   0.000000
    16  N    4.022620   5.148801   2.368212   1.459921   2.318420
    17  C    7.322410   2.365510   8.937794   8.568006   7.887360
    18  C    7.344176   2.287185   8.381918   8.160680   7.358992
    19  N    6.054367   1.471586   7.878040   7.458404   6.821241
    20  N    6.026931   1.452843   7.044118   6.946535   5.957231
    21  C    5.045326   6.214888   9.353287   9.674606   7.952281
    22  C    4.718190   6.517889   9.257878   9.436224   7.949073
    23  N    3.987322   5.130413   8.030275   8.404960   6.605528
    24  N    3.552664   5.481095   7.987496   8.060860   6.725087
    25  H    4.118292   5.522331   7.930139   8.479987   6.485597
    26  H    2.376158   5.874679   6.909058   7.353881   5.590141
    27  H    3.996616   4.839616   8.114546   8.032191   6.873904
    28  H    4.203448   5.523783   3.157199   2.078870   3.187334
    29  H    2.388562   5.883010   2.672528   2.871325   2.068870
    30  H    3.891379   4.925914   2.038408   2.767412   1.016690
    31  H    6.303521   2.074053   8.043971   7.444213   7.093683
    32  H    5.680251   2.017385   7.210463   7.286613   5.990849
    33  H    5.841248   1.106066   6.325151   5.799549   5.494525
    34  H    5.849360   6.137696   2.193958   1.096038   2.997507
    35  H    5.612452   7.178586   2.196865   1.094520   3.252039
    36  H    4.710188   7.441558   1.094669   2.179814   2.069788
    37  H    5.519507   6.984760   1.088197   2.214215   2.108408
    38  H    7.576963   3.137430   9.645444   9.373565   8.500092
    39  H    8.180432   3.094110   9.565385   9.051095   8.616377
    40  H    7.939777   2.709439   8.420616   8.084692   7.547916
    41  H    7.934715   3.234479   9.078213   8.990436   8.003014
    42  H    5.862996   6.106595  10.003123  10.237955   8.595741
    43  H    5.577999   7.157791   9.901960  10.355859   8.494004
    44  H    4.773426   7.391435   9.417296   9.691640   8.144914
    45  H    5.608172   6.899828  10.092958  10.150575   8.813818
                   16         17         18         19         20
    16  N    0.000000
    17  C    7.456095   0.000000
    18  C    7.236415   1.545995   0.000000
    19  N    6.241729   1.459962   2.368381   0.000000
    20  N    6.030565   2.388493   1.453931   2.319280   0.000000
    21  C    8.451701   6.622196   7.103062   5.927074   6.420131
    22  C    8.143684   7.089614   7.758068   6.165178   7.039528
    23  N    7.240259   5.909635   6.163242   5.132999   5.282926
    24  N    6.736322   6.403070   7.034090   5.278784   6.191842
    25  H    7.436502   6.396688   6.425042   5.715334   5.464996
    26  H    6.251553   7.241913   7.456318   6.151091   6.329978
    27  H    6.644277   5.582263   6.357544   4.451337   5.646191
    28  H    1.011115   7.735335   7.702862   6.440384   6.573278
    29  H    2.144219   8.156204   8.014129   6.858515   6.669794
    30  H    2.651615   7.234621   6.567791   6.291032   5.177537
    31  H    6.182669   2.078468   3.155019   1.011087   3.186761
    32  H    6.336055   2.764984   2.037894   2.651662   1.016649
    33  H    4.801757   2.875368   2.674819   2.145325   2.069511
    34  H    2.087606   8.385656   7.874112   7.398555   6.753678
    35  H    2.142952   9.473505   9.149993   8.313844   7.964155
    36  H    2.959204   9.805655   9.319759   8.679519   7.953413
    37  H    3.242780   9.299890   8.579510   8.363881   7.268353
    38  H    8.214838   1.096129   2.193688   2.087634   2.995070
    39  H    7.960553   1.094557   2.196973   2.143164   3.253242
    40  H    7.271275   2.179771   1.094609   2.957650   2.070073
    41  H    8.113190   2.214200   1.088304   3.244171   2.108573
    42  H    8.976637   6.118628   6.710889   5.606947   6.240459
    43  H    9.201574   7.566578   7.948093   6.940811   7.243480
    44  H    8.462083   8.121193   8.719686   7.152446   7.909518
    45  H    8.801297   7.190472   8.043257   6.325424   7.488379
                   21         22         23         24         25
    21  C    0.000000
    22  C    1.546310   0.000000
    23  N    1.459785   2.367837   0.000000
    24  N    2.390171   1.454106   2.316535   0.000000
    25  H    2.078770   3.162264   1.011168   3.188450   0.000000
    26  H    2.864727   2.670998   2.145401   2.069286   2.357427
    27  H    2.770348   2.038281   2.645475   1.016636   3.616650
    28  H    8.596236   8.111961   7.495781   6.674883   7.799505
    29  H    7.362552   6.973815   6.228703   5.672241   6.332581
    30  H    7.895201   8.048701   6.487548   6.851030   6.339651
    31  H    6.427430   6.441742   5.727295   5.476201   6.401591
    32  H    5.600836   6.365456   4.456819   5.648180   4.565523
    33  H    7.255082   7.457147   6.151221   6.326085   6.529262
    34  H   10.217331  10.069745   8.907898   8.690648   8.979681
    35  H   10.397882  10.032252   9.188856   8.643600   9.298047
    36  H    9.612521   9.420578   8.354068   8.184495   8.235063
    37  H   10.024836  10.057342   8.650345   8.825887   8.463769
    38  H    6.100711   6.681317   5.568343   6.207225   6.072012
    39  H    7.560657   7.929253   6.920709   7.224772   7.453993
    40  H    8.133316   8.716822   7.150722   7.901082   7.404172
    41  H    7.210081   8.049873   6.328856   7.488617   6.486948
    42  H    1.095878   2.194896   2.087580   3.006121   2.727164
    43  H    1.094854   2.196361   2.143536   3.248745   2.303391
    44  H    2.180081   1.094612   2.965961   2.070086   3.528885
    45  H    2.214318   1.088321   3.238383   2.108315   4.094322
                   26         27         28         29         30
    26  H    0.000000
    27  H    2.897716   0.000000
    28  H    6.399375   6.556644   0.000000
    29  H    4.763980   5.895206   2.352103   0.000000
    30  H    5.798620   6.904171   3.622244   2.897761   0.000000
    31  H    6.542194   4.576885   6.237465   6.934196   6.644914
    32  H    5.680062   5.193574   6.890256   6.649011   5.260089
    33  H    6.690170   5.676346   5.169148   5.926009   4.849576
    34  H    8.070837   8.566078   2.733057   3.843765   3.026082
    35  H    7.971876   8.644465   2.301282   3.271612   3.788498
    36  H    6.991779   8.420211   3.512844   2.637894   2.903236
    37  H    7.670159   8.939900   4.093552   3.716150   2.300296
    38  H    7.143799   5.397725   8.482095   8.691789   7.876994
    39  H    8.195393   6.340167   8.173370   8.852018   7.963952
    40  H    8.300192   7.203371   7.747568   8.316035   6.713645
    41  H    7.826905   6.866451   8.633483   8.761405   7.175867
    42  H    3.842200   3.039169   9.122285   8.094948   8.440412
    43  H    3.253976   3.789059   9.382335   7.950339   8.466973
    44  H    2.640513   2.902766   8.408784   7.056389   8.354370
    45  H    3.715326   2.298908   8.689451   7.761560   8.897460
                   31         32         33         34         35
    31  H    0.000000
    32  H    3.622032   0.000000
    33  H    2.351004   2.897470   0.000000
    34  H    7.382875   7.217017   5.537580   0.000000
    35  H    8.210601   8.311718   6.702548   1.775745   0.000000
    36  H    8.821732   8.044430   7.253285   3.024771   2.355190
    37  H    8.595184   7.463960   6.679985   2.399052   2.835157
    38  H    2.734910   3.020472   3.846094   9.267545  10.284664
    39  H    2.300430   3.787009   3.279486   8.789033   9.910702
    40  H    3.507525   2.903441   2.639928   7.660617   9.055989
    41  H    4.092825   2.300736   3.718241   8.707629  10.011803
    42  H    6.124575   5.431007   7.177502  10.695555  11.000693
    43  H    7.486087   6.360826   8.206654  10.936491  11.072043
    44  H    7.419006   7.214976   8.300862  10.413178  10.221658
    45  H    6.499341   6.869043   7.823683  10.755614  10.719428
                   36         37         38         39         40
    36  H    0.000000
    37  H    1.774900   0.000000
    38  H   10.465074  10.032888   0.000000
    39  H   10.459851   9.918987   1.775804   0.000000
    40  H    9.416871   8.543410   3.025355   2.356034   0.000000
    41  H   10.008072   9.211163   2.399245   2.833690   1.774699
    42  H   10.350559  10.644621   5.458491   7.011457   7.770000
    43  H   10.094307  10.540104   7.001876   8.529660   8.994924
    44  H    9.457057  10.238767   7.741599   8.977449   9.668800
    45  H   10.278664  10.917853   6.708260   7.932773   8.997258
                   41         42         43         44         45
    41  H    0.000000
    42  H    6.741814   0.000000
    43  H    7.960046   1.775823   0.000000
    44  H    9.007694   3.022240   2.351833   0.000000
    45  H    8.341608   2.398009   2.839433   1.774479   0.000000
 Stoichiometry    C15H24N6
 Framework group  C1[X(C15H24N6)]
 Deg. of freedom   129
 Full point group                 C1      NOp   1
 Largest Abelian subgroup         C1      NOp   1
 Largest concise Abelian subgroup C1      NOp   1
                         Standard orientation:                         
 ---------------------------------------------------------------------
 Center     Atomic      Atomic             Coordinates (Angstroms)
 Number     Number       Type             X           Y           Z
 ---------------------------------------------------------------------
      1          6           0       -1.594822   -0.666401   -0.154053
      2          6           0       -3.043692   -1.073667   -0.179864
      3          6           0       -1.256224    0.676472   -0.242331
      4          6           0        0.070592    1.071553   -0.182798
      5          1           0       -2.040788    1.407002   -0.369615
      6          6           0        1.061342    0.113358   -0.028862
      7          6           0        0.734491   -1.230986    0.062958
      8          1           0        2.095928    0.416372    0.018781
      9          6           0       -0.596234   -1.616083   -0.000548
     10          6           0        1.832054   -2.251551    0.196350
     11          1           0       -0.857447   -2.662015    0.069543
     12          6           0        0.450328    2.526324   -0.246165
     13          6           0       -5.081845   -0.866171    0.837227
     14          6           0       -5.190363   -0.144772   -0.525878
     15          7           0       -3.659087   -0.933480    1.129201
     16          7           0       -3.835267   -0.207271   -1.065487
     17          6           0        2.369770    3.886847   -0.491841
     18          6           0        1.571358    4.231755    0.786313
     19          7           0        1.674916    2.724672   -1.037749
     20          7           0        0.764960    3.055614    1.069742
     21          6           0        4.145268   -2.387413    0.663474
     22          6           0        3.783624   -3.057748   -0.682238
     23          7           0        2.891895   -1.780137    1.100788
     24          7           0        2.502972   -2.488660   -1.070173
     25          1           0        2.674172   -1.966289    2.070533
     26          1           0        1.407092   -3.218217    0.526304
     27          1           0        2.646804   -1.591681   -1.526559
     28          1           0       -3.801670   -0.516604   -2.027535
     29          1           0       -3.126077   -2.139645   -0.464941
     30          1           0       -3.347081   -0.055694    1.536390
     31          1           0        1.477753    2.805090   -2.026161
     32          1           0        1.322663    2.365292    1.565724
     33          1           0       -0.396670    3.117408   -0.641887
     34          1           0       -5.468133    0.907391   -0.395133
     35          1           0       -5.935498   -0.619517   -1.171916
     36          1           0       -5.454081   -1.891956    0.750598
     37          1           0       -5.624753   -0.362234    1.634392
     38          1           0        3.398915    3.598377   -0.248644
     39          1           0        2.404515    4.734554   -1.183391
     40          1           0        0.889767    5.065588    0.590546
     41          1           0        2.205466    4.488867    1.632602
     42          1           0        4.889752   -1.595389    0.524226
     43          1           0        4.546292   -3.114907    1.376663
     44          1           0        3.642224   -4.133893   -0.540482
     45          1           0        4.534251   -2.902165   -1.454763
 ---------------------------------------------------------------------
 Rotational constants (GHZ):           0.3285927           0.2066705           0.1386049
 Leave Link  202 at Tue Nov  2 17:57:04 2021, MaxMem=  7864320000 cpu:               1.7 elap:               0.1
 (Enter /apps/gaussian/g16-c01-avx/g16/l301.exe)
 Standard basis: Aug-CC-pVDZ (5D, 7F)
 Ernie: Thresh=  0.10000D-02 Tol=  0.10000D-05 Strict=F.
 Ernie:  42 primitive shells out of 693 were deleted.
 There are   741 symmetry adapted cartesian basis functions of A   symmetry.
 There are   699 symmetry adapted basis functions of A   symmetry.
   699 basis functions,  1167 primitive gaussians,   741 cartesian basis functions
    78 alpha electrons       78 beta electrons
       nuclear repulsion energy      1709.5741711476 Hartrees.
 IExCor=    0 DFT=F Ex=HF Corr=None ExCW=0 ScaHFX=  1.000000
 ScaDFX=  1.000000  1.000000  1.000000  1.000000 ScalE2=  1.000000  1.000000
 IRadAn=      7 IRanWt=     -1 IRanGd=            0 ICorTp=0 IEmpDi=  4
 NAtoms=   45 NActive=   45 NUniq=   45 SFac= 1.00D+00 NAtFMM=   60 NAOKFM=F Big=F
 Integral buffers will be    131072 words long.
 Raffenetti 1 integral format.
 Two-electron integral symmetry is turned on.
 ------------------------------------------------------------------------------
 Polarizable Continuum Model (PCM)
 =================================
 Model                : PCM.
 Atomic radii         : UFF (Universal Force Field).
 Polarization charges : Total charges.
 Charge compensation  : None.
 Solution method      : On-the-fly selection.
 Cavity type          : Scaled VdW (van der Waals Surface) (Alpha=1.100).
 Cavity algorithm     : GePol (No added spheres)
                        Default sphere list used, NSphG=   45.
                        Lebedev-Laikov grids with approx.  5.0 points / Ang**2.
                        Smoothing algorithm: York/Karplus (Gamma=1.0000).
                        Polarization charges: spherical gaussians, with
                                              point-specific exponents (IZeta= 3).
                        Self-potential: point-specific (ISelfS= 7).
                        Self-field    : sphere-specific E.n sum rule (ISelfD= 2).
 Solvent              : Dichloromethane, Eps=   8.930000 Eps(inf)=   2.028346
 ------------------------------------------------------------------------------
 GePol: Number of generator spheres                  =      45
 GePol: Total number of spheres                      =      45
 GePol: Number of exposed spheres                    =      45 (100.00%)
 GePol: Number of points                             =    3035
 GePol: Average weight of points                     =       0.13
 GePol: Minimum weight of points                     =   0.35D-10
 GePol: Maximum weight of points                     =    0.20577
 GePol: Number of points with low weight             =     255
 GePol: Fraction of low-weight points (<1% of avg)   =       8.40%
 GePol: Cavity surface area                          =    392.482 Ang**2
 GePol: Cavity volume                                =    420.745 Ang**3
 Leave Link  301 at Tue Nov  2 17:57:05 2021, MaxMem=  7864320000 cpu:               3.8 elap:               0.2
 (Enter /apps/gaussian/g16-c01-avx/g16/l302.exe)
 NPDir=0 NMtPBC=     1 NCelOv=     1 NCel=       1 NClECP=     1 NCelD=      1
         NCelK=      1 NCelE2=     1 NClLst=     1 CellRange=     0.0.
 One-electron integrals computed using PRISM.
 One-electron integral symmetry used in STVInt
 NBasis=   699 RedAO= T EigKep=  1.21D-06  NBF=   699
 NBsUse=   696 1.00D-06 EigRej=  8.42D-07 NBFU=   696
 Leave Link  302 at Tue Nov  2 17:57:07 2021, MaxMem=  7864320000 cpu:              49.0 elap:               1.6
 (Enter /apps/gaussian/g16-c01-avx/g16/l303.exe)
 DipDrv:  MaxL=1.
 Leave Link  303 at Tue Nov  2 17:57:08 2021, MaxMem=  7864320000 cpu:               5.8 elap:               0.2
 (Enter /apps/gaussian/g16-c01-avx/g16/l401.exe)
 ExpMin= 2.97D-02 ExpMax= 9.05D+03 ExpMxC= 3.09D+02 IAcc=3 IRadAn=         7 AccDes= 0.00D+00
 Harris functional with IExCor=  205 and IRadAn=       7 diagonalized for initial guess.
 HarFok:  IExCor=  205 AccDes= 0.00D+00 IRadAn=         7 IDoV= 1 UseB2=F ITyADJ=14
 ICtDFT=  3500011 ScaDFX=  1.000000  1.000000  1.000000  1.000000
 FoFCou: FMM=F IPFlag=           0 FMFlag=      100000 FMFlg1=           0
         NFxFlg=           0 DoJE=T BraDBF=F KetDBF=T FulRan=T
         wScrn=  0.000000 ICntrl=       500 IOpCl=  0 I1Cent=   200000004 NGrid=           0
         NMat0=    1 NMatS0=      1 NMatT0=    0 NMatD0=    1 NMtDS0=    0 NMtDT0=    0
 Petite list used in FoFCou.
 Harris En= -910.069232039713    
 JPrj=0 DoOrth=F DoCkMO=F.
 Leave Link  401 at Tue Nov  2 17:57:15 2021, MaxMem=  7864320000 cpu:             225.1 elap:               7.1
 (Enter /apps/gaussian/g16-c01-avx/g16/l508.exe)
 Integral symmetry usage will be decided dynamically.
 Tight linear equation convergence will be used.
 RHF wavefunction.
 Linear searches until partial convergence.
 Full line searches.
 Fock matrices will be formed incrementally for  20 cycles.
 Inv3:  Mode=1 IEnd=    27633675.
 Iteration    1 A*A^-1 deviation from unit magnitude is 1.14D-14 for   3026.
 Iteration    1 A*A^-1 deviation from orthogonality  is 2.76D-15 for   3025   2975.
 Iteration    1 A^-1*A deviation from unit magnitude is 1.14D-14 for   3026.
 Iteration    1 A^-1*A deviation from orthogonality  is 1.52D-14 for   2711   2683.
 FoFJK:  IHMeth= 1 ICntrl=       0 DoSepK=F KAlg= 0 I1Cent=           0 FoldK=F
 IRaf= 910000000 NMat=       1 IRICut=       1 DoRegI=T DoRafI=F ISym2E= 1 IDoP0=0 IntGTp=1.
 Iteration   1 EE= -908.028814497260                                    Grad=1.400D+00 Max rot=    2.1075 deg.
 Gradient too large for Newton-Raphson -- use scaled steepest descent instead.
 Alpha Gap=     0.514 HL deriv= 8.07D-03
     ILin= 1 X=0.000D+00 Y=-9.080288144973D+02 DE= 0.00D+00 F= -2.21D+00
 RMSU=  9.16D-03    CP:  7.90D-01
     ILin= 2 X=3.000D-01 Y=-9.085329511497D+02 DE=-5.04D-01 F= -1.14D+00 OKLS=F
 RMSU=  1.70D-03    CP:  6.80D-01  1.48D+00
     ILin= 3 X=5.000D-01 Y=-9.086892810364D+02 DE=-6.60D-01 F= -4.19D-01
 RMSU=  6.78D-03    CP:  5.11D-01  2.03D+00  3.00D+00
     ILin= 4 X=1.000D+00 Y=-9.084432241309D+02 DE=-4.14D-01 F=  1.40D+00
     An  expanding polynomial of degree  4 produced  0.6156
 RMSU=  3.99D-06    CP:  6.27D-01  1.69D+00  1.94D+00  5.18D-06
 Iteration   2 EE= -908.713395188277     Delta-E=       -0.684580691017 Grad=4.708D-01 Max rot=    1.0461 deg.
 Gradient too large for Newton-Raphson -- use scaled steepest descent instead.
 Alpha Gap=     0.517 HL deriv= 1.11D-03
     ILin= 1 X=0.000D+00 Y=-9.087133951883D+02 DE= 0.00D+00 F= -1.20D-01
 RMSU=  1.95D-03    CP:  5.78D-01  1.72D+00  3.00D+00  2.49D-02  3.00D+00
     ILin= 2 X=4.000D-01 Y=-9.087496588064D+02 DE=-3.63D-02 F= -6.12D-02 OKLS=F
 RMSU=  4.63D-04    CP:  5.30D-01  1.73D+00  3.00D+00  4.55D-01  3.00D+00
                    CP:  2.19D+00
     ILin= 3 X=9.000D-01 Y=-9.087619181760D+02 DE=-4.85D-02 F=  1.21D-02
     Accept linear search using points  2 and  3.
     An  expanding polynomial of degree  3 produced  0.7017
 RMSU=  1.32D-06    CP:  5.47D-01  1.73D+00  3.00D+00  2.76D-01  3.00D+00
                    CP:  1.73D+00  4.70D-01
 Iteration   3 EE= -908.761437735758     Delta-E=       -0.048042547481 Grad=1.597D-01 Max rot=    0.3201 deg.
 Gradient too large for Newton-Raphson -- use scaled steepest descent instead.
 Alpha Gap=     0.503 HL deriv= 1.49D-03
     ILin= 1 X=0.000D+00 Y=-9.087614377358D+02 DE= 0.00D+00 F= -1.51D-02
 RMSU=  7.53D-04    CP:  5.20D-01  1.76D+00  3.00D+00  5.24D-01  3.00D+00
                    CP:  2.09D+00  1.38D+00 -3.00D+00
     ILin= 2 X=7.000D-01 Y=-9.087679294288D+02 DE=-6.49D-03 F= -3.42D-03 OKLS=T
     Reject lnstep IMin12=  1  2 Big=T Turn=F Min= 1.223D+00 FVal=-9.087698856572D+02 Lims=  0.00D+00  7.00D-01
 RMSU=  7.53D-05    CP:  5.01D-01  1.77D+00  3.00D+00  7.54D-01  3.00D+00
                    CP:  2.39D+00  2.35D+00 -3.00D+00  1.88D+00
     ILin= 3 X=1.300D+00 Y=-9.087669680482D+02 DE=-5.53D-03 F=  6.62D-03
     An  expanding polynomial of degree  3 produced  0.9042
 RMSU=  4.66D-07    CP:  5.13D-01  1.76D+00  3.00D+00  6.01D-01  3.00D+00
                    CP:  2.20D+00  1.69D+00 -3.00D+00  1.30D+00  2.36D-01
 Iteration   4 EE= -908.768278486006     Delta-E=       -0.006840750247 Grad=4.643D-02 Max rot=    0.0986 deg.
 Gradient too large for Newton-Raphson -- use scaled steepest descent instead.
 Alpha Gap=     0.514 HL deriv= 3.02D-04
     ILin= 1 X=0.000D+00 Y=-9.087682784860D+02 DE= 0.00D+00 F= -2.88D-03
 RMSU=  3.20D-04    CP:  5.07D-01  1.76D+00  3.00D+00  6.66D-01  3.00D+00
                    CP:  2.40D+00  2.14D+00 -3.00D+00  1.38D+00 -4.13D-01
                    CP:  3.00D+00
     ILin= 2 X=8.000D-01 Y=-9.087691287400D+02 DE=-8.50D-04 F=  7.54D-04 OKLS=T
     Accept linear search using points  1 and  2.
     An  expanding polynomial of degree  2 produced  0.5792
 RMSU=  1.06D-06    CP:  5.09D-01  1.76D+00  3.00D+00  6.48D-01  3.00D+00
                    CP:  2.35D+00  2.01D+00 -3.00D+00  1.35D+00 -2.39D-01
                    CP:  3.00D+00  7.24D-01
 Iteration   5 EE= -908.769184604463     Delta-E=       -0.000906118458 Grad=1.653D-02 Max rot=    0.0438 deg.
 Gradient too large for Newton-Raphson -- use scaled steepest descent instead.
 Alpha Gap=     0.509 HL deriv= 3.49D-04
     ILin= 1 X=0.000D+00 Y=-9.087691846045D+02 DE= 0.00D+00 F= -3.07D-04
 RMSU=  6.26D-05    CP:  5.06D-01  1.76D+00  3.00D+00  6.76D-01  3.00D+00
                    CP:  2.40D+00  2.22D+00 -3.00D+00  1.56D+00 -1.82D-01
                    CP:  3.00D+00  9.55D-01  2.40D+00
     ILin= 2 X=7.000D-01 Y=-9.087693366950D+02 DE=-1.52D-04 F= -1.27D-04 OKLS=F
 RMSU=  1.57D-06    CP:  5.03D-01  1.76D+00  3.00D+00  7.05D-01  3.00D+00
                    CP:  2.45D+00  2.43D+00 -3.00D+00  1.76D+00 -9.48D-02
                    CP:  3.00D+00  1.19D+00  2.70D+00  2.00D+00
     ILin= 3 X=1.400D+00 Y=-9.087693627909D+02 DE=-1.78D-04 F=  5.27D-05
     Accept linear search using points  2 and  3.
     An  expanding polynomial of degree  3 produced  1.1345
 RMSU=  4.33D-11    CP:  5.04D-01  1.76D+00  3.00D+00  6.94D-01  3.00D+00
                    CP:  2.43D+00  2.35D+00 -3.00D+00  1.69D+00 -1.31D-01
                    CP:  3.00D+00  1.10D+00  2.72D+00  1.62D+00  5.03D-01
 Iteration   6 EE= -908.769367727801     Delta-E=       -0.000183123338 Grad=5.737D-03 Max rot=    0.0157 deg.
 SCF Done:  E(RHF) =  -908.769367728     a.u. after    6 cycles
            Convg  =    0.5737D-02                    16 Fock formations.
              S**2 =  0.0000                  -V/T =  2.0005
 Leave Link  508 at Tue Nov  2 18:04:51 2021, MaxMem=  7864320000 cpu:           14366.8 elap:             455.3
 (Enter /apps/gaussian/g16-c01-avx/g16/l502.exe)
 Integral symmetry usage will be decided dynamically.
 Closed shell SCF:
 Using DIIS extrapolation, IDIIS=  1040.
 NGot=  7864320000 LenX=  7863190076 LenY=  7862640254
 Requested convergence on RMS density matrix=1.00D-08 within 128 cycles.
 Requested convergence on MAX density matrix=1.00D-06.
 Requested convergence on             energy=1.00D-06.
 No special actions if energy rises.
 Fock matrices will be formed incrementally for  20 cycles.

 Cycle   1  Pass 1  IDiag  1:
 FoFJK:  IHMeth= 1 ICntrl=       0 DoSepK=F KAlg= 0 I1Cent=           0 FoldK=F
 IRaf= 910000000 NMat=       1 IRICut=       1 DoRegI=T DoRafI=F ISym2E= 0 IDoP0=0 IntGTp=1.
 FoFCou: FMM=F IPFlag=           0 FMFlag=      100000 FMFlg1=           0
         NFxFlg=           0 DoJE=F BraDBF=F KetDBF=F FulRan=T
         wScrn=  0.000000 ICntrl=         0 IOpCl=  0 I1Cent=           0 NGrid=           0
         NMat0=    1 NMatS0=      1 NMatT0=    0 NMatD0=    1 NMtDS0=    0 NMtDT0=    0
 Symmetry not used in FoFCou.
 E= -908.769367727901    
 DIIS: error= 7.52D-05 at cycle   1 NSaved=   1.
 NSaved= 1 IEnMin= 1 EnMin= -908.769367727901     IErMin= 1 ErrMin= 7.52D-05
 ErrMax= 7.52D-05  0.00D+00 EMaxC= 1.00D-01 BMatC= 1.65D-05 BMatP= 1.65D-05
 IDIUse=1 WtCom= 1.00D+00 WtEn= 0.00D+00
 Coeff-Com:  0.100D+01
 Coeff:      0.100D+01
 Gap=     0.511 Goal=   None    Shift=    0.000
 RMSDP=1.33D-04 MaxDP=2.10D-02              OVMax= 1.01D-03

 Cycle   2  Pass 1  IDiag  1:
 RMSU=  1.25D-04    CP:  9.99D-01
 E= -908.769384670285     Delta-E=       -0.000016942384 Rises=F Damp=F
 DIIS: error= 4.29D-05 at cycle   2 NSaved=   2.
 NSaved= 2 IEnMin= 2 EnMin= -908.769384670285     IErMin= 2 ErrMin= 4.29D-05
 ErrMax= 4.29D-05  0.00D+00 EMaxC= 1.00D-01 BMatC= 5.89D-06 BMatP= 1.65D-05
 IDIUse=1 WtCom= 1.00D+00 WtEn= 0.00D+00
 Coeff-Com:  0.358D+00 0.642D+00
 Coeff:      0.358D+00 0.642D+00
 Gap=     0.357 Goal=   None    Shift=    0.000
 RMSDP=2.54D-05 MaxDP=1.72D-03 DE=-1.69D-05 OVMax= 3.62D-04

 Cycle   3  Pass 1  IDiag  1:
 RMSU=  2.54D-05    CP:  9.99D-01  1.01D+00
 E= -908.769390130785     Delta-E=       -0.000005460500 Rises=F Damp=F
 DIIS: error= 9.03D-06 at cycle   3 NSaved=   3.
 NSaved= 3 IEnMin= 3 EnMin= -908.769390130785     IErMin= 3 ErrMin= 9.03D-06
 ErrMax= 9.03D-06  0.00D+00 EMaxC= 1.00D-01 BMatC= 1.51D-07 BMatP= 5.89D-06
 IDIUse=1 WtCom= 1.00D+00 WtEn= 0.00D+00
 Coeff-Com: -0.165D+00-0.199D+00 0.136D+01
 Coeff:     -0.165D+00-0.199D+00 0.136D+01
 Gap=     0.357 Goal=   None    Shift=    0.000
 RMSDP=1.97D-05 MaxDP=3.35D-03 DE=-5.46D-06 OVMax= 2.38D-04

 Cycle   4  Pass 1  IDiag  1:
 RMSU=  8.00D-06    CP:  9.99D-01  1.14D+00  1.22D+00
 E= -908.769390659254     Delta-E=       -0.000000528468 Rises=F Damp=F
 DIIS: error= 2.30D-06 at cycle   4 NSaved=   4.
 NSaved= 4 IEnMin= 4 EnMin= -908.769390659254     IErMin= 4 ErrMin= 2.30D-06
 ErrMax= 2.30D-06  0.00D+00 EMaxC= 1.00D-01 BMatC= 1.24D-08 BMatP= 1.51D-07
 IDIUse=1 WtCom= 1.00D+00 WtEn= 0.00D+00
 Coeff-Com: -0.429D-01-0.572D-01 0.255D+00 0.845D+00
 Coeff:     -0.429D-01-0.572D-01 0.255D+00 0.845D+00
 Gap=     0.357 Goal=   None    Shift=    0.000
 RMSDP=2.59D-06 MaxDP=2.11D-04 DE=-5.28D-07 OVMax= 8.06D-05

 Cycle   5  Pass 1  IDiag  1:
 RMSU=  2.37D-06    CP:  9.99D-01  1.14D+00  1.24D+00  1.07D+00
 E= -908.769390686165     Delta-E=       -0.000000026911 Rises=F Damp=F
 DIIS: error= 1.58D-06 at cycle   5 NSaved=   5.
 NSaved= 5 IEnMin= 5 EnMin= -908.769390686165     IErMin= 5 ErrMin= 1.58D-06
 ErrMax= 1.58D-06  0.00D+00 EMaxC= 1.00D-01 BMatC= 2.62D-09 BMatP= 1.24D-08
 IDIUse=1 WtCom= 1.00D+00 WtEn= 0.00D+00
 Coeff-Com:  0.265D-01 0.332D-01-0.230D+00 0.393D-01 0.113D+01
 Coeff:      0.265D-01 0.332D-01-0.230D+00 0.393D-01 0.113D+01
 Gap=     0.357 Goal=   None    Shift=    0.000
 RMSDP=2.07D-06 MaxDP=1.53D-04 DE=-2.69D-08 OVMax= 5.45D-05

 Cycle   6  Pass 1  IDiag  1:
 RMSU=  1.33D-06    CP:  9.99D-01  1.13D+00  1.24D+00  1.19D+00  1.30D+00
 E= -908.769390696582     Delta-E=       -0.000000010417 Rises=F Damp=F
 DIIS: error= 7.00D-07 at cycle   6 NSaved=   6.
 NSaved= 6 IEnMin= 6 EnMin= -908.769390696582     IErMin= 6 ErrMin= 7.00D-07
 ErrMax= 7.00D-07  0.00D+00 EMaxC= 1.00D-01 BMatC= 4.98D-10 BMatP= 2.62D-09
 IDIUse=1 WtCom= 1.00D+00 WtEn= 0.00D+00
 Coeff-Com:  0.175D-02 0.327D-02 0.779D-03-0.139D+00-0.900D-01 0.122D+01
 Coeff:      0.175D-02 0.327D-02 0.779D-03-0.139D+00-0.900D-01 0.122D+01
 Gap=     0.357 Goal=   None    Shift=    0.000
 RMSDP=1.11D-06 MaxDP=9.25D-05 DE=-1.04D-08 OVMax= 3.68D-05

 Cycle   7  Pass 1  IDiag  1:
 RMSU=  3.82D-07    CP:  9.99D-01  1.12D+00  1.25D+00  1.22D+00  1.58D+00
                    CP:  1.44D+00
 E= -908.769390699259     Delta-E=       -0.000000002677 Rises=F Damp=F
 DIIS: error= 3.41D-07 at cycle   7 NSaved=   7.
 NSaved= 7 IEnMin= 7 EnMin= -908.769390699259     IErMin= 7 ErrMin= 3.41D-07
 ErrMax= 3.41D-07  0.00D+00 EMaxC= 1.00D-01 BMatC= 1.52D-10 BMatP= 4.98D-10
 IDIUse=1 WtCom= 1.00D+00 WtEn= 0.00D+00
 Coeff-Com: -0.799D-02-0.959D-02 0.723D-01-0.534D-01-0.346D+00 0.211D+00
 Coeff-Com:  0.113D+01
 Coeff:     -0.799D-02-0.959D-02 0.723D-01-0.534D-01-0.346D+00 0.211D+00
 Coeff:      0.113D+01
 Gap=     0.357 Goal=   None    Shift=    0.000
 RMSDP=6.80D-07 MaxDP=4.98D-05 DE=-2.68D-09 OVMax= 2.13D-05

 Cycle   8  Pass 1  IDiag  1:
 RMSU=  2.01D-07    CP:  9.99D-01  1.12D+00  1.25D+00  1.23D+00  1.72D+00
                    CP:  1.78D+00  1.37D+00
 E= -908.769390700090     Delta-E=       -0.000000000831 Rises=F Damp=F
 DIIS: error= 9.67D-08 at cycle   8 NSaved=   8.
 NSaved= 8 IEnMin= 8 EnMin= -908.769390700090     IErMin= 8 ErrMin= 9.67D-08
 ErrMax= 9.67D-08  0.00D+00 EMaxC= 1.00D-01 BMatC= 1.45D-11 BMatP= 1.52D-10
 IDIUse=1 WtCom= 1.00D+00 WtEn= 0.00D+00
 Coeff-Com:  0.121D-02 0.139D-02-0.140D-01 0.282D-01 0.101D+00-0.253D+00
 Coeff-Com: -0.244D+00 0.138D+01
 Coeff:      0.121D-02 0.139D-02-0.140D-01 0.282D-01 0.101D+00-0.253D+00
 Coeff:     -0.244D+00 0.138D+01
 Gap=     0.357 Goal=   None    Shift=    0.000
 RMSDP=2.23D-07 MaxDP=2.88D-05 DE=-8.31D-10 OVMax= 7.77D-06

 Cycle   9  Pass 1  IDiag  1:
 RMSU=  6.65D-08    CP:  9.99D-01  1.12D+00  1.26D+00  1.24D+00  1.76D+00
                    CP:  1.85D+00  1.64D+00  1.39D+00
 E= -908.769390700229     Delta-E=       -0.000000000140 Rises=F Damp=F
 DIIS: error= 2.76D-08 at cycle   9 NSaved=   9.
 NSaved= 9 IEnMin= 9 EnMin= -908.769390700229     IErMin= 9 ErrMin= 2.76D-08
 ErrMax= 2.76D-08  0.00D+00 EMaxC= 1.00D-01 BMatC= 1.36D-12 BMatP= 1.45D-11
 IDIUse=1 WtCom= 1.00D+00 WtEn= 0.00D+00
 Coeff-Com:  0.896D-03 0.108D-02-0.841D-02 0.600D-02 0.454D-01-0.433D-01
 Coeff-Com: -0.135D+00 0.120D+00 0.101D+01
 Coeff:      0.896D-03 0.108D-02-0.841D-02 0.600D-02 0.454D-01-0.433D-01
 Coeff:     -0.135D+00 0.120D+00 0.101D+01
 Gap=     0.357 Goal=   None    Shift=    0.000
 RMSDP=5.83D-08 MaxDP=5.24D-06 DE=-1.40D-10 OVMax= 1.50D-06

 Cycle  10  Pass 1  IDiag  1:
 RMSU=  2.66D-08    CP:  9.99D-01  1.12D+00  1.26D+00  1.25D+00  1.77D+00
                    CP:  1.87D+00  1.69D+00  1.49D+00  1.14D+00
 E= -908.769390700242     Delta-E=       -0.000000000013 Rises=F Damp=F
 DIIS: error= 8.73D-09 at cycle  10 NSaved=  10.
 NSaved=10 IEnMin=10 EnMin= -908.769390700242     IErMin=10 ErrMin= 8.73D-09
 ErrMax= 8.73D-09  0.00D+00 EMaxC= 1.00D-01 BMatC= 1.59D-13 BMatP= 1.36D-12
 IDIUse=1 WtCom= 1.00D+00 WtEn= 0.00D+00
 Coeff-Com: -0.129D-03-0.144D-03 0.161D-02-0.396D-02-0.110D-01 0.314D-01
 Coeff-Com:  0.264D-01-0.181D+00 0.451D-01 0.109D+01
 Coeff:     -0.129D-03-0.144D-03 0.161D-02-0.396D-02-0.110D-01 0.314D-01
 Coeff:      0.264D-01-0.181D+00 0.451D-01 0.109D+01
 Gap=     0.357 Goal=   None    Shift=    0.000
 RMSDP=1.54D-08 MaxDP=1.06D-06 DE=-1.25D-11 OVMax= 4.45D-07

 Cycle  11  Pass 1  IDiag  1:
 RMSU=  5.82D-09    CP:  9.99D-01  1.12D+00  1.26D+00  1.25D+00  1.78D+00
                    CP:  1.87D+00  1.69D+00  1.49D+00  1.25D+00  1.11D+00
 E= -908.769390700238     Delta-E=        0.000000000004 Rises=F Damp=F
 DIIS: error= 4.96D-09 at cycle  11 NSaved=  11.
 NSaved=11 IEnMin=10 EnMin= -908.769390700242     IErMin=11 ErrMin= 4.96D-09
 ErrMax= 4.96D-09  0.00D+00 EMaxC= 1.00D-01 BMatC= 1.75D-14 BMatP= 1.59D-13
 IDIUse=1 WtCom= 1.00D+00 WtEn= 0.00D+00
 Coeff-Com: -0.940D-04-0.110D-03 0.944D-03-0.108D-02-0.506D-02 0.780D-02
 Coeff-Com:  0.152D-01-0.315D-01-0.816D-01 0.128D+00 0.967D+00
 Coeff:     -0.940D-04-0.110D-03 0.944D-03-0.108D-02-0.506D-02 0.780D-02
 Coeff:      0.152D-01-0.315D-01-0.816D-01 0.128D+00 0.967D+00
 Gap=     0.357 Goal=   None    Shift=    0.000
 RMSDP=3.15D-09 MaxDP=2.03D-07 DE= 4.09D-12 OVMax= 1.40D-07

 Error on total polarization charges =  0.01709
 SCF Done:  E(RHF) =  -908.769390700     A.U. after   11 cycles
            NFock= 11  Conv=0.32D-08     -V/T= 2.0005
 KE= 9.083141310702D+02 PE=-5.542640533513D+03 EE= 2.015982840595D+03
 Leave Link  502 at Tue Nov  2 18:09:52 2021, MaxMem=  7864320000 cpu:            9515.5 elap:             299.9
 (Enter /apps/gaussian/g16-c01-avx/g16/l508.exe)
 QCSCF skips out because SCF is already converged.
 Leave Link  508 at Tue Nov  2 18:09:52 2021, MaxMem=  7864320000 cpu:               0.1 elap:               0.0
 (Enter /apps/gaussian/g16-c01-avx/g16/l801.exe)
 ExpMin= 2.97D-02 ExpMax= 9.05D+03 ExpMxC= 3.09D+02 IAcc=3 IRadAn=         7 AccDes= 0.00D+00
 HarFok:  IExCor=  205 AccDes= 0.00D+00 IRadAn=         7 IDoV=-2 UseB2=F ITyADJ=14
 ICtDFT= 12500011 ScaDFX=  1.000000  1.000000  1.000000  1.000000
 GSVD:  LWork=        -609 too small for GESVD, short by        2520 words or        2520 for optimal perf.
 Largest valence mixing into a core orbital is  1.10D-04
 Largest core mixing into a valence orbital is  4.32D-05
 Range of M.O.s used for correlation:    22   696
 NBasis=   699 NAE=    78 NBE=    78 NFC=    21 NFV=     0
 NROrb=    675 NOA=    57 NOB=    57 NVA=   618 NVB=   618

 **** Warning!!: The largest alpha MO coefficient is  0.20212793D+03

 Leave Link  801 at Tue Nov  2 18:09:53 2021, MaxMem=  7864320000 cpu:              10.1 elap:               0.3
 (Enter /apps/gaussian/g16-c01-avx/g16/l906.exe)
 FulOut=F Deriv=F AODrv=F NAtomX=    45
   MMem=           9  MDisk=          57 MDiskD=          57
  W3Min=    26102466 MinDsk=    26487227 NBas6D=         741
 NBas2D=      275874    NTT=      274911    LW2=     2000000
    MDV=  7861087812 MDiskM=      147306 NBas2p=      240776
 Disk-based method using OVN memory for 57 occupieds at a time.
 Estimated scratch disk usage= 29891236800 words.
 IMap=   1   2   3   4   5   6   7   8   9  10  11  12  13  14  15  16  17  18  19  20
 IMap=  21  22  23  24  25  26  27  28  29  30  31  32  33  34  35  36  37  38  39  40
 IMap=  41  42  43  44  45  46  47  48  49  50  51  52  53  54  55  56  57
 Actual    scratch disk usage= 25446357048 words.
 JobTyp=1 Pass  1:  I=   1 to  57 NPSUse= 32 ParTrn=T ParDer=T DoDerP=F.
 Spin components of T(2) and E(2):
     alpha-alpha T2 =       0.1477325677D+00 E2=     -0.4137299511D+00
     alpha-beta  T2 =       0.7813589558D+00 E2=     -0.2339432078D+01
     beta-beta   T2 =       0.1477325677D+00 E2=     -0.4137299511D+00
 The integrals were generated   1 times.
 ANorm=    0.1441119041D+01
 E2 =    -0.3166891980D+01 EUMP2 =    -0.91193628268025D+03
 Leave Link  906 at Tue Nov  2 18:27:19 2021, MaxMem=  7864320000 cpu:           32989.1 elap:            1046.8
 (Enter /apps/gaussian/g16-c01-avx/g16/l601.exe)
 Copying SCF densities to generalized density rwf, IOpCl= 0 IROHF=0.

 **********************************************************************

            Population analysis using the SCF Density.

 **********************************************************************

 Orbital symmetries:
       Occupied  (A) (A) (A) (A) (A) (A) (A) (A) (A) (A) (A) (A)
                 (A) (A) (A) (A) (A) (A) (A) (A) (A) (A) (A) (A)
                 (A) (A) (A) (A) (A) (A) (A) (A) (A) (A) (A) (A)
                 (A) (A) (A) (A) (A) (A) (A) (A) (A) (A) (A) (A)
                 (A) (A) (A) (A) (A) (A) (A) (A) (A) (A) (A) (A)
                 (A) (A) (A) (A) (A) (A) (A) (A) (A) (A) (A) (A)
                 (A) (A) (A) (A) (A) (A)
       Virtual   (A) (A) (A) (A) (A) (A) (A) (A) (A) (A) (A) (A)
                 (A) (A) (A) (A) (A) (A) (A) (A) (A) (A) (A) (A)
                 (A) (A) (A) (A) (A) (A) (A) (A) (A) (A) (A) (A)
                 (A) (A) (A) (A) (A) (A) (A) (A) (A) (A) (A) (A)
                 (A) (A) (A) (A) (A) (A) (A) (A) (A) (A) (A) (A)
                 (A) (A) (A) (A) (A) (A) (A) (A) (A) (A) (A) (A)
                 (A) (A) (A) (A) (A) (A) (A) (A) (A) (A) (A) (A)
                 (A) (A) (A) (A) (A) (A) (A) (A) (A) (A) (A) (A)
                 (A) (A) (A) (A) (A) (A) (A) (A) (A) (A) (A) (A)
                 (A) (A) (A) (A) (A) (A) (A) (A) (A) (A) (A) (A)
                 (A) (A) (A) (A) (A) (A) (A) (A) (A) (A) (A) (A)
                 (A) (A) (A) (A) (A) (A) (A) (A) (A) (A) (A) (A)
                 (A) (A) (A) (A) (A) (A) (A) (A) (A) (A) (A) (A)
                 (A) (A) (A) (A) (A) (A) (A) (A) (A) (A) (A) (A)
                 (A) (A) (A) (A) (A) (A) (A) (A) (A) (A) (A) (A)
                 (A) (A) (A) (A) (A) (A) (A) (A) (A) (A) (A) (A)
                 (A) (A) (A) (A) (A) (A) (A) (A) (A) (A) (A) (A)
                 (A) (A) (A) (A) (A) (A) (A) (A) (A) (A) (A) (A)
                 (A) (A) (A) (A) (A) (A) (A) (A) (A) (A) (A) (A)
                 (A) (A) (A) (A) (A) (A) (A) (A) (A) (A) (A) (A)
                 (A) (A) (A) (A) (A) (A) (A) (A) (A) (A) (A) (A)
                 (A) (A) (A) (A) (A) (A) (A) (A) (A) (A) (A) (A)
                 (A) (A) (A) (A) (A) (A) (A) (A) (A) (A) (A) (A)
                 (A) (A) (A) (A) (A) (A) (A) (A) (A) (A) (A) (A)
                 (A) (A) (A) (A) (A) (A) (A) (A) (A) (A) (A) (A)
                 (A) (A) (A) (A) (A) (A) (A) (A) (A) (A) (A) (A)
                 (A) (A) (A) (A) (A) (A) (A) (A) (A) (A) (A) (A)
                 (A) (A) (A) (A) (A) (A) (A) (A) (A) (A) (A) (A)
                 (A) (A) (A) (A) (A) (A) (A) (A) (A) (A) (A) (A)
                 (A) (A) (A) (A) (A) (A) (A) (A) (A) (A) (A) (A)
                 (A) (A) (A) (A) (A) (A) (A) (A) (A) (A) (A) (A)
                 (A) (A) (A) (A) (A) (A) (A) (A) (A) (A) (A) (A)
                 (A) (A) (A) (A) (A) (A) (A) (A) (A) (A) (A) (A)
                 (A) (A) (A) (A) (A) (A) (A) (A) (A) (A) (A) (A)
                 (A) (A) (A) (A) (A) (A) (A) (A) (A) (A) (A) (A)
                 (A) (A) (A) (A) (A) (A) (A) (A) (A) (A) (A) (A)
                 (A) (A) (A) (A) (A) (A) (A) (A) (A) (A) (A) (A)
                 (A) (A) (A) (A) (A) (A) (A) (A) (A) (A) (A) (A)
                 (A) (A) (A) (A) (A) (A) (A) (A) (A) (A) (A) (A)
                 (A) (A) (A) (A) (A) (A) (A) (A) (A) (A) (A) (A)
                 (A) (A) (A) (A) (A) (A) (A) (A) (A) (A) (A) (A)
                 (A) (A) (A) (A) (A) (A) (A) (A) (A) (A) (A) (A)
                 (A) (A) (A) (A) (A) (A) (A) (A) (A) (A) (A) (A)
                 (A) (A) (A) (A) (A) (A) (A) (A) (A) (A) (A) (A)
                 (A) (A) (A) (A) (A) (A) (A) (A) (A) (A) (A) (A)
                 (A) (A) (A) (A) (A) (A) (A) (A) (A) (A) (A) (A)
                 (A) (A) (A) (A) (A) (A) (A) (A) (A) (A) (A) (A)
                 (A) (A) (A) (A) (A) (A) (A) (A) (A) (A) (A) (A)
                 (A) (A) (A) (A) (A) (A) (A) (A) (A) (A) (A) (A)
                 (A) (A) (A) (A) (A) (A) (A) (A) (A) (A) (A) (A)
                 (A) (A) (A) (A) (A) (A) (A) (A) (A) (A) (A) (A)
                 (A) (A) (A) (A) (A) (A)
 The electronic state is 1-A.
 Alpha  occ. eigenvalues --  -15.55424 -15.55423 -15.55421 -15.54412 -15.54409
 Alpha  occ. eigenvalues --  -15.54391 -11.28755 -11.28726 -11.28691 -11.25133
 Alpha  occ. eigenvalues --  -11.25129 -11.25126 -11.24839 -11.24823 -11.24820
 Alpha  occ. eigenvalues --  -11.23654 -11.23628 -11.23568 -11.23133 -11.22748
 Alpha  occ. eigenvalues --  -11.22475  -1.27793  -1.27613  -1.27569  -1.16054
 Alpha  occ. eigenvalues --   -1.14045  -1.14023  -1.14016  -1.05516  -1.05463
 Alpha  occ. eigenvalues --   -0.99329  -0.97282  -0.96754  -0.87290  -0.85898
 Alpha  occ. eigenvalues --   -0.84302  -0.82139  -0.82078  -0.81923  -0.79001
 Alpha  occ. eigenvalues --   -0.77369  -0.71796  -0.70180  -0.68801  -0.68471
 Alpha  occ. eigenvalues --   -0.66867  -0.66530  -0.66065  -0.63555  -0.59970
 Alpha  occ. eigenvalues --   -0.59827  -0.58815  -0.58459  -0.58147  -0.57608
 Alpha  occ. eigenvalues --   -0.55211  -0.54742  -0.54542  -0.54181  -0.54104
 Alpha  occ. eigenvalues --   -0.53121  -0.52451  -0.52318  -0.52019  -0.49254
 Alpha  occ. eigenvalues --   -0.49177  -0.49164  -0.48073  -0.47313  -0.46865
 Alpha  occ. eigenvalues --   -0.39302  -0.39223  -0.39184  -0.37156  -0.36866
 Alpha  occ. eigenvalues --   -0.36596  -0.32896  -0.32235
 Alpha virt. eigenvalues --    0.03449   0.03883   0.04016   0.04417   0.04883
 Alpha virt. eigenvalues --    0.04915   0.05289   0.05508   0.05739   0.06321
 Alpha virt. eigenvalues --    0.06353   0.06975   0.07211   0.07501   0.07846
 Alpha virt. eigenvalues --    0.08135   0.08419   0.08478   0.09407   0.09981
 Alpha virt. eigenvalues --    0.10371   0.10560   0.11034   0.11551   0.11788
 Alpha virt. eigenvalues --    0.11826   0.12352   0.13219   0.13274   0.13467
 Alpha virt. eigenvalues --    0.14203   0.14433   0.14587   0.14682   0.14914
 Alpha virt. eigenvalues --    0.15052   0.15307   0.15355   0.15543   0.15831
 Alpha virt. eigenvalues --    0.15983   0.16465   0.16744   0.17028   0.17535
 Alpha virt. eigenvalues --    0.17765   0.18136   0.18367   0.18477   0.18616
 Alpha virt. eigenvalues --    0.18865   0.18904   0.19657   0.19955   0.20043
 Alpha virt. eigenvalues --    0.20514   0.20843   0.21118   0.21225   0.21721
 Alpha virt. eigenvalues --    0.21946   0.22200   0.22716   0.23003   0.23074
 Alpha virt. eigenvalues --    0.23484   0.23616   0.24524   0.24898   0.25065
 Alpha virt. eigenvalues --    0.25484   0.25632   0.26217   0.26740   0.28014
 Alpha virt. eigenvalues --    0.28348   0.28716   0.29042   0.29406   0.29808
 Alpha virt. eigenvalues --    0.29878   0.30130   0.30514   0.30631   0.31221
 Alpha virt. eigenvalues --    0.31465   0.32042   0.32402   0.33027   0.33212
 Alpha virt. eigenvalues --    0.33581   0.33815   0.34023   0.34530   0.34731
 Alpha virt. eigenvalues --    0.34967   0.35191   0.35295   0.35527   0.35973
 Alpha virt. eigenvalues --    0.36055   0.36371   0.36641   0.36804   0.37146
 Alpha virt. eigenvalues --    0.37492   0.37769   0.37817   0.38002   0.38711
 Alpha virt. eigenvalues --    0.39076   0.39621   0.40056   0.40215   0.40632
 Alpha virt. eigenvalues --    0.41349   0.41402   0.41938   0.42292   0.42628
 Alpha virt. eigenvalues --    0.42766   0.43006   0.43399   0.43731   0.43841
 Alpha virt. eigenvalues --    0.44249   0.44543   0.44919   0.44970   0.45326
 Alpha virt. eigenvalues --    0.45539   0.45751   0.46090   0.46798   0.47022
 Alpha virt. eigenvalues --    0.47257   0.47609   0.48110   0.48488   0.48783
 Alpha virt. eigenvalues --    0.49113   0.49504   0.49598   0.49815   0.50074
 Alpha virt. eigenvalues --    0.50199   0.50568   0.51082   0.51267   0.51338
 Alpha virt. eigenvalues --    0.51704   0.52181   0.52338   0.52700   0.52945
 Alpha virt. eigenvalues --    0.53660   0.53724   0.53841   0.54136   0.54315
 Alpha virt. eigenvalues --    0.54638   0.54926   0.55344   0.55917   0.56227
 Alpha virt. eigenvalues --    0.56815   0.57245   0.57820   0.58306   0.58683
 Alpha virt. eigenvalues --    0.58814   0.59510   0.59957   0.60067   0.60616
 Alpha virt. eigenvalues --    0.61102   0.61242   0.61578   0.61874   0.61928
 Alpha virt. eigenvalues --    0.62239   0.62588   0.62721   0.63195   0.63351
 Alpha virt. eigenvalues --    0.63910   0.64031   0.64451   0.64671   0.65466
 Alpha virt. eigenvalues --    0.65616   0.66258   0.66627   0.67074   0.67465
 Alpha virt. eigenvalues --    0.67878   0.68088   0.68354   0.68549   0.68810
 Alpha virt. eigenvalues --    0.68912   0.69300   0.69704   0.70168   0.70431
 Alpha virt. eigenvalues --    0.70573   0.70965   0.71120   0.71706   0.72003
 Alpha virt. eigenvalues --    0.72256   0.72302   0.72850   0.72970   0.73109
 Alpha virt. eigenvalues --    0.73422   0.73876   0.74416   0.74820   0.74987
 Alpha virt. eigenvalues --    0.75345   0.75727   0.76450   0.76593   0.76994
 Alpha virt. eigenvalues --    0.77132   0.77512   0.77691   0.77905   0.78009
 Alpha virt. eigenvalues --    0.78209   0.78447   0.79292   0.79426   0.79697
 Alpha virt. eigenvalues --    0.80123   0.80576   0.81030   0.81801   0.81927
 Alpha virt. eigenvalues --    0.82307   0.82554   0.82703   0.83018   0.83473
 Alpha virt. eigenvalues --    0.84288   0.84325   0.84698   0.84921   0.85628
 Alpha virt. eigenvalues --    0.85757   0.86818   0.87187   0.87458   0.87584
 Alpha virt. eigenvalues --    0.87709   0.88378   0.88891   0.89135   0.89750
 Alpha virt. eigenvalues --    0.89955   0.90726   0.91170   0.91351   0.91500
 Alpha virt. eigenvalues --    0.91878   0.92392   0.92570   0.92642   0.93376
 Alpha virt. eigenvalues --    0.93703   0.94056   0.94984   0.95427   0.96079
 Alpha virt. eigenvalues --    0.96163   0.96767   0.97185   0.97639   0.98107
 Alpha virt. eigenvalues --    0.98822   0.99194   1.00250   1.00560   1.01356
 Alpha virt. eigenvalues --    1.01452   1.02043   1.03063   1.03397   1.03882
 Alpha virt. eigenvalues --    1.04227   1.04576   1.05548   1.05736   1.06058
 Alpha virt. eigenvalues --    1.06160   1.07027   1.07244   1.07698   1.08210
 Alpha virt. eigenvalues --    1.09122   1.09665   1.09749   1.10547   1.10901
 Alpha virt. eigenvalues --    1.11188   1.11564   1.12193   1.12358   1.13564
 Alpha virt. eigenvalues --    1.14054   1.15132   1.15715   1.16286   1.16849
 Alpha virt. eigenvalues --    1.17498   1.17712   1.17946   1.19508   1.20577
 Alpha virt. eigenvalues --    1.21018   1.22459   1.22606   1.23289   1.24006
 Alpha virt. eigenvalues --    1.24348   1.25572   1.25952   1.26730   1.26921
 Alpha virt. eigenvalues --    1.27711   1.27896   1.28228   1.29479   1.29956
 Alpha virt. eigenvalues --    1.30389   1.30939   1.31371   1.31541   1.32130
 Alpha virt. eigenvalues --    1.32462   1.34027   1.34190   1.34925   1.36253
 Alpha virt. eigenvalues --    1.37998   1.38972   1.40565   1.40959   1.41049
 Alpha virt. eigenvalues --    1.42514   1.43474   1.44275   1.44982   1.45426
 Alpha virt. eigenvalues --    1.46416   1.47825   1.49535   1.51131   1.51485
 Alpha virt. eigenvalues --    1.53209   1.53352   1.54202   1.54794   1.57524
 Alpha virt. eigenvalues --    1.57662   1.58663   1.59800   1.60332   1.61645
 Alpha virt. eigenvalues --    1.62029   1.62694   1.63997   1.65833   1.66226
 Alpha virt. eigenvalues --    1.66968   1.68254   1.69227   1.70068   1.70209
 Alpha virt. eigenvalues --    1.71318   1.71875   1.72637   1.73504   1.74547
 Alpha virt. eigenvalues --    1.74784   1.76200   1.76545   1.77604   1.78066
 Alpha virt. eigenvalues --    1.79096   1.79315   1.79800   1.80218   1.80738
 Alpha virt. eigenvalues --    1.81288   1.82027   1.82475   1.82838   1.83072
 Alpha virt. eigenvalues --    1.84085   1.85007   1.85758   1.86027   1.86384
 Alpha virt. eigenvalues --    1.87219   1.88150   1.89157   1.89923   1.90368
 Alpha virt. eigenvalues --    1.91189   1.91586   1.91784   1.92709   1.93026
 Alpha virt. eigenvalues --    1.93497   1.93987   1.94110   1.95107   1.95288
 Alpha virt. eigenvalues --    1.96473   1.96985   1.97384   1.97781   1.98501
 Alpha virt. eigenvalues --    1.99554   2.00782   2.01622   2.02175   2.03304
 Alpha virt. eigenvalues --    2.03660   2.05110   2.05863   2.06105   2.06397
 Alpha virt. eigenvalues --    2.07146   2.07797   2.08650   2.09601   2.09785
 Alpha virt. eigenvalues --    2.10214   2.11420   2.11979   2.13651   2.14189
 Alpha virt. eigenvalues --    2.14535   2.15300   2.16260   2.16702   2.17228
 Alpha virt. eigenvalues --    2.18656   2.19112   2.20081   2.21686   2.22590
 Alpha virt. eigenvalues --    2.23682   2.23848   2.24284   2.25221   2.25952
 Alpha virt. eigenvalues --    2.26999   2.27910   2.28653   2.29027   2.29802
 Alpha virt. eigenvalues --    2.30601   2.31892   2.32019   2.33055   2.33462
 Alpha virt. eigenvalues --    2.33541   2.34434   2.34497   2.34998   2.35586
 Alpha virt. eigenvalues --    2.36992   2.37403   2.38266   2.38561   2.39943
 Alpha virt. eigenvalues --    2.40403   2.40525   2.41530   2.41781   2.42479
 Alpha virt. eigenvalues --    2.43783   2.44863   2.45189   2.45639   2.46207
 Alpha virt. eigenvalues --    2.47089   2.47154   2.47767   2.48514   2.48986
 Alpha virt. eigenvalues --    2.49276   2.49525   2.50150   2.50590   2.51471
 Alpha virt. eigenvalues --    2.52157   2.52230   2.53528   2.53976   2.55311
 Alpha virt. eigenvalues --    2.55816   2.56064   2.57240   2.57770   2.58028
 Alpha virt. eigenvalues --    2.58623   2.59704   2.60920   2.61411   2.61775
 Alpha virt. eigenvalues --    2.63551   2.65902   2.66989   2.67667   2.68318
 Alpha virt. eigenvalues --    2.68760   2.69276   2.69605   2.69979   2.70824
 Alpha virt. eigenvalues --    2.71827   2.72033   2.72508   2.72609   2.73836
 Alpha virt. eigenvalues --    2.74291   2.75110   2.75571   2.75850   2.76291
 Alpha virt. eigenvalues --    2.77743   2.78288   2.79304   2.79628   2.80593
 Alpha virt. eigenvalues --    2.83629   2.83952   2.85417   2.86768   2.88286
 Alpha virt. eigenvalues --    2.89615   2.91112   2.91454   2.91957   2.92312
 Alpha virt. eigenvalues --    2.93399   2.93687   2.94728   2.96835   2.97386
 Alpha virt. eigenvalues --    2.98079   2.99025   2.99754   3.01583   3.02200
 Alpha virt. eigenvalues --    3.02358   3.03093   3.04453   3.05043   3.06117
 Alpha virt. eigenvalues --    3.06262   3.07181   3.08070   3.08934   3.09421
 Alpha virt. eigenvalues --    3.10373   3.11921   3.12238   3.14057   3.15756
 Alpha virt. eigenvalues --    3.17177   3.18752   3.19454   3.19808   3.22705
 Alpha virt. eigenvalues --    3.23939   3.25987   3.26410   3.26702   3.27597
 Alpha virt. eigenvalues --    3.28291   3.29685   3.29973   3.31656   3.33523
 Alpha virt. eigenvalues --    3.35672   3.38357   3.42430   3.44229   3.46066
 Alpha virt. eigenvalues --    3.49898   3.53825   3.56624   3.60234   3.64005
 Alpha virt. eigenvalues --    3.67039   3.70065   3.72753   3.73214   3.73592
 Alpha virt. eigenvalues --    3.74324   3.80831   3.86362   3.94914   4.00227
 Alpha virt. eigenvalues --    4.01982   4.06372   4.32364   4.34800   4.54274
 Alpha virt. eigenvalues --    4.70555   4.76222   5.21850
          Condensed to atoms (all electrons):
               1          2          3          4          5          6
     1  C   18.991875   0.609531  -5.354368   0.839640   0.312471   0.026481
     2  C    0.609531  12.406873  -1.756584  -0.896480   0.004867   0.516242
     3  C   -5.354368  -1.756584  29.801250 -10.193426  -2.687588  -0.481547
     4  C    0.839640  -0.896480 -10.193426  22.283813   1.134143  -6.762991
     5  H    0.312471   0.004867  -2.687588   1.134143   2.979467   0.192063
     6  C    0.026481   0.516242  -0.481547  -6.762991   0.192063  24.726080
     7  C   -0.179252  -0.188122  -2.391332   3.124910   0.013683  -6.688333
     8  H   -0.125707   0.018610   0.346799   0.038459  -0.014126  -1.917940
     9  C   -9.677718  -2.840627  -0.246979  -4.288632   0.113665  -0.129069
    10  C    0.737969  -0.116822  -0.440681  -0.718824   0.014218  -1.607619
    11  H    1.101147  -0.010244   0.115429   0.042372  -0.026624   0.079870
    12  C   -0.238774  -0.042369  -1.837978   0.921625  -0.056663  -2.217817
    13  C   -0.031515  -0.333552  -0.028813   0.004910  -0.011988   0.013596
    14  C    0.014351  -0.404849   0.035396  -0.005985  -0.003542   0.043568
    15  N   -0.393757  -0.174334  -0.051761  -0.026939  -0.024514   0.074678
    16  N   -0.286361  -1.061898   0.184522   0.107211  -0.132764  -0.016644
    17  C   -0.083585  -0.009794   0.048707   0.001858   0.018332   0.081459
    18  C    0.008237  -0.010588  -0.034680   0.042847   0.004960  -0.206041
    19  N   -0.129395  -0.019440   0.071969  -0.239475   0.033513   0.207697
    20  N   -0.101737  -0.059686  -0.128358  -0.100725   0.054840  -0.289050
    21  C   -0.051396  -0.011494   0.055640  -0.033098   0.002390   0.044632
    22  C    0.005938  -0.009803  -0.041606   0.128518  -0.000496  -0.164993
    23  N   -0.194451  -0.014473   0.019338   0.114204   0.004786   0.134064
    24  N   -0.254883  -0.044155   0.018796   0.189851   0.002043  -0.371650
    25  H    0.036510  -0.004082  -0.009168   0.001074   0.000069  -0.043472
    26  H   -0.118665   0.037702  -0.024745  -0.029515   0.002984   0.239076
    27  H    0.009860  -0.003194  -0.008347  -0.014062   0.000816   0.139655
    28  H    0.113479   0.171845  -0.029710  -0.009516  -0.005744  -0.006923
    29  H   -0.258813  -0.562556   0.249483  -0.055992   0.037253  -0.014291
    30  H    0.043915  -0.210172   0.192506  -0.057720  -0.007335   0.000852
    31  H    0.021952  -0.000152  -0.098718   0.117934  -0.001161  -0.069173
    32  H    0.021199  -0.001341   0.029962  -0.023289   0.009780   0.164550
    33  H   -0.010085   0.007586   0.421869  -0.329058  -0.109542   0.270019
    34  H   -0.074542   0.035548   0.040535  -0.002656  -0.000362   0.001003
    35  H   -0.003794   0.183759  -0.065845   0.003373   0.008742   0.001767
    36  H   -0.038078  -0.010499   0.026931  -0.008144   0.002519   0.003786
    37  H    0.020146   0.048223  -0.003880   0.000524  -0.002905  -0.002327
    38  H   -0.010117   0.000009   0.010182  -0.124907  -0.001720   0.037926
    39  H   -0.000948  -0.000585   0.012874   0.003677   0.003484  -0.015618
    40  H   -0.001422  -0.000523  -0.008588  -0.021479  -0.000256   0.007378
    41  H    0.004720  -0.000395  -0.010724  -0.010185  -0.003134  -0.008620
    42  H   -0.000006  -0.000446   0.000709   0.002582  -0.000039   0.032398
    43  H    0.000175   0.000054   0.003699  -0.007835   0.000075  -0.029671
    44  H   -0.004112  -0.001388   0.001021  -0.000434  -0.000004   0.007889
    45  H    0.003286  -0.000610  -0.003638   0.007420  -0.000024   0.000447
               7          8          9         10         11         12
     1  C   -0.179252  -0.125707  -9.677718   0.737969   1.101147  -0.238774
     2  C   -0.188122   0.018610  -2.840627  -0.116822  -0.010244  -0.042369
     3  C   -2.391332   0.346799  -0.246979  -0.440681   0.115429  -1.837978
     4  C    3.124910   0.038459  -4.288632  -0.718824   0.042372   0.921625
     5  H    0.013683  -0.014126   0.113665   0.014218  -0.026624  -0.056663
     6  C   -6.688333  -1.917940  -0.129069  -1.607619   0.079870  -2.217817
     7  C   22.398179   0.061076 -11.538424   0.380551   1.216477  -0.467954
     8  H    0.061076   4.004497   0.323732  -0.012227  -0.021741   0.000147
     9  C  -11.538424   0.323732  38.731269  -2.670427  -3.385542  -0.532176
    10  C    0.380551  -0.012227  -2.670427  12.439759   0.072688   0.139504
    11  H    1.216477  -0.021741  -3.385542   0.072688   2.598133   0.006259
    12  C   -0.467954   0.000147  -0.532176   0.139504   0.006259  12.236773
    13  C   -0.022547   0.000093   0.036019  -0.003614   0.000953  -0.007025
    14  C   -0.068482   0.002001   0.065772  -0.010746   0.008624  -0.011864
    15  N   -0.325233   0.006874   0.309034  -0.004004   0.001501  -0.043531
    16  N   -0.203458   0.005771   0.323661   0.000486   0.027218  -0.095339
    17  C   -0.032223  -0.049553   0.075081  -0.021332   0.001826  -0.425447
    18  C    0.133323   0.001703  -0.058599  -0.014401  -0.000624  -0.432365
    19  N    0.135532  -0.253299   0.008222  -0.070284   0.002483  -1.190225
    20  N    0.191388  -0.051272  -0.018788  -0.049845   0.002656  -0.290677
    21  C    0.065944  -0.043073   0.014667  -0.393410   0.014101  -0.007722
    22  C    0.020584  -0.007495  -0.016457  -0.421238   0.006247  -0.012088
    23  N   -0.009257  -0.243966   0.082143  -1.311663   0.033148  -0.071337
    24  N   -0.011172  -0.050185   0.027536  -0.433756   0.025681  -0.043018
    25  H    0.095479   0.000890  -0.155359   0.164917  -0.002349   0.001529
    26  H   -0.278246   0.050160   0.494819  -0.540159  -0.089770   0.000061
    27  H   -0.014247  -0.014224   0.011584  -0.091217   0.005479   0.007905
    28  H    0.036708   0.000322  -0.153893  -0.004502  -0.001703  -0.004967
    29  H   -0.071510   0.002594   0.414647   0.026579  -0.063654   0.009991
    30  H    0.032850   0.000604  -0.014830  -0.002247   0.003735   0.029334
    31  H    0.010605   0.000890  -0.013993   0.000258  -0.000244   0.080807
    32  H   -0.016567  -0.017381  -0.016011   0.007956   0.000574  -0.120105
    33  H   -0.067526   0.051708  -0.051462   0.004612   0.002046  -0.357947
    34  H   -0.000045  -0.000125  -0.003915  -0.000444  -0.001630  -0.001162
    35  H   -0.000287  -0.000036   0.011320  -0.000024   0.001222  -0.001340
    36  H   -0.005829   0.000021   0.006863  -0.000748   0.000664  -0.000061
    37  H    0.006014   0.000037  -0.012230  -0.000277  -0.001502  -0.000161
    38  H    0.009243  -0.011730   0.001158  -0.002132   0.000139   0.026595
    39  H   -0.008674   0.009166   0.005629  -0.000016   0.000055   0.128885
    40  H    0.002557   0.002268  -0.000424  -0.001592   0.000026  -0.002441
    41  H    0.005934  -0.002407  -0.005308   0.000218  -0.000130   0.055031
    42  H   -0.102590  -0.008182  -0.012414   0.058610  -0.001440   0.001745
    43  H    0.014429   0.007985   0.017761   0.111602   0.001768  -0.000277
    44  H   -0.020614   0.002689  -0.003596  -0.001096   0.000073  -0.001277
    45  H   -0.023225  -0.002283  -0.000292   0.039226  -0.000917  -0.000557
              13         14         15         16         17         18
     1  C   -0.031515   0.014351  -0.393757  -0.286361  -0.083585   0.008237
     2  C   -0.333552  -0.404849  -0.174334  -1.061898  -0.009794  -0.010588
     3  C   -0.028813   0.035396  -0.051761   0.184522   0.048707  -0.034680
     4  C    0.004910  -0.005985  -0.026939   0.107211   0.001858   0.042847
     5  H   -0.011988  -0.003542  -0.024514  -0.132764   0.018332   0.004960
     6  C    0.013596   0.043568   0.074678  -0.016644   0.081459  -0.206041
     7  C   -0.022547  -0.068482  -0.325233  -0.203458  -0.032223   0.133323
     8  H    0.000093   0.002001   0.006874   0.005771  -0.049553   0.001703
     9  C    0.036019   0.065772   0.309034   0.323661   0.075081  -0.058599
    10  C   -0.003614  -0.010746  -0.004004   0.000486  -0.021332  -0.014401
    11  H    0.000953   0.008624   0.001501   0.027218   0.001826  -0.000624
    12  C   -0.007025  -0.011864  -0.043531  -0.095339  -0.425447  -0.432365
    13  C    4.419080   0.431123   0.326505   0.104468  -0.000280  -0.000411
    14  C    0.431123   4.435536   0.054011   0.317566   0.000052  -0.000354
    15  N    0.326505   0.054011   7.703344   0.088729  -0.000330  -0.000305
[...]
    19  N    8.219809   0.159248   0.001679   0.000853   0.011003   0.006422
    20  N    0.159248   7.875100   0.000885   0.002435   0.007341   0.005808
    21  C    0.001679   0.000885   4.468414   0.414150   0.305363   0.057724
    22  C    0.000853   0.002435   0.414150   4.489584   0.158368   0.359621
    23  N    0.011003   0.007341   0.305363   0.158368   8.227292   0.173479
    24  N    0.006422   0.005808   0.057724   0.359621   0.173479   7.935723
    25  H   -0.001114  -0.000108  -0.064189   0.016527   0.225745  -0.019564
    26  H   -0.002976  -0.002465  -0.067763  -0.005295   0.061154  -0.004473
    27  H    0.005260   0.002037   0.017422  -0.082274  -0.053219   0.224867
    28  H    0.000193  -0.000110  -0.000095   0.000087  -0.000015  -0.000258
    29  H   -0.000511  -0.001046  -0.000183  -0.000219  -0.003669  -0.001627
    30  H   -0.000380   0.001147  -0.000162   0.000010  -0.000722  -0.000189
    31  H    0.264182  -0.009452  -0.000042   0.000265  -0.001119  -0.000064
    32  H   -0.052340   0.223240   0.001691   0.000277   0.005909   0.002097
    33  H    0.020805  -0.048388  -0.001311  -0.000628  -0.004134  -0.002235
    34  H   -0.000155   0.000246  -0.000008  -0.000005   0.000046   0.000027
    35  H    0.000113  -0.000052  -0.000000  -0.000004   0.000014   0.000001
    36  H   -0.000108  -0.000084   0.000005  -0.000027   0.000039  -0.000050
    37  H    0.000052   0.000031  -0.000013   0.000008  -0.000036  -0.000019
    38  H   -0.070459   0.014959  -0.000321   0.000890  -0.000287  -0.000305
    39  H   -0.147634   0.061499   0.000031  -0.000119   0.000144  -0.000038
    40  H   -0.012857  -0.100370   0.000048   0.000095   0.000421   0.000149
    41  H    0.051725  -0.120358  -0.000066   0.000027  -0.000892   0.000107
    42  H   -0.001117  -0.000556   0.226721   0.038494  -0.097398   0.002271
    43  H    0.000047  -0.000036   0.278791  -0.090247  -0.129809   0.060667
    44  H    0.000403   0.000143   0.139894   0.214148  -0.017038  -0.109443
    45  H   -0.000748   0.000072  -0.130206   0.334265   0.057038  -0.098059
              25         26         27         28         29         30
     1  C    0.036510  -0.118665   0.009860   0.113479  -0.258813   0.043915
     2  C   -0.004082   0.037702  -0.003194   0.171845  -0.562556  -0.210172
     3  C   -0.009168  -0.024745  -0.008347  -0.029710   0.249483   0.192506
     4  C    0.001074  -0.029515  -0.014062  -0.009516  -0.055992  -0.057720
     5  H    0.000069   0.002984   0.000816  -0.005744   0.037253  -0.007335
     6  C   -0.043472   0.239076   0.139655  -0.006923  -0.014291   0.000852
     7  C    0.095479  -0.278246  -0.014247   0.036708  -0.071510   0.032850
     8  H    0.000890   0.050160  -0.014224   0.000322   0.002594   0.000604
     9  C   -0.155359   0.494819   0.011584  -0.153893   0.414647  -0.014830
    10  C    0.164917  -0.540159  -0.091217  -0.004502   0.026579  -0.002247
    11  H   -0.002349  -0.089770   0.005479  -0.001703  -0.063654   0.003735
    12  C    0.001529   0.000061   0.007905  -0.004967   0.009991   0.029334
    13  C    0.000031   0.000535  -0.000025   0.013780   0.009094  -0.089730
    14  C   -0.000078  -0.000426   0.000067  -0.070900  -0.042614   0.019500
    15  N   -0.000553  -0.001309  -0.000259  -0.020801   0.022933   0.244434
    16  N   -0.000110  -0.003975  -0.000140   0.236784   0.057639  -0.050173
    17  C   -0.000169  -0.001381   0.001900  -0.000162  -0.000495   0.000157
    18  C    0.000317  -0.000619   0.000739   0.000051   0.000107   0.001006
    19  N   -0.001114  -0.002976   0.005260   0.000193  -0.000511  -0.000380
    20  N   -0.000108  -0.002465   0.002037  -0.000110  -0.001046   0.001147
    21  C   -0.064189  -0.067763   0.017422  -0.000095  -0.000183  -0.000162
    22  C    0.016527  -0.005295  -0.082274   0.000087  -0.000219   0.000010
    23  N    0.225745   0.061154  -0.053219  -0.000015  -0.003669  -0.000722
    24  N   -0.019564  -0.004473   0.224867  -0.000258  -0.001627  -0.000189
    25  H    0.879343  -0.064399  -0.002212   0.000016   0.000097   0.000017
    26  H   -0.064399   1.666654   0.022034   0.000086   0.001577   0.000002
    27  H   -0.002212   0.022034   0.756642  -0.000079  -0.000075   0.000122
    28  H    0.000016   0.000086  -0.000079   0.857350  -0.069478  -0.002490
    29  H    0.000097   0.001577  -0.000075  -0.069478   1.592928   0.019804
    30  H    0.000017   0.000002   0.000122  -0.002490   0.019804   0.779659
    31  H   -0.000104   0.000155  -0.000203   0.000000   0.000145   0.000046
    32  H   -0.000336  -0.000352  -0.000560  -0.000043  -0.000116  -0.000677
    33  H    0.000087   0.000184  -0.000688   0.001554  -0.003809   0.000369
    34  H   -0.000004   0.000082   0.000007   0.031856   0.004015   0.004316
    35  H    0.000001  -0.000091   0.000017  -0.057428  -0.008490  -0.004001
    36  H   -0.000006   0.000052  -0.000007   0.008503   0.015533   0.025770
    37  H    0.000006   0.000021  -0.000007  -0.000715   0.005021  -0.014762
    38  H    0.000015  -0.000485  -0.000089  -0.000020   0.000006   0.000011
    39  H   -0.000081   0.000019   0.000180  -0.000010  -0.000028  -0.000006
    40  H    0.000077  -0.000131  -0.000015  -0.000010   0.000045   0.000047
    41  H   -0.000113   0.000123   0.000124   0.000020  -0.000010   0.000098
    42  H    0.038360   0.003893   0.005485  -0.000008   0.000076  -0.000009
    43  H   -0.058814  -0.014610  -0.001717  -0.000001  -0.000056   0.000001
    44  H    0.008307   0.018224   0.020642   0.000001  -0.000041  -0.000006
    45  H   -0.000749   0.004468  -0.007737   0.000005   0.000008  -0.000002
              31         32         33         34         35         36
     1  C    0.021952   0.021199  -0.010085  -0.074542  -0.003794  -0.038078
     2  C   -0.000152  -0.001341   0.007586   0.035548   0.183759  -0.010499
     3  C   -0.098718   0.029962   0.421869   0.040535  -0.065845   0.026931
     4  C    0.117934  -0.023289  -0.329058  -0.002656   0.003373  -0.008144
     5  H   -0.001161   0.009780  -0.109542  -0.000362   0.008742   0.002519
     6  C   -0.069173   0.164550   0.270019   0.001003   0.001767   0.003786
     7  C    0.010605  -0.016567  -0.067526  -0.000045  -0.000287  -0.005829
     8  H    0.000890  -0.017381   0.051708  -0.000125  -0.000036   0.000021
     9  C   -0.013993  -0.016011  -0.051462  -0.003915   0.011320   0.006863
    10  C    0.000258   0.007956   0.004612  -0.000444  -0.000024  -0.000748
    11  H   -0.000244   0.000574   0.002046  -0.001630   0.001222   0.000664
    12  C    0.080807  -0.120105  -0.357947  -0.001162  -0.001340  -0.000061
    13  C   -0.000110   0.000480   0.002190   0.026180  -0.087236   0.224803
    14  C   -0.000051  -0.000191   0.000643   0.237629   0.279369   0.132592
    15  N   -0.000160   0.000107  -0.001144   0.005342   0.046778  -0.106846
    16  N   -0.000084  -0.000004   0.002265  -0.086259  -0.162845  -0.020207
    17  C   -0.071325   0.005919  -0.068890   0.000015   0.000041  -0.000036
    18  C    0.017257  -0.085202   0.004219  -0.000012  -0.000038   0.000002
    19  N    0.264182  -0.052340   0.020805  -0.000155   0.000113  -0.000108
    20  N   -0.009452   0.223240  -0.048388   0.000246  -0.000052  -0.000084
    21  C   -0.000042   0.001691  -0.001311  -0.000008  -0.000000   0.000005
    22  C    0.000265   0.000277  -0.000628  -0.000005  -0.000004  -0.000027
    23  N   -0.001119   0.005909  -0.004134   0.000046   0.000014   0.000039
    24  N   -0.000064   0.002097  -0.002235   0.000027   0.000001  -0.000050
    25  H   -0.000104  -0.000336   0.000087  -0.000004   0.000001  -0.000006
    26  H    0.000155  -0.000352   0.000184   0.000082  -0.000091   0.000052
    27  H   -0.000203  -0.000560  -0.000688   0.000007   0.000017  -0.000007
    28  H    0.000000  -0.000043   0.001554   0.031856  -0.057428   0.008503
    29  H    0.000145  -0.000116  -0.003809   0.004015  -0.008490   0.015533
    30  H    0.000046  -0.000677   0.000369   0.004316  -0.004001   0.025770
    31  H    0.875529  -0.002136  -0.067297   0.000018   0.000001  -0.000005
    32  H   -0.002136   0.767390   0.018863   0.000032   0.000002   0.000029
    33  H   -0.067297   0.018863   1.643306  -0.000257  -0.000614  -0.000067
    34  H    0.000018   0.000032  -0.000257   1.336200  -0.274389   0.078125
    35  H    0.000001   0.000002  -0.000614  -0.274389   1.406281  -0.118512
    36  H   -0.000005   0.000029  -0.000067   0.078125  -0.118512   1.346528
    37  H   -0.000012  -0.000021   0.000254  -0.103566   0.038481  -0.307817
    38  H    0.036622   0.004650   0.004764   0.000003   0.000002  -0.000002
    39  H   -0.057486  -0.000949  -0.016685  -0.000014   0.000004  -0.000001
    40  H    0.008545   0.020638   0.018767   0.000064  -0.000010   0.000002
    41  H   -0.000817  -0.006244   0.007897   0.000004  -0.000003   0.000000
    42  H   -0.000009  -0.000208  -0.000245  -0.000001  -0.000000  -0.000000
    43  H   -0.000077   0.000215  -0.000009  -0.000001   0.000001   0.000001
    44  H    0.000070  -0.000040  -0.000105   0.000001   0.000000  -0.000004
    45  H   -0.000140   0.000097   0.000048  -0.000001  -0.000001   0.000000
              37         38         39         40         41         42
     1  C    0.020146  -0.010117  -0.000948  -0.001422   0.004720  -0.000006
     2  C    0.048223   0.000009  -0.000585  -0.000523  -0.000395  -0.000446
     3  C   -0.003880   0.010182   0.012874  -0.008588  -0.010724   0.000709
     4  C    0.000524  -0.124907   0.003677  -0.021479  -0.010185   0.002582
     5  H   -0.002905  -0.001720   0.003484  -0.000256  -0.003134  -0.000039
     6  C   -0.002327   0.037926  -0.015618   0.007378  -0.008620   0.032398
     7  C    0.006014   0.009243  -0.008674   0.002557   0.005934  -0.102590
     8  H    0.000037  -0.011730   0.009166   0.002268  -0.002407  -0.008182
     9  C   -0.012230   0.001158   0.005629  -0.000424  -0.005308  -0.012414
    10  C   -0.000277  -0.002132  -0.000016  -0.001592   0.000218   0.058610
    11  H   -0.001502   0.000139   0.000055   0.000026  -0.000130  -0.001440
    12  C   -0.000161   0.026595   0.128885  -0.002441   0.055031   0.001745
    13  C    0.318267  -0.000010   0.000003  -0.000085  -0.000038  -0.000013
    14  C   -0.125527  -0.000026   0.000017  -0.000056  -0.000001  -0.000005
    15  N   -0.099426  -0.000083   0.000044  -0.000126   0.000011  -0.000024
    16  N    0.054032  -0.000121   0.000118  -0.000428   0.000054   0.000055
    17  C   -0.000016   0.232773   0.276054   0.137747  -0.136574  -0.000675
    18  C   -0.000075   0.035183  -0.099610   0.207835   0.354192   0.000540
    19  N    0.000052  -0.070459  -0.147634  -0.012857   0.051725  -0.001117
    20  N    0.000031   0.014959   0.061499  -0.100370  -0.120358  -0.000556
    21  C   -0.000013  -0.000321   0.000031   0.000048  -0.000066   0.226721
    22  C    0.000008   0.000890  -0.000119   0.000095   0.000027   0.038494
    23  N   -0.000036  -0.000287   0.000144   0.000421  -0.000892  -0.097398
    24  N   -0.000019  -0.000305  -0.000038   0.000149   0.000107   0.002271
    25  H    0.000006   0.000015  -0.000081   0.000077  -0.000113   0.038360
    26  H    0.000021  -0.000485   0.000019  -0.000131   0.000123   0.003893
    27  H   -0.000007  -0.000089   0.000180  -0.000015   0.000124   0.005485
    28  H   -0.000715  -0.000020  -0.000010  -0.000010   0.000020  -0.000008
    29  H    0.005021   0.000006  -0.000028   0.000045  -0.000010   0.000076
    30  H   -0.014762   0.000011  -0.000006   0.000047   0.000098  -0.000009
    31  H   -0.000012   0.036622  -0.057486   0.008545  -0.000817  -0.000009
    32  H   -0.000021   0.004650  -0.000949   0.020638  -0.006244  -0.000208
    33  H    0.000254   0.004764  -0.016685   0.018767   0.007897  -0.000245
    34  H   -0.103566   0.000003  -0.000014   0.000064   0.000004  -0.000001
    35  H    0.038481   0.000002   0.000004  -0.000010  -0.000003  -0.000000
    36  H   -0.307817  -0.000002  -0.000001   0.000002   0.000000  -0.000000
    37  H    1.390901  -0.000002   0.000001  -0.000019  -0.000000  -0.000001
    38  H   -0.000002   1.390643  -0.291665   0.080227  -0.101405  -0.000338
    39  H    0.000001  -0.291665   1.414777  -0.118557   0.035681   0.000053
    40  H   -0.000019   0.080227  -0.118557   1.352154  -0.309122  -0.000043
    41  H   -0.000000  -0.101405   0.035681  -0.309122   1.414069   0.000059
    42  H   -0.000001  -0.000338   0.000053  -0.000043   0.000059   1.392766
    43  H   -0.000001   0.000067   0.000020  -0.000005  -0.000031  -0.287338
    44  H    0.000000  -0.000016  -0.000008   0.000007  -0.000001   0.080449
    45  H    0.000000   0.000030  -0.000031   0.000005   0.000019  -0.100787
              43         44         45
     1  C    0.000175  -0.004112   0.003286
     2  C    0.000054  -0.001388  -0.000610
     3  C    0.003699   0.001021  -0.003638
     4  C   -0.007835  -0.000434   0.007420
     5  H    0.000075  -0.000004  -0.000024
     6  C   -0.029671   0.007889   0.000447
     7  C    0.014429  -0.020614  -0.023225
     8  H    0.007985   0.002689  -0.002283
     9  C    0.017761  -0.003596  -0.000292
    10  C    0.111602  -0.001096   0.039226
    11  H    0.001768   0.000073  -0.000917
    12  C   -0.000277  -0.001277  -0.000557
    13  C    0.000014  -0.000043   0.000011
    14  C   -0.000001   0.000010  -0.000017
    15  N    0.000028   0.000015   0.000027
    16  N    0.000012   0.000088  -0.000039
    17  C    0.000016   0.000063  -0.000053
    18  C   -0.000068   0.000061   0.000090
    19  N    0.000047   0.000403  -0.000748
    20  N   -0.000036   0.000143   0.000072
    21  C    0.278791   0.139894  -0.130206
    22  C   -0.090247   0.214148   0.334265
    23  N   -0.129809  -0.017038   0.057038
    24  N    0.060667  -0.109443  -0.098059
    25  H   -0.058814   0.008307  -0.000749
    26  H   -0.014610   0.018224   0.004468
    27  H   -0.001717   0.020642  -0.007737
    28  H   -0.000001   0.000001   0.000005
    29  H   -0.000056  -0.000041   0.000008
    30  H    0.000001  -0.000006  -0.000002
    31  H   -0.000077   0.000070  -0.000140
    32  H    0.000215  -0.000040   0.000097
    33  H   -0.000009  -0.000105   0.000048
    34  H   -0.000001   0.000001  -0.000001
    35  H    0.000001   0.000000  -0.000001
    36  H    0.000001  -0.000004   0.000000
    37  H   -0.000001   0.000000   0.000000
    38  H    0.000067  -0.000016   0.000030
    39  H    0.000020  -0.000008  -0.000031
    40  H   -0.000005   0.000007   0.000005
    41  H   -0.000031  -0.000001   0.000019
    42  H   -0.287338   0.080449  -0.100787
    43  H    1.396863  -0.119518   0.037293
    44  H   -0.119518   1.351673  -0.306404
    45  H    0.037293  -0.306404   1.403957
 Mulliken charges:
               1
     1  C    0.700601
     2  C    0.760404
     3  C    0.251447
     4  C    0.850424
     5  H   -0.860630
     6  C   -0.003389
     7  C    0.779685
     8  H   -1.092143
     9  C    0.772581
    10  C    0.746197
    11  H   -0.764478
    12  C    0.868470
    13  C    0.687586
    14  C    0.667606
    15  N   -0.605426
    16  N   -0.470853
    17  C    0.708234
    18  C    0.659528
    19  N   -0.501048
    20  N   -0.658103
    21  C    0.693907
    22  C    0.658933
    23  N   -0.469424
    24  N   -0.651979
    25  H   -0.042282
    26  H   -0.352217
    27  H    0.061758
    28  H   -0.033059
    29  H   -0.310291
    30  H    0.055301
    31  H   -0.041147
    32  H    0.058453
    33  H   -0.341928
    34  H   -0.251740
    35  H   -0.196246
    36  H   -0.255630
    37  H   -0.206705
    38  H   -0.269858
    39  H   -0.193653
    40  H   -0.260538
    41  H   -0.213533
    42  H   -0.271375
    43  H   -0.191462
    44  H   -0.260684
    45  H   -0.211294
 Sum of Mulliken charges =   0.00000
 Mulliken charges with hydrogens summed into heavy atoms:
               1
     1  C    0.700601
     2  C    0.450112
     3  C   -0.609183
     4  C    0.850424
     6  C   -1.095533
     7  C    0.779685
     9  C    0.008103
    10  C    0.393980
    12  C    0.526542
    13  C    0.225252
    14  C    0.219620
    15  N   -0.550125
    16  N   -0.503912
    17  C    0.244723
    18  C    0.185457
    19  N   -0.542195
    20  N   -0.599649
    21  C    0.231070
    22  C    0.186955
    23  N   -0.511706
    24  N   -0.590221
 Electronic spatial extent (au):  <R**2>=           7967.7394
 Charge=              0.0000 electrons
 Dipole moment (field-independent basis, Debye):
    X=              0.5926    Y=              0.6359    Z=             -0.8840  Tot=              1.2398
 Quadrupole moment (field-independent basis, Debye-Ang):
   XX=           -106.0109   YY=           -118.1691   ZZ=           -127.7630
   XY=              0.9727   XZ=              7.3424   YZ=             -6.5076
 Traceless Quadrupole moment (field-independent basis, Debye-Ang):
   XX=             11.3034   YY=             -0.8547   ZZ=            -10.4487
   XY=              0.9727   XZ=              7.3424   YZ=             -6.5076
 Octapole moment (field-independent basis, Debye-Ang**2):
  XXX=            -38.4009  YYY=             31.0858  ZZZ=             -6.9444  XYY=             37.2415
  XXY=            -22.6314  XXZ=             -8.9318  XZZ=              9.5639  YZZ=             10.2667
  YYZ=             -2.2594  XYZ=            -23.9785
 Hexadecapole moment (field-independent basis, Debye-Ang**3):
 XXXX=          -5744.2864 YYYY=          -3672.8086 ZZZZ=           -563.3252 XXXY=            -51.4780
 XXXZ=             17.0301 YYYX=             59.1056 YYYZ=           -125.5031 ZZZX=             54.6232
 ZZZY=            -41.9182 XXYY=          -1588.6008 XXZZ=          -1096.1239 YYZZ=           -758.5346
 XXYZ=             65.8295 YYXZ=             75.7810 ZZXY=              3.6504
 N-N= 1.709574171148D+03 E-N=-5.542640533307D+03  KE= 9.083141310702D+02
 Leave Link  601 at Tue Nov  2 18:27:21 2021, MaxMem=  7864320000 cpu:              17.9 elap:               0.7
 (Enter /apps/gaussian/g16-c01-avx/g16/l9999.exe)
 Unable to Open any file for archive entry.
 1\1\GINC-CX3-12-27\SP\RMP2-FC\Aug-CC-pVDZ\C15H24N6\ATARZIA\02-Nov-2021
 \0\\#P MP2/aug-cc-pVDZ SP SCF=(YQC,MaxCycle=900) int=(Grid=Superfinegr
 id) SCRF=(PCM,Solvent=Dichloromethane)\\_1_alde1_3_ami4_1_opt_dcm_mp2\
 \0,1\C,0,-1.1953,1.024,0.2467\C,0,-1.2729,0.4659,1.6425\C,0,-2.349,1.1
 283,-0.5174\C,0,-2.3014,1.674,-1.7902\H,0,-3.2813,0.7675,-0.1099\C,0,-
 1.0899,2.1215,-2.2956\C,0,0.0687,2.0246,-1.5401\H,0,-1.0481,2.5479,-3.
 286\C,0,0.0107,1.4743,-0.2685\C,0,1.3748,2.4877,-2.1263\H,0,0.91,1.395
 2,0.3249\C,0,-3.5494,1.8217,-2.618\C,0,-2.1945,0.7031,3.7224\C,0,-2.81
 33,-0.5723,3.1054\N,0,-1.696,1.4769,2.5969\N,0,-2.2816,-0.5987,1.746\C
 ,0,-4.2021,2.3405,-4.8317\C,0,-4.875,3.2679,-3.7938\N,0,-3.2879,1.5267
 ,-4.0358\N,0,-4.0426,3.1882,-2.6044\C,0,2.2108,3.7374,-3.9503\C,0,2.82
 43,2.3194,-3.8873\N,0,1.2044,3.7314,-2.8929\N,0,1.9042,1.5313,-3.0831\
 H,0,1.2412,4.5504,-2.301\H,0,2.1282,2.5971,-1.3236\H,0,1.1356,1.2007,-
 3.6606\H,0,-1.9099,-1.5004,1.4793\H,0,-0.272,0.1176,1.9607\H,0,-2.4543
 ,2.0113,2.1809\H,0,-3.3564,0.5379,-4.2355\H,0,-3.2473,3.8148,-2.6963\H
 ,0,-4.3508,1.1812,-2.2046\H,0,-3.9055,-0.4965,3.0539\H,0,-2.5574,-1.46
 33,3.6873\H,0,-1.3386,0.4393,4.3518\H,0,-2.9014,1.2799,4.3155\H,0,-3.6
 173,2.9182,-5.5568\H,0,-4.9423,1.7492,-5.3799\H,0,-5.867,2.8848,-3.534
 3\H,0,-4.9752,4.2957,-4.1373\H,0,1.7111,3.9107,-4.9101\H,0,2.9755,4.50
 94,-3.8163\H,0,3.7854,2.3482,-3.3642\H,0,2.973,1.872,-4.8682\\Version=
 ES64L-G16RevC.01\State=1-A\HF=-908.7693907\MP2=-911.9362827\RMSD=3.150
 e-09\PG=C01 [X(C15H24N6)]\\@
 The archive entry for this job was punched.


 TRUST EVERYONE, BUT CUT THE CARDS.
 Job cpu time:       0 days 15 hours 53 minutes 34.2 seconds.
 Elapsed time:       0 days  0 hours 30 minutes 13.4 seconds.
 File lengths (MBytes):  RWF= 194576 Int=      0 D2E=      0 Chk=     48 Scr=     16
 Normal termination of Gaussian 16 at Tue Nov  2 18:27:21 2021.
