 Entering Gaussian System, Link 0=g16
 Initial command:
 /apps/gaussian/g16-c01-avx/g16/l1.exe "/rds/general/ephemeral/user/atarzia/ephemeral/xtb_spe_DFT/Gau-2942732.inp" -scrdir="/rds/general/ephemeral/user/atarzia/ephemeral/xtb_spe_DFT/"
 Entering Link 1 = /apps/gaussian/g16-c01-avx/g16/l1.exe PID=   2942733.
  
 Copyright (c) 1988-2019, Gaussian, Inc.  All Rights Reserved.
  
 This is part of the Gaussian(R) 16 program.  It is based on
 the Gaussian(R) 09 system (copyright 2009, Gaussian, Inc.),
 the Gaussian(R) 03 system (copyright 2003, Gaussian, Inc.),
 the Gaussian(R) 98 system (copyright 1998, Gaussian, Inc.),
 the Gaussian(R) 94 system (copyright 1995, Gaussian, Inc.),
 the Gaussian 92(TM) system (copyright 1992, Gaussian, Inc.),
 the Gaussian 90(TM) system (copyright 1990, Gaussian, Inc.),
 the Gaussian 88(TM) system (copyright 1988, Gaussian, Inc.),
 the Gaussian 86(TM) system (copyright 1986, Carnegie Mellon
 University), and the Gaussian 82(TM) system (copyright 1983,
 Carnegie Mellon University). Gaussian is a federally registered
 trademark of Gaussian, Inc.
  
 This software contains proprietary and confidential information,
 including trade secrets, belonging to Gaussian, Inc.
  
 This software is provided under written license and may be
 used, copied, transmitted, or stored only in accord with that
 written license.
  
 The following legend is applicable only to US Government
 contracts under FAR:
  
                    RESTRICTED RIGHTS LEGEND
  
 Use, reproduction and disclosure by the US Government is
 subject to restrictions as set forth in subparagraphs (a)
 and (c) of the Commercial Computer Software - Restricted
 Rights clause in FAR 52.227-19.
  
 Gaussian, Inc.
 340 Quinnipiac St., Bldg. 40, Wallingford CT 06492
  
  
 ---------------------------------------------------------------
 Warning -- This program may not be used in any manner that
 competes with the business of Gaussian, Inc. or will provide
 assistance to any competitor of Gaussian, Inc.  The licensee
 of this program is prohibited from giving any competitor of
 Gaussian, Inc. access to this program.  By using this program,
 the user acknowledges that Gaussian, Inc. is engaged in the
 business of creating and licensing software in the field of
 computational chemistry and represents and warrants to the
 licensee that it is not a competitor of Gaussian, Inc. and that
 it will not use this program in any manner prohibited above.
 ---------------------------------------------------------------
  

 Cite this work as:
 Gaussian 16, Revision C.01,
 M. J. Frisch, G. W. Trucks, H. B. Schlegel, G. E. Scuseria, 
 M. A. Robb, J. R. Cheeseman, G. Scalmani, V. Barone, 
 G. A. Petersson, H. Nakatsuji, X. Li, M. Caricato, A. V. Marenich, 
 J. Bloino, B. G. Janesko, R. Gomperts, B. Mennucci, H. P. Hratchian, 
 J. V. Ortiz, A. F. Izmaylov, J. L. Sonnenberg, D. Williams-Young, 
 F. Ding, F. Lipparini, F. Egidi, J. Goings, B. Peng, A. Petrone, 
 T. Henderson, D. Ranasinghe, V. G. Zakrzewski, J. Gao, N. Rega, 
 G. Zheng, W. Liang, M. Hada, M. Ehara, K. Toyota, R. Fukuda, 
 J. Hasegawa, M. Ishida, T. Nakajima, Y. Honda, O. Kitao, H. Nakai, 
 T. Vreven, K. Throssell, J. A. Montgomery, Jr., J. E. Peralta, 
 F. Ogliaro, M. J. Bearpark, J. J. Heyd, E. N. Brothers, K. N. Kudin, 
 V. N. Staroverov, T. A. Keith, R. Kobayashi, J. Normand, 
 K. Raghavachari, A. P. Rendell, J. C. Burant, S. S. Iyengar, 
 J. Tomasi, M. Cossi, J. M. Millam, M. Klene, C. Adamo, R. Cammi, 
 J. W. Ochterski, R. L. Martin, K. Morokuma, O. Farkas, 
 J. B. Foresman, and D. J. Fox, Gaussian, Inc., Wallingford CT, 2019.
 
 ******************************************
 Gaussian 16:  ES64L-G16RevC.01  3-Jul-2019
                25-Oct-2021 
 ******************************************
 %chk=_1_alde1_3_ami2_1_opt_cfm_mp2.chk
 %mem=60000mb
 %nprocshared=32
 Will use up to   32 processors via shared memory.
 ----------------------------------------------------------------------
 #P MP2/aug-cc-pVDZ SP SCF=(YQC,MaxCycle=900) int=(Grid=Superfinegrid) 
 SCRF=(PCM,Solvent=Chloroform)
 ----------------------------------------------------------------------
 1/38=1,172=1/1;
 2/12=2,17=6,18=5,40=1/2;
 3/5=16,7=10,11=9,25=1,30=1,70=2201,72=7,75=-7/1,2,3;
 4//1;
 5/5=2,7=900,8=4,13=1,38=1,53=7/8,2,8;
 8/10=1/1;
 9/16=-3/6;
 6/7=2,8=2,9=2,10=2/1;
 99/5=1,9=1/99;
 Leave Link    1 at Mon Oct 25 19:21:33 2021, MaxMem=  7864320000 cpu:               7.9 elap:               0.3
 (Enter /apps/gaussian/g16-c01-avx/g16/l101.exe)
 -----------------------------
 _1_alde1_3_ami2_1_opt_cfm_mp2
 -----------------------------
 Symbolic Z-matrix:
 Charge =  0 Multiplicity = 1
 C                    -1.7959    1.1135   -0.9944 
 C                    -2.1743    0.3463    0.2446 
 C                    -2.7535    1.5642   -1.8882 
 C                    -2.3758    2.2388   -3.041 
 H                    -3.8036    1.4064   -1.6938 
 C                    -1.031     2.4581   -3.2997 
 C                    -0.0653    2.0086   -2.4125 
 H                    -0.736     2.9821   -4.1973 
 C                    -0.4548    1.3381   -1.2637 
 C                     1.4       2.2633   -2.6464 
 H                     0.2944    0.9877   -0.5709 
 C                    -3.4277    2.6824   -4.0225 
 C                    -1.8146   -1.593     1.4086 
 C                    -1.0881   -0.4754    2.2041 
 N                    -1.9782   -1.0827    0.0581 
 N                    -1.3111    0.711     1.3741 
 C                    -5.793     2.7805   -4.2541 
 C                    -5.1113    2.0011   -5.4124 
 N                    -4.6737    3.0574   -3.351 
 N                    -3.8028    1.6017   -4.921 
 C                     3.4808    1.5797   -1.7 
 C                     3.3091    3.1225   -1.7192 
 N                     2.2051    1.1049   -2.2417 
 N                     1.8811    3.3665   -1.8303 
 H                     2.3164    0.4328   -2.9885 
 H                     1.5708    2.5375   -3.7042 
 H                     1.4467    3.298    -0.9137 
 H                    -3.2447    0.5045    0.4734 
 H                    -1.1201   -1.2206   -0.4694 
 H                    -4.6621    4.0094   -3.0106 
 H                    -3.884     0.7482   -4.3747 
 H                    -3.029     3.5027   -4.6501 
 H                    -4.9574    2.6663   -6.2684 
 H                    -5.6879    1.1382   -5.7401 
 H                     3.79      3.5389   -2.6106 
 H                     3.724     3.6085   -0.8382 
 C                     0.4204   -0.7422    2.2715 
 H                     0.8193   -0.8898    1.2708 
 H                     0.6262   -1.627     2.8693 
 H                     0.9274    0.1098    2.718 
 H                    -1.6712    1.4983    1.8961 
 C                    -1.6597   -0.3231    3.6131 
 C                    -6.4716    4.0544   -4.7594 
 H                    -7.2353    3.8091   -5.494 
 H                    -5.7423    4.715    -5.226 
 H                    -6.9436    4.5838   -3.9337 
 C                    -6.807     1.8997   -3.5161 
 H                    -6.3323    0.9773   -3.1906 
 H                    -7.6459    1.6579   -4.1643 
 H                    -7.1796    2.4198   -2.637 
 C                     4.6782    1.135    -2.5389 
 H                     4.5555    1.4479   -3.5748 
 H                     4.7772    0.0514   -2.5112 
 H                     5.5939    1.5758   -2.1515 
 C                     3.6195    1.0608   -0.2637 
 H                     3.6096   -0.0264   -0.2604 
 H                     2.7875    1.4109    0.3424 
 H                     4.5508    1.4056    0.1793 
 H                    -1.5464   -1.2519    4.1677 
 H                    -2.7188   -0.0733    3.5704 
 H                    -1.1363    0.4661    4.1497 
 H                    -1.2737   -2.5374    1.4097 
 H                    -2.813    -1.7582    1.8272 
 
 ITRead=  0  0  0  0  0  0  0  0  0  0  0  0  0  0  0  0  0  0  0  0
 ITRead=  0  0  0  0  0  0  0  0  0  0  0  0  0  0  0  0  0  0  0  0
 ITRead=  0  0  0  0  0  0  0  0  0  0  0  0  0  0  0  0  0  0  0  0
 ITRead=  0  0  0
 MicOpt= -1 -1 -1 -1 -1 -1 -1 -1 -1 -1 -1 -1 -1 -1 -1 -1 -1 -1 -1 -1
 MicOpt= -1 -1 -1 -1 -1 -1 -1 -1 -1 -1 -1 -1 -1 -1 -1 -1 -1 -1 -1 -1
 MicOpt= -1 -1 -1 -1 -1 -1 -1 -1 -1 -1 -1 -1 -1 -1 -1 -1 -1 -1 -1 -1
 MicOpt= -1 -1 -1
 NAtoms=     63 NQM=       63 NQMF=       0 NMMI=      0 NMMIF=      0
                NMic=       0 NMicF=      0.
                    Isotopes and Nuclear Properties:
 (Nuclear quadrupole moments (NQMom) in fm**2, nuclear magnetic moments (NMagM)
  in nuclear magnetons)

  Atom         1           2           3           4           5           6           7           8           9          10
 IAtWgt=          12          12          12          12           1          12          12           1          12          12
 AtmWgt=  12.0000000  12.0000000  12.0000000  12.0000000   1.0078250  12.0000000  12.0000000   1.0078250  12.0000000  12.0000000
 NucSpn=           0           0           0           0           1           0           0           1           0           0
 AtZEff=  -0.0000000  -0.0000000  -0.0000000  -0.0000000  -0.0000000  -0.0000000  -0.0000000  -0.0000000  -0.0000000  -0.0000000
 NQMom=    0.0000000   0.0000000   0.0000000   0.0000000   0.0000000   0.0000000   0.0000000   0.0000000   0.0000000   0.0000000
 NMagM=    0.0000000   0.0000000   0.0000000   0.0000000   2.7928460   0.0000000   0.0000000   2.7928460   0.0000000   0.0000000
 AtZNuc=   6.0000000   6.0000000   6.0000000   6.0000000   1.0000000   6.0000000   6.0000000   1.0000000   6.0000000   6.0000000

  Atom        11          12          13          14          15          16          17          18          19          20
 IAtWgt=           1          12          12          12          14          14          12          12          14          14
 AtmWgt=   1.0078250  12.0000000  12.0000000  12.0000000  14.0030740  14.0030740  12.0000000  12.0000000  14.0030740  14.0030740
 NucSpn=           1           0           0           0           2           2           0           0           2           2
 AtZEff=  -0.0000000  -0.0000000  -0.0000000  -0.0000000  -0.0000000  -0.0000000  -0.0000000  -0.0000000  -0.0000000  -0.0000000
 NQMom=    0.0000000   0.0000000   0.0000000   0.0000000   2.0440000   2.0440000   0.0000000   0.0000000   2.0440000   2.0440000
 NMagM=    2.7928460   0.0000000   0.0000000   0.0000000   0.4037610   0.4037610   0.0000000   0.0000000   0.4037610   0.4037610
 AtZNuc=   1.0000000   6.0000000   6.0000000   6.0000000   7.0000000   7.0000000   6.0000000   6.0000000   7.0000000   7.0000000

  Atom        21          22          23          24          25          26          27          28          29          30
 IAtWgt=          12          12          14          14           1           1           1           1           1           1
 AtmWgt=  12.0000000  12.0000000  14.0030740  14.0030740   1.0078250   1.0078250   1.0078250   1.0078250   1.0078250   1.0078250
 NucSpn=           0           0           2           2           1           1           1           1           1           1
 AtZEff=  -0.0000000  -0.0000000  -0.0000000  -0.0000000  -0.0000000  -0.0000000  -0.0000000  -0.0000000  -0.0000000  -0.0000000
 NQMom=    0.0000000   0.0000000   2.0440000   2.0440000   0.0000000   0.0000000   0.0000000   0.0000000   0.0000000   0.0000000
 NMagM=    0.0000000   0.0000000   0.4037610   0.4037610   2.7928460   2.7928460   2.7928460   2.7928460   2.7928460   2.7928460
 AtZNuc=   6.0000000   6.0000000   7.0000000   7.0000000   1.0000000   1.0000000   1.0000000   1.0000000   1.0000000   1.0000000

  Atom        31          32          33          34          35          36          37          38          39          40
 IAtWgt=           1           1           1           1           1           1          12           1           1           1
 AtmWgt=   1.0078250   1.0078250   1.0078250   1.0078250   1.0078250   1.0078250  12.0000000   1.0078250   1.0078250   1.0078250
 NucSpn=           1           1           1           1           1           1           0           1           1           1
 AtZEff=  -0.0000000  -0.0000000  -0.0000000  -0.0000000  -0.0000000  -0.0000000  -0.0000000  -0.0000000  -0.0000000  -0.0000000
 NQMom=    0.0000000   0.0000000   0.0000000   0.0000000   0.0000000   0.0000000   0.0000000   0.0000000   0.0000000   0.0000000
 NMagM=    2.7928460   2.7928460   2.7928460   2.7928460   2.7928460   2.7928460   0.0000000   2.7928460   2.7928460   2.7928460
 AtZNuc=   1.0000000   1.0000000   1.0000000   1.0000000   1.0000000   1.0000000   6.0000000   1.0000000   1.0000000   1.0000000

  Atom        41          42          43          44          45          46          47          48          49          50
 IAtWgt=           1          12          12           1           1           1          12           1           1           1
 AtmWgt=   1.0078250  12.0000000  12.0000000   1.0078250   1.0078250   1.0078250  12.0000000   1.0078250   1.0078250   1.0078250
 NucSpn=           1           0           0           1           1           1           0           1           1           1
 AtZEff=  -0.0000000  -0.0000000  -0.0000000  -0.0000000  -0.0000000  -0.0000000  -0.0000000  -0.0000000  -0.0000000  -0.0000000
 NQMom=    0.0000000   0.0000000   0.0000000   0.0000000   0.0000000   0.0000000   0.0000000   0.0000000   0.0000000   0.0000000
 NMagM=    2.7928460   0.0000000   0.0000000   2.7928460   2.7928460   2.7928460   0.0000000   2.7928460   2.7928460   2.7928460
 AtZNuc=   1.0000000   6.0000000   6.0000000   1.0000000   1.0000000   1.0000000   6.0000000   1.0000000   1.0000000   1.0000000

  Atom        51          52          53          54          55          56          57          58          59          60
 IAtWgt=          12           1           1           1          12           1           1           1           1           1
 AtmWgt=  12.0000000   1.0078250   1.0078250   1.0078250  12.0000000   1.0078250   1.0078250   1.0078250   1.0078250   1.0078250
 NucSpn=           0           1           1           1           0           1           1           1           1           1
 AtZEff=  -0.0000000  -0.0000000  -0.0000000  -0.0000000  -0.0000000  -0.0000000  -0.0000000  -0.0000000  -0.0000000  -0.0000000
 NQMom=    0.0000000   0.0000000   0.0000000   0.0000000   0.0000000   0.0000000   0.0000000   0.0000000   0.0000000   0.0000000
 NMagM=    0.0000000   2.7928460   2.7928460   2.7928460   0.0000000   2.7928460   2.7928460   2.7928460   2.7928460   2.7928460
 AtZNuc=   6.0000000   1.0000000   1.0000000   1.0000000   6.0000000   1.0000000   1.0000000   1.0000000   1.0000000   1.0000000

  Atom        61          62          63
 IAtWgt=           1           1           1
 AtmWgt=   1.0078250   1.0078250   1.0078250
 NucSpn=           1           1           1
 AtZEff=  -0.0000000  -0.0000000  -0.0000000
 NQMom=    0.0000000   0.0000000   0.0000000
 NMagM=    2.7928460   2.7928460   2.7928460
 AtZNuc=   1.0000000   1.0000000   1.0000000
 Leave Link  101 at Mon Oct 25 19:21:34 2021, MaxMem=  7864320000 cpu:               3.3 elap:               0.1
 (Enter /apps/gaussian/g16-c01-avx/g16/l202.exe)
 Stoichiometry    C21H36N6
 Framework group  C1[X(C21H36N6)]
 Deg. of freedom   183
 Full point group                 C1      NOp   1
 Largest Abelian subgroup         C1      NOp   1
 Largest concise Abelian subgroup C1      NOp   1
                         Standard orientation:                         
 ---------------------------------------------------------------------
 Center     Atomic      Atomic             Coordinates (Angstroms)
 Number     Number       Type             X           Y           Z
 ---------------------------------------------------------------------
      1          6           0       -0.127528    0.891032   -0.056696
      2          6           0        0.282226    2.339058   -0.009519
      3          6           0       -1.460848    0.515509   -0.072365
      4          6           0       -1.812099   -0.827342   -0.080540
      5          1           0       -2.241211    1.261254   -0.089712
      6          6           0       -0.820785   -1.797217   -0.068626
      7          6           0        0.516172   -1.431208   -0.050336
      8          1           0       -1.093237   -2.842698   -0.073838
      9          6           0        0.854570   -0.087157   -0.044485
     10          6           0        1.615570   -2.459523   -0.074356
     11          1           0        1.894240    0.200866   -0.031017
     12          6           0       -3.266134   -1.216750   -0.052972
     13          6           0        1.529412    3.878159    1.139767
     14          6           0        2.300026    3.601749   -0.179097
     15          7           0        0.653327    2.736393    1.339438
     16          7           0        1.479335    2.574537   -0.825221
     17          6           0       -5.429055   -0.233142   -0.163418
     18          6           0       -5.226628   -1.088457    1.117714
     19          7           0       -4.099780   -0.255742   -0.777921
     20          7           0       -3.790143   -1.210874    1.303971
     21          6           0        3.986908   -2.510757    0.184182
     22          6           0        3.517479   -3.123004   -1.162990
     23          7           0        2.732315   -2.053962    0.787190
     24          7           0        2.187645   -2.589988   -1.404858
     25          1           0        2.614868   -2.363828    1.742179
     26          1           0        1.211959   -3.449555    0.208898
     27          1           0        2.256738   -1.662097   -1.814485
     28          1           0       -0.563561    2.980198   -0.320515
     29          1           0        1.172611    1.973048    1.765181
     30          1           0       -4.123509   -0.432766   -1.773115
     31          1           0       -3.431359   -0.387026    1.779415
     32          1           0       -3.383111   -2.246794   -0.441637
     33          1           0       -5.629615   -2.094405    0.960927
     34          1           0       -5.701040   -0.655365    1.996245
     35          1           0        3.429654   -4.210307   -1.066522
     36          1           0        4.188090   -2.897913   -1.990102
     37          6           0        3.683281    3.005778    0.108515
     38          1           0        3.588106    2.129673    0.745452
     39          1           0        4.319389    3.736183    0.602949
     40          1           0        4.155619    2.700585   -0.822114
     41          1           0        1.254223    2.793166   -1.786223
     42          6           0        2.436735    4.865008   -1.028032
     43          6           0       -6.507467   -0.828424   -1.069681
     44          1           0       -7.458412   -0.875485   -0.543815
     45          1           0       -6.232350   -1.836064   -1.377835
     46          1           0       -6.634454   -0.214145   -1.959268
     47          6           0       -5.777447    1.217083    0.188887
     48          1           0       -5.029816    1.626712    0.863694
     49          1           0       -6.753363    1.270418    0.665466
     50          1           0       -5.792057    1.824597   -0.712703
     51          6           0        4.714549   -3.539909    1.048280
     52          1           0        4.060867   -4.382245    1.270134
     53          1           0        5.032332   -3.088446    1.986338
     54          1           0        5.594159   -3.913254    0.528867
     55          6           0        4.883464   -1.289149   -0.051010
     56          1           0        5.096882   -0.798949    0.895705
     57          1           0        4.380393   -0.575162   -0.698538
     58          1           0        5.821969   -1.586681   -0.512678
     59          1           0        2.981979    5.629887   -0.479618
     60          1           0        1.455063    5.259103   -1.286734
     61          1           0        2.978069    4.645978   -1.946567
     62          1           0        2.186660    4.024276    1.994835
     63          1           0        0.899927    4.766688    1.023214
 ---------------------------------------------------------------------
 Rotational constants (GHZ):           0.2208945           0.1103095           0.0793173
 Leave Link  202 at Mon Oct 25 19:21:36 2021, MaxMem=  7864320000 cpu:               0.7 elap:               0.0
 (Enter /apps/gaussian/g16-c01-avx/g16/l301.exe)
 Standard basis: Aug-CC-pVDZ (5D, 7F)
 Ernie: Thresh=  0.10000D-02 Tol=  0.10000D-05 Strict=F.
 Ernie:  54 primitive shells out of 927 were deleted.
 There are   999 symmetry adapted cartesian basis functions of A   symmetry.
 There are   945 symmetry adapted basis functions of A   symmetry.
   945 basis functions,  1557 primitive gaussians,   999 cartesian basis functions
   102 alpha electrons      102 beta electrons
       nuclear repulsion energy      2612.9237626722 Hartrees.
 IExCor=    0 DFT=F Ex=HF Corr=None ExCW=0 ScaHFX=  1.000000
 ScaDFX=  1.000000  1.000000  1.000000  1.000000 ScalE2=  1.000000  1.000000
 IRadAn=      7 IRanWt=     -1 IRanGd=            0 ICorTp=0 IEmpDi=  4
 NAtoms=   63 NActive=   63 NUniq=   63 SFac= 1.00D+00 NAtFMM=   60 NAOKFM=T Big=T
 Integral buffers will be    131072 words long.
 Raffenetti 1 integral format.
 Two-electron integral symmetry is turned on.
 ------------------------------------------------------------------------------
 Polarizable Continuum Model (PCM)
 =================================
 Model                : PCM.
 Atomic radii         : UFF (Universal Force Field).
 Polarization charges : Total charges.
 Charge compensation  : None.
 Solution method      : On-the-fly selection.
 Cavity type          : Scaled VdW (van der Waals Surface) (Alpha=1.100).
 Cavity algorithm     : GePol (No added spheres)
                        Default sphere list used, NSphG=   63.
                        Lebedev-Laikov grids with approx.  5.0 points / Ang**2.
                        Smoothing algorithm: York/Karplus (Gamma=1.0000).
                        Polarization charges: spherical gaussians, with
                                              point-specific exponents (IZeta= 3).
                        Self-potential: point-specific (ISelfS= 7).
                        Self-field    : sphere-specific E.n sum rule (ISelfD= 2).
 Solvent              : Chloroform, Eps=   4.711300 Eps(inf)=   2.090627
 ------------------------------------------------------------------------------
 GePol: Number of generator spheres                  =      63
 GePol: Total number of spheres                      =      63
 GePol: Number of exposed spheres                    =      63 (100.00%)
 GePol: Number of points                             =    3889
 GePol: Average weight of points                     =       0.13
 GePol: Minimum weight of points                     =   0.13D-09
 GePol: Maximum weight of points                     =    0.20577
 GePol: Number of points with low weight             =     303
 GePol: Fraction of low-weight points (<1% of avg)   =       7.79%
 GePol: Cavity surface area                          =    506.537 Ang**2
 GePol: Cavity volume                                =    567.793 Ang**3
 Leave Link  301 at Mon Oct 25 19:21:37 2021, MaxMem=  7864320000 cpu:               4.0 elap:               0.2
 (Enter /apps/gaussian/g16-c01-avx/g16/l302.exe)
 NPDir=0 NMtPBC=     1 NCelOv=     1 NCel=       1 NClECP=     1 NCelD=      1
         NCelK=      1 NCelE2=     1 NClLst=     1 CellRange=     0.0.
 One-electron integrals computed using PRISM.
 One-electron integral symmetry used in STVInt
 NBasis=   945 RedAO= T EigKep=  1.28D-06  NBF=   945
 NBsUse=   940 1.00D-06 EigRej=  8.35D-07 NBFU=   940
 Leave Link  302 at Mon Oct 25 19:21:40 2021, MaxMem=  7864320000 cpu:              50.5 elap:               1.7
 (Enter /apps/gaussian/g16-c01-avx/g16/l303.exe)
 DipDrv:  MaxL=1.
 Leave Link  303 at Mon Oct 25 19:21:41 2021, MaxMem=  7864320000 cpu:               7.2 elap:               0.3
 (Enter /apps/gaussian/g16-c01-avx/g16/l401.exe)
 ExpMin= 2.97D-02 ExpMax= 9.05D+03 ExpMxC= 3.09D+02 IAcc=3 IRadAn=         7 AccDes= 0.00D+00
 Harris functional with IExCor=  205 and IRadAn=       7 diagonalized for initial guess.
 HarFok:  IExCor=  205 AccDes= 0.00D+00 IRadAn=         7 IDoV= 1 UseB2=F ITyADJ=14
 ICtDFT=  3500011 ScaDFX=  1.000000  1.000000  1.000000  1.000000
 FoFCou: FMM=F IPFlag=           0 FMFlag=      100000 FMFlg1=        2001
         NFxFlg=           0 DoJE=T BraDBF=F KetDBF=T FulRan=T
         wScrn=  0.000000 ICntrl=       500 IOpCl=  0 I1Cent=   200000004 NGrid=           0
         NMat0=    1 NMatS0=      1 NMatT0=    0 NMatD0=    1 NMtDS0=    0 NMtDT0=    0
 Petite list used in FoFCou.
 Harris En= -1144.96296330326    
 JPrj=0 DoOrth=F DoCkMO=F.
 Leave Link  401 at Mon Oct 25 19:21:52 2021, MaxMem=  7864320000 cpu:             338.5 elap:              10.9
 (Enter /apps/gaussian/g16-c01-avx/g16/l508.exe)
 Integral symmetry usage will be decided dynamically.
 Tight linear equation convergence will be used.
 RHF wavefunction.
 Linear searches until partial convergence.
 Full line searches.
 Fock matrices will be formed incrementally for  20 cycles.
 Inv3:  Mode=1 IEnd=    45372963.
 Iteration    1 A*A^-1 deviation from unit magnitude is 7.11D-15 for   3870.
 Iteration    1 A*A^-1 deviation from orthogonality  is 2.66D-15 for   3318   2348.
 Iteration    1 A^-1*A deviation from unit magnitude is 7.22D-15 for   3870.
 Iteration    1 A^-1*A deviation from orthogonality  is 1.61D-14 for   3339   3318.
 FoFJK:  IHMeth= 1 ICntrl=       0 DoSepK=F KAlg= 0 I1Cent=           0 FoldK=F
 IRaf= 990000000 NMat=       1 IRICut=       1 DoRegI=T DoRafI=F ISym2E= 1 IDoP0=0 IntGTp=1.
 Iteration   1 EE= -1141.82271794856                                    Grad=1.720D+00 Max rot=    2.3543 deg.
 Gradient too large for Newton-Raphson -- use scaled steepest descent instead.
 Alpha Gap=     0.500 HL deriv= 1.37D-02
     ILin= 1 X=0.000D+00 Y=-1.141822717949D+03 DE= 0.00D+00 F= -3.79D+00
 RMSU=  7.70D-03    CP:  7.78D-01
     ILin= 2 X=3.000D-01 Y=-1.142670225972D+03 DE=-8.48D-01 F= -1.85D+00 OKLS=F
 RMSU=  1.36D-03    CP:  6.62D-01  1.47D+00
     ILin= 3 X=5.000D-01 Y=-1.142910794300D+03 DE=-1.09D+00 F= -5.52D-01
 RMSU=  3.25D-03    CP:  5.08D-01  1.96D+00  3.00D+00
     ILin= 4 X=9.000D-01 Y=-1.142614187545D+03 DE=-7.91D-01 F=  2.02D+00
     An  expanding polynomial of degree  4 produced  0.5855
 RMSU=  3.53D-06    CP:  6.20D-01  1.63D+00  1.67D+00  1.70D-05
 Iteration   2 EE= -1142.93425042350     Delta-E=       -1.111532474935 Grad=5.593D-01 Max rot=    0.9063 deg.
 Gradient too large for Newton-Raphson -- use scaled steepest descent instead.
 Alpha Gap=     0.517 HL deriv= 4.78D-05
     ILin= 1 X=0.000D+00 Y=-1.142934250424D+03 DE= 0.00D+00 F= -1.57D-01
 RMSU=  1.98D-03    CP:  5.54D-01  1.68D+00  2.56D+00  1.40D-03  3.00D+00
     ILin= 2 X=4.000D-01 Y=-1.142982778169D+03 DE=-4.85D-02 F= -8.60D-02 OKLS=F
 RMSU=  3.55D-04    CP:  5.01D-01  1.67D+00  3.00D+00  3.23D-01  3.00D+00
                    CP:  1.89D+00
     ILin= 3 X=8.000D-01 Y=-1.143003105594D+03 DE=-6.89D-02 F= -1.56D-02
 RMSU=  1.71D-03    CP:  4.31D-01  1.46D+00  3.00D+00  1.96D+00  3.00D+00
                    CP:  3.00D+00  3.00D+00
     ILin= 4 X=1.700D+00 Y=-1.142946250133D+03 DE=-1.20D-02 F=  1.42D-01
     An  expanding polynomial of degree  4 produced  0.8891
 RMSU=  1.76D-06    CP:  4.91D-01  1.66D+00  3.00D+00  4.55D-01  3.00D+00
                    CP:  2.08D+00  1.36D+00  7.31D-06
 Iteration   3 EE= -1143.00380250082     Delta-E=       -0.069552077316 Grad=1.309D-01 Max rot=    0.2053 deg.
 Gradient too large for Newton-Raphson -- use scaled steepest descent instead.
 Alpha Gap=     0.499 HL deriv= 3.18D-03
     ILin= 1 X=0.000D+00 Y=-1.143003802501D+03 DE= 0.00D+00 F= -2.06D-02
 RMSU=  7.61D-04    CP:  4.74D-01  1.65D+00  3.00D+00  7.04D-01  3.00D+00
                    CP:  2.20D+00  2.15D+00  3.85D-04  3.00D+00
     ILin= 2 X=7.000D-01 Y=-1.143010555051D+03 DE=-6.75D-03 F=  1.30D-03 OKLS=T
     Accept linear search using points  1 and  2.
     An  expanding polynomial of degree  2 produced  0.5943
 RMSU=  4.95D-06    CP:  4.76D-01  1.65D+00  3.00D+00  6.65D-01  3.00D+00
                    CP:  2.18D+00  2.02D+00  3.33D-04  3.00D+00  8.49D-01
 Iteration   4 EE= -1143.01051740966     Delta-E=       -0.006714908842 Grad=4.908D-02 Max rot=    0.0698 deg.
 Gradient too large for Newton-Raphson -- use scaled steepest descent instead.
 Alpha Gap=     0.510 HL deriv= 4.78D-04
     ILin= 1 X=0.000D+00 Y=-1.143010517410D+03 DE= 0.00D+00 F= -2.04D-03
 RMSU=  1.97D-04    CP:  4.67D-01  1.64D+00  3.00D+00  7.82D-01  3.00D+00
                    CP:  2.32D+00  2.45D+00  4.63D-04  3.00D+00  1.17D+00
                    CP:  3.32D-01
     ILin= 2 X=7.000D-01 Y=-1.143011505480D+03 DE=-9.88D-04 F= -7.83D-04 OKLS=F
 RMSU=  1.33D-05    CP:  4.58D-01  1.62D+00  3.00D+00  9.19D-01  3.00D+00
                    CP:  2.47D+00  2.97D+00  5.96D-04  3.00D+00  1.53D+00
                    CP: -3.00D+00  2.14D+00
     ILin= 3 X=1.500D+00 Y=-1.143011558366D+03 DE=-1.04D-03 F=  6.51D-04
     Accept linear search using points  2 and  3.
     An  expanding polynomial of degree  3 produced  1.1258
 RMSU=  7.25D-07    CP:  4.62D-01  1.63D+00  3.00D+00  8.54D-01  3.00D+00
                    CP:  2.40D+00  2.72D+00  5.36D-04  3.00D+00  1.36D+00
                    CP: -1.25D+00  1.61D+00  3.92D-01
 Iteration   5 EE= -1143.01167644660     Delta-E=       -0.001159036938 Grad=1.445D-02 Max rot=    0.0503 deg.
 Gradient too large for Newton-Raphson -- use scaled steepest descent instead.
 Alpha Gap=     0.508 HL deriv= 7.76D-04
     ILin= 1 X=0.000D+00 Y=-1.143011676447D+03 DE= 0.00D+00 F= -3.63D-04
 RMSU=  1.04D-04    CP:  4.62D-01  1.63D+00  3.00D+00  8.60D-01  3.00D+00
                    CP:  2.40D+00  2.79D+00  5.21D-04  3.00D+00  1.50D+00
                    CP: -3.00D+00  1.57D+00  2.94D-01 -3.00D+00
     ILin= 2 X=8.000D-01 Y=-1.143011767108D+03 DE=-9.07D-05 F=  1.36D-04 OKLS=T
     Accept linear search using points  1 and  2.
     An  expanding polynomial of degree  2 produced  0.5341
 RMSU=  3.90D-06    CP:  4.62D-01  1.63D+00  3.00D+00  8.58D-01  3.00D+00
                    CP:  2.40D+00  2.76D+00  5.26D-04  3.00D+00  1.45D+00
                    CP: -3.00D+00  1.58D+00  2.96D-01 -3.00D+00  6.65D-01
 Iteration   6 EE= -1143.01178124040     Delta-E=       -0.000104793807 Grad=3.881D-03 Max rot=    0.0141 deg.
 SCF Done:  E(RHF) =  -1143.01178124     a.u. after    6 cycles
            Convg  =    0.3881D-02                    16 Fock formations.
              S**2 =  0.0000                  -V/T =  2.0004
 Leave Link  508 at Mon Oct 25 19:39:37 2021, MaxMem=  7864320000 cpu:           32247.4 elap:            1063.7
 (Enter /apps/gaussian/g16-c01-avx/g16/l502.exe)
 Integral symmetry usage will be decided dynamically.
 Closed shell SCF:
 Using DIIS extrapolation, IDIIS=  1040.
 NGot=  7864320000 LenX=  7862281100 LenY=  7861282100
 Requested convergence on RMS density matrix=1.00D-08 within 128 cycles.
 Requested convergence on MAX density matrix=1.00D-06.
 Requested convergence on             energy=1.00D-06.
 No special actions if energy rises.
 Fock matrices will be formed incrementally for  20 cycles.

 Cycle   1  Pass 1  IDiag  1:
 FoFJK:  IHMeth= 1 ICntrl=       0 DoSepK=F KAlg= 0 I1Cent=           0 FoldK=F
 IRaf= 990000000 NMat=       1 IRICut=       1 DoRegI=T DoRafI=F ISym2E= 0 IDoP0=0 IntGTp=1.
 FoFCou: FMM=T IPFlag=           0 FMFlag=      100000 FMFlg1=        2001
         NFxFlg=           0 DoJE=F BraDBF=F KetDBF=F FulRan=T
         wScrn=  0.000000 ICntrl=         0 IOpCl=  0 I1Cent=           0 NGrid=           0
         NMat0=    1 NMatS0=      1 NMatT0=    0 NMatD0=    1 NMtDS0=    0 NMtDT0=    0
 Symmetry not used in FoFCou.
 FMM levels:  10  Number of levels for PrismC:   9
 E= -1143.01178123662    
 DIIS: error= 5.33D-05 at cycle   1 NSaved=   1.
 NSaved= 1 IEnMin= 1 EnMin= -1143.01178123662     IErMin= 1 ErrMin= 5.33D-05
 ErrMax= 5.33D-05  0.00D+00 EMaxC= 1.00D-01 BMatC= 7.53D-06 BMatP= 7.53D-06
 IDIUse=1 WtCom= 1.00D+00 WtEn= 0.00D+00
 Coeff-Com:  0.100D+01
 Coeff:      0.100D+01
 Gap=     0.510 Goal=   None    Shift=    0.000
 RMSDP=1.25D-04 MaxDP=1.75D-02              OVMax= 8.83D-04

 Cycle   2  Pass 1  IDiag  1:
 RMSU=  1.14D-04    CP:  9.99D-01
 E= -1143.01180083873     Delta-E=       -0.000019602108 Rises=F Damp=F
 DIIS: error= 1.25D-05 at cycle   2 NSaved=   2.
 NSaved= 2 IEnMin= 2 EnMin= -1143.01180083873     IErMin= 2 ErrMin= 1.25D-05
 ErrMax= 1.25D-05  0.00D+00 EMaxC= 1.00D-01 BMatC= 8.88D-07 BMatP= 7.53D-06
 IDIUse=1 WtCom= 1.00D+00 WtEn= 0.00D+00
 Coeff-Com: -0.209D+00 0.121D+01
 Coeff:     -0.209D+00 0.121D+01
 Gap=     0.352 Goal=   None    Shift=    0.000
 RMSDP=3.27D-05 MaxDP=5.17D-03 DE=-1.96D-05 OVMax= 5.12D-04

 Cycle   3  Pass 1  IDiag  1:
 RMSU=  1.52D-05    CP:  9.98D-01  1.23D+00
 E= -1143.01180315682     Delta-E=       -0.000002318092 Rises=F Damp=F
 DIIS: error= 7.04D-06 at cycle   3 NSaved=   3.
 NSaved= 3 IEnMin= 3 EnMin= -1143.01180315682     IErMin= 3 ErrMin= 7.04D-06
 ErrMax= 7.04D-06  0.00D+00 EMaxC= 1.00D-01 BMatC= 2.10D-07 BMatP= 8.88D-07
 IDIUse=1 WtCom= 1.00D+00 WtEn= 0.00D+00
 Coeff-Com: -0.149D+00 0.393D+00 0.756D+00
 Coeff:     -0.149D+00 0.393D+00 0.756D+00
 Gap=     0.352 Goal=   None    Shift=    0.000
 RMSDP=7.51D-06 MaxDP=1.18D-03 DE=-2.32D-06 OVMax= 1.68D-04

 Cycle   4  Pass 1  IDiag  1:
 RMSU=  4.94D-06    CP:  9.98D-01  1.27D+00  1.17D+00
 E= -1143.01180346285     Delta-E=       -0.000000306029 Rises=F Damp=F
 DIIS: error= 1.74D-06 at cycle   4 NSaved=   4.
 NSaved= 4 IEnMin= 4 EnMin= -1143.01180346285     IErMin= 4 ErrMin= 1.74D-06
 ErrMax= 1.74D-06  0.00D+00 EMaxC= 1.00D-01 BMatC= 1.27D-08 BMatP= 2.10D-07
 IDIUse=1 WtCom= 1.00D+00 WtEn= 0.00D+00
 Coeff-Com:  0.306D-01-0.136D+00-0.627D-01 0.117D+01
 Coeff:      0.306D-01-0.136D+00-0.627D-01 0.117D+01
 Gap=     0.352 Goal=   None    Shift=    0.000
 RMSDP=2.76D-06 MaxDP=2.91D-04 DE=-3.06D-07 OVMax= 1.36D-04

 Cycle   5  Pass 1  IDiag  1:
 RMSU=  2.24D-06    CP:  9.98D-01  1.27D+00  1.26D+00  1.16D+00
 E= -1143.01180351315     Delta-E=       -0.000000050304 Rises=F Damp=F
 DIIS: error= 1.03D-06 at cycle   5 NSaved=   5.
 NSaved= 5 IEnMin= 5 EnMin= -1143.01180351315     IErMin= 5 ErrMin= 1.03D-06
 ErrMax= 1.03D-06  0.00D+00 EMaxC= 1.00D-01 BMatC= 2.88D-09 BMatP= 1.27D-08
 IDIUse=1 WtCom= 1.00D+00 WtEn= 0.00D+00
 Coeff-Com:  0.134D-01-0.323D-01-0.802D-01-0.720D-01 0.117D+01
 Coeff:      0.134D-01-0.323D-01-0.802D-01-0.720D-01 0.117D+01
 Gap=     0.352 Goal=   None    Shift=    0.000
 RMSDP=1.33D-06 MaxDP=1.12D-04 DE=-5.03D-08 OVMax= 6.98D-05

 Cycle   6  Pass 1  IDiag  1:
 RMSU=  7.70D-07    CP:  9.98D-01  1.26D+00  1.26D+00  1.25D+00  1.43D+00
 E= -1143.01180352702     Delta-E=       -0.000000013864 Rises=F Damp=F
 DIIS: error= 5.64D-07 at cycle   6 NSaved=   6.
 NSaved= 6 IEnMin= 6 EnMin= -1143.01180352702     IErMin= 6 ErrMin= 5.64D-07
 ErrMax= 5.64D-07  0.00D+00 EMaxC= 1.00D-01 BMatC= 9.26D-10 BMatP= 2.88D-09
 IDIUse=1 WtCom= 1.00D+00 WtEn= 0.00D+00
 Coeff-Com: -0.744D-02 0.396D-01 0.636D-02-0.380D+00 0.219D+00 0.112D+01
 Coeff:     -0.744D-02 0.396D-01 0.636D-02-0.380D+00 0.219D+00 0.112D+01
 Gap=     0.352 Goal=   None    Shift=    0.000
 RMSDP=1.00D-06 MaxDP=9.92D-05 DE=-1.39D-08 OVMax= 5.42D-05

 Cycle   7  Pass 1  IDiag  1:
 RMSU=  3.47D-07    CP:  9.98D-01  1.26D+00  1.26D+00  1.27D+00  1.84D+00
                    CP:  1.29D+00
 E= -1143.01180353172     Delta-E=       -0.000000004698 Rises=F Damp=F
 DIIS: error= 2.24D-07 at cycle   7 NSaved=   7.
 NSaved= 7 IEnMin= 7 EnMin= -1143.01180353172     IErMin= 7 ErrMin= 2.24D-07
 ErrMax= 2.24D-07  0.00D+00 EMaxC= 1.00D-01 BMatC= 1.29D-10 BMatP= 9.26D-10
 IDIUse=1 WtCom= 1.00D+00 WtEn= 0.00D+00
 Coeff-Com: -0.299D-02 0.719D-02 0.171D-01 0.134D-01-0.245D+00-0.482D-01
 Coeff-Com:  0.126D+01
 Coeff:     -0.299D-02 0.719D-02 0.171D-01 0.134D-01-0.245D+00-0.482D-01
 Coeff:      0.126D+01
 Gap=     0.352 Goal=   None    Shift=    0.000
 RMSDP=4.68D-07 MaxDP=4.35D-05 DE=-4.70D-09 OVMax= 2.38D-05

 Cycle   8  Pass 1  IDiag  1:
 RMSU=  1.61D-07    CP:  9.98D-01  1.27D+00  1.27D+00  1.28D+00  1.98D+00
                    CP:  1.59D+00  1.51D+00
 E= -1143.01180353250     Delta-E=       -0.000000000784 Rises=F Damp=F
 DIIS: error= 5.74D-08 at cycle   8 NSaved=   8.
 NSaved= 8 IEnMin= 8 EnMin= -1143.01180353250     IErMin= 8 ErrMin= 5.74D-08
 ErrMax= 5.74D-08  0.00D+00 EMaxC= 1.00D-01 BMatC= 1.36D-11 BMatP= 1.29D-10
 IDIUse=1 WtCom= 1.00D+00 WtEn= 0.00D+00
 Coeff-Com:  0.116D-02-0.641D-02-0.928D-03 0.592D-01-0.335D-01-0.179D+00
 Coeff-Com:  0.860D-01 0.107D+01
 Coeff:      0.116D-02-0.641D-02-0.928D-03 0.592D-01-0.335D-01-0.179D+00
 Coeff:      0.860D-01 0.107D+01
 Gap=     0.352 Goal=   None    Shift=    0.000
 RMSDP=1.07D-07 MaxDP=1.25D-05 DE=-7.84D-10 OVMax= 5.00D-06

 Cycle   9  Pass 1  IDiag  1:
 RMSU=  4.16D-08    CP:  9.98D-01  1.27D+00  1.27D+00  1.29D+00  1.99D+00
                    CP:  1.61D+00  1.67D+00  1.18D+00
 E= -1143.01180353256     Delta-E=       -0.000000000061 Rises=F Damp=F
 DIIS: error= 1.44D-08 at cycle   9 NSaved=   9.
 NSaved= 9 IEnMin= 9 EnMin= -1143.01180353256     IErMin= 9 ErrMin= 1.44D-08
 ErrMax= 1.44D-08  0.00D+00 EMaxC= 1.00D-01 BMatC= 1.21D-12 BMatP= 1.36D-11
 IDIUse=1 WtCom= 1.00D+00 WtEn= 0.00D+00
 Coeff-Com:  0.396D-03-0.118D-02-0.169D-02 0.221D-02 0.239D-01-0.128D-01
 Coeff-Com: -0.120D+00 0.592D-01 0.105D+01
 Coeff:      0.396D-03-0.118D-02-0.169D-02 0.221D-02 0.239D-01-0.128D-01
 Coeff:     -0.120D+00 0.592D-01 0.105D+01
 Gap=     0.352 Goal=   None    Shift=    0.000
 RMSDP=3.05D-08 MaxDP=3.80D-06 DE=-6.14D-11 OVMax= 1.26D-06

 Cycle  10  Pass 1  IDiag  1:
 RMSU=  1.55D-08    CP:  9.98D-01  1.27D+00  1.27D+00  1.29D+00  2.00D+00
                    CP:  1.62D+00  1.69D+00  1.24D+00  1.17D+00
 E= -1143.01180353255     Delta-E=        0.000000000012 Rises=F Damp=F
 DIIS: error= 4.43D-09 at cycle  10 NSaved=  10.
 NSaved=10 IEnMin= 9 EnMin= -1143.01180353256     IErMin=10 ErrMin= 4.43D-09
 ErrMax= 4.43D-09  0.00D+00 EMaxC= 1.00D-01 BMatC= 1.08D-13 BMatP= 1.21D-12
 IDIUse=1 WtCom= 1.00D+00 WtEn= 0.00D+00
 Coeff-Com: -0.115D-03 0.638D-03 0.113D-03-0.616D-02 0.466D-02 0.165D-01
 Coeff-Com: -0.993D-02-0.103D+00 0.330D-01 0.106D+01
 Coeff:     -0.115D-03 0.638D-03 0.113D-03-0.616D-02 0.466D-02 0.165D-01
 Coeff:     -0.993D-02-0.103D+00 0.330D-01 0.106D+01
 Gap=     0.352 Goal=   None    Shift=    0.000
 RMSDP=7.66D-09 MaxDP=4.98D-07 DE= 1.18D-11 OVMax= 2.34D-07

 Error on total polarization charges =  0.01915
 SCF Done:  E(RHF) =  -1143.01180353     A.U. after   10 cycles
            NFock= 10  Conv=0.77D-08     -V/T= 2.0004
 KE= 1.142557891559D+03 PE=-7.893682552503D+03 EE= 2.995189094739D+03
 Leave Link  502 at Mon Oct 25 19:50:51 2021, MaxMem=  7864320000 cpu:           20121.9 elap:             673.9
 (Enter /apps/gaussian/g16-c01-avx/g16/l508.exe)
 QCSCF skips out because SCF is already converged.
 Leave Link  508 at Mon Oct 25 19:50:51 2021, MaxMem=  7864320000 cpu:               0.1 elap:               0.0
 (Enter /apps/gaussian/g16-c01-avx/g16/l801.exe)
 ExpMin= 2.97D-02 ExpMax= 9.05D+03 ExpMxC= 3.09D+02 IAcc=3 IRadAn=         7 AccDes= 0.00D+00
 HarFok:  IExCor=  205 AccDes= 0.00D+00 IRadAn=         7 IDoV=-2 UseB2=F ITyADJ=14
 ICtDFT= 12500011 ScaDFX=  1.000000  1.000000  1.000000  1.000000
 GSVD:  LWork=        -945 too small for GESVD, short by        4050 words or        4050 for optimal perf.
 Largest valence mixing into a core orbital is  1.09D-04
 Largest core mixing into a valence orbital is  3.95D-05
 Range of M.O.s used for correlation:    28   940
 NBasis=   945 NAE=   102 NBE=   102 NFC=    27 NFV=     0
 NROrb=    913 NOA=    75 NOB=    75 NVA=   838 NVB=   838

 **** Warning!!: The largest alpha MO coefficient is  0.19561814D+03

 Leave Link  801 at Mon Oct 25 19:50:52 2021, MaxMem=  7864320000 cpu:              14.7 elap:               0.5
 (Enter /apps/gaussian/g16-c01-avx/g16/l906.exe)
 FulOut=F Deriv=F AODrv=F NAtomX=    63
   MMem=           3  MDisk=          75 MDiskD=          75
  W3Min=    62787150 MinDsk=    61201808 NBas6D=         999
 NBas2D=      500769    NTT=      499500    LW2=     2000000
    MDV=  7858797828 MDiskM=      109231 NBas2p=      404317
 Disk-based method using OVN memory for 75 occupieds at a time.
 Estimated scratch disk usage= 84092431562 words.
 IMap=   1   2   3   4   5   6   7   8   9  10  11  12  13  14  15  16  17  18  19  20
 IMap=  21  22  23  24  25  26  27  28  29  30  31  32  33  34  35  36  37  38  39  40
 IMap=  41  42  43  44  45  46  47  48  49  50  51  52  53  54  55  56  57  58  59  60
 IMap=  61  62  63  64  65  66  67  68  69  70  71  72  73  74  75
 Actual    scratch disk usage= 76237511546 words.
 JobTyp=1 Pass  1:  I=   1 to  75 NPSUse= 32 ParTrn=T ParDer=T DoDerP=F.
 Spin components of T(2) and E(2):
     alpha-alpha T2 =       0.1883438986D+00 E2=     -0.5257612456D+00
     alpha-beta  T2 =       0.1015002506D+01 E2=     -0.3037603442D+01
     beta-beta   T2 =       0.1883438986D+00 E2=     -0.5257612456D+00
 The integrals were generated   1 times.
 ANorm=    0.1546509070D+01
 E2 =    -0.4089125933D+01 EUMP2 =    -0.11471009294660D+04
 Leave Link  906 at Mon Oct 25 21:30:31 2021, MaxMem=  7864320000 cpu:          185784.0 elap:            5978.7
 (Enter /apps/gaussian/g16-c01-avx/g16/l601.exe)
 Copying SCF densities to generalized density rwf, IOpCl= 0 IROHF=0.

 **********************************************************************

            Population analysis using the SCF Density.

 **********************************************************************

 Orbital symmetries:
       Occupied  (A) (A) (A) (A) (A) (A) (A) (A) (A) (A) (A) (A)
                 (A) (A) (A) (A) (A) (A) (A) (A) (A) (A) (A) (A)
                 (A) (A) (A) (A) (A) (A) (A) (A) (A) (A) (A) (A)
                 (A) (A) (A) (A) (A) (A) (A) (A) (A) (A) (A) (A)
                 (A) (A) (A) (A) (A) (A) (A) (A) (A) (A) (A) (A)
                 (A) (A) (A) (A) (A) (A) (A) (A) (A) (A) (A) (A)
                 (A) (A) (A) (A) (A) (A) (A) (A) (A) (A) (A) (A)
                 (A) (A) (A) (A) (A) (A) (A) (A) (A) (A) (A) (A)
                 (A) (A) (A) (A) (A) (A)
       Virtual   (A) (A) (A) (A) (A) (A) (A) (A) (A) (A) (A) (A)
                 (A) (A) (A) (A) (A) (A) (A) (A) (A) (A) (A) (A)
                 (A) (A) (A) (A) (A) (A) (A) (A) (A) (A) (A) (A)
                 (A) (A) (A) (A) (A) (A) (A) (A) (A) (A) (A) (A)
                 (A) (A) (A) (A) (A) (A) (A) (A) (A) (A) (A) (A)
                 (A) (A) (A) (A) (A) (A) (A) (A) (A) (A) (A) (A)
                 (A) (A) (A) (A) (A) (A) (A) (A) (A) (A) (A) (A)
                 (A) (A) (A) (A) (A) (A) (A) (A) (A) (A) (A) (A)
                 (A) (A) (A) (A) (A) (A) (A) (A) (A) (A) (A) (A)
                 (A) (A) (A) (A) (A) (A) (A) (A) (A) (A) (A) (A)
                 (A) (A) (A) (A) (A) (A) (A) (A) (A) (A) (A) (A)
                 (A) (A) (A) (A) (A) (A) (A) (A) (A) (A) (A) (A)
                 (A) (A) (A) (A) (A) (A) (A) (A) (A) (A) (A) (A)
                 (A) (A) (A) (A) (A) (A) (A) (A) (A) (A) (A) (A)
                 (A) (A) (A) (A) (A) (A) (A) (A) (A) (A) (A) (A)
                 (A) (A) (A) (A) (A) (A) (A) (A) (A) (A) (A) (A)
                 (A) (A) (A) (A) (A) (A) (A) (A) (A) (A) (A) (A)
                 (A) (A) (A) (A) (A) (A) (A) (A) (A) (A) (A) (A)
                 (A) (A) (A) (A) (A) (A) (A) (A) (A) (A) (A) (A)
                 (A) (A) (A) (A) (A) (A) (A) (A) (A) (A) (A) (A)
                 (A) (A) (A) (A) (A) (A) (A) (A) (A) (A) (A) (A)
                 (A) (A) (A) (A) (A) (A) (A) (A) (A) (A) (A) (A)
                 (A) (A) (A) (A) (A) (A) (A) (A) (A) (A) (A) (A)
                 (A) (A) (A) (A) (A) (A) (A) (A) (A) (A) (A) (A)
                 (A) (A) (A) (A) (A) (A) (A) (A) (A) (A) (A) (A)
                 (A) (A) (A) (A) (A) (A) (A) (A) (A) (A) (A) (A)
                 (A) (A) (A) (A) (A) (A) (A) (A) (A) (A) (A) (A)
                 (A) (A) (A) (A) (A) (A) (A) (A) (A) (A) (A) (A)
                 (A) (A) (A) (A) (A) (A) (A) (A) (A) (A) (A) (A)
                 (A) (A) (A) (A) (A) (A) (A) (A) (A) (A) (A) (A)
                 (A) (A) (A) (A) (A) (A) (A) (A) (A) (A) (A) (A)
                 (A) (A) (A) (A) (A) (A) (A) (A) (A) (A) (A) (A)
                 (A) (A) (A) (A) (A) (A) (A) (A) (A) (A) (A) (A)
                 (A) (A) (A) (A) (A) (A) (A) (A) (A) (A) (A) (A)
                 (A) (A) (A) (A) (A) (A) (A) (A) (A) (A) (A) (A)
                 (A) (A) (A) (A) (A) (A) (A) (A) (A) (A) (A) (A)
                 (A) (A) (A) (A) (A) (A) (A) (A) (A) (A) (A) (A)
                 (A) (A) (A) (A) (A) (A) (A) (A) (A) (A) (A) (A)
                 (A) (A) (A) (A) (A) (A) (A) (A) (A) (A) (A) (A)
                 (A) (A) (A) (A) (A) (A) (A) (A) (A) (A) (A) (A)
                 (A) (A) (A) (A) (A) (A) (A) (A) (A) (A) (A) (A)
                 (A) (A) (A) (A) (A) (A) (A) (A) (A) (A) (A) (A)
                 (A) (A) (A) (A) (A) (A) (A) (A) (A) (A) (A) (A)
                 (A) (A) (A) (A) (A) (A) (A) (A) (A) (A) (A) (A)
                 (A) (A) (A) (A) (A) (A) (A) (A) (A) (A) (A) (A)
                 (A) (A) (A) (A) (A) (A) (A) (A) (A) (A) (A) (A)
                 (A) (A) (A) (A) (A) (A) (A) (A) (A) (A) (A) (A)
                 (A) (A) (A) (A) (A) (A) (A) (A) (A) (A) (A) (A)
                 (A) (A) (A) (A) (A) (A) (A) (A) (A) (A) (A) (A)
                 (A) (A) (A) (A) (A) (A) (A) (A) (A) (A) (A) (A)
                 (A) (A) (A) (A) (A) (A) (A) (A) (A) (A) (A) (A)
                 (A) (A) (A) (A) (A) (A) (A) (A) (A) (A) (A) (A)
                 (A) (A) (A) (A) (A) (A) (A) (A) (A) (A) (A) (A)
                 (A) (A) (A) (A) (A) (A) (A) (A) (A) (A) (A) (A)
                 (A) (A) (A) (A) (A) (A) (A) (A) (A) (A) (A) (A)
                 (A) (A) (A) (A) (A) (A) (A) (A) (A) (A) (A) (A)
                 (A) (A) (A) (A) (A) (A) (A) (A) (A) (A) (A) (A)
                 (A) (A) (A) (A) (A) (A) (A) (A) (A) (A) (A) (A)
                 (A) (A) (A) (A) (A) (A) (A) (A) (A) (A) (A) (A)
                 (A) (A) (A) (A) (A) (A) (A) (A) (A) (A) (A) (A)
                 (A) (A) (A) (A) (A) (A) (A) (A) (A) (A) (A) (A)
                 (A) (A) (A) (A) (A) (A) (A) (A) (A) (A) (A) (A)
                 (A) (A) (A) (A) (A) (A) (A) (A) (A) (A) (A) (A)
                 (A) (A) (A) (A) (A) (A) (A) (A) (A) (A) (A) (A)
                 (A) (A) (A) (A) (A) (A) (A) (A) (A) (A) (A) (A)
                 (A) (A) (A) (A) (A) (A) (A) (A) (A) (A) (A) (A)
                 (A) (A) (A) (A) (A) (A) (A) (A) (A) (A) (A) (A)
                 (A) (A) (A) (A) (A) (A) (A) (A) (A) (A) (A) (A)
                 (A) (A) (A) (A) (A) (A) (A) (A) (A) (A) (A) (A)
                 (A) (A) (A) (A) (A) (A) (A) (A) (A) (A)
 The electronic state is 1-A.
 Alpha  occ. eigenvalues --  -15.55186 -15.55181 -15.55131 -15.53851 -15.53806
 Alpha  occ. eigenvalues --  -15.53797 -11.28535 -11.28527 -11.28501 -11.25827
 Alpha  occ. eigenvalues --  -11.25821 -11.25810 -11.24711 -11.24708 -11.24696
 Alpha  occ. eigenvalues --  -11.23349 -11.23271 -11.23202 -11.22836 -11.22419
 Alpha  occ. eigenvalues --  -11.22033 -11.21684 -11.21662 -11.21629 -11.20938
 Alpha  occ. eigenvalues --  -11.20903 -11.20892  -1.27863  -1.27706  -1.27644
 Alpha  occ. eigenvalues --   -1.15932  -1.14600  -1.14584  -1.14518  -1.07202
 Alpha  occ. eigenvalues --   -1.07093  -1.04661  -1.01352  -1.00813  -0.93553
 Alpha  occ. eigenvalues --   -0.93494  -0.93456  -0.92012  -0.91629  -0.91540
 Alpha  occ. eigenvalues --   -0.86536  -0.85545  -0.84358  -0.78930  -0.77392
 Alpha  occ. eigenvalues --   -0.76257  -0.76239  -0.76213  -0.70907  -0.69500
 Alpha  occ. eigenvalues --   -0.67569  -0.66823  -0.66458  -0.65883  -0.65198
 Alpha  occ. eigenvalues --   -0.62408  -0.60681  -0.60334  -0.60160  -0.59864
 Alpha  occ. eigenvalues --   -0.59395  -0.59185  -0.58501  -0.58166  -0.56697
 Alpha  occ. eigenvalues --   -0.56089  -0.55995  -0.55848  -0.54779  -0.54487
 Alpha  occ. eigenvalues --   -0.54184  -0.53965  -0.53811  -0.53623  -0.51008
 Alpha  occ. eigenvalues --   -0.50881  -0.50842  -0.50693  -0.50366  -0.50286
 Alpha  occ. eigenvalues --   -0.49946  -0.49565  -0.48683  -0.47608  -0.46891
 Alpha  occ. eigenvalues --   -0.46714  -0.46542  -0.46201  -0.45854  -0.38515
 Alpha  occ. eigenvalues --   -0.38407  -0.38383  -0.36683  -0.36425  -0.36089
 Alpha  occ. eigenvalues --   -0.32531  -0.31820
 Alpha virt. eigenvalues --    0.03391   0.03726   0.03864   0.04220   0.04565
 Alpha virt. eigenvalues --    0.04617   0.04915   0.05135   0.05278   0.05790
 Alpha virt. eigenvalues --    0.05840   0.06372   0.06424   0.06656   0.07013
 Alpha virt. eigenvalues --    0.07061   0.07214   0.07387   0.08003   0.08233
 Alpha virt. eigenvalues --    0.08592   0.09002   0.09148   0.09301   0.09570
 Alpha virt. eigenvalues --    0.10031   0.10275   0.10541   0.10689   0.11005
 Alpha virt. eigenvalues --    0.11538   0.11797   0.12105   0.12592   0.12712
 Alpha virt. eigenvalues --    0.12977   0.13110   0.13529   0.13621   0.13940
 Alpha virt. eigenvalues --    0.14177   0.14533   0.14653   0.14875   0.14916
 Alpha virt. eigenvalues --    0.15093   0.15352   0.15530   0.15600   0.15984
 Alpha virt. eigenvalues --    0.16112   0.16395   0.16601   0.16765   0.17175
 Alpha virt. eigenvalues --    0.17327   0.17601   0.17633   0.17891   0.18120
 Alpha virt. eigenvalues --    0.18267   0.18381   0.18518   0.18736   0.19002
 Alpha virt. eigenvalues --    0.19051   0.19305   0.19339   0.19682   0.20208
 Alpha virt. eigenvalues --    0.20272   0.20524   0.20942   0.21079   0.21167
 Alpha virt. eigenvalues --    0.21420   0.21560   0.21924   0.22121   0.22193
 Alpha virt. eigenvalues --    0.22634   0.23003   0.23120   0.23237   0.23464
 Alpha virt. eigenvalues --    0.23727   0.23994   0.24181   0.24265   0.24492
 Alpha virt. eigenvalues --    0.24829   0.24863   0.25276   0.25422   0.25880
 Alpha virt. eigenvalues --    0.26479   0.26545   0.26973   0.27180   0.27523
 Alpha virt. eigenvalues --    0.27863   0.28208   0.28243   0.28374   0.28613
 Alpha virt. eigenvalues --    0.29084   0.29200   0.29755   0.29867   0.29988
 Alpha virt. eigenvalues --    0.30257   0.30588   0.30892   0.31398   0.31472
 Alpha virt. eigenvalues --    0.31620   0.32062   0.32175   0.32539   0.32645
 Alpha virt. eigenvalues --    0.33162   0.33568   0.33997   0.34090   0.34215
 Alpha virt. eigenvalues --    0.34394   0.34685   0.34955   0.35292   0.35503
 Alpha virt. eigenvalues --    0.35632   0.36019   0.36269   0.36710   0.36947
 Alpha virt. eigenvalues --    0.37325   0.37404   0.37617   0.37689   0.38106
 Alpha virt. eigenvalues --    0.38242   0.38584   0.38877   0.39163   0.39278
 Alpha virt. eigenvalues --    0.39422   0.39616   0.39882   0.40053   0.40349
 Alpha virt. eigenvalues --    0.40614   0.40968   0.41098   0.41268   0.41409
 Alpha virt. eigenvalues --    0.41606   0.42102   0.42256   0.42553   0.42834
 Alpha virt. eigenvalues --    0.42908   0.43135   0.43294   0.43492   0.43797
 Alpha virt. eigenvalues --    0.44171   0.44489   0.44785   0.44824   0.45327
 Alpha virt. eigenvalues --    0.45565   0.45726   0.46056   0.46378   0.46460
 Alpha virt. eigenvalues --    0.46554   0.47047   0.47338   0.47496   0.47713
 Alpha virt. eigenvalues --    0.47804   0.48216   0.48296   0.48475   0.49049
 Alpha virt. eigenvalues --    0.49154   0.49541   0.49748   0.49904   0.50060
 Alpha virt. eigenvalues --    0.50248   0.50354   0.50430   0.50901   0.51135
 Alpha virt. eigenvalues --    0.51518   0.51632   0.52004   0.52240   0.52440
 Alpha virt. eigenvalues --    0.52623   0.52897   0.53082   0.53169   0.53597
 Alpha virt. eigenvalues --    0.53631   0.53970   0.54244   0.54487   0.54533
 Alpha virt. eigenvalues --    0.54668   0.55099   0.55537   0.55656   0.55862
 Alpha virt. eigenvalues --    0.55941   0.56319   0.56421   0.56539   0.57062
 Alpha virt. eigenvalues --    0.57105   0.57392   0.57593   0.57872   0.58054
 Alpha virt. eigenvalues --    0.58414   0.58817   0.58975   0.59220   0.59576
 Alpha virt. eigenvalues --    0.59756   0.60052   0.60573   0.60587   0.60721
 Alpha virt. eigenvalues --    0.61047   0.61241   0.61956   0.62124   0.62187
 Alpha virt. eigenvalues --    0.62427   0.62517   0.62894   0.63201   0.63390
 Alpha virt. eigenvalues --    0.63474   0.63559   0.64272   0.64608   0.64670
 Alpha virt. eigenvalues --    0.65075   0.65210   0.65419   0.65609   0.65816
 Alpha virt. eigenvalues --    0.66092   0.66210   0.66513   0.66719   0.66798
 Alpha virt. eigenvalues --    0.67337   0.67578   0.67686   0.67924   0.68274
 Alpha virt. eigenvalues --    0.68352   0.68755   0.68896   0.69320   0.69561
 Alpha virt. eigenvalues --    0.69758   0.69915   0.70003   0.70454   0.70570
 Alpha virt. eigenvalues --    0.70793   0.70980   0.71033   0.71295   0.71562
 Alpha virt. eigenvalues --    0.71988   0.72081   0.72412   0.72995   0.73242
 Alpha virt. eigenvalues --    0.73513   0.73727   0.73912   0.74432   0.74484
 Alpha virt. eigenvalues --    0.74932   0.75277   0.75706   0.75931   0.76271
 Alpha virt. eigenvalues --    0.76301   0.76445   0.77097   0.77293   0.77517
 Alpha virt. eigenvalues --    0.77770   0.77955   0.78267   0.78765   0.78860
 Alpha virt. eigenvalues --    0.78975   0.79254   0.79376   0.79548   0.79914
 Alpha virt. eigenvalues --    0.80411   0.80443   0.80949   0.80986   0.81361
 Alpha virt. eigenvalues --    0.81513   0.81627   0.81675   0.81977   0.82340
 Alpha virt. eigenvalues --    0.82575   0.82841   0.83040   0.83101   0.83538
 Alpha virt. eigenvalues --    0.83889   0.84079   0.84293   0.84521   0.84809
 Alpha virt. eigenvalues --    0.85394   0.85550   0.85701   0.86258   0.86335
 Alpha virt. eigenvalues --    0.86520   0.86825   0.87354   0.87640   0.87720
 Alpha virt. eigenvalues --    0.87855   0.87973   0.88333   0.88813   0.88934
 Alpha virt. eigenvalues --    0.89243   0.89482   0.89656   0.89802   0.89996
 Alpha virt. eigenvalues --    0.90560   0.90875   0.91114   0.91588   0.91883
 Alpha virt. eigenvalues --    0.92035   0.92365   0.92731   0.92811   0.93167
 Alpha virt. eigenvalues --    0.93576   0.93771   0.94495   0.94793   0.94971
 Alpha virt. eigenvalues --    0.95030   0.95779   0.95797   0.96061   0.96646
 Alpha virt. eigenvalues --    0.96974   0.97168   0.97602   0.98323   0.98360
 Alpha virt. eigenvalues --    0.98616   0.99175   0.99345   0.99624   0.99887
 Alpha virt. eigenvalues --    1.00228   1.00638   1.01045   1.01682   1.01874
 Alpha virt. eigenvalues --    1.02387   1.02572   1.03113   1.03495   1.03678
 Alpha virt. eigenvalues --    1.04206   1.04627   1.04758   1.05017   1.05499
 Alpha virt. eigenvalues --    1.06349   1.06497   1.06811   1.07200   1.07540
 Alpha virt. eigenvalues --    1.08129   1.08211   1.08349   1.08790   1.09202
 Alpha virt. eigenvalues --    1.09651   1.09832   1.10000   1.10260   1.11179
 Alpha virt. eigenvalues --    1.11752   1.12164   1.13172   1.13340   1.13532
 Alpha virt. eigenvalues --    1.13755   1.14750   1.14867   1.15076   1.15205
 Alpha virt. eigenvalues --    1.15810   1.16344   1.16581   1.17184   1.18117
 Alpha virt. eigenvalues --    1.18364   1.18717   1.19130   1.19648   1.20040
 Alpha virt. eigenvalues --    1.20557   1.21294   1.21521   1.22115   1.22730
 Alpha virt. eigenvalues --    1.23026   1.24029   1.24404   1.24860   1.25403
 Alpha virt. eigenvalues --    1.25656   1.26473   1.26552   1.27389   1.28107
 Alpha virt. eigenvalues --    1.28461   1.28570   1.29602   1.29826   1.30155
 Alpha virt. eigenvalues --    1.30966   1.31669   1.32305   1.32425   1.32719
 Alpha virt. eigenvalues --    1.33125   1.33410   1.33837   1.34201   1.34758
 Alpha virt. eigenvalues --    1.35417   1.35829   1.36273   1.36768   1.36962
 Alpha virt. eigenvalues --    1.37345   1.37994   1.38797   1.39256   1.39560
 Alpha virt. eigenvalues --    1.40321   1.40944   1.41719   1.42157   1.42527
 Alpha virt. eigenvalues --    1.43153   1.43992   1.45311   1.45465   1.46619
 Alpha virt. eigenvalues --    1.47326   1.47935   1.48499   1.49338   1.50116
 Alpha virt. eigenvalues --    1.50744   1.51473   1.51659   1.53373   1.53973
 Alpha virt. eigenvalues --    1.54715   1.55136   1.56145   1.56709   1.57646
 Alpha virt. eigenvalues --    1.58440   1.58620   1.59738   1.60444   1.61499
 Alpha virt. eigenvalues --    1.62261   1.62704   1.63623   1.64137   1.65760
 Alpha virt. eigenvalues --    1.65857   1.66522   1.67993   1.68315   1.69159
 Alpha virt. eigenvalues --    1.69836   1.70153   1.71020   1.71283   1.72516
 Alpha virt. eigenvalues --    1.72679   1.73555   1.73657   1.73956   1.74172
 Alpha virt. eigenvalues --    1.74959   1.75407   1.75978   1.76817   1.77031
 Alpha virt. eigenvalues --    1.77372   1.77658   1.78146   1.78532   1.79445
 Alpha virt. eigenvalues --    1.80286   1.80786   1.81253   1.81630   1.82209
 Alpha virt. eigenvalues --    1.82710   1.82975   1.83690   1.84532   1.85149
 Alpha virt. eigenvalues --    1.85369   1.85782   1.86003   1.87037   1.87366
 Alpha virt. eigenvalues --    1.87543   1.87864   1.88358   1.88898   1.89062
 Alpha virt. eigenvalues --    1.89279   1.89682   1.90190   1.90846   1.90971
 Alpha virt. eigenvalues --    1.91158   1.91532   1.92115   1.92350   1.92485
 Alpha virt. eigenvalues --    1.93374   1.94066   1.94688   1.95012   1.95176
 Alpha virt. eigenvalues --    1.95457   1.96047   1.96809   1.96969   1.97963
 Alpha virt. eigenvalues --    1.98697   1.99100   1.99452   1.99971   2.00324
 Alpha virt. eigenvalues --    2.00634   2.01402   2.01785   2.02048   2.02561
 Alpha virt. eigenvalues --    2.03249   2.03703   2.04663   2.04856   2.05016
 Alpha virt. eigenvalues --    2.05246   2.06102   2.06320   2.07224   2.08037
 Alpha virt. eigenvalues --    2.08628   2.08818   2.09186   2.09369   2.10213
 Alpha virt. eigenvalues --    2.10556   2.10908   2.11654   2.12097   2.12534
 Alpha virt. eigenvalues --    2.12707   2.13673   2.14061   2.15402   2.16258
 Alpha virt. eigenvalues --    2.17174   2.17500   2.17789   2.18087   2.18587
 Alpha virt. eigenvalues --    2.19236   2.19539   2.20729   2.21141   2.21591
 Alpha virt. eigenvalues --    2.22545   2.23061   2.24274   2.24667   2.25793
 Alpha virt. eigenvalues --    2.26085   2.26821   2.27144   2.27235   2.28263
 Alpha virt. eigenvalues --    2.28309   2.29204   2.29690   2.30055   2.30204
 Alpha virt. eigenvalues --    2.30916   2.31383   2.31439   2.32516   2.32941
 Alpha virt. eigenvalues --    2.33632   2.34176   2.34452   2.34826   2.35158
 Alpha virt. eigenvalues --    2.35459   2.36215   2.36398   2.36841   2.37437
 Alpha virt. eigenvalues --    2.37741   2.37897   2.38361   2.38963   2.39200
 Alpha virt. eigenvalues --    2.39938   2.40206   2.40790   2.41222   2.41544
 Alpha virt. eigenvalues --    2.42281   2.42879   2.42952   2.43378   2.44324
 Alpha virt. eigenvalues --    2.44382   2.44830   2.45538   2.45717   2.46591
 Alpha virt. eigenvalues --    2.47268   2.47589   2.48261   2.48883   2.49437
 Alpha virt. eigenvalues --    2.50097   2.51054   2.51160   2.51966   2.52230
 Alpha virt. eigenvalues --    2.52980   2.53703   2.54213   2.54342   2.55138
 Alpha virt. eigenvalues --    2.56086   2.56406   2.56536   2.57760   2.58410
 Alpha virt. eigenvalues --    2.59037   2.59602   2.59878   2.60218   2.61175
 Alpha virt. eigenvalues --    2.61832   2.62269   2.63068   2.63559   2.63882
 Alpha virt. eigenvalues --    2.64104   2.64673   2.64928   2.65831   2.66083
 Alpha virt. eigenvalues --    2.66374   2.66958   2.67591   2.67685   2.68233
 Alpha virt. eigenvalues --    2.69139   2.69528   2.70366   2.70917   2.71423
 Alpha virt. eigenvalues --    2.71591   2.71828   2.72194   2.72700   2.73455
 Alpha virt. eigenvalues --    2.73752   2.74810   2.75636   2.76045   2.76278
 Alpha virt. eigenvalues --    2.76509   2.77223   2.77579   2.78322   2.78977
 Alpha virt. eigenvalues --    2.79174   2.80114   2.80485   2.81361   2.81475
 Alpha virt. eigenvalues --    2.82246   2.82309   2.83181   2.83526   2.83737
 Alpha virt. eigenvalues --    2.84165   2.85171   2.85793   2.87168   2.87478
 Alpha virt. eigenvalues --    2.87964   2.88831   2.89339   2.90343   2.91085
 Alpha virt. eigenvalues --    2.92181   2.92372   2.93500   2.93844   2.94464
 Alpha virt. eigenvalues --    2.95252   2.95896   2.96217   2.96278   2.96832
 Alpha virt. eigenvalues --    2.97537   2.98053   2.98171   2.98904   2.99410
 Alpha virt. eigenvalues --    3.00370   3.00993   3.02181   3.02399   3.04368
 Alpha virt. eigenvalues --    3.05310   3.05988   3.06568   3.07519   3.07840
 Alpha virt. eigenvalues --    3.08396   3.09210   3.09513   3.10575   3.11643
 Alpha virt. eigenvalues --    3.11739   3.12200   3.12512   3.15777   3.16140
 Alpha virt. eigenvalues --    3.16377   3.16947   3.18121   3.20147   3.20322
 Alpha virt. eigenvalues --    3.21083   3.21612   3.24554   3.24974   3.25968
 Alpha virt. eigenvalues --    3.26334   3.27238   3.28467   3.29927   3.30448
 Alpha virt. eigenvalues --    3.31097   3.31846   3.33650   3.33975   3.35093
 Alpha virt. eigenvalues --    3.35849   3.36895   3.38190   3.39870   3.40743
 Alpha virt. eigenvalues --    3.43143   3.45353   3.46826   3.51255   3.53439
 Alpha virt. eigenvalues --    3.55698   3.61776   3.67655   3.69032   3.69306
 Alpha virt. eigenvalues --    3.70822   3.74819   3.76794   3.79680   3.82797
 Alpha virt. eigenvalues --    3.82869   3.84259   3.85939   3.90175   3.95873
 Alpha virt. eigenvalues --    3.96972   3.97998   4.01082   4.07459   4.15190
 Alpha virt. eigenvalues --    4.30370   4.32729   4.54192   4.64119   4.91980
 Alpha virt. eigenvalues --    5.09413   5.14088   5.31604
          Condensed to atoms (all electrons):
 Mulliken charges:
               1
     1  C    0.767917
     2  C    0.507706
     3  C    0.387444
     4  C    0.565093
     5  H   -0.831476
     6  C    0.785470
     7  C    0.536963
     8  H   -0.750375
     9  C    0.378376
    10  C    0.289833
    11  H   -0.879763
    12  C    0.618440
    13  C    1.336555
    14  C   -2.383228
    15  N   -0.615950
    16  N   -0.158574
    17  C   -2.241859
    18  C    1.335191
    19  N   -0.296947
    20  N   -0.630657
    21  C   -2.347828
    22  C    1.343833
    23  N   -0.135129
    24  N   -0.604854
    25  H   -0.085129
    26  H   -0.421842
    27  H    0.103564
    28  H   -0.400624
    29  H    0.099676
    30  H   -0.057508
    31  H    0.096575
    32  H   -0.350340
    33  H   -0.294361
    34  H   -0.212805
    35  H   -0.284585
    36  H   -0.206320
    37  C    1.267071
    38  H   -0.162599
    39  H   -0.037012
    40  H   -0.100595
    41  H   -0.081267
    42  C    1.014291
    43  C    1.022012
    44  H   -0.038852
    45  H   -0.038063
    46  H   -0.017194
    47  C    1.116989
    48  H   -0.083346
    49  H   -0.017835
    50  H   -0.091218
    51  C    1.015986
    52  H   -0.039223
    53  H   -0.003594
    54  H   -0.030531
    55  C    1.219363
    56  H   -0.103044
    57  H   -0.172808
    58  H   -0.030319
    59  H   -0.029635
    60  H   -0.045015
    61  H   -0.004965
    62  H   -0.204599
    63  H   -0.286479
 Sum of Mulliken charges =   0.00000
 Mulliken charges with hydrogens summed into heavy atoms:
               1
     1  C    0.767917
     2  C    0.107082
     3  C   -0.444032
     4  C    0.565093
     6  C    0.035095
     7  C    0.536963
     9  C   -0.501387
    10  C   -0.132009
    12  C    0.268100
    13  C    0.845476
    14  C   -2.383228
    15  N   -0.516274
    16  N   -0.239842
    17  C   -2.241859
    18  C    0.828024
    19  N   -0.354455
    20  N   -0.534082
    21  C   -2.347828
    22  C    0.852929
    23  N   -0.220257
    24  N   -0.501290
    37  C    0.966864
    42  C    0.934676
    43  C    0.927903
    47  C    0.924591
    51  C    0.942638
    55  C    0.913191
 Electronic spatial extent (au):  <R**2>=          13908.3666
 Charge=              0.0000 electrons
 Dipole moment (field-independent basis, Debye):
    X=              0.8331    Y=              0.8578    Z=             -0.8880  Tot=              1.4894
 Quadrupole moment (field-independent basis, Debye-Ang):
   XX=           -146.3788   YY=           -160.8082   ZZ=           -169.6875
   XY=             -0.1979   XZ=              5.9407   YZ=             -5.3909
 Traceless Quadrupole moment (field-independent basis, Debye-Ang):
   XX=             12.5794   YY=             -1.8500   ZZ=            -10.7294
   XY=             -0.1979   XZ=              5.9407   YZ=             -5.3909
 Octapole moment (field-independent basis, Debye-Ang**2):
  XXX=            -55.5564  YYY=             21.9899  ZZZ=             -4.6391  XYY=             41.7650
  XXY=            -25.8077  XXZ=             -8.7456  XZZ=              8.5899  YZZ=             13.7229
  YYZ=             -0.1794  XYZ=            -12.8821
 Hexadecapole moment (field-independent basis, Debye-Ang**3):
 XXXX=         -11831.6603 YYYY=          -5762.1163 ZZZZ=           -888.5925 XXXY=            -53.4798
 XXXZ=            -57.9331 YYYX=             46.6957 YYYZ=            -62.8179 ZZZX=             37.3478
 ZZZY=            -42.2800 XXYY=          -2976.8487 XXZZ=          -2144.5145 YYZZ=          -1186.3283
 XXYZ=             70.3636 YYXZ=             75.9106 ZZXY=             -6.7191
 N-N= 2.612923762672D+03 E-N=-7.893682551706D+03  KE= 1.142557891559D+03
 Leave Link  601 at Mon Oct 25 21:30:33 2021, MaxMem=  7864320000 cpu:              28.1 elap:               1.1
 (Enter /apps/gaussian/g16-c01-avx/g16/l9999.exe)
 Unable to Open any file for archive entry.
 1\1\GINC-CX3-2-25\SP\RMP2-FC\Aug-CC-pVDZ\C21H36N6\ATARZIA\25-Oct-2021\
 0\\#P MP2/aug-cc-pVDZ SP SCF=(YQC,MaxCycle=900) int=(Grid=Superfinegri
 d) SCRF=(PCM,Solvent=Chloroform)\\_1_alde1_3_ami2_1_opt_cfm_mp2\\0,1\C
 ,0,-1.7959,1.1135,-0.9944\C,0,-2.1743,0.3463,0.2446\C,0,-2.7535,1.5642
 ,-1.8882\C,0,-2.3758,2.2388,-3.041\H,0,-3.8036,1.4064,-1.6938\C,0,-1.0
 31,2.4581,-3.2997\C,0,-0.0653,2.0086,-2.4125\H,0,-0.736,2.9821,-4.1973
 \C,0,-0.4548,1.3381,-1.2637\C,0,1.4,2.2633,-2.6464\H,0,0.2944,0.9877,-
 0.5709\C,0,-3.4277,2.6824,-4.0225\C,0,-1.8146,-1.593,1.4086\C,0,-1.088
 1,-0.4754,2.2041\N,0,-1.9782,-1.0827,0.0581\N,0,-1.3111,0.711,1.3741\C
 ,0,-5.793,2.7805,-4.2541\C,0,-5.1113,2.0011,-5.4124\N,0,-4.6737,3.0574
 ,-3.351\N,0,-3.8028,1.6017,-4.921\C,0,3.4808,1.5797,-1.7\C,0,3.3091,3.
 1225,-1.7192\N,0,2.2051,1.1049,-2.2417\N,0,1.8811,3.3665,-1.8303\H,0,2
 .3164,0.4328,-2.9885\H,0,1.5708,2.5375,-3.7042\H,0,1.4467,3.298,-0.913
 7\H,0,-3.2447,0.5045,0.4734\H,0,-1.1201,-1.2206,-0.4694\H,0,-4.6621,4.
 0094,-3.0106\H,0,-3.884,0.7482,-4.3747\H,0,-3.029,3.5027,-4.6501\H,0,-
 4.9574,2.6663,-6.2684\H,0,-5.6879,1.1382,-5.7401\H,0,3.79,3.5389,-2.61
 06\H,0,3.724,3.6085,-0.8382\C,0,0.4204,-0.7422,2.2715\H,0,0.8193,-0.88
 98,1.2708\H,0,0.6262,-1.627,2.8693\H,0,0.9274,0.1098,2.718\H,0,-1.6712
 ,1.4983,1.8961\C,0,-1.6597,-0.3231,3.6131\C,0,-6.4716,4.0544,-4.7594\H
 ,0,-7.2353,3.8091,-5.494\H,0,-5.7423,4.715,-5.226\H,0,-6.9436,4.5838,-
 3.9337\C,0,-6.807,1.8997,-3.5161\H,0,-6.3323,0.9773,-3.1906\H,0,-7.645
 9,1.6579,-4.1643\H,0,-7.1796,2.4198,-2.637\C,0,4.6782,1.135,-2.5389\H,
 0,4.5555,1.4479,-3.5748\H,0,4.7772,0.0514,-2.5112\H,0,5.5939,1.5758,-2
 .1515\C,0,3.6195,1.0608,-0.2637\H,0,3.6096,-0.0264,-0.2604\H,0,2.7875,
 1.4109,0.3424\H,0,4.5508,1.4056,0.1793\H,0,-1.5464,-1.2519,4.1677\H,0,
 -2.7188,-0.0733,3.5704\H,0,-1.1363,0.4661,4.1497\H,0,-1.2737,-2.5374,1
 .4097\H,0,-2.813,-1.7582,1.8272\\Version=ES64L-G16RevC.01\State=1-A\HF
 =-1143.0118035\MP2=-1147.1009295\RMSD=7.663e-09\PG=C01 [X(C21H36N6)]\\
 @
 The archive entry for this job was punched.


 You never know when you're making a memory.
                        -- Rickie Lee Jones
 Job cpu time:       2 days 18 hours 17 minutes 11.5 seconds.
 Elapsed time:       0 days  2 hours  8 minutes 52.4 seconds.
 File lengths (MBytes):  RWF= 582320 Int=      0 D2E=      0 Chk=     72 Scr=     16
 Normal termination of Gaussian 16 at Mon Oct 25 21:30:34 2021.
