 Entering Gaussian System, Link 0=g16
 Initial command:
 /apps/gaussian/g16-c01-avx/g16/l1.exe "/rds/general/ephemeral/user/atarzia/ephemeral/Gau-2739714.inp" -scrdir="/rds/general/ephemeral/user/atarzia/ephemeral/"
 Entering Link 1 = /apps/gaussian/g16-c01-avx/g16/l1.exe PID=   2739715.
  
 Copyright (c) 1988-2019, Gaussian, Inc.  All Rights Reserved.
  
 This is part of the Gaussian(R) 16 program.  It is based on
 the Gaussian(R) 09 system (copyright 2009, Gaussian, Inc.),
 the Gaussian(R) 03 system (copyright 2003, Gaussian, Inc.),
 the Gaussian(R) 98 system (copyright 1998, Gaussian, Inc.),
 the Gaussian(R) 94 system (copyright 1995, Gaussian, Inc.),
 the Gaussian 92(TM) system (copyright 1992, Gaussian, Inc.),
 the Gaussian 90(TM) system (copyright 1990, Gaussian, Inc.),
 the Gaussian 88(TM) system (copyright 1988, Gaussian, Inc.),
 the Gaussian 86(TM) system (copyright 1986, Carnegie Mellon
 University), and the Gaussian 82(TM) system (copyright 1983,
 Carnegie Mellon University). Gaussian is a federally registered
 trademark of Gaussian, Inc.
  
 This software contains proprietary and confidential information,
 including trade secrets, belonging to Gaussian, Inc.
  
 This software is provided under written license and may be
 used, copied, transmitted, or stored only in accord with that
 written license.
  
 The following legend is applicable only to US Government
 contracts under FAR:
  
                    RESTRICTED RIGHTS LEGEND
  
 Use, reproduction and disclosure by the US Government is
 subject to restrictions as set forth in subparagraphs (a)
 and (c) of the Commercial Computer Software - Restricted
 Rights clause in FAR 52.227-19.
  
 Gaussian, Inc.
 340 Quinnipiac St., Bldg. 40, Wallingford CT 06492
  
  
 ---------------------------------------------------------------
 Warning -- This program may not be used in any manner that
 competes with the business of Gaussian, Inc. or will provide
 assistance to any competitor of Gaussian, Inc.  The licensee
 of this program is prohibited from giving any competitor of
 Gaussian, Inc. access to this program.  By using this program,
 the user acknowledges that Gaussian, Inc. is engaged in the
 business of creating and licensing software in the field of
 computational chemistry and represents and warrants to the
 licensee that it is not a competitor of Gaussian, Inc. and that
 it will not use this program in any manner prohibited above.
 ---------------------------------------------------------------
  

 Cite this work as:
 Gaussian 16, Revision C.01,
 M. J. Frisch, G. W. Trucks, H. B. Schlegel, G. E. Scuseria, 
 M. A. Robb, J. R. Cheeseman, G. Scalmani, V. Barone, 
 G. A. Petersson, H. Nakatsuji, X. Li, M. Caricato, A. V. Marenich, 
 J. Bloino, B. G. Janesko, R. Gomperts, B. Mennucci, H. P. Hratchian, 
 J. V. Ortiz, A. F. Izmaylov, J. L. Sonnenberg, D. Williams-Young, 
 F. Ding, F. Lipparini, F. Egidi, J. Goings, B. Peng, A. Petrone, 
 T. Henderson, D. Ranasinghe, V. G. Zakrzewski, J. Gao, N. Rega, 
 G. Zheng, W. Liang, M. Hada, M. Ehara, K. Toyota, R. Fukuda, 
 J. Hasegawa, M. Ishida, T. Nakajima, Y. Honda, O. Kitao, H. Nakai, 
 T. Vreven, K. Throssell, J. A. Montgomery, Jr., J. E. Peralta, 
 F. Ogliaro, M. J. Bearpark, J. J. Heyd, E. N. Brothers, K. N. Kudin, 
 V. N. Staroverov, T. A. Keith, R. Kobayashi, J. Normand, 
 K. Raghavachari, A. P. Rendell, J. C. Burant, S. S. Iyengar, 
 J. Tomasi, M. Cossi, J. M. Millam, M. Klene, C. Adamo, R. Cammi, 
 J. W. Ochterski, R. L. Martin, K. Morokuma, O. Farkas, 
 J. B. Foresman, and D. J. Fox, Gaussian, Inc., Wallingford CT, 2019.
 
 ******************************************
 Gaussian 16:  ES64L-G16RevC.01  3-Jul-2019
                18-Oct-2021 
 ******************************************
 %chk=_1_alde1_2_ami4_1_opt_dcm.chk
 %mem=60000mb
 %nprocshared=32
 Will use up to   32 processors via shared memory.
 ----------------------------------------------------------------------
 #P PBE1PBE/Def2TZVP SP SCF=(YQC,MaxCycle=900) int=(Grid=Superfinegrid)
  EmpiricalDispersion=GD3 SCRF=(PCM,Solvent=Dichloromethane)
 ----------------------------------------------------------------------
 1/38=1,172=1/1;
 2/12=2,17=6,18=5,40=1/2;
 3/5=44,7=101,11=2,25=1,30=1,70=2201,72=9,74=-13,75=-7,124=31/1,2,3;
 4//1;
 5/5=2,7=900,8=4,13=1,38=1,53=9/8,2,8;
 6/7=2,8=2,9=2,10=2,28=1/1;
 99/5=1,9=1/99;
 Leave Link    1 at Mon Oct 18 05:54:30 2021, MaxMem=  7864320000 cpu:               5.4 elap:               0.2
 (Enter /apps/gaussian/g16-c01-avx/g16/l101.exe)
 -------------------------
 _1_alde1_2_ami4_1_opt_dcm
 -------------------------
 Symbolic Z-matrix:
 Charge =  0 Multiplicity = 1
 C                    -1.2081    1.2297   -0.1228 
 C                    -1.0556    0.6211    1.2033 
 C                    -2.4766    1.4984   -0.6334 
 C                    -2.6146    2.0807   -1.883 
 H                    -3.356     1.2484   -0.0576 
 C                    -1.4808    2.3881   -2.6243 
 C                    -0.2111    2.1285   -2.1253 
 H                    -1.6062    2.843    -3.5951 
 C                    -0.0782    1.5507   -0.8741 
 C                     1.0191    2.5068   -2.9094 
 H                     0.9004    1.3279   -0.4768 
 C                    -3.9923    2.3251   -2.4453 
 O                    -0.0081    0.3869    1.7505 
 C                    -5.5878    1.5264   -3.8781 
 C                    -4.9697    2.7665   -4.557 
 N                    -4.5833    1.085    -2.9242 
 H                    -5.8459    0.7335   -4.5769 
 N                    -3.9713    3.2368   -3.5993 
 H                    -5.7208    3.5229   -4.7941 
 C                     3.3462    2.2493   -2.5312 
 C                     2.9623    3.7196   -2.7884 
 N                     2.0961    1.5176   -2.7197 
 H                     3.6755    2.1176   -1.4934 
 N                     1.5473    3.7867   -2.4604 
 H                     3.0732    3.9609   -3.8504 
 H                     2.1383    0.8664   -3.4915 
 H                     0.7566    2.6157   -3.9762 
 H                     1.4349    3.8507   -1.4519 
 H                    -3.8667    0.5472   -3.4049 
 H                    -4.116     4.1968   -3.3175 
 H                    -4.6488    2.7062   -1.6406 
 H                    -2.0206    0.383     1.6956 
 H                    -4.4578    2.4838   -5.4847 
 H                     4.1404    1.9011   -3.1931 
 H                    -6.4823    1.8097   -3.3146 
 H                     3.5392    4.4302   -2.2002 
 
 ITRead=  0  0  0  0  0  0  0  0  0  0  0  0  0  0  0  0  0  0  0  0
 ITRead=  0  0  0  0  0  0  0  0  0  0  0  0  0  0  0  0
 MicOpt= -1 -1 -1 -1 -1 -1 -1 -1 -1 -1 -1 -1 -1 -1 -1 -1 -1 -1 -1 -1
 MicOpt= -1 -1 -1 -1 -1 -1 -1 -1 -1 -1 -1 -1 -1 -1 -1 -1
 NAtoms=     36 NQM=       36 NQMF=       0 NMMI=      0 NMMIF=      0
                NMic=       0 NMicF=      0.
                    Isotopes and Nuclear Properties:
 (Nuclear quadrupole moments (NQMom) in fm**2, nuclear magnetic moments (NMagM)
  in nuclear magnetons)

  Atom         1           2           3           4           5           6           7           8           9          10
 IAtWgt=          12          12          12          12           1          12          12           1          12          12
 AtmWgt=  12.0000000  12.0000000  12.0000000  12.0000000   1.0078250  12.0000000  12.0000000   1.0078250  12.0000000  12.0000000
 NucSpn=           0           0           0           0           1           0           0           1           0           0
 AtZEff=  -0.0000000  -0.0000000  -0.0000000  -0.0000000  -0.0000000  -0.0000000  -0.0000000  -0.0000000  -0.0000000  -0.0000000
 NQMom=    0.0000000   0.0000000   0.0000000   0.0000000   0.0000000   0.0000000   0.0000000   0.0000000   0.0000000   0.0000000
 NMagM=    0.0000000   0.0000000   0.0000000   0.0000000   2.7928460   0.0000000   0.0000000   2.7928460   0.0000000   0.0000000
 AtZNuc=   6.0000000   6.0000000   6.0000000   6.0000000   1.0000000   6.0000000   6.0000000   1.0000000   6.0000000   6.0000000

  Atom        11          12          13          14          15          16          17          18          19          20
 IAtWgt=           1          12          16          12          12          14           1          14           1          12
 AtmWgt=   1.0078250  12.0000000  15.9949146  12.0000000  12.0000000  14.0030740   1.0078250  14.0030740   1.0078250  12.0000000
 NucSpn=           1           0           0           0           0           2           1           2           1           0
 AtZEff=  -0.0000000  -0.0000000  -0.0000000  -0.0000000  -0.0000000  -0.0000000  -0.0000000  -0.0000000  -0.0000000  -0.0000000
 NQMom=    0.0000000   0.0000000   0.0000000   0.0000000   0.0000000   2.0440000   0.0000000   2.0440000   0.0000000   0.0000000
 NMagM=    2.7928460   0.0000000   0.0000000   0.0000000   0.0000000   0.4037610   2.7928460   0.4037610   2.7928460   0.0000000
 AtZNuc=   1.0000000   6.0000000   8.0000000   6.0000000   6.0000000   7.0000000   1.0000000   7.0000000   1.0000000   6.0000000

  Atom        21          22          23          24          25          26          27          28          29          30
 IAtWgt=          12          14           1          14           1           1           1           1           1           1
 AtmWgt=  12.0000000  14.0030740   1.0078250  14.0030740   1.0078250   1.0078250   1.0078250   1.0078250   1.0078250   1.0078250
 NucSpn=           0           2           1           2           1           1           1           1           1           1
 AtZEff=  -0.0000000  -0.0000000  -0.0000000  -0.0000000  -0.0000000  -0.0000000  -0.0000000  -0.0000000  -0.0000000  -0.0000000
 NQMom=    0.0000000   2.0440000   0.0000000   2.0440000   0.0000000   0.0000000   0.0000000   0.0000000   0.0000000   0.0000000
 NMagM=    0.0000000   0.4037610   2.7928460   0.4037610   2.7928460   2.7928460   2.7928460   2.7928460   2.7928460   2.7928460
 AtZNuc=   6.0000000   7.0000000   1.0000000   7.0000000   1.0000000   1.0000000   1.0000000   1.0000000   1.0000000   1.0000000

  Atom        31          32          33          34          35          36
 IAtWgt=           1           1           1           1           1           1
 AtmWgt=   1.0078250   1.0078250   1.0078250   1.0078250   1.0078250   1.0078250
 NucSpn=           1           1           1           1           1           1
 AtZEff=  -0.0000000  -0.0000000  -0.0000000  -0.0000000  -0.0000000  -0.0000000
 NQMom=    0.0000000   0.0000000   0.0000000   0.0000000   0.0000000   0.0000000
 NMagM=    2.7928460   2.7928460   2.7928460   2.7928460   2.7928460   2.7928460
 AtZNuc=   1.0000000   1.0000000   1.0000000   1.0000000   1.0000000   1.0000000
 Leave Link  101 at Mon Oct 18 05:54:30 2021, MaxMem=  7864320000 cpu:               2.2 elap:               0.1
 (Enter /apps/gaussian/g16-c01-avx/g16/l202.exe)
                          Input orientation:                          
 ---------------------------------------------------------------------
 Center     Atomic      Atomic             Coordinates (Angstroms)
 Number     Number       Type             X           Y           Z
 ---------------------------------------------------------------------
      1          6           0       -1.208100    1.229700   -0.122800
      2          6           0       -1.055600    0.621100    1.203300
      3          6           0       -2.476600    1.498400   -0.633400
      4          6           0       -2.614600    2.080700   -1.883000
      5          1           0       -3.356000    1.248400   -0.057600
      6          6           0       -1.480800    2.388100   -2.624300
      7          6           0       -0.211100    2.128500   -2.125300
      8          1           0       -1.606200    2.843000   -3.595100
      9          6           0       -0.078200    1.550700   -0.874100
     10          6           0        1.019100    2.506800   -2.909400
     11          1           0        0.900400    1.327900   -0.476800
     12          6           0       -3.992300    2.325100   -2.445300
     13          8           0       -0.008100    0.386900    1.750500
     14          6           0       -5.587800    1.526400   -3.878100
     15          6           0       -4.969700    2.766500   -4.557000
     16          7           0       -4.583300    1.085000   -2.924200
     17          1           0       -5.845900    0.733500   -4.576900
     18          7           0       -3.971300    3.236800   -3.599300
     19          1           0       -5.720800    3.522900   -4.794100
     20          6           0        3.346200    2.249300   -2.531200
     21          6           0        2.962300    3.719600   -2.788400
     22          7           0        2.096100    1.517600   -2.719700
     23          1           0        3.675500    2.117600   -1.493400
     24          7           0        1.547300    3.786700   -2.460400
     25          1           0        3.073200    3.960900   -3.850400
     26          1           0        2.138300    0.866400   -3.491500
     27          1           0        0.756600    2.615700   -3.976200
     28          1           0        1.434900    3.850700   -1.451900
     29          1           0       -3.866700    0.547200   -3.404900
     30          1           0       -4.116000    4.196800   -3.317500
     31          1           0       -4.648800    2.706200   -1.640600
     32          1           0       -2.020600    0.383000    1.695600
     33          1           0       -4.457800    2.483800   -5.484700
     34          1           0        4.140400    1.901100   -3.193100
     35          1           0       -6.482300    1.809700   -3.314600
     36          1           0        3.539200    4.430200   -2.200200
 ---------------------------------------------------------------------
                    Distance matrix (angstroms):
                    1          2          3          4          5
     1  C    0.000000
     2  C    1.467035   0.000000
     3  C    1.393558   2.482411   0.000000
     4  C    2.408474   3.753153   1.385503   0.000000
     5  H    2.148971   2.697261   1.080458   2.138804   0.000000
     6  C    2.770155   4.237170   2.397262   1.389073   3.376868
     7  C    2.410779   3.750335   2.784831   2.416155   3.865276
     8  H    3.849427   5.316450   3.367078   2.128205   4.256578
     9  C    1.394334   2.476905   2.411015   2.780666   3.391464
    10  C    3.789003   4.977404   4.291499   3.799847   5.371949
    11  H    2.140264   2.673619   3.384926   3.859965   4.277732
    12  C    3.787569   4.983985   2.502751   1.507969   2.695417
    13  O    2.378984   1.204796   3.607202   4.781749   3.901262
    14  C    5.776857   6.868845   4.495378   3.623202   4.433332
    15  C    6.014442   7.287247   4.818533   3.628649   5.015302
    16  N    4.388708   5.449415   3.139562   2.439528   3.122557
    17  H    6.449373   7.508017   5.242943   4.417391   5.185441
    18  N    4.873374   6.197432   3.748697   2.474447   4.108037
    19  H    6.887980   8.133470   5.651094   4.494766   5.761949
    20  C    5.251821   5.997780   6.170129   5.998310   7.213874
    21  C    5.540511   6.455842   6.257746   5.882819   7.313345
    22  N    4.212424   5.111443   5.026192   4.817452   6.073273
    23  H    5.149414   5.647567   6.242703   6.302262   7.229040
    24  N    4.426607   5.497164   4.976547   4.534891   6.021525
    25  H    6.299523   7.330835   6.871192   6.305306   7.942141
    26  H    4.762197   5.683513   5.464930   5.162543   6.490372
    27  H    4.541997   5.838640   4.782913   4.004085   5.842809
    28  H    3.952417   4.866518   4.637142   4.440405   5.627500
    29  H    4.278568   5.398449   3.243204   2.497110   3.457877
    30  H    5.240770   6.526049   4.144079   2.964772   4.460674
    31  H    4.040072   5.034530   2.681732   2.141957   2.510458
    32  H    2.164171   1.109178   2.622269   4.005172   2.367683
    33  H    6.394004   7.731362   5.332099   4.065971   5.673940
    34  H    6.203545   6.925688   7.106259   6.883215   8.151895
    35  H    6.192025   7.160535   4.830256   4.133040   4.549380
    36  H    6.090620   6.870607   6.873148   6.594696   7.890397
                    6          7          8          9         10
     6  C    0.000000
     7  C    1.388716   0.000000
     8  H    1.079403   2.148750   0.000000
     9  C    2.394102   1.384564   3.377671   0.000000
    10  C    2.518903   1.507088   2.734121   2.502127   0.000000
    11  H    3.377261   2.143349   4.278127   1.079419   2.705816
    12  C    2.518659   3.799806   2.698839   4.288187   5.036123
    13  O    5.031155   4.253963   6.096047   2.871910   5.221473
    14  C    4.379725   5.687155   4.203173   6.275372   6.749125
    15  C    4.006362   5.381866   3.499176   6.242491   6.216732
    16  N    3.378390   4.565443   3.521902   4.971490   5.780019
    17  H    5.060084   6.301376   4.836215   6.902529   7.283775
    18  N    2.805977   4.188091   2.397664   5.042408   5.090477
    19  H    4.896264   6.278825   4.339332   7.148070   7.071832
    20  C    4.829893   3.582420   5.100062   3.867885   2.371653
    21  C    4.641224   3.611339   4.721269   4.196822   2.293807
    22  N    3.682538   2.459610   4.028652   2.852177   1.474595
    23  H    5.285786   3.937649   5.730594   3.846449   3.035291
    24  N    3.339511   2.440059   3.481763   3.187208   1.455589
    25  H    4.971513   4.137667   4.817848   4.959712   2.686860
    26  H    4.020633   2.996511   4.235441   3.497416   2.069387
    27  H    2.624003   2.144677   2.404106   3.384397   1.104005
    28  H    3.466270   2.475633   3.854485   2.813063   2.025651
    29  H    3.113000   4.183455   3.227497   4.665265   5.287400
    30  H    3.270505   4.576838   2.865123   5.410719   5.421429
    31  H    3.332428   4.501317   3.618867   4.776305   5.811601
    32  H    4.793052   4.573876   5.849345   3.426339   5.912388
    33  H    4.129598   5.426441   3.439656   6.427224   6.052201
    34  H    5.670855   4.486364   5.837139   4.826710   3.192158
    35  H    5.081935   6.390932   4.992268   6.858252   7.544610
    36  H    5.436031   4.400930   5.562382   4.809953   3.248590
                   11         12         13         14         15
    11  H    0.000000
    12  C    5.367300   0.000000
    13  O    2.582967   6.102066   0.000000
    14  C    7.328368   2.288331   8.007038   0.000000
    15  C    7.292165   2.368422   8.370456   1.542984   0.000000
    16  N    6.009969   1.454811   6.578193   1.453884   2.375454
    17  H    7.916861   3.242336   8.616033   1.087946   2.213868
    18  N    6.093223   1.470834   7.242185   2.369867   1.461223
    19  H    8.203499   3.152665   9.235866   2.200627   1.092020
    20  C    3.324376   7.339394   5.749158   9.063834   8.574704
    21  C    3.913458   7.101324   6.366457   8.893918   8.182479
    22  N    2.548781   6.147842   5.068415   7.770733   7.406818
    23  H    3.059131   7.729445   5.204529   9.583582   9.194901
    24  N    3.224724   5.729195   5.631127   7.617643   6.921548
    25  H    4.799471   7.387248   7.323795   8.996693   8.161747
    26  H    3.291473   6.388004   5.684674   7.763870   7.434335
    27  H    3.731609   4.998015   6.192528   6.437982   5.757654
    28  H    2.756997   5.724404   4.933105   7.785058   7.199725
    29  H    5.648761   2.024237   6.441478   2.035912   2.732990
    30  H    6.439288   2.068646   7.554787   3.100243   2.076276
    31  H    5.835046   1.106242   6.197968   2.698158   2.934621
    32  H    3.760904   4.980603   2.013252   6.715535   7.312542
    33  H    7.424653   3.078933   8.748996   2.185104   1.096626
    34  H    4.266667   8.178006   6.628879   9.759483   9.252192
    35  H    7.923983   2.687270   8.342354   1.094496   2.178757
    36  H    4.422402   7.824002   6.673803   9.723658   8.984642
                   16         17         18         19         20
    16  N    0.000000
    17  H    2.109296   0.000000
    18  N    2.336781   3.276635   0.000000
    19  H    3.276246   2.800639   2.137791   0.000000
    20  C    8.024152   9.538199   7.460684   9.431504   0.000000
    21  C    7.993475   9.471004   6.997533   8.913908   1.541205
    22  N    6.696518   8.193862   6.367314   8.332364   1.460708
    23  H    8.445190  10.103503   8.010055  10.057830   1.096728
    24  N    6.715545   8.274117   5.661663   7.638130   2.367415
    25  H    8.231078   9.512847   7.086067   8.855329   2.178163
    26  H    6.749039   8.058735   6.554207   8.397572   2.072103
    27  H    5.653696   6.891772   4.783394   6.591562   2.988026
    28  H    6.784946   8.514259   5.849376   7.904543   2.717064
    29  H    1.016768   2.307710   2.698644   3.771254   7.462334
    30  H    3.171175   4.071006   1.010915   2.282514   7.752126
    31  H    2.068867   3.734495   2.139404   3.429394   8.057416
    32  H    5.329427   7.355272   6.323399   8.103497   7.081769
    33  H    2.920368   2.411322   2.087684   1.775338   8.347489
    34  H    8.765915  10.149107   8.230964  10.121102   1.090921
    35  H    2.069735   1.776686   2.902204   2.388275   9.869467
    36  H    8.814167  10.363127   7.732354   9.659146   2.214302
                   21         22         23         24         25
    21  C    0.000000
    22  N    2.367240   0.000000
    23  H    2.179927   2.087658   0.000000
    24  N    1.454067   2.348879   2.872319   0.000000
    25  H    1.094700   2.864074   3.052207   2.071429   0.000000
    26  H    3.051897   1.010701   2.814407   3.152872   3.252503
    27  H    2.737622   2.139831   3.864243   2.072220   2.681795
    28  H    2.033807   2.736395   2.832957   1.016761   2.906712
    29  H    7.555093   6.079980   7.937554   6.379486   7.746872
    30  H    7.114070   6.791588   8.267883   5.742453   7.212782
    31  H    7.763586   6.933318   8.346382   6.342808   8.129377
    32  H    7.487887   6.142427   6.754562   6.448831   8.337043
    33  H    7.990940   7.178605   9.067257   6.848735   7.846574
    34  H    2.204233   2.133153   1.775383   3.288845   2.411169
    35  H    9.650133   8.603963  10.324363   8.313403   9.809298
    36  H    1.088001   3.291756   2.422037   2.109375   1.777796
                   26         27         28         29         30
    26  H    0.000000
    27  H    2.281245   0.000000
    28  H    3.682497   2.890918   0.000000
    29  H    6.014101   5.097056   6.544791   0.000000
    30  H    7.087885   5.164881   5.866237   3.659149   0.000000
    31  H    7.271549   5.889106   6.193294   2.895810   2.306026
    32  H    6.666043   6.698291   5.819981   5.426799   6.638294
    33  H    7.077949   5.429819   7.270200   2.902652   2.783514
    34  H    2.273335   3.545984   3.761974   8.123519   8.570522
    35  H    8.673860   7.313619   8.385546   2.905757   3.361195
    36  H    4.041120   3.766889   2.307347   8.448452   7.739827
                   31         32         33         34         35
    31  H    0.000000
    32  H    4.840963   0.000000
    33  H    3.855262   7.868292   0.000000
    34  H    8.961500   8.010115   8.917399   0.000000
    35  H    2.639642   6.858888   3.043410  10.623788   0.000000
    36  H    8.386219   7.903699   8.861626   2.782739  10.418223
                   36
    36  H    0.000000
 Stoichiometry    C13H18N4O
 Framework group  C1[X(C13H18N4O)]
 Deg. of freedom   102
 Full point group                 C1      NOp   1
 Largest Abelian subgroup         C1      NOp   1
 Largest concise Abelian subgroup C1      NOp   1
                         Standard orientation:                         
 ---------------------------------------------------------------------
 Center     Atomic      Atomic             Coordinates (Angstroms)
 Number     Number       Type             X           Y           Z
 ---------------------------------------------------------------------
      1          6           0        0.345219    2.086327   -0.123314
      2          6           0        0.749759    3.496334   -0.143748
      3          6           0       -0.990899    1.733669   -0.303384
      4          6           0       -1.366189    0.400017   -0.291220
      5          1           0       -1.738352    2.500354   -0.447950
      6          6           0       -0.402863   -0.580723   -0.092034
      7          6           0        0.932339   -0.242552    0.085187
      8          1           0       -0.712090   -1.614873   -0.087189
      9          6           0        1.303159    1.091315    0.067656
     10          6           0        1.983578   -1.309404    0.252632
     11          1           0        2.334033    1.373408    0.218878
     12          6           0       -2.820810    0.031850   -0.441217
     13          8           0        1.879064    3.902862   -0.039156
     14          6           0       -4.712246   -0.584450    0.689757
     15          6           0       -4.203105   -1.847941   -0.034928
     16          7           0       -3.547361    0.279155    0.794678
     17          1           0       -5.142493   -0.789728    1.667702
     18          7           0       -3.007799   -1.395451   -0.743214
     19          1           0       -4.957192   -2.271956   -0.701315
     20          6           0        4.326268   -1.257708    0.618511
     21          6           0        3.954482   -2.087118   -0.626145
     22          7           0        3.036929   -0.876182    1.189222
     23          1           0        4.861387   -0.347011    0.323400
     24          7           0        2.644042   -1.590282   -1.013715
     25          1           0        3.848523   -3.143829   -0.360621
     26          1           0        2.890163   -1.260928    2.112233
     27          1           0        1.506710   -2.246418    0.589425
     28          1           0        2.749181   -0.719188   -1.527469
     29          1           0       -2.969641   -0.017720    1.576932
     30          1           0       -3.052316   -1.562098   -1.739305
     31          1           0       -3.277693    0.672985   -1.218375
     32          1           0       -0.098431    4.199211   -0.273418
     33          1           0       -3.909534   -2.616772    0.689850
     34          1           0        4.949018   -1.812509    1.321709
     35          1           0       -5.456227   -0.068974    0.074373
     36          1           0        4.669620   -1.995228   -1.440933
 ---------------------------------------------------------------------
 Rotational constants (GHZ):           0.5786405           0.2492132           0.1862819
 Leave Link  202 at Mon Oct 18 05:54:30 2021, MaxMem=  7864320000 cpu:               0.2 elap:               0.0
 (Enter /apps/gaussian/g16-c01-avx/g16/l301.exe)
 Standard basis: def2TZVP (5D, 7F)
 Ernie: Thresh=  0.10000D-02 Tol=  0.10000D-05 Strict=F.
 There are   756 symmetry adapted cartesian basis functions of A   symmetry.
 There are   666 symmetry adapted basis functions of A   symmetry.
   666 basis functions,  1062 primitive gaussians,   756 cartesian basis functions
    66 alpha electrons       66 beta electrons
       nuclear repulsion energy      1303.0498299330 Hartrees.
 IExCor= 1009 DFT=T Ex+Corr=PBE1PBE ExCW=0 ScaHFX=  0.250000
 ScaDFX=  0.750000  0.750000  1.000000  1.000000 ScalE2=  1.000000  1.000000
 IRadAn=      7 IRanWt=     -1 IRanGd=            0 ICorTp=0 IEmpDi=131
 NAtoms=   36 NActive=   36 NUniq=   36 SFac= 1.00D+00 NAtFMM=   60 NAOKFM=F Big=F
 Integral buffers will be    131072 words long.
 Raffenetti 2 integral format.
 Two-electron integral symmetry is turned on.
 R6Disp:  Grimme-D3 Dispersion energy=       -0.0208087412 Hartrees.
 Nuclear repulsion after empirical dispersion term =     1303.0290211918 Hartrees.
 ------------------------------------------------------------------------------
 Polarizable Continuum Model (PCM)
 =================================
 Model                : PCM.
 Atomic radii         : UFF (Universal Force Field).
 Polarization charges : Total charges.
 Charge compensation  : None.
 Solution method      : On-the-fly selection.
 Cavity type          : Scaled VdW (van der Waals Surface) (Alpha=1.100).
 Cavity algorithm     : GePol (No added spheres)
                        Default sphere list used, NSphG=   36.
                        Lebedev-Laikov grids with approx.  5.0 points / Ang**2.
                        Smoothing algorithm: York/Karplus (Gamma=1.0000).
                        Polarization charges: spherical gaussians, with
                                              point-specific exponents (IZeta= 3).
                        Self-potential: point-specific (ISelfS= 7).
                        Self-field    : sphere-specific E.n sum rule (ISelfD= 2).
 Solvent              : Dichloromethane, Eps=   8.930000 Eps(inf)=   2.028346
 ------------------------------------------------------------------------------
 GePol: Number of generator spheres                  =      36
 GePol: Total number of spheres                      =      36
 GePol: Number of exposed spheres                    =      36 (100.00%)
 GePol: Number of points                             =    2571
 GePol: Average weight of points                     =       0.13
 GePol: Minimum weight of points                     =   0.22D-10
 GePol: Maximum weight of points                     =    0.20577
 GePol: Number of points with low weight             =     180
 GePol: Fraction of low-weight points (<1% of avg)   =       7.00%
 GePol: Cavity surface area                          =    334.240 Ang**2
 GePol: Cavity volume                                =    354.454 Ang**3
 Leave Link  301 at Mon Oct 18 05:54:30 2021, MaxMem=  7864320000 cpu:               1.8 elap:               0.1
 (Enter /apps/gaussian/g16-c01-avx/g16/l302.exe)
 NPDir=0 NMtPBC=     1 NCelOv=     1 NCel=       1 NClECP=     1 NCelD=      1
         NCelK=      1 NCelE2=     1 NClLst=     1 CellRange=     0.0.
 One-electron integrals computed using PRISM.
 One-electron integral symmetry used in STVInt
   1 Symmetry operations used in ECPInt.
 ECPInt:  NShTT=   36585 NPrTT=  110196 LenC2=   31862 LenP2D=   69474.
 LDataN:  DoStor=T MaxTD1= 6 Len=  172
 NBasis=   666 RedAO= T EigKep=  5.83D-06  NBF=   666
 NBsUse=   666 1.00D-06 EigRej= -1.00D+00 NBFU=   666
 Precomputing XC quadrature grid using
 IXCGrd= 4 IRadAn=           7 IRanWt=          -1 IRanGd=           0 AccXCQ= 0.00D+00.
 Generated NRdTot=       0 NPtTot=           0 NUsed=           0 NTot=          32
 NSgBfM=   746   746   746   746   746 MxSgAt=    36 MxSgA2=    36.
 Leave Link  302 at Mon Oct 18 05:54:32 2021, MaxMem=  7864320000 cpu:              41.6 elap:               1.3
 (Enter /apps/gaussian/g16-c01-avx/g16/l303.exe)
 DipDrv:  MaxL=1.
 Leave Link  303 at Mon Oct 18 05:54:32 2021, MaxMem=  7864320000 cpu:               3.4 elap:               0.1
 (Enter /apps/gaussian/g16-c01-avx/g16/l401.exe)
 ExpMin= 9.52D-02 ExpMax= 2.70D+04 ExpMxC= 9.22D+02 IAcc=3 IRadAn=         7 AccDes= 0.00D+00
 Harris functional with IExCor= 1009 and IRadAn=       7 diagonalized for initial guess.
 HarFok:  IExCor= 1009 AccDes= 0.00D+00 IRadAn=         7 IDoV= 1 UseB2=F ITyADJ=14
 ICtDFT=  3500011 ScaDFX=  1.000000  1.000000  1.000000  1.000000
 FoFCou: FMM=F IPFlag=           0 FMFlag=      100000 FMFlg1=           0
         NFxFlg=           0 DoJE=T BraDBF=F KetDBF=T FulRan=T
         wScrn=  0.000000 ICntrl=       500 IOpCl=  0 I1Cent=   200000004 NGrid=           0
         NMat0=    1 NMatS0=      1 NMatT0=    0 NMatD0=    1 NMtDS0=    0 NMtDT0=    0
 Petite list used in FoFCou.
 Harris En= -799.989103792559    
 JPrj=0 DoOrth=F DoCkMO=F.
 Leave Link  401 at Mon Oct 18 05:54:39 2021, MaxMem=  7864320000 cpu:             230.5 elap:               7.3
 (Enter /apps/gaussian/g16-c01-avx/g16/l508.exe)
 Integral symmetry usage will be decided dynamically.
 Tight linear equation convergence will be used.
 RPBE1PBE wavefunction.
 Linear searches until partial convergence.
 Full line searches.
 Fock matrices will be formed incrementally for  20 cycles.
 Inv3:  Mode=1 IEnd=    19830123.
 Iteration    1 A*A^-1 deviation from unit magnitude is 4.00D-15 for   2568.
 Iteration    1 A*A^-1 deviation from orthogonality  is 3.33D-15 for   2540   2118.
 Iteration    1 A^-1*A deviation from unit magnitude is 4.66D-15 for   2568.
 Iteration    1 A^-1*A deviation from orthogonality  is 2.75D-15 for   2554   2370.
 FoFJK:  IHMeth= 1 ICntrl=       0 DoSepK=F KAlg= 0 I1Cent=           0 FoldK=F
 IRaf= 800000000 NMat=       1 IRICut=       1 DoRegI=T DoRafI=F ISym2E= 1 IDoP0=0 IntGTp=1.
 Iteration   1 EE= -799.456027311008                                    Grad=9.263D-01 Max rot=    1.9845 deg.
 Gradient too large for Newton-Raphson -- use scaled steepest descent instead.
 Alpha Gap=     0.151 HL deriv= 1.46D-03
     ILin= 1 X=0.000D+00 Y=-7.994560273110D+02 DE= 0.00D+00 F= -1.51D+00
 RMSU=  1.53D-03    CP:  1.06D+00
     ILin= 2 X=3.000D-01 Y=-7.997555983574D+02 DE=-3.00D-01 F= -4.85D-01 OKLS=F
 RMSU=  1.87D-04    CP:  1.12D+00  1.80D+00
     ILin= 3 X=5.000D-01 Y=-7.997834457975D+02 DE=-3.27D-01 F=  2.08D-01
     Accept linear search using points  2 and  3.
     An  expanding polynomial of degree  3 produced  0.3917
 RMSU=  5.86D-08    CP:  1.09D+00  1.35D+00  3.59D-01
 Iteration   2 EE= -799.785578140421     Delta-E=       -0.329550829413 Grad=3.069D-01 Max rot=    1.3300 deg.
 Gradient too large for Newton-Raphson -- use scaled steepest descent instead.
 Alpha Gap=     0.188 HL deriv= 4.51D-03
     ILin= 1 X=0.000D+00 Y=-7.997855781404D+02 DE= 0.00D+00 F= -8.75D-02
 RMSU=  1.70D-04    CP:  1.09D+00  1.52D+00  5.35D-01 -3.00D+00
     ILin= 2 X=3.000D-01 Y=-7.998050729843D+02 DE=-1.95D-02 F= -4.25D-02 OKLS=F
 RMSU=  1.65D-05    CP:  1.10D+00  1.76D+00  8.85D-01 -3.00D+00  2.34D+00
     ILin= 3 X=7.000D-01 Y=-7.998101033682D+02 DE=-2.45D-02 F=  1.72D-02
     Accept linear search using points  2 and  3.
     An  expanding polynomial of degree  3 produced  0.5089
 RMSU=  4.37D-08    CP:  1.10D+00  1.64D+00  7.01D-01 -3.00D+00  1.70D+00
                    CP:  3.80D-01
 Iteration   3 EE= -799.810679112547     Delta-E=       -0.025100972126 Grad=1.325D-01 Max rot=    0.6239 deg.
 Gradient too large for Newton-Raphson -- use scaled steepest descent instead.
 Alpha Gap=     0.175 HL deriv= 8.55D-04
     ILin= 1 X=0.000D+00 Y=-7.998106791125D+02 DE= 0.00D+00 F= -1.32D-02
 RMSU=  1.15D-04    CP:  1.11D+00  1.80D+00  1.01D+00 -3.00D+00  2.18D+00
                    CP: -1.11D-01 -3.00D+00
     ILin= 2 X=4.000D-01 Y=-7.998138774704D+02 DE=-3.20D-03 F= -2.80D-03 OKLS=F
 RMSU=  7.35D-06    CP:  1.12D+00  2.01D+00  1.46D+00 -3.00D+00  2.79D+00
                    CP: -4.00D-01 -3.00D+00  2.28D+00
     ILin= 3 X=9.000D-01 Y=-7.998120144077D+02 DE=-1.34D-03 F=  1.03D-02
     An  expanding polynomial of degree  3 produced  0.5070
 RMSU=  2.05D-08    CP:  1.11D+00  1.84D+00  1.10D+00 -3.00D+00  2.31D+00
                    CP: -2.03D-01 -3.00D+00  1.27D+00  1.20D-01
 Iteration   4 EE= -799.814027439981     Delta-E=       -0.003348327434 Grad=6.612D-02 Max rot=    0.3077 deg.
 Gradient too large for Newton-Raphson -- use scaled steepest descent instead.
 Alpha Gap=     0.177 HL deriv= 8.83D-04
     ILin= 1 X=0.000D+00 Y=-7.998140274400D+02 DE= 0.00D+00 F= -3.55D-03
 RMSU=  5.92D-05    CP:  1.11D+00  1.89D+00  1.22D+00 -3.00D+00  2.84D+00
                    CP:  3.52D-01 -3.00D+00  1.30D+00 -3.00D+00  3.00D+00
     ILin= 2 X=5.000D-01 Y=-7.998147835172D+02 DE=-7.56D-04 F=  5.19D-04 OKLS=T
     Accept linear search using points  1 and  2.
     An  expanding polynomial of degree  2 produced  0.3117
 RMSU=  2.24D-06    CP:  1.11D+00  1.87D+00  1.18D+00 -3.00D+00  2.64D+00
                    CP:  1.29D-01 -3.00D+00  1.29D+00 -2.14D+00  3.00D+00
                    CP:  6.21D-01
 Iteration   5 EE= -799.814737446849     Delta-E=       -0.000710006868 Grad=3.949D-02 Max rot=    0.2050 deg.
 Gradient too large for Newton-Raphson -- use scaled steepest descent instead.
 Alpha Gap=     0.177 HL deriv= 3.08D-04
     ILin= 1 X=0.000D+00 Y=-7.998147374468D+02 DE= 0.00D+00 F= -6.78D-04
 RMSU=  7.71D-06    CP:  1.11D+00  1.91D+00  1.28D+00 -3.00D+00  2.89D+00
                    CP:  1.91D-01 -3.00D+00  1.54D+00 -3.00D+00  3.00D+00
                    CP:  1.00D+00  8.07D-01
     ILin= 2 X=4.000D-01 Y=-7.998149524254D+02 DE=-2.15D-04 F= -3.97D-04 OKLS=F
 RMSU=  2.15D-05    CP:  1.11D+00  1.96D+00  1.40D+00 -3.00D+00  3.00D+00
                    CP:  3.00D-01 -3.00D+00  1.79D+00 -3.00D+00  3.00D+00
                    CP:  1.39D+00 -2.05D+00  2.00D+00
     ILin= 3 X=8.000D-01 Y=-7.998150549659D+02 DE=-3.18D-04 F= -1.16D-04
 RMSU=  4.07D-05    CP:  1.12D+00  2.05D+00  1.64D+00 -3.00D+00  3.00D+00
                    CP:  6.59D-01 -3.00D+00  2.29D+00 -3.00D+00  3.00D+00
                    CP:  2.17D+00 -3.00D+00  3.00D+00  3.00D+00
     ILin= 4 X=1.600D+00 Y=-7.998149226667D+02 DE=-1.85D-04 F=  4.47D-04
     An  expanding polynomial of degree  4 produced  0.9647
 RMSU=  4.30D-07    CP:  1.11D+00  1.98D+00  1.45D+00 -3.00D+00  3.00D+00
                    CP:  3.59D-01 -3.00D+00  1.89D+00 -3.00D+00  3.00D+00
                    CP:  1.55D+00 -3.00D+00  2.41D+00  1.78D+00  2.55D-03
 Iteration   6 EE= -799.815064503690     Delta-E=       -0.000327056841 Grad=3.426D-03 Max rot=    0.0110 deg.
 SCF Done:  E(RPBE1PBE) =  -799.815064504     a.u. after    6 cycles
            Convg  =    0.3426D-02                    16 Fock formations.
              S**2 =  0.0000                  -V/T =  2.0047
 Leave Link  508 at Mon Oct 18 06:01:14 2021, MaxMem=  7864320000 cpu:           12428.5 elap:             395.0
 (Enter /apps/gaussian/g16-c01-avx/g16/l502.exe)
 Integral symmetry usage will be decided dynamically.
 Closed shell SCF:
 Using DIIS extrapolation, IDIIS=  1040.
 NGot=  7864320000 LenX=  7863145154 LenY=  7862572862
 Requested convergence on RMS density matrix=1.00D-08 within 128 cycles.
 Requested convergence on MAX density matrix=1.00D-06.
 Requested convergence on             energy=1.00D-06.
 No special actions if energy rises.
 Fock matrices will be formed incrementally for  20 cycles.

 Cycle   1  Pass 1  IDiag  1:
 FoFJK:  IHMeth= 1 ICntrl=       0 DoSepK=F KAlg= 0 I1Cent=           0 FoldK=F
 IRaf= 800000000 NMat=       1 IRICut=       1 DoRegI=T DoRafI=F ISym2E= 0 IDoP0=0 IntGTp=1.
 FoFCou: FMM=F IPFlag=           0 FMFlag=      100000 FMFlg1=           0
         NFxFlg=           0 DoJE=F BraDBF=F KetDBF=F FulRan=T
         wScrn=  0.000000 ICntrl=         0 IOpCl=  0 I1Cent=           0 NGrid=           0
         NMat0=    1 NMatS0=      1 NMatT0=    0 NMatD0=    1 NMtDS0=    0 NMtDT0=    0
 Symmetry not used in FoFCou.
 E= -799.815064503685    
 DIIS: error= 4.27D-05 at cycle   1 NSaved=   1.
 NSaved= 1 IEnMin= 1 EnMin= -799.815064503685     IErMin= 1 ErrMin= 4.27D-05
 ErrMax= 4.27D-05  0.00D+00 EMaxC= 1.00D-01 BMatC= 5.87D-06 BMatP= 5.87D-06
 IDIUse=1 WtCom= 1.00D+00 WtEn= 0.00D+00
 Coeff-Com:  0.100D+01
 Coeff:      0.100D+01
 Gap=     0.177 Goal=   None    Shift=    0.000
 RMSDP=5.40D-05 MaxDP=6.36D-03              OVMax= 5.51D-04

 Cycle   2  Pass 1  IDiag  1:
 RMSU=  4.85D-05    CP:  1.00D+00
 E= -799.815069377719     Delta-E=       -0.000004874034 Rises=F Damp=F
 DIIS: error= 2.18D-05 at cycle   2 NSaved=   2.
 NSaved= 2 IEnMin= 2 EnMin= -799.815069377719     IErMin= 2 ErrMin= 2.18D-05
 ErrMax= 2.18D-05  0.00D+00 EMaxC= 1.00D-01 BMatC= 1.45D-06 BMatP= 5.87D-06
 IDIUse=1 WtCom= 1.00D+00 WtEn= 0.00D+00
 Coeff-Com:  0.282D+00 0.718D+00
 Coeff:      0.282D+00 0.718D+00
 Gap=     0.170 Goal=   None    Shift=    0.000
 RMSDP=7.07D-06 MaxDP=1.05D-03 DE=-4.87D-06 OVMax= 4.60D-04

 Cycle   3  Pass 1  IDiag  1:
 RMSU=  5.84D-06    CP:  1.00D+00  9.75D-01
 E= -799.815070018105     Delta-E=       -0.000000640386 Rises=F Damp=F
 DIIS: error= 1.55D-05 at cycle   3 NSaved=   3.
 NSaved= 3 IEnMin= 3 EnMin= -799.815070018105     IErMin= 3 ErrMin= 1.55D-05
 ErrMax= 1.55D-05  0.00D+00 EMaxC= 1.00D-01 BMatC= 7.66D-07 BMatP= 1.45D-06
 IDIUse=1 WtCom= 1.00D+00 WtEn= 0.00D+00
 Coeff-Com:  0.488D-01 0.421D+00 0.531D+00
 Coeff:      0.488D-01 0.421D+00 0.531D+00
 Gap=     0.170 Goal=   None    Shift=    0.000
 RMSDP=4.87D-06 MaxDP=5.44D-04 DE=-6.40D-07 OVMax= 2.61D-04

 Cycle   4  Pass 1  IDiag  1:
 RMSU=  1.17D-06    CP:  1.00D+00  1.04D+00  6.19D-01
 E= -799.815070682105     Delta-E=       -0.000000664000 Rises=F Damp=F
 DIIS: error= 4.29D-06 at cycle   4 NSaved=   4.
 NSaved= 4 IEnMin= 4 EnMin= -799.815070682105     IErMin= 4 ErrMin= 4.29D-06
 ErrMax= 4.29D-06  0.00D+00 EMaxC= 1.00D-01 BMatC= 2.26D-08 BMatP= 7.66D-07
 IDIUse=1 WtCom= 1.00D+00 WtEn= 0.00D+00
 Coeff-Com: -0.325D-02 0.117D+00 0.209D+00 0.677D+00
 Coeff:     -0.325D-02 0.117D+00 0.209D+00 0.677D+00
 Gap=     0.170 Goal=   None    Shift=    0.000
 RMSDP=7.23D-07 MaxDP=9.96D-05 DE=-6.64D-07 OVMax= 7.93D-05

 Cycle   5  Pass 1  IDiag  1:
 RMSU=  4.90D-07    CP:  1.00D+00  1.04D+00  6.88D-01  8.45D-01
 E= -799.815070698455     Delta-E=       -0.000000016349 Rises=F Damp=F
 DIIS: error= 2.92D-06 at cycle   5 NSaved=   5.
 NSaved= 5 IEnMin= 5 EnMin= -799.815070698455     IErMin= 5 ErrMin= 2.92D-06
 ErrMax= 2.92D-06  0.00D+00 EMaxC= 1.00D-01 BMatC= 6.12D-09 BMatP= 2.26D-08
 IDIUse=1 WtCom= 1.00D+00 WtEn= 0.00D+00
 Coeff-Com: -0.585D-02 0.314D-01 0.731D-01 0.390D+00 0.512D+00
 Coeff:     -0.585D-02 0.314D-01 0.731D-01 0.390D+00 0.512D+00
 Gap=     0.170 Goal=   None    Shift=    0.000
 RMSDP=3.58D-07 MaxDP=5.58D-05 DE=-1.63D-08 OVMax= 3.56D-05

 Cycle   6  Pass 1  IDiag  1:
 RMSU=  2.20D-07    CP:  1.00D+00  1.04D+00  7.14D-01  8.67D-01  6.17D-01
 E= -799.815070704337     Delta-E=       -0.000000005882 Rises=F Damp=F
 DIIS: error= 3.14D-07 at cycle   6 NSaved=   6.
 NSaved= 6 IEnMin= 6 EnMin= -799.815070704337     IErMin= 6 ErrMin= 3.14D-07
 ErrMax= 3.14D-07  0.00D+00 EMaxC= 1.00D-01 BMatC= 1.90D-10 BMatP= 6.12D-09
 IDIUse=1 WtCom= 1.00D+00 WtEn= 0.00D+00
 Coeff-Com: -0.172D-02 0.776D-03 0.670D-02 0.724D-01 0.194D+00 0.728D+00
 Coeff:     -0.172D-02 0.776D-03 0.670D-02 0.724D-01 0.194D+00 0.728D+00
 Gap=     0.170 Goal=   None    Shift=    0.000
 RMSDP=9.88D-08 MaxDP=1.16D-05 DE=-5.88D-09 OVMax= 4.49D-06

 Cycle   7  Pass 1  IDiag  1:
 RMSU=  3.80D-08    CP:  1.00D+00  1.04D+00  7.15D-01  8.72D-01  7.45D-01
                    CP:  8.53D-01
 E= -799.815070704490     Delta-E=       -0.000000000153 Rises=F Damp=F
 DIIS: error= 1.74D-07 at cycle   7 NSaved=   7.
 NSaved= 7 IEnMin= 7 EnMin= -799.815070704490     IErMin= 7 ErrMin= 1.74D-07
 ErrMax= 1.74D-07  0.00D+00 EMaxC= 1.00D-01 BMatC= 2.69D-11 BMatP= 1.90D-10
 IDIUse=1 WtCom= 1.00D+00 WtEn= 0.00D+00
 Coeff-Com: -0.553D-03-0.144D-02-0.886D-03 0.133D-01 0.705D-01 0.370D+00
 Coeff-Com:  0.549D+00
 Coeff:     -0.553D-03-0.144D-02-0.886D-03 0.133D-01 0.705D-01 0.370D+00
 Coeff:      0.549D+00
 Gap=     0.170 Goal=   None    Shift=    0.000
 RMSDP=3.01D-08 MaxDP=5.12D-06 DE=-1.53D-10 OVMax= 1.99D-06

 Cycle   8  Pass 1  IDiag  1:
 RMSU=  1.10D-08    CP:  1.00D+00  1.04D+00  7.18D-01  8.73D-01  7.28D-01
                    CP:  9.07D-01  9.74D-01
 E= -799.815070704519     Delta-E=       -0.000000000029 Rises=F Damp=F
 DIIS: error= 7.87D-08 at cycle   8 NSaved=   8.
 NSaved= 8 IEnMin= 8 EnMin= -799.815070704519     IErMin= 8 ErrMin= 7.87D-08
 ErrMax= 7.87D-08  0.00D+00 EMaxC= 1.00D-01 BMatC= 3.33D-12 BMatP= 2.69D-11
 IDIUse=1 WtCom= 1.00D+00 WtEn= 0.00D+00
 Coeff-Com: -0.300D-05-0.862D-03-0.160D-02-0.606D-02 0.464D-02 0.680D-01
 Coeff-Com:  0.278D+00 0.658D+00
 Coeff:     -0.300D-05-0.862D-03-0.160D-02-0.606D-02 0.464D-02 0.680D-01
 Coeff:      0.278D+00 0.658D+00
 Gap=     0.170 Goal=   None    Shift=    0.000
 RMSDP=1.08D-08 MaxDP=1.93D-06 DE=-2.91D-11 OVMax= 8.43D-07

 Cycle   9  Pass 1  IDiag  1:
 RMSU=  3.44D-09    CP:  1.00D+00  1.04D+00  7.19D-01  8.73D-01  7.38D-01
                    CP:  9.18D-01  1.04D+00  8.61D-01
 E= -799.815070704505     Delta-E=        0.000000000014 Rises=F Damp=F
 DIIS: error= 3.44D-08 at cycle   9 NSaved=   9.
 NSaved= 9 IEnMin= 8 EnMin= -799.815070704519     IErMin= 9 ErrMin= 3.44D-08
 ErrMax= 3.44D-08  0.00D+00 EMaxC= 1.00D-01 BMatC= 7.15D-13 BMatP= 3.33D-12
 IDIUse=1 WtCom= 1.00D+00 WtEn= 0.00D+00
 Coeff-Com:  0.566D-04-0.400D-03-0.914D-03-0.508D-02-0.356D-02 0.708D-02
 Coeff-Com:  0.116D+00 0.401D+00 0.485D+00
 Coeff:      0.566D-04-0.400D-03-0.914D-03-0.508D-02-0.356D-02 0.708D-02
 Coeff:      0.116D+00 0.401D+00 0.485D+00
 Gap=     0.170 Goal=   None    Shift=    0.000
 RMSDP=3.41D-09 MaxDP=3.78D-07 DE= 1.43D-11 OVMax= 2.42D-07

 Error on total polarization charges =  0.01529
 SCF Done:  E(RPBE1PBE) =  -799.815070705     A.U. after    9 cycles
            NFock=  9  Conv=0.34D-08     -V/T= 2.0046
 KE= 7.961142284278D+02 PE=-4.469626645201D+03 EE= 1.570668324876D+03
 Leave Link  502 at Mon Oct 18 06:04:55 2021, MaxMem=  7864320000 cpu:            6972.1 elap:             221.1
 (Enter /apps/gaussian/g16-c01-avx/g16/l508.exe)
 QCSCF skips out because SCF is already converged.
 Leave Link  508 at Mon Oct 18 06:04:55 2021, MaxMem=  7864320000 cpu:               0.1 elap:               0.0
 (Enter /apps/gaussian/g16-c01-avx/g16/l601.exe)
 Copying SCF densities to generalized density rwf, IOpCl= 0 IROHF=0.

 **********************************************************************

            Population analysis using the SCF Density.

 **********************************************************************

 Orbital symmetries:
       Occupied  (A) (A) (A) (A) (A) (A) (A) (A) (A) (A) (A) (A)
                 (A) (A) (A) (A) (A) (A) (A) (A) (A) (A) (A) (A)
                 (A) (A) (A) (A) (A) (A) (A) (A) (A) (A) (A) (A)
                 (A) (A) (A) (A) (A) (A) (A) (A) (A) (A) (A) (A)
                 (A) (A) (A) (A) (A) (A) (A) (A) (A) (A) (A) (A)
                 (A) (A) (A) (A) (A) (A)
       Virtual   (A) (A) (A) (A) (A) (A) (A) (A) (A) (A) (A) (A)
                 (A) (A) (A) (A) (A) (A) (A) (A) (A) (A) (A) (A)
                 (A) (A) (A) (A) (A) (A) (A) (A) (A) (A) (A) (A)
                 (A) (A) (A) (A) (A) (A) (A) (A) (A) (A) (A) (A)
                 (A) (A) (A) (A) (A) (A) (A) (A) (A) (A) (A) (A)
                 (A) (A) (A) (A) (A) (A) (A) (A) (A) (A) (A) (A)
                 (A) (A) (A) (A) (A) (A) (A) (A) (A) (A) (A) (A)
                 (A) (A) (A) (A) (A) (A) (A) (A) (A) (A) (A) (A)
                 (A) (A) (A) (A) (A) (A) (A) (A) (A) (A) (A) (A)
                 (A) (A) (A) (A) (A) (A) (A) (A) (A) (A) (A) (A)
                 (A) (A) (A) (A) (A) (A) (A) (A) (A) (A) (A) (A)
                 (A) (A) (A) (A) (A) (A) (A) (A) (A) (A) (A) (A)
                 (A) (A) (A) (A) (A) (A) (A) (A) (A) (A) (A) (A)
                 (A) (A) (A) (A) (A) (A) (A) (A) (A) (A) (A) (A)
                 (A) (A) (A) (A) (A) (A) (A) (A) (A) (A) (A) (A)
                 (A) (A) (A) (A) (A) (A) (A) (A) (A) (A) (A) (A)
                 (A) (A) (A) (A) (A) (A) (A) (A) (A) (A) (A) (A)
                 (A) (A) (A) (A) (A) (A) (A) (A) (A) (A) (A) (A)
                 (A) (A) (A) (A) (A) (A) (A) (A) (A) (A) (A) (A)
                 (A) (A) (A) (A) (A) (A) (A) (A) (A) (A) (A) (A)
                 (A) (A) (A) (A) (A) (A) (A) (A) (A) (A) (A) (A)
                 (A) (A) (A) (A) (A) (A) (A) (A) (A) (A) (A) (A)
                 (A) (A) (A) (A) (A) (A) (A) (A) (A) (A) (A) (A)
                 (A) (A) (A) (A) (A) (A) (A) (A) (A) (A) (A) (A)
                 (A) (A) (A) (A) (A) (A) (A) (A) (A) (A) (A) (A)
                 (A) (A) (A) (A) (A) (A) (A) (A) (A) (A) (A) (A)
                 (A) (A) (A) (A) (A) (A) (A) (A) (A) (A) (A) (A)
                 (A) (A) (A) (A) (A) (A) (A) (A) (A) (A) (A) (A)
                 (A) (A) (A) (A) (A) (A) (A) (A) (A) (A) (A) (A)
                 (A) (A) (A) (A) (A) (A) (A) (A) (A) (A) (A) (A)
                 (A) (A) (A) (A) (A) (A) (A) (A) (A) (A) (A) (A)
                 (A) (A) (A) (A) (A) (A) (A) (A) (A) (A) (A) (A)
                 (A) (A) (A) (A) (A) (A) (A) (A) (A) (A) (A) (A)
                 (A) (A) (A) (A) (A) (A) (A) (A) (A) (A) (A) (A)
                 (A) (A) (A) (A) (A) (A) (A) (A) (A) (A) (A) (A)
                 (A) (A) (A) (A) (A) (A) (A) (A) (A) (A) (A) (A)
                 (A) (A) (A) (A) (A) (A) (A) (A) (A) (A) (A) (A)
                 (A) (A) (A) (A) (A) (A) (A) (A) (A) (A) (A) (A)
                 (A) (A) (A) (A) (A) (A) (A) (A) (A) (A) (A) (A)
                 (A) (A) (A) (A) (A) (A) (A) (A) (A) (A) (A) (A)
                 (A) (A) (A) (A) (A) (A) (A) (A) (A) (A) (A) (A)
                 (A) (A) (A) (A) (A) (A) (A) (A) (A) (A) (A) (A)
                 (A) (A) (A) (A) (A) (A) (A) (A) (A) (A) (A) (A)
                 (A) (A) (A) (A) (A) (A) (A) (A) (A) (A) (A) (A)
                 (A) (A) (A) (A) (A) (A) (A) (A) (A) (A) (A) (A)
                 (A) (A) (A) (A) (A) (A) (A) (A) (A) (A) (A) (A)
                 (A) (A) (A) (A) (A) (A) (A) (A) (A) (A) (A) (A)
                 (A) (A) (A) (A) (A) (A) (A) (A) (A) (A) (A) (A)
                 (A) (A) (A) (A) (A) (A) (A) (A) (A) (A) (A) (A)
                 (A) (A) (A) (A) (A) (A) (A) (A) (A) (A) (A) (A)
 The electronic state is 1-A.
 Alpha  occ. eigenvalues --  -19.20748 -14.37756 -14.37658 -14.36758 -14.36600
 Alpha  occ. eigenvalues --  -10.31200 -10.28107 -10.27923 -10.24365 -10.24238
 Alpha  occ. eigenvalues --  -10.24080 -10.24071 -10.24050 -10.23987 -10.23940
 Alpha  occ. eigenvalues --  -10.23901 -10.23391 -10.23348  -1.08518  -0.99389
 Alpha  occ. eigenvalues --   -0.99193  -0.90165  -0.87860  -0.87711  -0.81424
 Alpha  occ. eigenvalues --   -0.80881  -0.75496  -0.74288  -0.68235  -0.65873
 Alpha  occ. eigenvalues --   -0.64659  -0.62914  -0.62771  -0.60097  -0.58442
 Alpha  occ. eigenvalues --   -0.54869  -0.53759  -0.52468  -0.51574  -0.51141
 Alpha  occ. eigenvalues --   -0.49486  -0.47657  -0.45948  -0.45868  -0.44482
 Alpha  occ. eigenvalues --   -0.44097  -0.43834  -0.43171  -0.41764  -0.41399
 Alpha  occ. eigenvalues --   -0.40387  -0.39946  -0.39720  -0.39019  -0.37640
 Alpha  occ. eigenvalues --   -0.37024  -0.36334  -0.36210  -0.35172  -0.28126
 Alpha  occ. eigenvalues --   -0.28006  -0.27788  -0.26281  -0.26099  -0.23946
 Alpha  occ. eigenvalues --   -0.23721
 Alpha virt. eigenvalues --   -0.06710  -0.02098   0.03444   0.04214   0.04804
 Alpha virt. eigenvalues --    0.05976   0.06513   0.07903   0.08105   0.08532
 Alpha virt. eigenvalues --    0.09083   0.09478   0.10315   0.11200   0.11484
 Alpha virt. eigenvalues --    0.11998   0.12247   0.12748   0.13042   0.13868
 Alpha virt. eigenvalues --    0.14224   0.15673   0.16278   0.16638   0.17141
 Alpha virt. eigenvalues --    0.17443   0.18235   0.18600   0.19583   0.19975
 Alpha virt. eigenvalues --    0.20047   0.20434   0.21690   0.22104   0.22414
 Alpha virt. eigenvalues --    0.22917   0.23450   0.24264   0.24549   0.25447
 Alpha virt. eigenvalues --    0.26183   0.26640   0.26900   0.27321   0.27899
 Alpha virt. eigenvalues --    0.28974   0.29340   0.29602   0.31136   0.31480
 Alpha virt. eigenvalues --    0.32387   0.32689   0.32952   0.33807   0.34032
 Alpha virt. eigenvalues --    0.35100   0.35463   0.35923   0.36476   0.36895
 Alpha virt. eigenvalues --    0.37192   0.37252   0.38474   0.39319   0.40312
 Alpha virt. eigenvalues --    0.40488   0.40792   0.41615   0.41957   0.42216
 Alpha virt. eigenvalues --    0.42288   0.42611   0.43329   0.43926   0.44396
 Alpha virt. eigenvalues --    0.44564   0.44774   0.45445   0.46213   0.46384
 Alpha virt. eigenvalues --    0.46538   0.47137   0.47324   0.47725   0.48236
 Alpha virt. eigenvalues --    0.49212   0.49524   0.49712   0.50107   0.50835
 Alpha virt. eigenvalues --    0.51659   0.52653   0.53264   0.53372   0.53759
 Alpha virt. eigenvalues --    0.54917   0.55260   0.55442   0.55992   0.56290
 Alpha virt. eigenvalues --    0.56889   0.58262   0.58357   0.59469   0.60057
 Alpha virt. eigenvalues --    0.60749   0.61761   0.62497   0.63549   0.64137
 Alpha virt. eigenvalues --    0.65374   0.65993   0.66458   0.67704   0.68340
 Alpha virt. eigenvalues --    0.68427   0.68837   0.70122   0.70600   0.71763
 Alpha virt. eigenvalues --    0.73008   0.73368   0.74025   0.74815   0.75586
 Alpha virt. eigenvalues --    0.76167   0.76808   0.78555   0.79021   0.79917
 Alpha virt. eigenvalues --    0.80993   0.81776   0.82060   0.83620   0.83784
 Alpha virt. eigenvalues --    0.84255   0.85670   0.86165   0.86994   0.87841
 Alpha virt. eigenvalues --    0.88185   0.89237   0.91065   0.91366   0.91860
 Alpha virt. eigenvalues --    0.92401   0.93311   0.94162   0.96143   0.98024
 Alpha virt. eigenvalues --    0.99741   1.00054   1.01148   1.01781   1.02457
 Alpha virt. eigenvalues --    1.03102   1.04050   1.05453   1.05863   1.07442
 Alpha virt. eigenvalues --    1.07859   1.08283   1.09552   1.10230   1.12227
 Alpha virt. eigenvalues --    1.13016   1.13588   1.15358   1.16090   1.17206
 Alpha virt. eigenvalues --    1.18565   1.19130   1.19542   1.19819   1.21094
 Alpha virt. eigenvalues --    1.21517   1.22994   1.23306   1.23940   1.26519
 Alpha virt. eigenvalues --    1.28471   1.28894   1.29566   1.30564   1.32317
 Alpha virt. eigenvalues --    1.33034   1.33587   1.34235   1.35284   1.36743
 Alpha virt. eigenvalues --    1.37448   1.38953   1.39860   1.40028   1.41738
 Alpha virt. eigenvalues --    1.43149   1.43723   1.44049   1.44671   1.45506
 Alpha virt. eigenvalues --    1.47049   1.47894   1.48899   1.49328   1.49678
 Alpha virt. eigenvalues --    1.50141   1.51102   1.51959   1.53375   1.54443
 Alpha virt. eigenvalues --    1.55990   1.56284   1.56968   1.58377   1.59263
 Alpha virt. eigenvalues --    1.59970   1.60473   1.60874   1.61715   1.62905
 Alpha virt. eigenvalues --    1.63228   1.64257   1.64851   1.66645   1.67019
 Alpha virt. eigenvalues --    1.68088   1.69052   1.69659   1.70162   1.71481
 Alpha virt. eigenvalues --    1.71806   1.73340   1.73874   1.74428   1.75174
 Alpha virt. eigenvalues --    1.75915   1.76766   1.77394   1.77779   1.78762
 Alpha virt. eigenvalues --    1.79264   1.81028   1.81475   1.81730   1.83336
 Alpha virt. eigenvalues --    1.84608   1.85903   1.88536   1.89594   1.92674
 Alpha virt. eigenvalues --    1.93169   1.93578   1.94350   1.95447   1.96207
 Alpha virt. eigenvalues --    1.97073   1.98367   1.99151   1.99750   2.00210
 Alpha virt. eigenvalues --    2.00570   2.01572   2.02591   2.03607   2.04150
 Alpha virt. eigenvalues --    2.05027   2.05597   2.06806   2.06999   2.07828
 Alpha virt. eigenvalues --    2.09055   2.10984   2.11316   2.13265   2.13823
 Alpha virt. eigenvalues --    2.14422   2.15758   2.16680   2.17482   2.17904
 Alpha virt. eigenvalues --    2.18790   2.19564   2.20639   2.21753   2.22862
 Alpha virt. eigenvalues --    2.23579   2.26231   2.28359   2.28510   2.29675
 Alpha virt. eigenvalues --    2.30808   2.32865   2.33840   2.35675   2.37070
 Alpha virt. eigenvalues --    2.39411   2.40594   2.41178   2.42032   2.43126
 Alpha virt. eigenvalues --    2.45283   2.46279   2.48493   2.49084   2.49707
 Alpha virt. eigenvalues --    2.50804   2.51953   2.52345   2.53378   2.53792
 Alpha virt. eigenvalues --    2.54618   2.55764   2.56184   2.57308   2.57896
 Alpha virt. eigenvalues --    2.59631   2.60328   2.62275   2.62438   2.63220
 Alpha virt. eigenvalues --    2.63254   2.64326   2.64532   2.65538   2.66166
 Alpha virt. eigenvalues --    2.66825   2.67269   2.68399   2.69063   2.70303
 Alpha virt. eigenvalues --    2.70672   2.72440   2.73448   2.74453   2.75883
 Alpha virt. eigenvalues --    2.76283   2.76996   2.77644   2.78285   2.78661
 Alpha virt. eigenvalues --    2.80016   2.81203   2.81283   2.82391   2.82901
 Alpha virt. eigenvalues --    2.83396   2.84466   2.85367   2.86071   2.86218
 Alpha virt. eigenvalues --    2.87499   2.87830   2.88386   2.89055   2.90144
 Alpha virt. eigenvalues --    2.91668   2.92364   2.93129   2.93848   2.94592
 Alpha virt. eigenvalues --    2.95277   2.96039   2.96836   2.98451   2.99667
 Alpha virt. eigenvalues --    3.00912   3.01791   3.01877   3.03070   3.04170
 Alpha virt. eigenvalues --    3.06819   3.07850   3.07946   3.09007   3.09914
 Alpha virt. eigenvalues --    3.11708   3.12353   3.13811   3.14954   3.15842
 Alpha virt. eigenvalues --    3.16346   3.16863   3.18049   3.18418   3.18915
 Alpha virt. eigenvalues --    3.19686   3.20488   3.20654   3.21904   3.22131
 Alpha virt. eigenvalues --    3.23268   3.24607   3.25483   3.26318   3.26670
 Alpha virt. eigenvalues --    3.27216   3.28334   3.29440   3.29532   3.30995
 Alpha virt. eigenvalues --    3.31315   3.32049   3.32669   3.33552   3.34031
 Alpha virt. eigenvalues --    3.35054   3.35549   3.36689   3.37883   3.38892
 Alpha virt. eigenvalues --    3.39068   3.40229   3.40370   3.41284   3.42732
 Alpha virt. eigenvalues --    3.43971   3.44953   3.45676   3.45854   3.46478
 Alpha virt. eigenvalues --    3.47712   3.47904   3.48832   3.50074   3.50362
 Alpha virt. eigenvalues --    3.52047   3.53591   3.54684   3.55465   3.56943
 Alpha virt. eigenvalues --    3.58476   3.59036   3.59790   3.60797   3.61922
 Alpha virt. eigenvalues --    3.63528   3.64483   3.66664   3.67425   3.68393
 Alpha virt. eigenvalues --    3.69678   3.70845   3.71890   3.73485   3.74883
 Alpha virt. eigenvalues --    3.75837   3.76027   3.77804   3.78621   3.80469
 Alpha virt. eigenvalues --    3.80606   3.81555   3.83195   3.84067   3.84348
 Alpha virt. eigenvalues --    3.86479   3.87974   3.89659   3.91474   3.92955
 Alpha virt. eigenvalues --    3.94080   3.94280   3.96280   3.97168   3.98977
 Alpha virt. eigenvalues --    4.01265   4.01768   4.06810   4.07587   4.08419
 Alpha virt. eigenvalues --    4.08814   4.09976   4.10110   4.11198   4.13319
 Alpha virt. eigenvalues --    4.14554   4.14812   4.15681   4.17731   4.20659
 Alpha virt. eigenvalues --    4.21660   4.22518   4.24577   4.25273   4.27973
 Alpha virt. eigenvalues --    4.28624   4.29502   4.30774   4.32037   4.33423
 Alpha virt. eigenvalues --    4.34472   4.37393   4.37477   4.39363   4.41800
 Alpha virt. eigenvalues --    4.42558   4.45607   4.47330   4.48351   4.48858
 Alpha virt. eigenvalues --    4.53271   4.56298   4.57590   4.59868   4.60964
 Alpha virt. eigenvalues --    4.65081   4.66182   4.68442   4.71231   4.72125
 Alpha virt. eigenvalues --    4.73520   4.74908   4.77055   4.78369   4.80729
 Alpha virt. eigenvalues --    4.81613   4.83610   4.86003   4.88881   4.90558
 Alpha virt. eigenvalues --    4.92431   4.94618   4.95291   4.96343   4.97696
 Alpha virt. eigenvalues --    5.00751   5.03235   5.04525   5.07418   5.08210
 Alpha virt. eigenvalues --    5.09552   5.10466   5.13383   5.13835   5.18678
 Alpha virt. eigenvalues --    5.18988   5.19231   5.19787   5.22093   5.22601
 Alpha virt. eigenvalues --    5.24136   5.25273   5.25815   5.26861   5.27452
 Alpha virt. eigenvalues --    5.29997   5.31630   5.33280   5.34914   5.35776
 Alpha virt. eigenvalues --    5.37440   5.42128   5.44525   5.45060   5.46729
 Alpha virt. eigenvalues --    5.49007   5.50192   5.56078   5.57227   5.58186
 Alpha virt. eigenvalues --    5.60700   5.61555   5.67910   5.69751   5.71072
 Alpha virt. eigenvalues --    5.71981   5.74479   5.74702   5.76200   5.81941
 Alpha virt. eigenvalues --    5.88074   5.88238   6.04403   6.06005   6.11722
 Alpha virt. eigenvalues --    6.36076   6.41705   6.50875   6.55399   6.80790
 Alpha virt. eigenvalues --    7.01941   7.09306  22.30011  22.49571  22.51174
 Alpha virt. eigenvalues --   22.57879  22.58660  22.79409  22.82595  22.92712
 Alpha virt. eigenvalues --   22.98765  23.11964  23.13458  23.16844  23.47984
 Alpha virt. eigenvalues --   32.42578  32.43771  32.49935  32.52916  43.96377
          Condensed to atoms (all electrons):
               1          2          3          4          5          6
     1  C    6.729806   0.011921  -0.232435   0.586915  -0.121949  -0.477134
     2  C    0.011921   4.777749  -0.042874  -0.009153  -0.001535   0.020696
     3  C   -0.232435  -0.042874   6.111730  -0.287177   0.494400   0.272062
     4  C    0.586915  -0.009153  -0.287177   6.503370  -0.110389  -0.724233
     5  H   -0.121949  -0.001535   0.494400  -0.110389   0.537584   0.034638
     6  C   -0.477134   0.020696   0.272062  -0.724233   0.034638   6.788113
     7  C    0.632442   0.001333  -0.414339   0.685947  -0.014823  -0.475531
     8  H   -0.018972   0.000139   0.033929  -0.182167   0.000589   0.552744
     9  C   -0.690913  -0.001815   0.387282  -0.524643   0.033285   0.374504
    10  C   -0.006843  -0.005087   0.007046   0.019422   0.000113  -0.125403
    11  H   -0.172337  -0.001654   0.030980  -0.018640   0.000467   0.034654
    12  C   -0.001236  -0.004095  -0.083500   0.159414  -0.003553  -0.009629
    13  O   -0.210785   0.689966   0.007161  -0.003173  -0.000144   0.001978
    14  C   -0.001136  -0.000019   0.004851  -0.023702   0.000697   0.004328
    15  C   -0.000036   0.000000   0.001732   0.024600   0.000026  -0.006375
    16  N   -0.003355  -0.000003   0.040263  -0.061280   0.006764  -0.015197
    17  H   -0.000009  -0.000000   0.000080  -0.000131   0.000018  -0.000050
    18  N   -0.007865  -0.000041   0.043233  -0.173585   0.001405   0.020747
    19  H   -0.000019  -0.000000  -0.000058  -0.005083   0.000012   0.001344
    20  C    0.001258  -0.000010  -0.000202   0.000105  -0.000000   0.002231
    21  C   -0.001772  -0.000034   0.000368  -0.000920   0.000002   0.001645
    22  N   -0.019629  -0.000703   0.003803  -0.007166   0.000019   0.028458
    23  H    0.000678   0.000061  -0.000122   0.000170  -0.000001  -0.000624
    24  N    0.002848   0.000098  -0.001089  -0.000642  -0.000005   0.027699
    25  H    0.000038   0.000001  -0.000017   0.000142  -0.000000  -0.000934
    26  H    0.000139   0.000023  -0.000211   0.000551  -0.000001  -0.000861
    27  H   -0.005714  -0.000061   0.001964   0.000542   0.000003  -0.030570
    28  H   -0.001941  -0.000040   0.000083   0.000871  -0.000004  -0.005546
    29  H    0.001030   0.000033  -0.011095  -0.018885  -0.000005   0.025909
    30  H    0.000711   0.000006  -0.002807   0.021836  -0.000218  -0.004612
    31  H   -0.001999   0.000099  -0.025080  -0.108867   0.005885   0.060601
    32  H   -0.238896   0.498123   0.002672  -0.005712   0.009060   0.002888
    33  H    0.000167   0.000000  -0.000906   0.006129  -0.000047  -0.000015
    34  H   -0.000048  -0.000004   0.000009  -0.000013   0.000000  -0.000168
    35  H    0.000206   0.000002  -0.001666   0.004521  -0.000346   0.000131
    36  H    0.000086   0.000000  -0.000008   0.000005  -0.000000   0.000047
               7          8          9         10         11         12
     1  C    0.632442  -0.018972  -0.690913  -0.006843  -0.172337  -0.001236
     2  C    0.001333   0.000139  -0.001815  -0.005087  -0.001654  -0.004095
     3  C   -0.414339   0.033929   0.387282   0.007046   0.030980  -0.083500
     4  C    0.685947  -0.182167  -0.524643   0.019422  -0.018640   0.159414
     5  H   -0.014823   0.000589   0.033285   0.000113   0.000467  -0.003553
     6  C   -0.475531   0.552744   0.374504  -0.125403   0.034654  -0.009629
     7  C    6.512214  -0.156495  -0.728878   0.117341  -0.157058  -0.002765
     8  H   -0.156495   0.542891   0.042543  -0.009314   0.000761  -0.002307
     9  C   -0.728878   0.042543   6.668276   0.028097   0.551538   0.005445
    10  C    0.117341  -0.009314   0.028097   5.024906   0.005723  -0.003122
    11  H   -0.157058   0.000761   0.551538   0.005723   0.527245   0.000064
    12  C   -0.002765  -0.002307   0.005445  -0.003122   0.000064   5.016227
    13  O   -0.002513   0.000004   0.038933  -0.000620   0.029182  -0.000034
    14  C   -0.001414   0.003068   0.000403  -0.000048   0.000002  -0.038737
    15  C    0.000325  -0.002695  -0.000036   0.000005   0.000000  -0.072353
    16  N    0.003028  -0.001231  -0.000822   0.000086  -0.000004   0.379052
    17  H    0.000050  -0.000001  -0.000002   0.000001  -0.000000   0.004572
    18  N   -0.024754   0.069031   0.005156  -0.001397   0.000021   0.319362
    19  H   -0.000082   0.001022   0.000013  -0.000003   0.000000   0.004116
    20  C    0.041682  -0.000145  -0.014307  -0.083783  -0.004206  -0.000001
    21  C   -0.031615   0.000520   0.007984  -0.023596   0.003193  -0.000019
    22  N   -0.162052   0.000362   0.031989   0.346312   0.035975  -0.000062
    23  H    0.006044  -0.000035  -0.000098   0.018031  -0.004669   0.000001
    24  N   -0.052475   0.000046  -0.010956   0.411996  -0.001050  -0.000001
    25  H    0.002355  -0.000113   0.000560   0.012726  -0.000127   0.000001
    26  H    0.018941  -0.000224  -0.005542  -0.022351  -0.001706   0.000002
    27  H   -0.114920   0.008519   0.059846   0.415462   0.003026  -0.000067
    28  H   -0.033684   0.000184   0.026720  -0.019438   0.001943   0.000021
    29  H   -0.003614   0.001754   0.000106   0.000019  -0.000001  -0.020840
    30  H    0.000479  -0.004727  -0.000361   0.000058  -0.000001  -0.027261
    31  H   -0.008282   0.004875   0.002339  -0.000049   0.000011   0.426339
    32  H   -0.004669   0.000008   0.046672  -0.000090   0.003320  -0.000782
    33  H    0.000429  -0.004743  -0.000112   0.000047  -0.000000   0.016549
    34  H   -0.004947   0.000014   0.001736   0.005499   0.000683   0.000000
    35  H    0.000034  -0.000175  -0.000030   0.000001  -0.000000   0.011258
    36  H    0.001105  -0.000001  -0.000234   0.001565  -0.000106   0.000000
              13         14         15         16         17         18
     1  C   -0.210785  -0.001136  -0.000036  -0.003355  -0.000009  -0.007865
     2  C    0.689966  -0.000019   0.000000  -0.000003  -0.000000  -0.000041
     3  C    0.007161   0.004851   0.001732   0.040263   0.000080   0.043233
     4  C   -0.003173  -0.023702   0.024600  -0.061280  -0.000131  -0.173585
     5  H   -0.000144   0.000697   0.000026   0.006764   0.000018   0.001405
     6  C    0.001978   0.004328  -0.006375  -0.015197  -0.000050   0.020747
     7  C   -0.002513  -0.001414   0.000325   0.003028   0.000050  -0.024754
     8  H    0.000004   0.003068  -0.002695  -0.001231  -0.000001   0.069031
     9  C    0.038933   0.000403  -0.000036  -0.000822  -0.000002   0.005156
    10  C   -0.000620  -0.000048   0.000005   0.000086   0.000001  -0.001397
    11  H    0.029182   0.000002   0.000000  -0.000004  -0.000000   0.000021
    12  C   -0.000034  -0.038737  -0.072353   0.379052   0.004572   0.319362
    13  O    7.844127  -0.000000   0.000000   0.000000  -0.000000  -0.000000
    14  C   -0.000000   4.858837   0.384475   0.340050   0.404512  -0.095630
    15  C    0.000000   0.384475   4.854379  -0.098245  -0.024431   0.380610
    16  N    0.000000   0.340050  -0.098245   6.577078  -0.021261  -0.092005
    17  H   -0.000000   0.404512  -0.024431  -0.021261   0.536286   0.005820
    18  N   -0.000000  -0.095630   0.380610  -0.092005   0.005820   6.715069
    19  H   -0.000000   0.006689   0.372055   0.007537   0.003079  -0.034266
    20  C   -0.000040  -0.000000   0.000000   0.000000   0.000000   0.000000
    21  C    0.000004  -0.000000   0.000000   0.000000  -0.000000  -0.000001
    22  N   -0.000016  -0.000000  -0.000000   0.000000  -0.000000  -0.000005
    23  H    0.000008  -0.000000   0.000000   0.000000   0.000000   0.000000
    24  N    0.000006   0.000000  -0.000001  -0.000000  -0.000000   0.000015
    25  H    0.000000   0.000000   0.000000   0.000000   0.000000   0.000000
    26  H    0.000001  -0.000000   0.000000   0.000000   0.000000   0.000000
    27  H    0.000001  -0.000004   0.000005   0.000003   0.000000  -0.000239
    28  H    0.000000   0.000000   0.000000   0.000000  -0.000000   0.000002
    29  H   -0.000000  -0.037911  -0.005271   0.344663  -0.009819  -0.006660
    30  H    0.000000  -0.002185  -0.022874   0.008467  -0.000337   0.340193
    31  H   -0.000000   0.020510  -0.016459  -0.067393  -0.000389  -0.076190
    32  H   -0.059922  -0.000002   0.000000  -0.000025  -0.000000  -0.000002
    33  H    0.000000  -0.065167   0.416138   0.006210  -0.009082  -0.072844
    34  H   -0.000000   0.000000   0.000000   0.000000  -0.000000  -0.000000
    35  H    0.000000   0.373317  -0.052400  -0.038567  -0.028262  -0.001973
    36  H   -0.000000  -0.000000  -0.000000  -0.000000  -0.000000  -0.000000
              19         20         21         22         23         24
     1  C   -0.000019   0.001258  -0.001772  -0.019629   0.000678   0.002848
     2  C   -0.000000  -0.000010  -0.000034  -0.000703   0.000061   0.000098
     3  C   -0.000058  -0.000202   0.000368   0.003803  -0.000122  -0.001089
     4  C   -0.005083   0.000105  -0.000920  -0.007166   0.000170  -0.000642
     5  H    0.000012  -0.000000   0.000002   0.000019  -0.000001  -0.000005
     6  C    0.001344   0.002231   0.001645   0.028458  -0.000624   0.027699
     7  C   -0.000082   0.041682  -0.031615  -0.162052   0.006044  -0.052475
     8  H    0.001022  -0.000145   0.000520   0.000362  -0.000035   0.000046
     9  C    0.000013  -0.014307   0.007984   0.031989  -0.000098  -0.010956
    10  C   -0.000003  -0.083783  -0.023596   0.346312   0.018031   0.411996
    11  H    0.000000  -0.004206   0.003193   0.035975  -0.004669  -0.001050
    12  C    0.004116  -0.000001  -0.000019  -0.000062   0.000001  -0.000001
    13  O   -0.000000  -0.000040   0.000004  -0.000016   0.000008   0.000006
    14  C    0.006689  -0.000000  -0.000000  -0.000000  -0.000000   0.000000
    15  C    0.372055   0.000000   0.000000  -0.000000   0.000000  -0.000001
    16  N    0.007537   0.000000   0.000000   0.000000   0.000000  -0.000000
    17  H    0.003079   0.000000  -0.000000  -0.000000   0.000000  -0.000000
    18  N   -0.034266   0.000000  -0.000001  -0.000005   0.000000   0.000015
    19  H    0.601539   0.000000   0.000000  -0.000000  -0.000000  -0.000000
    20  C    0.000000   4.890922   0.358912   0.386525   0.414944  -0.107913
    21  C    0.000000   0.358912   4.897422  -0.111536  -0.073214   0.332690
    22  N   -0.000000   0.386525  -0.111536   6.718560  -0.072932  -0.095942
    23  H   -0.000000   0.414944  -0.073214  -0.072932   0.652170   0.005531
    24  N   -0.000000  -0.107913   0.332690  -0.095942   0.005531   6.541419
    25  H   -0.000000  -0.053120   0.371716  -0.000708   0.011751  -0.039341
    26  H    0.000000  -0.023883  -0.004191   0.337470   0.008530   0.007531
    27  H   -0.000001  -0.019836   0.026045  -0.071457  -0.001614  -0.055194
    28  H   -0.000000  -0.005563  -0.034870  -0.005362   0.001887   0.355665
    29  H    0.000362   0.000000   0.000000   0.000001  -0.000000  -0.000000
    30  H   -0.015491   0.000000   0.000000   0.000000  -0.000000   0.000003
    31  H    0.004630   0.000000   0.000000   0.000000  -0.000000   0.000001
    32  H   -0.000000  -0.000001   0.000000   0.000002   0.000000   0.000001
    33  H   -0.050393   0.000000   0.000000   0.000000   0.000000  -0.000000
    34  H    0.000000   0.371780   0.007716  -0.031722  -0.046650   0.008132
    35  H   -0.011096   0.000000   0.000000   0.000000  -0.000000  -0.000000
    36  H   -0.000000  -0.020974   0.399407   0.006651  -0.007460  -0.019414
              25         26         27         28         29         30
     1  C    0.000038   0.000139  -0.005714  -0.001941   0.001030   0.000711
     2  C    0.000001   0.000023  -0.000061  -0.000040   0.000033   0.000006
     3  C   -0.000017  -0.000211   0.001964   0.000083  -0.011095  -0.002807
     4  C    0.000142   0.000551   0.000542   0.000871  -0.018885   0.021836
     5  H   -0.000000  -0.000001   0.000003  -0.000004  -0.000005  -0.000218
     6  C   -0.000934  -0.000861  -0.030570  -0.005546   0.025909  -0.004612
     7  C    0.002355   0.018941  -0.114920  -0.033684  -0.003614   0.000479
     8  H   -0.000113  -0.000224   0.008519   0.000184   0.001754  -0.004727
     9  C    0.000560  -0.005542   0.059846   0.026720   0.000106  -0.000361
    10  C    0.012726  -0.022351   0.415462  -0.019438   0.000019   0.000058
    11  H   -0.000127  -0.001706   0.003026   0.001943  -0.000001  -0.000001
    12  C    0.000001   0.000002  -0.000067   0.000021  -0.020840  -0.027261
    13  O    0.000000   0.000001   0.000001   0.000000  -0.000000   0.000000
    14  C    0.000000  -0.000000  -0.000004   0.000000  -0.037911  -0.002185
    15  C    0.000000   0.000000   0.000005   0.000000  -0.005271  -0.022874
    16  N    0.000000   0.000000   0.000003   0.000000   0.344663   0.008467
    17  H    0.000000   0.000000   0.000000  -0.000000  -0.009819  -0.000337
    18  N    0.000000   0.000000  -0.000239   0.000002  -0.006660   0.340193
    19  H   -0.000000   0.000000  -0.000001  -0.000000   0.000362  -0.015491
    20  C   -0.053120  -0.023883  -0.019836  -0.005563   0.000000   0.000000
    21  C    0.371716  -0.004191   0.026045  -0.034870   0.000000   0.000000
    22  N   -0.000708   0.337470  -0.071457  -0.005362   0.000001   0.000000
    23  H    0.011751   0.008530  -0.001614   0.001887  -0.000000  -0.000000
    24  N   -0.039341   0.007531  -0.055194   0.355665  -0.000000   0.000003
    25  H    0.626752   0.001710   0.003089   0.008731  -0.000000  -0.000000
    26  H    0.001710   0.492960  -0.011942  -0.000511   0.000000  -0.000000
    27  H    0.003089  -0.011942   0.680016   0.010153  -0.000007  -0.000001
    28  H    0.008731  -0.000511   0.010153   0.494257  -0.000000  -0.000000
    29  H   -0.000000   0.000000  -0.000007  -0.000000   0.503801  -0.000505
    30  H   -0.000000  -0.000000  -0.000001  -0.000000  -0.000505   0.489426
    31  H   -0.000000   0.000000  -0.000008  -0.000001   0.011823  -0.011020
    32  H    0.000000   0.000000   0.000000   0.000000   0.000004   0.000000
    33  H   -0.000000  -0.000000   0.000015  -0.000000   0.001486   0.007925
    34  H   -0.009513  -0.014981   0.003441   0.000157   0.000000  -0.000000
    35  H   -0.000000   0.000000   0.000000  -0.000000   0.009097   0.001337
    36  H   -0.027940  -0.000312  -0.000629  -0.009931   0.000000   0.000000
              31         32         33         34         35         36
     1  C   -0.001999  -0.238896   0.000167  -0.000048   0.000206   0.000086
     2  C    0.000099   0.498123   0.000000  -0.000004   0.000002   0.000000
     3  C   -0.025080   0.002672  -0.000906   0.000009  -0.001666  -0.000008
     4  C   -0.108867  -0.005712   0.006129  -0.000013   0.004521   0.000005
     5  H    0.005885   0.009060  -0.000047   0.000000  -0.000346  -0.000000
     6  C    0.060601   0.002888  -0.000015  -0.000168   0.000131   0.000047
     7  C   -0.008282  -0.004669   0.000429  -0.004947   0.000034   0.001105
     8  H    0.004875   0.000008  -0.004743   0.000014  -0.000175  -0.000001
     9  C    0.002339   0.046672  -0.000112   0.001736  -0.000030  -0.000234
    10  C   -0.000049  -0.000090   0.000047   0.005499   0.000001   0.001565
    11  H    0.000011   0.003320  -0.000000   0.000683  -0.000000  -0.000106
    12  C    0.426339  -0.000782   0.016549   0.000000   0.011258   0.000000
    13  O   -0.000000  -0.059922   0.000000  -0.000000   0.000000  -0.000000
    14  C    0.020510  -0.000002  -0.065167   0.000000   0.373317  -0.000000
    15  C   -0.016459   0.000000   0.416138   0.000000  -0.052400  -0.000000
    16  N   -0.067393  -0.000025   0.006210   0.000000  -0.038567  -0.000000
    17  H   -0.000389  -0.000000  -0.009082  -0.000000  -0.028262  -0.000000
    18  N   -0.076190  -0.000002  -0.072844  -0.000000  -0.001973  -0.000000
    19  H    0.004630  -0.000000  -0.050393   0.000000  -0.011096  -0.000000
    20  C    0.000000  -0.000001   0.000000   0.371780   0.000000  -0.020974
    21  C    0.000000   0.000000   0.000000   0.007716   0.000000   0.399407
    22  N    0.000000   0.000002   0.000000  -0.031722   0.000000   0.006651
    23  H   -0.000000   0.000000   0.000000  -0.046650  -0.000000  -0.007460
    24  N    0.000001   0.000001  -0.000000   0.008132  -0.000000  -0.019414
    25  H   -0.000000   0.000000  -0.000000  -0.009513  -0.000000  -0.027940
    26  H    0.000000   0.000000  -0.000000  -0.014981   0.000000  -0.000312
    27  H   -0.000008   0.000000   0.000015   0.003441   0.000000  -0.000629
    28  H   -0.000001   0.000000  -0.000000   0.000157  -0.000000  -0.009931
    29  H    0.011823   0.000004   0.001486   0.000000   0.009097   0.000000
    30  H   -0.011020   0.000000   0.007925  -0.000000   0.001337   0.000000
    31  H    0.678163   0.000059  -0.001584  -0.000000   0.003263  -0.000000
    32  H    0.000059   0.654710   0.000000  -0.000000   0.000001  -0.000000
    33  H   -0.001584   0.000000   0.649472   0.000000   0.011356   0.000000
    34  H   -0.000000  -0.000000   0.000000   0.587093  -0.000000   0.002053
    35  H    0.003263   0.000001   0.011356  -0.000000   0.624226   0.000000
    36  H   -0.000000  -0.000000   0.000000   0.002053   0.000000   0.538394
 Mulliken charges:
               1
     1  C    0.246776
     2  C    0.066876
     3  C   -0.340062
     4  C    0.251023
     5  H    0.128053
     6  C   -0.378535
     7  C    0.371158
     8  H    0.120341
     9  C   -0.334675
    10  C   -0.113310
    11  H    0.132771
    12  C   -0.072058
    13  O   -0.334124
    14  C   -0.135783
    15  C   -0.133172
    16  N   -0.313812
    17  H    0.139358
    18  N   -0.313206
    19  H    0.114093
    20  C   -0.134374
    21  C   -0.125855
    22  N   -0.316836
    23  H    0.087613
    24  N   -0.309659
    25  H    0.092242
    26  H    0.218856
    27  H    0.100136
    28  H    0.216216
    29  H    0.214523
    30  H    0.221959
    31  H    0.098722
    32  H    0.092582
    33  H    0.088969
    34  H    0.119732
    35  H    0.095767
    36  H    0.137697
 Sum of Mulliken charges =   0.00000
 Mulliken charges with hydrogens summed into heavy atoms:
               1
     1  C    0.246776
     2  C    0.159457
     3  C   -0.212009
     4  C    0.251023
     6  C   -0.258195
     7  C    0.371158
     9  C   -0.201904
    10  C   -0.013175
    12  C    0.026664
    13  O   -0.334124
    14  C    0.099342
    15  C    0.069889
    16  N   -0.099289
    18  N   -0.091247
    20  C    0.072971
    21  C    0.104083
    22  N   -0.097980
    24  N   -0.093443
 Electronic spatial extent (au):  <R**2>=           5825.7009
 Charge=              0.0000 electrons
 Dipole moment (field-independent basis, Debye):
    X=             -3.0693    Y=             -4.5906    Z=             -0.0020  Tot=              5.5221
 Quadrupole moment (field-independent basis, Debye-Ang):
   XX=            -91.9877   YY=           -118.1816   ZZ=           -102.3418
   XY=            -10.6311   XZ=              3.9275   YZ=             -7.1738
 Traceless Quadrupole moment (field-independent basis, Debye-Ang):
   XX=             12.1827   YY=            -14.0112   ZZ=              1.8286
   XY=            -10.6311   XZ=              3.9275   YZ=             -7.1738
 Octapole moment (field-independent basis, Debye-Ang**2):
  XXX=            -11.0972  YYY=            -51.2760  ZZZ=              7.5518  XYY=            -43.2181
  XXY=            -76.7438  XXZ=            -14.7986  XZZ=             -6.4882  YZZ=             -7.8720
  YYZ=              5.5968  XYZ=             -8.1414
 Hexadecapole moment (field-independent basis, Debye-Ang**3):
 XXXX=          -4841.6933 YYYY=          -2333.3506 ZZZZ=           -335.7428 XXXY=             -7.1147
 XXXZ=             20.2746 YYYX=           -212.9647 YYYZ=            -33.1269 ZZZX=             19.4791
 ZZZY=            -14.7460 XXYY=          -1297.3103 XXZZ=           -860.7535 YYZZ=           -409.1219
 XXYZ=            -41.6447 YYXZ=             43.6479 ZZXY=             18.0432
 N-N= 1.303029021192D+03 E-N=-4.469626633448D+03  KE= 7.961142284278D+02
 No NMR shielding tensors so no spin-rotation constants.
 Leave Link  601 at Mon Oct 18 06:04:56 2021, MaxMem=  7864320000 cpu:              15.5 elap:               0.6
 (Enter /apps/gaussian/g16-c01-avx/g16/l9999.exe)
 Unable to Open any file for archive entry.
 1\1\GINC-CX3-5-0\SP\RPBE1PBE\def2TZVP\C13H18N4O1\ROOT\18-Oct-2021\0\\#
 P PBE1PBE/Def2TZVP SP SCF=(YQC,MaxCycle=900) int=(Grid=Superfinegrid) 
 EmpiricalDispersion=GD3 SCRF=(PCM,Solvent=Dichloromethane)\\_1_alde1_2
 _ami4_1_opt_dcm\\0,1\C,0,-1.2081,1.2297,-0.1228\C,0,-1.0556,0.6211,1.2
 033\C,0,-2.4766,1.4984,-0.6334\C,0,-2.6146,2.0807,-1.883\H,0,-3.356,1.
 2484,-0.0576\C,0,-1.4808,2.3881,-2.6243\C,0,-0.2111,2.1285,-2.1253\H,0
 ,-1.6062,2.843,-3.5951\C,0,-0.0782,1.5507,-0.8741\C,0,1.0191,2.5068,-2
 .9094\H,0,0.9004,1.3279,-0.4768\C,0,-3.9923,2.3251,-2.4453\O,0,-0.0081
 ,0.3869,1.7505\C,0,-5.5878,1.5264,-3.8781\C,0,-4.9697,2.7665,-4.557\N,
 0,-4.5833,1.085,-2.9242\H,0,-5.8459,0.7335,-4.5769\N,0,-3.9713,3.2368,
 -3.5993\H,0,-5.7208,3.5229,-4.7941\C,0,3.3462,2.2493,-2.5312\C,0,2.962
 3,3.7196,-2.7884\N,0,2.0961,1.5176,-2.7197\H,0,3.6755,2.1176,-1.4934\N
 ,0,1.5473,3.7867,-2.4604\H,0,3.0732,3.9609,-3.8504\H,0,2.1383,0.8664,-
 3.4915\H,0,0.7566,2.6157,-3.9762\H,0,1.4349,3.8507,-1.4519\H,0,-3.8667
 ,0.5472,-3.4049\H,0,-4.116,4.1968,-3.3175\H,0,-4.6488,2.7062,-1.6406\H
 ,0,-2.0206,0.383,1.6956\H,0,-4.4578,2.4838,-5.4847\H,0,4.1404,1.9011,-
 3.1931\H,0,-6.4823,1.8097,-3.3146\H,0,3.5392,4.4302,-2.2002\\Version=E
 S64L-G16RevC.01\State=1-A\HF=-799.8150707\RMSD=3.413e-09\Dipole=-0.872
 2292,0.7766126,-1.8319851\Quadrupole=11.9694674,-5.3188851,-6.6505823,
 -0.0618327,-5.3018281,7.7226371\PG=C01 [X(C13H18N4O1)]\\@
 The archive entry for this job was punched.



 IN THIS SHORT LIFE

 THAT ONLY LASTS AN HOUR

 HOW MUCH, HOW LITTLE, IS WITHIN OUR POWER....


 EMILY DICKINSON BOLTS OF MELODY NO. 521
 Job cpu time:       0 days  5 hours 28 minutes 24.6 seconds.
 Elapsed time:       0 days  0 hours 10 minutes 25.9 seconds.
 File lengths (MBytes):  RWF=    896 Int=      0 D2E=      0 Chk=     40 Scr=     16
 Normal termination of Gaussian 16 at Mon Oct 18 06:04:56 2021.
